                         Program Version 6.0.1  -  RELEASE   -
|  1> ! r2scan-3c def2/J RI DEFGRID2 scfconv6 printgap
|  2> %output
|  3>     printlevel normal
|  4> end
|  5> * xyz 0 1
|  6> C 5.53601692 -1.8941278453 -1.4510303901
|  7> C 4.6930442042 -0.7952459856 -0.824397561
|  8> O 3.3952201855 -1.2875662016 -0.4371892773
|  9> C 2.4584328265 -1.3699043115 -1.3629552561
| 10> O 2.6061281869 -1.0764492938 -2.5265413593
| 11> C 1.149130807 -1.8712432654 -0.7746477741
| 12> C 0.1566189577 -0.7034286505 -0.7561511766
| 13> H -0.0216230205 -0.3499487226 -1.7755886253
| 14> C 0.7825688023 0.4261785907 0.040121491
| 15> O 1.6737533711 1.1051985188 -0.4168193357
| 16> O 0.3155668334 0.5100522214 1.2671668122
| 17> C 0.9263123488 1.461299893 2.1621050788
| 18> C 2.0838936176 0.8136127467 2.9025628606
| 19> S -1.4163210266 -1.266258495 -0.0317621172
| 20> P -2.3311325798 0.6292810291 0.2498221484
| 21> S -1.621994611 2.1028232255 -0.8333536625
| 22> O -3.8755838371 0.3001592258 -0.0068109233
| 23> C -4.3641184883 -0.0233429868 -1.3134766698
| 24> O -2.366144654 0.9540215992 1.7929239356
| 25> C -2.8844150984 0.0120606555 2.7576206234
| 26> H 5.0812281201 -2.2289744455 -2.3802451044
| 27> H 6.5263747437 -1.505608713 -1.6636195981
| 28> H 5.6183589547 -2.736670013 -0.7699972495
| 29> H 4.5494498967 0.0366558548 -1.519976461
| 30> H 5.1344488827 -0.4359792626 0.1054439032
| 31> H 1.3193912954 -2.2404411967 0.2362960382
| 32> H 0.7517398473 -2.6664975362 -1.4053912089
| 33> H 1.2599406824 2.3201896754 1.5727497074
| 34> H 0.1236614164 1.759716456 2.8369732074
| 35> H 2.8464797625 0.497705803 2.1936246281
| 36> H 2.5153568776 1.5347077425 3.588546505
| 37> H 1.7366431544 -0.0515176241 3.4601334927
| 38> H -4.0039753919 0.7057421935 -2.0410448524
| 39> H -5.4477234098 0.0189984464 -1.2392603698
| 40> H -4.0361446917 -1.0241489486 -1.5938368573
| 41> H -2.3576710829 -0.9376777422 2.666575349
| 42> H -3.9502714972 -0.1332203835 2.5954842033
| 43> H -2.6991249159 0.4672896444 3.7268575288
| 44> *
| 45>
| 46>                          ****END OF INPUT****

CARTESIAN COORDINATES (ANGSTROEM)
---------------------------------
  C      5.536017   -1.894128   -1.451030
  C      4.693044   -0.795246   -0.824398
  O      3.395220   -1.287566   -0.437189
  C      2.458433   -1.369904   -1.362955
  O      2.606128   -1.076449   -2.526541
  C      1.149131   -1.871243   -0.774648
  C      0.156619   -0.703429   -0.756151
  H     -0.021623   -0.349949   -1.775589
  C      0.782569    0.426179    0.040121
  O      1.673753    1.105199   -0.416819
  O      0.315567    0.510052    1.267167
  C      0.926312    1.461300    2.162105
  C      2.083894    0.813613    2.902563
  S     -1.416321   -1.266258   -0.031762
  P     -2.331133    0.629281    0.249822
  S     -1.621995    2.102823   -0.833354
  O     -3.875584    0.300159   -0.006811
  C     -4.364118   -0.023343   -1.313477
  O     -2.366145    0.954022    1.792924
  C     -2.884415    0.012061    2.757621
  H      5.081228   -2.228974   -2.380245
  H      6.526375   -1.505609   -1.663620
  H      5.618359   -2.736670   -0.769997
  H      4.549450    0.036656   -1.519976
  H      5.134449   -0.435979    0.105444
  H      1.319391   -2.240441    0.236296
  H      0.751740   -2.666498   -1.405391
  H      1.259941    2.320190    1.572750
  H      0.123661    1.759716    2.836973
  H      2.846480    0.497706    2.193625
  H      2.515357    1.534708    3.588547
  H      1.736643   -0.051518    3.460133
  H     -4.003975    0.705742   -2.041045
  H     -5.447723    0.018998   -1.239260
  H     -4.036145   -1.024149   -1.593837
  H     -2.357671   -0.937678    2.666575
  H     -3.950271   -0.133220    2.595484
  H     -2.699125    0.467290    3.726858

 Total Charge           Charge          ....    0
 Multiplicity           Mult            ....    1
 Number of Electrons    NEL             ....  174
 Basis Dimension        Dim             ....  510

ORBITAL ENERGIES
----------------

  NO   OCC          E(Eh)            E(eV)
   0   2.0000     -88.577725     -2410.3224
   1   2.0000     -88.519803     -2408.7463
   2   2.0000     -76.916465     -2093.0034
   3   2.0000     -19.003698      -517.1169
   4   2.0000     -18.999242      -516.9957
   5   2.0000     -18.998456      -516.9743
   6   2.0000     -18.994659      -516.8709
   7   2.0000     -18.933925      -515.2183
   8   2.0000     -18.929333      -515.0933
   9   2.0000     -10.162704      -276.5412
  10   2.0000     -10.158030      -276.4140
  11   2.0000     -10.102638      -274.9068
  12   2.0000     -10.098002      -274.7806
  13   2.0000     -10.093987      -274.6714
  14   2.0000     -10.092818      -274.6395
  15   2.0000     -10.090048      -274.5642
  16   2.0000     -10.064992      -273.8823
  17   2.0000     -10.032433      -272.9964
  18   2.0000     -10.027226      -272.8547
  19   2.0000      -7.872175      -214.2128
  20   2.0000      -7.814277      -212.6373
  21   2.0000      -6.594780      -179.4531
  22   2.0000      -5.818974      -158.3423
  23   2.0000      -5.815995      -158.2613
  24   2.0000      -5.809382      -158.0813
  25   2.0000      -5.762194      -156.7973
  26   2.0000      -5.754390      -156.5849
  27   2.0000      -5.754241      -156.5808
  28   2.0000      -4.740495      -128.9954
  29   2.0000      -4.739878      -128.9786
  30   2.0000      -4.738197      -128.9329
  31   2.0000      -1.083043       -29.4711
  32   2.0000      -1.074548       -29.2399
  33   2.0000      -1.054814       -28.7030
  34   2.0000      -1.012643       -27.5554
  35   2.0000      -0.985348       -26.8127
  36   2.0000      -0.979353       -26.6496
  37   2.0000      -0.814696       -22.1690
  38   2.0000      -0.754544       -20.5322
  39   2.0000      -0.742933       -20.2162
  40   2.0000      -0.734150       -19.9772
  41   2.0000      -0.700037       -19.0490
  42   2.0000      -0.680039       -18.5048
  43   2.0000      -0.659500       -17.9459
  44   2.0000      -0.650527       -17.7017
  45   2.0000      -0.630171       -17.1478
  46   2.0000      -0.600593       -16.3430
  47   2.0000      -0.545397       -14.8410
  48   2.0000      -0.528699       -14.3866
  49   2.0000      -0.524991       -14.2857
  50   2.0000      -0.499315       -13.5870
  51   2.0000      -0.495679       -13.4881
  52   2.0000      -0.483770       -13.1641
  53   2.0000      -0.469335       -12.7713
  54   2.0000      -0.458560       -12.4781
  55   2.0000      -0.455047       -12.3825
  56   2.0000      -0.445647       -12.1267
  57   2.0000      -0.443427       -12.0663
  58   2.0000      -0.436973       -11.8906
  59   2.0000      -0.426511       -11.6060
  60   2.0000      -0.423007       -11.5106
  61   2.0000      -0.419702       -11.4207
  62   2.0000      -0.414646       -11.2831
  63   2.0000      -0.402664       -10.9571
  64   2.0000      -0.396152       -10.7798
  65   2.0000      -0.383903       -10.4465
  66   2.0000      -0.374387       -10.1876
  67   2.0000      -0.368695       -10.0327
  68   2.0000      -0.361879        -9.8472
  69   2.0000      -0.351183        -9.5562
  70   2.0000      -0.348081        -9.4718
  71   2.0000      -0.345859        -9.4113
  72   2.0000      -0.338832        -9.2201
  73   2.0000      -0.334378        -9.0989
  74   2.0000      -0.326266        -8.8781
  75   2.0000      -0.320423        -8.7191
  76   2.0000      -0.313033        -8.5181
  77   2.0000      -0.307736        -8.3739
  78   2.0000      -0.292965        -7.9720
  79   2.0000      -0.281594        -7.6626
  80   2.0000      -0.277159        -7.5419
  81   2.0000      -0.271172        -7.3790
  82   2.0000      -0.253743        -6.9047
  83   2.0000      -0.239378        -6.5138
  84   2.0000      -0.229885        -6.2555
  85   2.0000      -0.217535        -5.9194
  86   2.0000      -0.216401        -5.8886
  87   0.0000      -0.044599        -1.2136
  88   0.0000      -0.028302        -0.7701
  89   0.0000      -0.019904        -0.5416
  90   0.0000       0.007839         0.2133
  91   0.0000       0.016505         0.4491

MULLIKEN ATOMIC CHARGES
-----------------------
   0 C :   -0.476493
   1 C :   -0.136959
   2 O :   -0.159056
   3 C :    0.311850
   4 O :   -0.389894
   5 C :   -0.357664
   6 C :   -0.053538
   7 H :    0.253435
   8 C :    0.282266
   9 O :   -0.373960
  10 O :   -0.137796
  11 C :   -0.154482
  12 C :   -0.468173
  13 S :   -0.210339
  14 P :    0.761397
  15 S :   -0.408672
  16 O :   -0.357918
  17 C :   -0.295156
  18 O :   -0.308882
  19 C :   -0.290157
  20 H :    0.178883
  21 H :    0.148352
  22 H :    0.149527
  23 H :    0.179792
  24 H :    0.147156
  25 H :    0.188964
  26 H :    0.178955
  27 H :    0.182674
  28 H :    0.160599
  29 H :    0.169438
  30 H :    0.150722
  31 H :    0.151253
  32 H :    0.175981
  33 H :    0.152503
  34 H :    0.158711
  35 H :    0.170573
  36 H :    0.170178
  37 H :    0.155929
Sum of atomic charges:   -0.0000000

LOEWDIN ATOMIC CHARGES
----------------------
   0 C :   -0.390384
   1 C :    0.030139
   2 O :   -0.585768
   3 C :    0.351966
   4 O :   -0.411184
   5 C :   -0.202008
   6 C :   -0.193319
   7 H :    0.209920
   8 C :    0.327617
   9 O :   -0.405963
  10 O :   -0.623229
  11 C :    0.035545
  12 C :   -0.386822
  13 S :    0.188897
  14 P :    0.398026
  15 S :   -0.044859
  16 O :   -0.683133
  17 C :   -0.058285
  18 O :   -0.649798
  19 C :   -0.051619
  20 H :    0.167644
  21 H :    0.159717
  22 H :    0.156299
  23 H :    0.192660
  24 H :    0.178487
  25 H :    0.188312
  26 H :    0.187100
  27 H :    0.195870
  28 H :    0.183101
  29 H :    0.165819
  30 H :    0.159860
  31 H :    0.156630
  32 H :    0.177423
  33 H :    0.177471
  34 H :    0.169352
  35 H :    0.174053
  36 H :    0.175017
  37 H :    0.179447

  Mayer bond orders larger than 0.100000
B(  0-C ,  1-C ) :   0.9253 B(  0-C , 20-H ) :   0.9714 B(  0-C , 21-H ) :   0.9651
B(  0-C , 22-H ) :   0.9724 B(  1-C ,  2-O ) :   0.8198 B(  1-C , 23-H ) :   0.9717
B(  1-C , 24-H ) :   0.9613 B(  2-O ,  3-C ) :   1.0496 B(  3-C ,  4-O ) :   1.8546
B(  3-C ,  5-C ) :   0.8718 B(  5-C ,  6-C ) :   0.8704 B(  5-C , 25-H ) :   1.0099
B(  5-C , 26-H ) :   0.9363 B(  6-C ,  7-H ) :   0.9532 B(  6-C ,  8-C ) :   0.9113
B(  6-C , 13-S ) :   0.8710 B(  8-C ,  9-O ) :   1.8178 B(  8-C , 10-O ) :   1.0713
B( 10-O , 11-C ) :   0.7868 B( 11-C , 12-C ) :   0.9206 B( 11-C , 27-H ) :   0.9662
B( 11-C , 28-H ) :   0.9586 B( 12-C , 29-H ) :   0.9707 B( 12-C , 30-H ) :   0.9677
B( 12-C , 31-H ) :   0.9761 B( 13-S , 14-P ) :   0.9991 B( 14-P , 15-S ) :   1.7979
B( 14-P , 16-O ) :   1.0251 B( 14-P , 18-O ) :   1.1461 B( 16-O , 17-C ) :   0.8307
B( 17-C , 32-H ) :   0.9590 B( 17-C , 33-H ) :   0.9674 B( 17-C , 34-H ) :   0.9562
B( 18-O , 19-C ) :   0.7945 B( 19-C , 35-H ) :   0.9560 B( 19-C , 36-H ) :   0.9605
B( 19-C , 37-H ) :   0.9653

Dispersion correction           -0.017622582
FINAL SINGLE POINT ENERGY     -1981.450872209663

DIPOLE MOMENT
-------------

Method             : SCF
Type of density    : Electron Density
Multiplicity       :   1
Irrep              :   0
Energy             : -1981.4703437514995130 Eh
Relativity type    :
Basis              : AO
                                X                 Y                 Z
Electronic contribution:    -16.542588838       5.841867938      -6.148998560
Nuclear contribution   :     16.219154120      -7.117751758       7.859365294
                        -----------------------------------------
Total Dipole Moment    :     -0.323434718      -1.275883819       1.710366734
                        -----------------------------------------
Magnitude (a.u.)       :      2.158203861
Magnitude (Debye)      :      5.485718256

Rotational constants in cm-1:             0.017655             0.005908             0.005289
Rotational constants in MHz :           529.277524           177.125122           158.564537

                             ****ORCA TERMINATED NORMALLY****
TOTAL RUN TIME: 0 days 0 hours 1 minutes 19 seconds 726 msec
