                         Program Version 6.0.1  -  RELEASE   -
|  1> ! r2scan-3c def2/J RI DEFGRID2 scfconv6 printgap
|  2> %output
|  3>     printlevel normal
|  4> end
|  5> %cpcm
|  6>     smd true
|  7>     smdsolvent "water"
|  8> end
|  9> * xyz 0 1
| 10> C 5.53601692 -1.8941278453 -1.4510303901
| 11> C 4.6930442042 -0.7952459856 -0.824397561
| 12> O 3.3952201855 -1.2875662016 -0.4371892773
| 13> C 2.4584328265 -1.3699043115 -1.3629552561
| 14> O 2.6061281869 -1.0764492938 -2.5265413593
| 15> C 1.149130807 -1.8712432654 -0.7746477741
| 16> C 0.1566189577 -0.7034286505 -0.7561511766
| 17> H -0.0216230205 -0.3499487226 -1.7755886253
| 18> C 0.7825688023 0.4261785907 0.040121491
| 19> O 1.6737533711 1.1051985188 -0.4168193357
| 20> O 0.3155668334 0.5100522214 1.2671668122
| 21> C 0.9263123488 1.461299893 2.1621050788
| 22> C 2.0838936176 0.8136127467 2.9025628606
| 23> S -1.4163210266 -1.266258495 -0.0317621172
| 24> P -2.3311325798 0.6292810291 0.2498221484
| 25> S -1.621994611 2.1028232255 -0.8333536625
| 26> O -3.8755838371 0.3001592258 -0.0068109233
| 27> C -4.3641184883 -0.0233429868 -1.3134766698
| 28> O -2.366144654 0.9540215992 1.7929239356
| 29> C -2.8844150984 0.0120606555 2.7576206234
| 30> H 5.0812281201 -2.2289744455 -2.3802451044
| 31> H 6.5263747437 -1.505608713 -1.6636195981
| 32> H 5.6183589547 -2.736670013 -0.7699972495
| 33> H 4.5494498967 0.0366558548 -1.519976461
| 34> H 5.1344488827 -0.4359792626 0.1054439032
| 35> H 1.3193912954 -2.2404411967 0.2362960382
| 36> H 0.7517398473 -2.6664975362 -1.4053912089
| 37> H 1.2599406824 2.3201896754 1.5727497074
| 38> H 0.1236614164 1.759716456 2.8369732074
| 39> H 2.8464797625 0.497705803 2.1936246281
| 40> H 2.5153568776 1.5347077425 3.588546505
| 41> H 1.7366431544 -0.0515176241 3.4601334927
| 42> H -4.0039753919 0.7057421935 -2.0410448524
| 43> H -5.4477234098 0.0189984464 -1.2392603698
| 44> H -4.0361446917 -1.0241489486 -1.5938368573
| 45> H -2.3576710829 -0.9376777422 2.666575349
| 46> H -3.9502714972 -0.1332203835 2.5954842033
| 47> H -2.6991249159 0.4672896444 3.7268575288
| 48> *
| 49>
| 50>                          ****END OF INPUT****

CARTESIAN COORDINATES (ANGSTROEM)
---------------------------------
  C      5.536017   -1.894128   -1.451030
  C      4.693044   -0.795246   -0.824398
  O      3.395220   -1.287566   -0.437189
  C      2.458433   -1.369904   -1.362955
  O      2.606128   -1.076449   -2.526541
  C      1.149131   -1.871243   -0.774648
  C      0.156619   -0.703429   -0.756151
  H     -0.021623   -0.349949   -1.775589
  C      0.782569    0.426179    0.040121
  O      1.673753    1.105199   -0.416819
  O      0.315567    0.510052    1.267167
  C      0.926312    1.461300    2.162105
  C      2.083894    0.813613    2.902563
  S     -1.416321   -1.266258   -0.031762
  P     -2.331133    0.629281    0.249822
  S     -1.621995    2.102823   -0.833354
  O     -3.875584    0.300159   -0.006811
  C     -4.364118   -0.023343   -1.313477
  O     -2.366145    0.954022    1.792924
  C     -2.884415    0.012061    2.757621
  H      5.081228   -2.228974   -2.380245
  H      6.526375   -1.505609   -1.663620
  H      5.618359   -2.736670   -0.769997
  H      4.549450    0.036656   -1.519976
  H      5.134449   -0.435979    0.105444
  H      1.319391   -2.240441    0.236296
  H      0.751740   -2.666498   -1.405391
  H      1.259941    2.320190    1.572750
  H      0.123661    1.759716    2.836973
  H      2.846480    0.497706    2.193625
  H      2.515357    1.534708    3.588547
  H      1.736643   -0.051518    3.460133
  H     -4.003975    0.705742   -2.041045
  H     -5.447723    0.018998   -1.239260
  H     -4.036145   -1.024149   -1.593837
  H     -2.357671   -0.937678    2.666575
  H     -3.950271   -0.133220    2.595484
  H     -2.699125    0.467290    3.726858

 Total Charge           Charge          ....    0
 Multiplicity           Mult            ....    1
 Number of Electrons    NEL             ....  174
 Basis Dimension        Dim             ....  510

ORBITAL ENERGIES
----------------

  NO   OCC          E(Eh)            E(eV)
   0   2.0000     -88.581241     -2410.4181
   1   2.0000     -88.531760     -2409.0717
   2   2.0000     -76.922765     -2093.1749
   3   2.0000     -19.011721      -517.3352
   4   2.0000     -19.008803      -517.2558
   5   2.0000     -18.999289      -516.9969
   6   2.0000     -18.996243      -516.9141
   7   2.0000     -18.952991      -515.7371
   8   2.0000     -18.949234      -515.6349
   9   2.0000     -10.177505      -276.9440
  10   2.0000     -10.172892      -276.8185
  11   2.0000     -10.101921      -274.8872
  12   2.0000     -10.087509      -274.4951
  13   2.0000     -10.086143      -274.4579
  14   2.0000     -10.085909      -274.4515
  15   2.0000     -10.082473      -274.3580
  16   2.0000     -10.062128      -273.8044
  17   2.0000     -10.020585      -272.6740
  18   2.0000     -10.019145      -272.6348
  19   2.0000      -7.875581      -214.3054
  20   2.0000      -7.826680      -212.9748
  21   2.0000      -6.601136      -179.6260
  22   2.0000      -5.822461      -158.4372
  23   2.0000      -5.819466      -158.3557
  24   2.0000      -5.812650      -158.1702
  25   2.0000      -5.774435      -157.1304
  26   2.0000      -5.766863      -156.9243
  27   2.0000      -5.766648      -156.9185
  28   2.0000      -4.746776      -129.1663
  29   2.0000      -4.746181      -129.1501
  30   2.0000      -4.744732      -129.1107
  31   2.0000      -1.093402       -29.7530
  32   2.0000      -1.086006       -29.5517
  33   2.0000      -1.055737       -28.7281
  34   2.0000      -1.012830       -27.5605
  35   2.0000      -1.002135       -27.2695
  36   2.0000      -0.997218       -27.1357
  37   2.0000      -0.817908       -22.2564
  38   2.0000      -0.754424       -20.5289
  39   2.0000      -0.739611       -20.1258
  40   2.0000      -0.732171       -19.9234
  41   2.0000      -0.697665       -18.9844
  42   2.0000      -0.671932       -18.2842
  43   2.0000      -0.661257       -17.9937
  44   2.0000      -0.651709       -17.7339
  45   2.0000      -0.628684       -17.1074
  46   2.0000      -0.599936       -16.3251
  47   2.0000      -0.543976       -14.8023
  48   2.0000      -0.527848       -14.3635
  49   2.0000      -0.526732       -14.3331
  50   2.0000      -0.499704       -13.5976
  51   2.0000      -0.494953       -13.4684
  52   2.0000      -0.488350       -13.2887
  53   2.0000      -0.472798       -12.8655
  54   2.0000      -0.462966       -12.5979
  55   2.0000      -0.458116       -12.4660
  56   2.0000      -0.454664       -12.3720
  57   2.0000      -0.449841       -12.2408
  58   2.0000      -0.432367       -11.7653
  59   2.0000      -0.428562       -11.6618
  60   2.0000      -0.419679       -11.4200
  61   2.0000      -0.415573       -11.3083
  62   2.0000      -0.412078       -11.2132
  63   2.0000      -0.403478       -10.9792
  64   2.0000      -0.394638       -10.7387
  65   2.0000      -0.381286       -10.3753
  66   2.0000      -0.375836       -10.2270
  67   2.0000      -0.363589        -9.8938
  68   2.0000      -0.360177        -9.8009
  69   2.0000      -0.355411        -9.6712
  70   2.0000      -0.347770        -9.4633
  71   2.0000      -0.347122        -9.4457
  72   2.0000      -0.339272        -9.2321
  73   2.0000      -0.334393        -9.0993
  74   2.0000      -0.323070        -8.7912
  75   2.0000      -0.319250        -8.6872
  76   2.0000      -0.310392        -8.4462
  77   2.0000      -0.308216        -8.3870
  78   2.0000      -0.293285        -7.9807
  79   2.0000      -0.285553        -7.7703
  80   2.0000      -0.283622        -7.7177
  81   2.0000      -0.281472        -7.6592
  82   2.0000      -0.266492        -7.2516
  83   2.0000      -0.258550        -7.0355
  84   2.0000      -0.240886        -6.5549
  85   2.0000      -0.230491        -6.2720
  86   2.0000      -0.228721        -6.2238
  87   0.0000      -0.050347        -1.3700
  88   0.0000      -0.041276        -1.1232
  89   0.0000      -0.029745        -0.8094
  90   0.0000       0.004002         0.1089
  91   0.0000       0.012333         0.3356

MULLIKEN ATOMIC CHARGES
-----------------------
   0 C :   -0.500777
   1 C :   -0.134904
   2 O :   -0.177161
   3 C :    0.330962
   4 O :   -0.467861
   5 C :   -0.359302
   6 C :   -0.080553
   7 H :    0.275074
   8 C :    0.305299
   9 O :   -0.445373
  10 O :   -0.146149
  11 C :   -0.147847
  12 C :   -0.497827
  13 S :   -0.192834
  14 P :    0.790150
  15 S :   -0.482359
  16 O :   -0.382485
  17 C :   -0.306378
  18 O :   -0.343175
  19 C :   -0.294634
  20 H :    0.172385
  21 H :    0.172280
  22 H :    0.167131
  23 H :    0.175300
  24 H :    0.178304
  25 H :    0.214919
  26 H :    0.215697
  27 H :    0.180162
  28 H :    0.182696
  29 H :    0.168934
  30 H :    0.174222
  31 H :    0.170155
  32 H :    0.177342
  33 H :    0.180656
  34 H :    0.176259
  35 H :    0.180741
  36 H :    0.186041
  37 H :    0.184907
Sum of atomic charges:   -0.0000000

LOEWDIN ATOMIC CHARGES
----------------------
   0 C :   -0.391071
   1 C :    0.033576
   2 O :   -0.585592
   3 C :    0.359470
   4 O :   -0.469904
   5 C :   -0.192381
   6 C :   -0.194019
   7 H :    0.212588
   8 C :    0.330332
   9 O :   -0.462066
  10 O :   -0.620678
  11 C :    0.039835
  12 C :   -0.386317
  13 S :    0.210139
  14 P :    0.402839
  15 S :   -0.098100
  16 O :   -0.690443
  17 C :   -0.053232
  18 O :   -0.666680
  19 C :   -0.041369
  20 H :    0.164076
  21 H :    0.168700
  22 H :    0.163053
  23 H :    0.190617
  24 H :    0.191426
  25 H :    0.200457
  26 H :    0.201722
  27 H :    0.194418
  28 H :    0.192792
  29 H :    0.164485
  30 H :    0.169167
  31 H :    0.163634
  32 H :    0.177865
  33 H :    0.189398
  34 H :    0.176781
  35 H :    0.179951
  36 H :    0.182482
  37 H :    0.192049

  Mayer bond orders larger than 0.100000
B(  0-C ,  1-C ) :   0.9295 B(  0-C , 20-H ) :   0.9692 B(  0-C , 21-H ) :   0.9595
B(  0-C , 22-H ) :   0.9685 B(  1-C ,  2-O ) :   0.7991 B(  1-C , 23-H ) :   0.9628
B(  1-C , 24-H ) :   0.9499 B(  2-O ,  3-C ) :   1.0654 B(  3-C ,  4-O ) :   1.7921
B(  3-C ,  5-C ) :   0.8763 B(  5-C ,  6-C ) :   0.8556 B(  5-C , 25-H ) :   0.9947
B(  5-C , 26-H ) :   0.9332 B(  6-C ,  7-H ) :   0.9557 B(  6-C ,  8-C ) :   0.8939
B(  6-C , 13-S ) :   0.8708 B(  8-C ,  9-O ) :   1.7655 B(  8-C , 10-O ) :   1.0987
B( 10-O , 11-C ) :   0.7686 B( 11-C , 12-C ) :   0.9248 B( 11-C , 27-H ) :   0.9568
B( 11-C , 28-H ) :   0.9481 B( 12-C , 29-H ) :   0.9673 B( 12-C , 30-H ) :   0.9611
B( 12-C , 31-H ) :   0.9723 B( 13-S , 14-P ) :   1.0161 B( 14-P , 15-S ) :   1.7553
B( 14-P , 16-O ) :   1.0366 B( 14-P , 18-O ) :   1.1565 B( 16-O , 17-C ) :   0.8222
B( 17-C , 32-H ) :   0.9553 B( 17-C , 33-H ) :   0.9571 B( 17-C , 34-H ) :   0.9499
B( 18-O , 19-C ) :   0.7855 B( 19-C , 35-H ) :   0.9474 B( 19-C , 36-H ) :   0.9517
B( 19-C , 37-H ) :   0.9540

Dispersion correction           -0.017622582
FINAL SINGLE POINT ENERGY     -1981.468276829234

DIPOLE MOMENT
-------------

Method             : SCF
Type of density    : Electron Density
Multiplicity       :   1
Irrep              :   0
Energy             : -1981.4877483710697561 Eh
Relativity type    :
Basis              : AO
                                X                 Y                 Z
Electronic contribution:    -16.784517277       4.978645731      -5.321916242
Nuclear contribution   :     16.219154120      -7.117751758       7.859365294
                        -----------------------------------------
Total Dipole Moment    :     -0.565363158      -2.139106027       2.537449052
                        -----------------------------------------
Magnitude (a.u.)       :      3.366609242
Magnitude (Debye)      :      8.557240637

Rotational constants in cm-1:             0.017655             0.005908             0.005289
Rotational constants in MHz :           529.277524           177.125122           158.564537

                             ****ORCA TERMINATED NORMALLY****
TOTAL RUN TIME: 0 days 0 hours 1 minutes 46 seconds 875 msec
