                         Program Version 6.0.0  -   RELEASE  -
|  1> ! r2scan-3c def2/J RI DEFGRID2 scfconv6 printgap
|  2> %output
|  3>     printlevel normal
|  4> end
|  5> * xyz 0 1
|  6> C 4.5459767596 -2.2057720538 0.5827506987
|  7> C 4.7337116173 -0.7130457581 0.4052671355
|  8> O 3.5359265371 0.0207468354 0.7168197217
|  9> P 2.2356709423 -0.0422360324 -0.2010328901
| 10> S 2.6439572472 -0.0865643525 -2.1231710503
| 11> O 1.4340446505 1.2146809379 0.3519270452
| 12> C 1.7609199259 2.5616630603 -0.0539818927
| 13> C 0.8079123541 3.0449868901 -1.1295888717
| 14> S 1.0877146362 -1.5880513563 0.6283705022
| 15> C -0.1104340588 -1.7953088939 -0.7295525109
| 16> S -0.803154124 -0.2487671028 -1.37455907
| 17> P -2.1265916531 0.2580207027 0.1916569648
| 18> S -3.1323481449 1.9235492066 -0.0260727785
| 19> O -1.1310845555 0.1959756041 1.4207180933
| 20> C -1.4152866838 0.8462692759 2.6739639865
| 21> C -2.5342305833 0.1557667659 3.4246249732
| 22> O -3.0144823673 -1.0477763658 0.4346137019
| 23> C -4.278189552 -1.2384764141 -0.2208351715
| 24> C -4.1155245268 -1.5175312704 -1.7017826079
| 25> H 3.8449668592 -2.5821503113 -0.1608861279
| 26> H 5.5004990751 -2.7053719183 0.4523253249
| 27> H 4.1552319671 -2.4223801209 1.5736964944
| 28> H 5.0218987898 -0.4812588323 -0.6252296424
| 29> H 5.4742537473 -0.3121938883 1.0985906841
| 30> H 1.6696152406 3.157286264 0.8560761611
| 31> H 2.7953318945 2.5896195222 -0.4084775862
| 32> H 0.9144555583 2.4416190163 -2.029138968
| 33> H -0.2219243697 2.9713569571 -0.7848204724
| 34> H 1.0289380844 4.0805022152 -1.3672188865
| 35> H -0.9040396881 -2.4274966635 -0.3384219681
| 36> H 0.3874999064 -2.2586044652 -1.5795255963
| 37> H -0.4683892745 0.7924979831 3.213593406
| 38> H -1.6702667609 1.8917733159 2.4717464142
| 39> H -2.3150853647 -0.903262371 3.5323946508
| 40> H -2.6387724832 0.6063504519 4.4066742629
| 41> H -3.470790476 0.27104465 2.8808818961
| 42> H -4.7240513867 -2.0847877113 0.303591388
| 43> H -4.8865390082 -0.3414096933 -0.0670250893
| 44> H -3.4696749987 -2.3768565152 -1.8624844188
| 45> H -5.0894182768 -1.7154909798 -2.1379258475
| 46> H -3.6774374111 -0.6512914316 -2.1972231518
| 47> *
| 48>
| 49>                          ****END OF INPUT****

CARTESIAN COORDINATES (ANGSTROEM)
---------------------------------
  C      4.545977   -2.205772    0.582751
  C      4.733712   -0.713046    0.405267
  O      3.535927    0.020747    0.716820
  P      2.235671   -0.042236   -0.201033
  S      2.643957   -0.086564   -2.123171
  O      1.434045    1.214681    0.351927
  C      1.760920    2.561663   -0.053982
  C      0.807912    3.044987   -1.129589
  S      1.087715   -1.588051    0.628371
  C     -0.110434   -1.795309   -0.729553
  S     -0.803154   -0.248767   -1.374559
  P     -2.126592    0.258021    0.191657
  S     -3.132348    1.923549   -0.026073
  O     -1.131085    0.195976    1.420718
  C     -1.415287    0.846269    2.673964
  C     -2.534231    0.155767    3.424625
  O     -3.014482   -1.047776    0.434614
  C     -4.278190   -1.238476   -0.220835
  C     -4.115525   -1.517531   -1.701783
  H      3.844967   -2.582150   -0.160886
  H      5.500499   -2.705372    0.452325
  H      4.155232   -2.422380    1.573696
  H      5.021899   -0.481259   -0.625230
  H      5.474254   -0.312194    1.098591
  H      1.669615    3.157286    0.856076
  H      2.795332    2.589620   -0.408478
  H      0.914456    2.441619   -2.029139
  H     -0.221924    2.971357   -0.784820
  H      1.028938    4.080502   -1.367219
  H     -0.904040   -2.427497   -0.338422
  H      0.387500   -2.258604   -1.579526
  H     -0.468389    0.792498    3.213593
  H     -1.670267    1.891773    2.471746
  H     -2.315085   -0.903262    3.532395
  H     -2.638772    0.606350    4.406674
  H     -3.470790    0.271045    2.880882
  H     -4.724051   -2.084788    0.303591
  H     -4.886539   -0.341410   -0.067025
  H     -3.469675   -2.376857   -1.862484
  H     -5.089418   -1.715491   -2.137926
  H     -3.677437   -0.651291   -2.197223

 Total Charge           Charge          ....    0
 Multiplicity           Mult            ....    1
 Number of Electrons    NEL             ....  202
 Basis Dimension        Dim             ....  539

ORBITAL ENERGIES
----------------

  NO   OCC          E(Eh)            E(eV)
   0   2.0000     -88.574585     -2410.2370
   1   2.0000     -88.574091     -2410.2236
   2   2.0000     -88.523337     -2408.8425
   3   2.0000     -88.518190     -2408.7024
   4   2.0000     -76.913243     -2092.9157
   5   2.0000     -76.912263     -2092.8891
   6   2.0000     -18.992136      -516.8023
   7   2.0000     -18.990156      -516.7484
   8   2.0000     -18.985426      -516.6197
   9   2.0000     -18.981157      -516.5035
  10   2.0000     -10.112720      -275.1811
  11   2.0000     -10.099648      -274.8254
  12   2.0000     -10.095999      -274.7261
  13   2.0000     -10.095894      -274.7233
  14   2.0000     -10.091633      -274.6073
  15   2.0000     -10.030407      -272.9413
  16   2.0000     -10.028579      -272.8915
  17   2.0000     -10.027796      -272.8702
  18   2.0000     -10.013528      -272.4820
  19   2.0000      -7.868875      -214.1230
  20   2.0000      -7.868843      -214.1221
  21   2.0000      -7.817958      -212.7374
  22   2.0000      -7.812904      -212.5999
  23   2.0000      -6.591733      -179.3702
  24   2.0000      -6.590500      -179.3366
  25   2.0000      -5.816268      -158.2687
  26   2.0000      -5.815908      -158.2589
  27   2.0000      -5.812778      -158.1737
  28   2.0000      -5.812351      -158.1621
  29   2.0000      -5.805720      -157.9817
  30   2.0000      -5.805681      -157.9806
  31   2.0000      -5.765563      -156.8889
  32   2.0000      -5.760548      -156.7525
  33   2.0000      -5.758326      -156.6920
  34   2.0000      -5.757942      -156.6816
  35   2.0000      -5.753355      -156.5567
  36   2.0000      -5.752770      -156.5408
  37   2.0000      -4.737005      -128.9005
  38   2.0000      -4.736825      -128.8955
  39   2.0000      -4.736051      -128.8745
  40   2.0000      -4.735540      -128.8606
  41   2.0000      -4.735367      -128.8559
  42   2.0000      -4.734306      -128.8270
  43   2.0000      -1.048817       -28.5398
  44   2.0000      -1.044701       -28.4277
  45   2.0000      -1.010077       -27.4856
  46   2.0000      -1.003803       -27.3149
  47   2.0000      -0.802608       -21.8401
  48   2.0000      -0.756564       -20.5872
  49   2.0000      -0.745217       -20.2784
  50   2.0000      -0.731593       -19.9077
  51   2.0000      -0.725130       -19.7318
  52   2.0000      -0.709591       -19.3089
  53   2.0000      -0.689105       -18.7515
  54   2.0000      -0.669086       -18.2068
  55   2.0000      -0.631844       -17.1934
  56   2.0000      -0.622767       -16.9463
  57   2.0000      -0.606143       -16.4940
  58   2.0000      -0.602629       -16.3984
  59   2.0000      -0.589169       -16.0321
  60   2.0000      -0.522624       -14.2213
  61   2.0000      -0.518651       -14.1132
  62   2.0000      -0.492748       -13.4084
  63   2.0000      -0.485023       -13.1982
  64   2.0000      -0.478441       -13.0190
  65   2.0000      -0.459828       -12.5126
  66   2.0000      -0.455799       -12.4029
  67   2.0000      -0.453198       -12.3321
  68   2.0000      -0.443349       -12.0642
  69   2.0000      -0.433562       -11.7978
  70   2.0000      -0.425644       -11.5824
  71   2.0000      -0.413183       -11.2433
  72   2.0000      -0.409658       -11.1473
  73   2.0000      -0.408242       -11.1088
  74   2.0000      -0.389886       -10.6093
  75   2.0000      -0.389111       -10.5882
  76   2.0000      -0.384465       -10.4618
  77   2.0000      -0.372617       -10.1394
  78   2.0000      -0.367914       -10.0115
  79   2.0000      -0.363265        -9.8850
  80   2.0000      -0.362248        -9.8573
  81   2.0000      -0.360135        -9.7998
  82   2.0000      -0.352661        -9.5964
  83   2.0000      -0.348646        -9.4871
  84   2.0000      -0.342868        -9.3299
  85   2.0000      -0.335246        -9.1225
  86   2.0000      -0.319169        -8.6850
  87   2.0000      -0.308109        -8.3841
  88   2.0000      -0.307362        -8.3637
  89   2.0000      -0.304655        -8.2901
  90   2.0000      -0.296706        -8.0738
  91   2.0000      -0.289017        -7.8646
  92   2.0000      -0.279639        -7.6094
  93   2.0000      -0.278246        -7.5715
  94   2.0000      -0.275612        -7.4998
  95   2.0000      -0.239940        -6.5291
  96   2.0000      -0.230611        -6.2752
  97   2.0000      -0.224965        -6.1216
  98   2.0000      -0.220660        -6.0045
  99   2.0000      -0.212337        -5.7780
 100   2.0000      -0.210136        -5.7181
 101   0.0000      -0.047680        -1.2974
 102   0.0000      -0.021296        -0.5795
 103   0.0000      -0.009368        -0.2549
 104   0.0000       0.002961         0.0806
 105   0.0000       0.006554         0.1783

MULLIKEN ATOMIC CHARGES
-----------------------
   0 C :   -0.454479
   1 C :   -0.151951
   2 O :   -0.304315
   3 P :    0.675357
   4 S :   -0.469366
   5 O :   -0.269830
   6 C :   -0.117234
   7 C :   -0.474270
   8 S :   -0.102915
   9 C :   -0.262451
  10 S :   -0.109079
  11 P :    0.673699
  12 S :   -0.472762
  13 O :   -0.229425
  14 C :   -0.173872
  15 C :   -0.434013
  16 O :   -0.300677
  17 C :   -0.163288
  18 C :   -0.429811
  19 H :    0.176032
  20 H :    0.147501
  21 H :    0.154547
  22 H :    0.174870
  23 H :    0.147059
  24 H :    0.146377
  25 H :    0.148667
  26 H :    0.178821
  27 H :    0.176079
  28 H :    0.141717
  29 H :    0.189996
  30 H :    0.206426
  31 H :    0.158506
  32 H :    0.170288
  33 H :    0.155668
  34 H :    0.146776
  35 H :    0.163449
  36 H :    0.148082
  37 H :    0.170678
  38 H :    0.146880
  39 H :    0.147983
  40 H :    0.174280
Sum of atomic charges:    0.0000000

LOEWDIN ATOMIC CHARGES
----------------------
   0 C :   -0.407530
   1 C :    0.017201
   2 O :   -0.663123
   3 P :    0.370811
   4 S :   -0.127209
   5 O :   -0.672325
   6 C :    0.027125
   7 C :   -0.405175
   8 S :    0.195593
   9 C :   -0.407470
  10 S :    0.196346
  11 P :    0.374164
  12 S :   -0.115982
  13 O :   -0.688087
  14 C :    0.023479
  15 C :   -0.398326
  16 O :   -0.680795
  17 C :    0.016649
  18 C :   -0.403324
  19 H :    0.164939
  20 H :    0.158984
  21 H :    0.159514
  22 H :    0.180226
  23 H :    0.178716
  24 H :    0.177492
  25 H :    0.174386
  26 H :    0.167318
  27 H :    0.166447
  28 H :    0.156188
  29 H :    0.187478
  30 H :    0.188814
  31 H :    0.182540
  32 H :    0.179965
  33 H :    0.161017
  34 H :    0.158983
  35 H :    0.163500
  36 H :    0.178503
  37 H :    0.180096
  38 H :    0.156441
  39 H :    0.159501
  40 H :    0.166927

  Mayer bond orders larger than 0.100000
B(  0-C ,  1-C ) :   0.9204 B(  0-C , 19-H ) :   0.9637 B(  0-C , 20-H ) :   0.9594
B(  0-C , 21-H ) :   0.9684 B(  1-C ,  2-O ) :   0.8196 B(  1-C , 22-H ) :   0.9674
B(  1-C , 23-H ) :   0.9584 B(  2-O ,  3-P ) :   1.0596 B(  3-P ,  4-S ) :   1.7476
B(  3-P ,  5-O ) :   1.1537 B(  3-P ,  8-S ) :   1.1192 B(  5-O ,  6-C ) :   0.7579
B(  6-C ,  7-C ) :   0.9387 B(  6-C , 24-H ) :   0.9627 B(  6-C , 25-H ) :   0.9643
B(  7-C , 26-H ) :   0.9623 B(  7-C , 27-H ) :   0.9621 B(  7-C , 28-H ) :   0.9637
B(  8-S ,  9-C ) :   0.9069 B(  9-C , 10-S ) :   0.9092 B(  9-C , 29-H ) :   0.9209
B(  9-C , 30-H ) :   0.9172 B( 10-S , 11-P ) :   1.0562 B( 11-P , 12-S ) :   1.7936
B( 11-P , 13-O ) :   1.1390 B( 11-P , 16-O ) :   1.0239 B( 13-O , 14-C ) :   0.7892
B( 14-C , 15-C ) :   0.9217 B( 14-C , 31-H ) :   0.9639 B( 14-C , 32-H ) :   0.9622
B( 15-C , 33-H ) :   0.9733 B( 15-C , 34-H ) :   0.9628 B( 15-C , 35-H ) :   0.9614
B( 16-O , 17-C ) :   0.8105 B( 17-C , 18-C ) :   0.9331 B( 17-C , 36-H ) :   0.9599
B( 17-C , 37-H ) :   0.9612 B( 18-C , 38-H ) :   0.9707 B( 18-C , 39-H ) :   0.9603
B( 18-C , 40-H ) :   0.9601

Dispersion correction           -0.022300145
FINAL SINGLE POINT ENERGY     -2932.457880159773

DIPOLE MOMENT
-------------

Method             : SCF
Type of density    : Electron Density
Multiplicity       :   1
Irrep              :   0
Energy             : -2932.4820910565167651 Eh
Relativity type    :
Basis              : AO
                                X                 Y                 Z
Electronic contribution:      2.682317198       1.611957544      -5.832448326
Nuclear contribution   :     -2.653413429      -2.495503839       6.919599644
                        -----------------------------------------
Total Dipole Moment    :      0.028903770      -0.883546295       1.087151317
                        -----------------------------------------
Magnitude (a.u.)       :      1.401209289
Magnitude (Debye)      :      3.561590968

Rotational constants in cm-1:             0.012862             0.005130             0.005044
Rotational constants in MHz :           385.597701           153.786650           151.218982

                             ****ORCA TERMINATED NORMALLY****
TOTAL RUN TIME: 0 days 0 hours 1 minutes 26 seconds 786 msec
