                         Program Version 6.0.0  -   RELEASE  -
|  1> ! r2scan-3c def2/J RI DEFGRID2 scfconv6 printgap
|  2> %output
|  3>     printlevel normal
|  4> end
|  5> %cpcm
|  6>     smd true
|  7>     smdsolvent "water"
|  8> end
|  9> * xyz 0 1
| 10> C 4.5459767596 -2.2057720538 0.5827506987
| 11> C 4.7337116173 -0.7130457581 0.4052671355
| 12> O 3.5359265371 0.0207468354 0.7168197217
| 13> P 2.2356709423 -0.0422360324 -0.2010328901
| 14> S 2.6439572472 -0.0865643525 -2.1231710503
| 15> O 1.4340446505 1.2146809379 0.3519270452
| 16> C 1.7609199259 2.5616630603 -0.0539818927
| 17> C 0.8079123541 3.0449868901 -1.1295888717
| 18> S 1.0877146362 -1.5880513563 0.6283705022
| 19> C -0.1104340588 -1.7953088939 -0.7295525109
| 20> S -0.803154124 -0.2487671028 -1.37455907
| 21> P -2.1265916531 0.2580207027 0.1916569648
| 22> S -3.1323481449 1.9235492066 -0.0260727785
| 23> O -1.1310845555 0.1959756041 1.4207180933
| 24> C -1.4152866838 0.8462692759 2.6739639865
| 25> C -2.5342305833 0.1557667659 3.4246249732
| 26> O -3.0144823673 -1.0477763658 0.4346137019
| 27> C -4.278189552 -1.2384764141 -0.2208351715
| 28> C -4.1155245268 -1.5175312704 -1.7017826079
| 29> H 3.8449668592 -2.5821503113 -0.1608861279
| 30> H 5.5004990751 -2.7053719183 0.4523253249
| 31> H 4.1552319671 -2.4223801209 1.5736964944
| 32> H 5.0218987898 -0.4812588323 -0.6252296424
| 33> H 5.4742537473 -0.3121938883 1.0985906841
| 34> H 1.6696152406 3.157286264 0.8560761611
| 35> H 2.7953318945 2.5896195222 -0.4084775862
| 36> H 0.9144555583 2.4416190163 -2.029138968
| 37> H -0.2219243697 2.9713569571 -0.7848204724
| 38> H 1.0289380844 4.0805022152 -1.3672188865
| 39> H -0.9040396881 -2.4274966635 -0.3384219681
| 40> H 0.3874999064 -2.2586044652 -1.5795255963
| 41> H -0.4683892745 0.7924979831 3.213593406
| 42> H -1.6702667609 1.8917733159 2.4717464142
| 43> H -2.3150853647 -0.903262371 3.5323946508
| 44> H -2.6387724832 0.6063504519 4.4066742629
| 45> H -3.470790476 0.27104465 2.8808818961
| 46> H -4.7240513867 -2.0847877113 0.303591388
| 47> H -4.8865390082 -0.3414096933 -0.0670250893
| 48> H -3.4696749987 -2.3768565152 -1.8624844188
| 49> H -5.0894182768 -1.7154909798 -2.1379258475
| 50> H -3.6774374111 -0.6512914316 -2.1972231518
| 51> *
| 52>
| 53>                          ****END OF INPUT****

CARTESIAN COORDINATES (ANGSTROEM)
---------------------------------
  C      4.545977   -2.205772    0.582751
  C      4.733712   -0.713046    0.405267
  O      3.535927    0.020747    0.716820
  P      2.235671   -0.042236   -0.201033
  S      2.643957   -0.086564   -2.123171
  O      1.434045    1.214681    0.351927
  C      1.760920    2.561663   -0.053982
  C      0.807912    3.044987   -1.129589
  S      1.087715   -1.588051    0.628371
  C     -0.110434   -1.795309   -0.729553
  S     -0.803154   -0.248767   -1.374559
  P     -2.126592    0.258021    0.191657
  S     -3.132348    1.923549   -0.026073
  O     -1.131085    0.195976    1.420718
  C     -1.415287    0.846269    2.673964
  C     -2.534231    0.155767    3.424625
  O     -3.014482   -1.047776    0.434614
  C     -4.278190   -1.238476   -0.220835
  C     -4.115525   -1.517531   -1.701783
  H      3.844967   -2.582150   -0.160886
  H      5.500499   -2.705372    0.452325
  H      4.155232   -2.422380    1.573696
  H      5.021899   -0.481259   -0.625230
  H      5.474254   -0.312194    1.098591
  H      1.669615    3.157286    0.856076
  H      2.795332    2.589620   -0.408478
  H      0.914456    2.441619   -2.029139
  H     -0.221924    2.971357   -0.784820
  H      1.028938    4.080502   -1.367219
  H     -0.904040   -2.427497   -0.338422
  H      0.387500   -2.258604   -1.579526
  H     -0.468389    0.792498    3.213593
  H     -1.670267    1.891773    2.471746
  H     -2.315085   -0.903262    3.532395
  H     -2.638772    0.606350    4.406674
  H     -3.470790    0.271045    2.880882
  H     -4.724051   -2.084788    0.303591
  H     -4.886539   -0.341410   -0.067025
  H     -3.469675   -2.376857   -1.862484
  H     -5.089418   -1.715491   -2.137926
  H     -3.677437   -0.651291   -2.197223

 Total Charge           Charge          ....    0
 Multiplicity           Mult            ....    1
 Number of Electrons    NEL             ....  202
 Basis Dimension        Dim             ....  539

ORBITAL ENERGIES
----------------

  NO   OCC          E(Eh)            E(eV)
   0   2.0000     -88.576490     -2410.2888
   1   2.0000     -88.576336     -2410.2846
   2   2.0000     -88.529839     -2409.0194
   3   2.0000     -88.525542     -2408.9025
   4   2.0000     -76.917735     -2093.0380
   5   2.0000     -76.917062     -2093.0197
   6   2.0000     -18.993329      -516.8348
   7   2.0000     -18.991287      -516.7792
   8   2.0000     -18.988010      -516.6900
   9   2.0000     -18.987043      -516.6637
  10   2.0000     -10.107522      -275.0397
  11   2.0000     -10.088723      -274.5281
  12   2.0000     -10.088294      -274.5164
  13   2.0000     -10.088039      -274.5095
  14   2.0000     -10.087822      -274.5036
  15   2.0000     -10.018226      -272.6098
  16   2.0000     -10.017919      -272.6014
  17   2.0000     -10.017775      -272.5975
  18   2.0000     -10.014171      -272.4994
  19   2.0000      -7.871051      -214.1822
  20   2.0000      -7.870866      -214.1772
  21   2.0000      -7.824813      -212.9240
  22   2.0000      -7.820561      -212.8083
  23   2.0000      -6.596040      -179.4874
  24   2.0000      -6.595587      -179.4751
  25   2.0000      -5.818251      -158.3227
  26   2.0000      -5.818082      -158.3181
  27   2.0000      -5.814939      -158.2325
  28   2.0000      -5.814352      -158.2166
  29   2.0000      -5.807902      -158.0410
  30   2.0000      -5.807805      -158.0384
  31   2.0000      -5.772331      -157.0731
  32   2.0000      -5.768141      -156.9591
  33   2.0000      -5.765196      -156.8790
  34   2.0000      -5.764802      -156.8682
  35   2.0000      -5.761004      -156.7649
  36   2.0000      -5.760439      -156.7495
  37   2.0000      -4.741562      -129.0245
  38   2.0000      -4.740912      -129.0068
  39   2.0000      -4.740822      -129.0043
  40   2.0000      -4.740659      -128.9999
  41   2.0000      -4.739887      -128.9789
  42   2.0000      -4.739483      -128.9679
  43   2.0000      -1.049732       -28.5647
  44   2.0000      -1.048361       -28.5273
  45   2.0000      -1.010190       -27.4887
  46   2.0000      -1.007636       -27.4192
  47   2.0000      -0.801866       -21.8199
  48   2.0000      -0.754415       -20.5287
  49   2.0000      -0.740546       -20.1513
  50   2.0000      -0.722133       -19.6502
  51   2.0000      -0.720651       -19.6099
  52   2.0000      -0.708893       -19.2900
  53   2.0000      -0.692558       -18.8455
  54   2.0000      -0.674301       -18.3487
  55   2.0000      -0.629934       -17.1414
  56   2.0000      -0.620423       -16.8826
  57   2.0000      -0.600806       -16.3488
  58   2.0000      -0.597563       -16.2605
  59   2.0000      -0.587393       -15.9838
  60   2.0000      -0.520929       -14.1752
  61   2.0000      -0.514179       -13.9915
  62   2.0000      -0.488172       -13.2838
  63   2.0000      -0.483982       -13.1698
  64   2.0000      -0.477059       -12.9814
  65   2.0000      -0.454577       -12.3697
  66   2.0000      -0.453615       -12.3435
  67   2.0000      -0.451314       -12.2809
  68   2.0000      -0.438744       -11.9388
  69   2.0000      -0.429923       -11.6988
  70   2.0000      -0.421202       -11.4615
  71   2.0000      -0.410801       -11.1785
  72   2.0000      -0.406896       -11.0722
  73   2.0000      -0.403893       -10.9905
  74   2.0000      -0.390763       -10.6332
  75   2.0000      -0.385444       -10.4885
  76   2.0000      -0.381827       -10.3900
  77   2.0000      -0.367441        -9.9986
  78   2.0000      -0.364542        -9.9197
  79   2.0000      -0.360801        -9.8179
  80   2.0000      -0.353211        -9.6114
  81   2.0000      -0.352101        -9.5812
  82   2.0000      -0.347775        -9.4634
  83   2.0000      -0.345726        -9.4077
  84   2.0000      -0.341239        -9.2856
  85   2.0000      -0.332964        -9.0604
  86   2.0000      -0.316670        -8.6170
  87   2.0000      -0.304908        -8.2970
  88   2.0000      -0.304123        -8.2756
  89   2.0000      -0.301263        -8.1978
  90   2.0000      -0.297277        -8.0893
  91   2.0000      -0.289723        -7.8838
  92   2.0000      -0.280118        -7.6224
  93   2.0000      -0.277597        -7.5538
  94   2.0000      -0.276507        -7.5241
  95   2.0000      -0.243147        -6.6164
  96   2.0000      -0.235905        -6.4193
  97   2.0000      -0.232673        -6.3314
  98   2.0000      -0.227853        -6.2002
  99   2.0000      -0.218616        -5.9489
 100   2.0000      -0.215942        -5.8761
 101   0.0000      -0.050300        -1.3687
 102   0.0000      -0.025686        -0.6989
 103   0.0000      -0.012302        -0.3347
 104   0.0000       0.000289         0.0079
 105   0.0000       0.004475         0.1218

MULLIKEN ATOMIC CHARGES
-----------------------
   0 C :   -0.489283
   1 C :   -0.151190
   2 O :   -0.331454
   3 P :    0.709853
   4 S :   -0.521238
   5 O :   -0.296634
   6 C :   -0.126373
   7 C :   -0.500942
   8 S :   -0.109676
   9 C :   -0.270320
  10 S :   -0.137602
  11 P :    0.711819
  12 S :   -0.528366
  13 O :   -0.261228
  14 C :   -0.169157
  15 C :   -0.474836
  16 O :   -0.317401
  17 C :   -0.158468
  18 C :   -0.468876
  19 H :    0.172460
  20 H :    0.171982
  21 H :    0.168814
  22 H :    0.177747
  23 H :    0.173622
  24 H :    0.174229
  25 H :    0.167338
  26 H :    0.172975
  27 H :    0.166797
  28 H :    0.167675
  29 H :    0.227807
  30 H :    0.234182
  31 H :    0.178806
  32 H :    0.176301
  33 H :    0.169337
  34 H :    0.171556
  35 H :    0.167251
  36 H :    0.174376
  37 H :    0.173761
  38 H :    0.168272
  39 H :    0.170483
  40 H :    0.165602
Sum of atomic charges:    0.0000000

LOEWDIN ATOMIC CHARGES
----------------------
   0 C :   -0.410356
   1 C :    0.022308
   2 O :   -0.676143
   3 P :    0.375736
   4 S :   -0.159251
   5 O :   -0.688770
   6 C :    0.030673
   7 C :   -0.409928
   8 S :    0.195108
   9 C :   -0.395345
  10 S :    0.182418
  11 P :    0.379536
  12 S :   -0.152714
  13 O :   -0.701779
  14 C :    0.026687
  15 C :   -0.401582
  16 O :   -0.684844
  17 C :    0.022917
  18 C :   -0.407302
  19 H :    0.161329
  20 H :    0.167960
  21 H :    0.163295
  22 H :    0.181105
  23 H :    0.189882
  24 H :    0.188577
  25 H :    0.180543
  26 H :    0.162937
  27 H :    0.161792
  28 H :    0.164837
  29 H :    0.201886
  30 H :    0.198807
  31 H :    0.190432
  32 H :    0.181906
  33 H :    0.164294
  34 H :    0.168241
  35 H :    0.162686
  36 H :    0.189986
  37 H :    0.180751
  38 H :    0.162767
  39 H :    0.167329
  40 H :    0.161292

  Mayer bond orders larger than 0.100000
B(  0-C ,  1-C ) :   0.9097 B(  0-C , 19-H ) :   0.9642 B(  0-C , 20-H ) :   0.9541
B(  0-C , 21-H ) :   0.9655 B(  1-C ,  2-O ) :   0.8076 B(  1-C , 22-H ) :   0.9655
B(  1-C , 23-H ) :   0.9490 B(  2-O ,  3-P ) :   1.0667 B(  3-P ,  4-S ) :   1.7010
B(  3-P ,  5-O ) :   1.1526 B(  3-P ,  8-S ) :   1.1393 B(  5-O ,  6-C ) :   0.7460
B(  6-C ,  7-C ) :   0.9293 B(  6-C , 24-H ) :   0.9533 B(  6-C , 25-H ) :   0.9606
B(  7-C , 26-H ) :   0.9653 B(  7-C , 27-H ) :   0.9642 B(  7-C , 28-H ) :   0.9597
B(  8-S ,  9-C ) :   0.8993 B(  9-C , 10-S ) :   0.9056 B(  9-C , 29-H ) :   0.9087
B(  9-C , 30-H ) :   0.9073 B( 10-S , 11-P ) :   1.0657 B( 11-P , 12-S ) :   1.7485
B( 11-P , 13-O ) :   1.1455 B( 11-P , 16-O ) :   1.0392 B( 13-O , 14-C ) :   0.7807
B( 14-C , 15-C ) :   0.9119 B( 14-C , 31-H ) :   0.9548 B( 14-C , 32-H ) :   0.9567
B( 15-C , 33-H ) :   0.9716 B( 15-C , 34-H ) :   0.9569 B( 15-C , 35-H ) :   0.9600
B( 16-O , 17-C ) :   0.7976 B( 17-C , 18-C ) :   0.9219 B( 17-C , 36-H ) :   0.9501
B( 17-C , 37-H ) :   0.9604 B( 18-C , 38-H ) :   0.9670 B( 18-C , 39-H ) :   0.9558
B( 18-C , 40-H ) :   0.9623

Dispersion correction           -0.022300145
FINAL SINGLE POINT ENERGY     -2932.466582639090

DIPOLE MOMENT
-------------

Method             : SCF
Type of density    : Electron Density
Multiplicity       :   1
Irrep              :   0
Energy             : -2932.4907935358342002 Eh
Relativity type    :
Basis              : AO
                                X                 Y                 Z
Electronic contribution:      2.740074658       1.128048362      -5.463699995
Nuclear contribution   :     -2.653413429      -2.495503839       6.919599644
                        -----------------------------------------
Total Dipole Moment    :      0.086661230      -1.367455477       1.455899649
                        -----------------------------------------
Magnitude (a.u.)       :      1.999271977
Magnitude (Debye)      :      5.081745513

Rotational constants in cm-1:             0.012862             0.005130             0.005044
Rotational constants in MHz :           385.597701           153.786650           151.218982

                             ****ORCA TERMINATED NORMALLY****
TOTAL RUN TIME: 0 days 0 hours 2 minutes 0 seconds 874 msec
