                         Program Version 6.0.0  -   RELEASE  -
|  1> ! r2scan-3c def2/J RI DEFGRID2 scfconv6 printgap
|  2> %output
|  3>     printlevel normal
|  4> end
|  5> * xyz 0 1
|  6> C -1.8372246111 -0.6343268042 -0.1313664179
|  7> C -1.3617301483 0.533724815 0.2535114604
|  8> C 0.0702738525 0.9430663001 0.325918455
|  9> Cl 1.2166485318 -0.3439364867 -0.1799374264
| 10> H -2.8936292456 -0.8333447757 -0.148625192
| 11> H -1.1910201894 -1.4371064392 -0.4438680022
| 12> H -2.0291888612 1.3268642384 0.563538568
| 13> H 0.2594295763 1.7941506896 -0.3297778154
| 14> H 0.3421756181 1.2080319457 1.3486100814
| 15> *
| 16>
| 17>                          ****END OF INPUT****

CARTESIAN COORDINATES (ANGSTROEM)
---------------------------------
  C     -1.837225   -0.634327   -0.131366
  C     -1.361730    0.533725    0.253511
  C      0.070274    0.943066    0.325918
  Cl     1.216649   -0.343936   -0.179937
  H     -2.893629   -0.833345   -0.148625
  H     -1.191020   -1.437106   -0.443868
  H     -2.029189    1.326864    0.563539
  H      0.259430    1.794151   -0.329778
  H      0.342176    1.208032    1.348610

 Total Charge           Charge          ....    0
 Multiplicity           Mult            ....    1
 Number of Electrons    NEL             ....   40
 Basis Dimension        Dim             ....  109

ORBITAL ENERGIES
----------------

  NO   OCC          E(Eh)            E(eV)
   0   2.0000    -101.204917     -2753.9258
   1   2.0000     -10.102952      -274.9153
   2   2.0000     -10.051476      -273.5146
   3   2.0000     -10.031488      -272.9707
   4   2.0000      -9.360842      -254.7215
   5   2.0000      -7.107170      -193.3959
   6   2.0000      -7.096861      -193.1154
   7   2.0000      -7.096797      -193.1137
   8   2.0000      -0.829565       -22.5736
   9   2.0000      -0.744679       -20.2638
  10   2.0000      -0.654522       -17.8105
  11   2.0000      -0.530595       -14.4382
  12   2.0000      -0.459534       -12.5045
  13   2.0000      -0.437089       -11.8938
  14   2.0000      -0.414868       -11.2891
  15   2.0000      -0.372350       -10.1322
  16   2.0000      -0.334242        -9.0952
  17   2.0000      -0.274364        -7.4658
  18   2.0000      -0.273557        -7.4439
  19   2.0000      -0.251477        -6.8430
  20   0.0000      -0.023787        -0.6473
  21   0.0000       0.002619         0.0713
  22   0.0000       0.088438         2.4065
  23   0.0000       0.132239         3.5984
  24   0.0000       0.146560         3.9881

MULLIKEN ATOMIC CHARGES
-----------------------
   0 C :   -0.302664
   1 C :   -0.146146
   2 C :   -0.143613
   3 Cl:   -0.193812
   4 H :    0.143130
   5 H :    0.161531
   6 H :    0.156355
   7 H :    0.162610
   8 H :    0.162609
Sum of atomic charges:    0.0000000

LOEWDIN ATOMIC CHARGES
----------------------
   0 C :   -0.302968
   1 C :   -0.224410
   2 C :   -0.309062
   3 Cl:    0.010878
   4 H :    0.159806
   5 H :    0.164950
   6 H :    0.167287
   7 H :    0.166762
   8 H :    0.166757

  Mayer bond orders larger than 0.100000
B(  0-C ,  1-C ) :   1.9581 B(  0-C ,  4-H ) :   0.9552 B(  0-C ,  5-H ) :   0.9674
B(  1-C ,  2-C ) :   0.9757 B(  1-C ,  6-H ) :   0.9185 B(  2-C ,  3-Cl) :   1.0141
B(  2-C ,  7-H ) :   0.9520 B(  2-C ,  8-H ) :   0.9520

Dispersion correction           -0.001904451
FINAL SINGLE POINT ENERGY      -577.437028480956

DIPOLE MOMENT
-------------

Method             : SCF
Type of density    : Electron Density
Multiplicity       :   1
Irrep              :   0
Energy             :  -577.4408185030609957 Eh
Relativity type    :
Basis              : AO
                                X                 Y                 Z
Electronic contribution:      6.307714235      -1.827270092      -0.948155601
Nuclear contribution   :     -6.804394692       2.392945878       1.170185957
                        -----------------------------------------
Total Dipole Moment    :     -0.496680457       0.565675785       0.222030356
                        -----------------------------------------
Magnitude (a.u.)       :      0.784842691
Magnitude (Debye)      :      1.994911582

Rotational constants in cm-1:             0.453506             0.127446             0.101398
Rotational constants in MHz :         13595.777743          3820.747758          3039.849341

                             ****ORCA TERMINATED NORMALLY****
TOTAL RUN TIME: 0 days 0 hours 0 minutes 9 seconds 814 msec
