                         Program Version 6.0.0  -   RELEASE  -
|  1> ! r2scan-3c def2/J RI DEFGRID2 scfconv6 printgap
|  2> %output
|  3>     printlevel normal
|  4> end
|  5> %cpcm
|  6>     smd true
|  7>     smdsolvent "water"
|  8> end
|  9> * xyz 0 1
| 10> C -1.8372246111 -0.6343268042 -0.1313664179
| 11> C -1.3617301483 0.533724815 0.2535114604
| 12> C 0.0702738525 0.9430663001 0.325918455
| 13> Cl 1.2166485318 -0.3439364867 -0.1799374264
| 14> H -2.8936292456 -0.8333447757 -0.148625192
| 15> H -1.1910201894 -1.4371064392 -0.4438680022
| 16> H -2.0291888612 1.3268642384 0.563538568
| 17> H 0.2594295763 1.7941506896 -0.3297778154
| 18> H 0.3421756181 1.2080319457 1.3486100814
| 19> *
| 20>
| 21>                          ****END OF INPUT****

CARTESIAN COORDINATES (ANGSTROEM)
---------------------------------
  C     -1.837225   -0.634327   -0.131366
  C     -1.361730    0.533725    0.253511
  C      0.070274    0.943066    0.325918
  Cl     1.216649   -0.343936   -0.179937
  H     -2.893629   -0.833345   -0.148625
  H     -1.191020   -1.437106   -0.443868
  H     -2.029189    1.326864    0.563539
  H      0.259430    1.794151   -0.329778
  H      0.342176    1.208032    1.348610

 Total Charge           Charge          ....    0
 Multiplicity           Mult            ....    1
 Number of Electrons    NEL             ....   40
 Basis Dimension        Dim             ....  109

ORBITAL ENERGIES
----------------

  NO   OCC          E(Eh)            E(eV)
   0   2.0000    -101.205071     -2753.9300
   1   2.0000     -10.090840      -274.5857
   2   2.0000     -10.043373      -273.2941
   3   2.0000     -10.022456      -272.7249
   4   2.0000      -9.361277      -254.7333
   5   2.0000      -7.107229      -193.3975
   6   2.0000      -7.097434      -193.1310
   7   2.0000      -7.097428      -193.1308
   8   2.0000      -0.825570       -22.4649
   9   2.0000      -0.739042       -20.1104
  10   2.0000      -0.645236       -17.5578
  11   2.0000      -0.520490       -14.1633
  12   2.0000      -0.449780       -12.2391
  13   2.0000      -0.424734       -11.5576
  14   2.0000      -0.408446       -11.1144
  15   2.0000      -0.364291        -9.9129
  16   2.0000      -0.324610        -8.8331
  17   2.0000      -0.275400        -7.4940
  18   2.0000      -0.274167        -7.4605
  19   2.0000      -0.246239        -6.7005
  20   0.0000      -0.017062        -0.4643
  21   0.0000       0.008267         0.2249
  22   0.0000       0.100487         2.7344
  23   0.0000       0.146635         3.9901
  24   0.0000       0.156889         4.2692

MULLIKEN ATOMIC CHARGES
-----------------------
   0 C :   -0.389078
   1 C :   -0.154477
   2 C :   -0.149996
   3 Cl:   -0.234296
   4 H :    0.173949
   5 H :    0.172251
   6 H :    0.195260
   7 H :    0.193264
   8 H :    0.193123
Sum of atomic charges:   -0.0000000

LOEWDIN ATOMIC CHARGES
----------------------
   0 C :   -0.333626
   1 C :   -0.218400
   2 C :   -0.303886
   3 Cl:   -0.018063
   4 H :    0.167820
   5 H :    0.164643
   6 H :    0.181463
   7 H :    0.180057
   8 H :    0.179991

  Mayer bond orders larger than 0.100000
B(  0-C ,  1-C ) :   1.9099 B(  0-C ,  4-H ) :   0.9529 B(  0-C ,  5-H ) :   0.9713
B(  1-C ,  2-C ) :   0.9847 B(  1-C ,  6-H ) :   0.9162 B(  2-C ,  3-Cl) :   0.9828
B(  2-C ,  7-H ) :   0.9399 B(  2-C ,  8-H ) :   0.9399

Dispersion correction           -0.001904451
FINAL SINGLE POINT ENERGY      -577.439347354578

DIPOLE MOMENT
-------------

Method             : SCF
Type of density    : Electron Density
Multiplicity       :   1
Irrep              :   0
Energy             :  -577.4431373766839215 Eh
Relativity type    :
Basis              : AO
                                X                 Y                 Z
Electronic contribution:      6.197192633      -1.550988111      -0.846492638
Nuclear contribution   :     -6.804394692       2.392945878       1.170185957
                        -----------------------------------------
Total Dipole Moment    :     -0.607202059       0.841957766       0.323693319
                        -----------------------------------------
Magnitude (a.u.)       :      1.087365893
Magnitude (Debye)      :      2.763864452

Rotational constants in cm-1:             0.453506             0.127446             0.101398
Rotational constants in MHz :         13595.777743          3820.747758          3039.849341

                             ****ORCA TERMINATED NORMALLY****
TOTAL RUN TIME: 0 days 0 hours 0 minutes 12 seconds 578 msec
