                         Program Version 6.0.0  -   RELEASE  -
|  1> ! pbe def2-sv(p) def2/J RI DEFGRID1 loosescf d4 GCP(DFT/SV(P)) printgap
|  2> %output
|  3>     printlevel normal
|  4> end
|  5> * xyz 0 1
|  6> C 4.4309075641 -0.6959160881 -1.6795132379
|  7> C 3.1531276265 0.0753399653 -1.9275772023
|  8> O 2.6591528405 0.7418134893 -0.7414009292
|  9> P 2.3541220559 0.0860007238 0.6583992324
| 10> S 1.2015782108 1.2417126802 1.7372394528
| 11> O 3.8046803226 -0.1501274103 1.2599938853
| 12> C 4.045651298 -0.3430829296 2.6650092268
| 13> C 3.4496280455 -1.6366150812 3.1816915327
| 14> S 1.6112115083 -1.8783114755 0.2758673133
| 15> C -0.1234860412 -1.4363455641 0.1296980612
| 16> S -0.3875507723 -0.4310514897 -1.3870059378
| 17> P -2.2821294707 0.3288135685 -0.9203726855
| 18> S -3.0829989098 1.5310866169 -2.2417362921
| 19> O -2.1807751278 0.9291713376 0.5561375026
| 20> C -2.0958780424 2.3387296114 0.82960413
| 21> C -3.4370578846 2.8475934834 1.3176976278
| 22> O -3.0235779994 -1.0463706749 -0.6504591519
| 23> C -4.4451691863 -1.0647774311 -0.3750826721
| 24> C -4.9450315933 -2.4753428967 -0.605631309
| 25> H 4.7965118688 -1.0846073945 -2.6249372604
| 26> H 5.1835067208 -0.0452635997 -1.2419258205
| 27> H 4.2457033373 -1.527265686 -1.0022372379
| 28> H 2.3589796459 -0.5780013224 -2.301676004
| 29> H 3.3052222757 0.8982200481 -2.6275531979
| 30> H 5.1337444564 -0.3418204232 2.7423290562
| 31> H 3.6341250071 0.5140072225 3.2074409101
| 32> H 3.7779548429 -1.7972850263 4.2035947263
| 33> H 2.3626372231 -1.5793180893 3.1666021272
| 34> H 3.7659682595 -2.4733850953 2.564471788
| 35> H -0.4270492314 -0.8429376584 0.993456661
| 36> H -0.6874848772 -2.3611634607 0.048313152
| 37> H -1.3173565544 2.441794 1.5886914635
| 38> H -1.7890063905 2.8651066643 -0.0789683342
| 39> H -3.3439792239 3.8956428895 1.5823821991
| 40> H -4.1806134185 2.7438120216 0.5297382247
| 41> H -3.7565529989 2.2831702962 2.1890065298
| 42> H -4.592905086 -0.7477380877 0.6599514855
| 43> H -4.9354627758 -0.3491806209 -1.043711228
| 44> H -4.4339200201 -3.1665548708 0.0579952202
| 45> H -6.0115331712 -2.5098015983 -0.4083210348
| 46> H -4.7609599548 -2.7721385666 -1.6343083356
| 47> *
| 48>
| 49>                          ****END OF INPUT****

CARTESIAN COORDINATES (ANGSTROEM)
---------------------------------
  C      4.430908   -0.695916   -1.679513
  C      3.153128    0.075340   -1.927577
  O      2.659153    0.741813   -0.741401
  P      2.354122    0.086001    0.658399
  S      1.201578    1.241713    1.737239
  O      3.804680   -0.150127    1.259994
  C      4.045651   -0.343083    2.665009
  C      3.449628   -1.636615    3.181692
  S      1.611212   -1.878311    0.275867
  C     -0.123486   -1.436346    0.129698
  S     -0.387551   -0.431051   -1.387006
  P     -2.282129    0.328814   -0.920373
  S     -3.082999    1.531087   -2.241736
  O     -2.180775    0.929171    0.556138
  C     -2.095878    2.338730    0.829604
  C     -3.437058    2.847593    1.317698
  O     -3.023578   -1.046371   -0.650459
  C     -4.445169   -1.064777   -0.375083
  C     -4.945032   -2.475343   -0.605631
  H      4.796512   -1.084607   -2.624937
  H      5.183507   -0.045264   -1.241926
  H      4.245703   -1.527266   -1.002237
  H      2.358980   -0.578001   -2.301676
  H      3.305222    0.898220   -2.627553
  H      5.133744   -0.341820    2.742329
  H      3.634125    0.514007    3.207441
  H      3.777955   -1.797285    4.203595
  H      2.362637   -1.579318    3.166602
  H      3.765968   -2.473385    2.564472
  H     -0.427049   -0.842938    0.993457
  H     -0.687485   -2.361163    0.048313
  H     -1.317357    2.441794    1.588691
  H     -1.789006    2.865107   -0.078968
  H     -3.343979    3.895643    1.582382
  H     -4.180613    2.743812    0.529738
  H     -3.756553    2.283170    2.189007
  H     -4.592905   -0.747738    0.659951
  H     -4.935463   -0.349181   -1.043711
  H     -4.433920   -3.166555    0.057995
  H     -6.011533   -2.509802   -0.408321
  H     -4.760960   -2.772139   -1.634308

 Total Charge           Charge          ....    0
 Multiplicity           Mult            ....    1
 Number of Electrons    NEL             ....  202
 Basis Dimension        Dim             ....  334

ORBITAL ENERGIES
----------------

  NO   OCC          E(Eh)            E(eV)
   0   2.0000     -88.054195     -2396.0765
   1   2.0000     -88.039019     -2395.6635
   2   2.0000     -87.986955     -2394.2468
   3   2.0000     -87.983068     -2394.1410
   4   2.0000     -76.430949     -2079.7918
   5   2.0000     -76.421000     -2079.5211
   6   2.0000     -18.797866      -511.5159
   7   2.0000     -18.791927      -511.3543
   8   2.0000     -18.789588      -511.2907
   9   2.0000     -18.784847      -511.1617
  10   2.0000      -9.957176      -270.9485
  11   2.0000      -9.956781      -270.9378
  12   2.0000      -9.956562      -270.9318
  13   2.0000      -9.952389      -270.8183
  14   2.0000      -9.939714      -270.4734
  15   2.0000      -9.889582      -269.1092
  16   2.0000      -9.888867      -269.0898
  17   2.0000      -9.888712      -269.0855
  18   2.0000      -9.876289      -268.7475
  19   2.0000      -7.698802      -209.4951
  20   2.0000      -7.684351      -209.1018
  21   2.0000      -7.632007      -207.6775
  22   2.0000      -7.628277      -207.5760
  23   2.0000      -6.428135      -174.9184
  24   2.0000      -6.419177      -174.6747
  25   2.0000      -5.726544      -155.8272
  26   2.0000      -5.723271      -155.7381
  27   2.0000      -5.716031      -155.5411
  28   2.0000      -5.712720      -155.4510
  29   2.0000      -5.708780      -155.3438
  30   2.0000      -5.700891      -155.1291
  31   2.0000      -5.660989      -154.0433
  32   2.0000      -5.657229      -153.9410
  33   2.0000      -5.652572      -153.8143
  34   2.0000      -5.652124      -153.8021
  35   2.0000      -5.648973      -153.7164
  36   2.0000      -5.648331      -153.6989
  37   2.0000      -4.650851      -126.5561
  38   2.0000      -4.650018      -126.5334
  39   2.0000      -4.648416      -126.4898
  40   2.0000      -4.641601      -126.3044
  41   2.0000      -4.641039      -126.2891
  42   2.0000      -4.639644      -126.2511
  43   2.0000      -0.990281       -26.9469
  44   2.0000      -0.982252       -26.7284
  45   2.0000      -0.948631       -25.8136
  46   2.0000      -0.939028       -25.5523
  47   2.0000      -0.766754       -20.8644
  48   2.0000      -0.723897       -19.6982
  49   2.0000      -0.712254       -19.3814
  50   2.0000      -0.693828       -18.8800
  51   2.0000      -0.683248       -18.5921
  52   2.0000      -0.674849       -18.3636
  53   2.0000      -0.652715       -17.7613
  54   2.0000      -0.637780       -17.3549
  55   2.0000      -0.601606       -16.3705
  56   2.0000      -0.584579       -15.9072
  57   2.0000      -0.579289       -15.7632
  58   2.0000      -0.567509       -15.4427
  59   2.0000      -0.562596       -15.3090
  60   2.0000      -0.503520       -13.7015
  61   2.0000      -0.495216       -13.4755
  62   2.0000      -0.475668       -12.9436
  63   2.0000      -0.474555       -12.9133
  64   2.0000      -0.454190       -12.3591
  65   2.0000      -0.446444       -12.1483
  66   2.0000      -0.439775       -11.9669
  67   2.0000      -0.438119       -11.9218
  68   2.0000      -0.431193       -11.7334
  69   2.0000      -0.425149       -11.5689
  70   2.0000      -0.414350       -11.2750
  71   2.0000      -0.400162       -10.8890
  72   2.0000      -0.396093       -10.7782
  73   2.0000      -0.384363       -10.4590
  74   2.0000      -0.375722       -10.2239
  75   2.0000      -0.373726       -10.1696
  76   2.0000      -0.368693       -10.0326
  77   2.0000      -0.358566        -9.7571
  78   2.0000      -0.356185        -9.6923
  79   2.0000      -0.355015        -9.6605
  80   2.0000      -0.350167        -9.5285
  81   2.0000      -0.348687        -9.4883
  82   2.0000      -0.340383        -9.2623
  83   2.0000      -0.334419        -9.1000
  84   2.0000      -0.326707        -8.8901
  85   2.0000      -0.317289        -8.6339
  86   2.0000      -0.315125        -8.5750
  87   2.0000      -0.297788        -8.1032
  88   2.0000      -0.294730        -8.0200
  89   2.0000      -0.292426        -7.9573
  90   2.0000      -0.286229        -7.7887
  91   2.0000      -0.276848        -7.5334
  92   2.0000      -0.272062        -7.4032
  93   2.0000      -0.266149        -7.2423
  94   2.0000      -0.259923        -7.0729
  95   2.0000      -0.236039        -6.4229
  96   2.0000      -0.220420        -5.9979
  97   2.0000      -0.206614        -5.6223
  98   2.0000      -0.205436        -5.5902
  99   2.0000      -0.201458        -5.4820
 100   2.0000      -0.197730        -5.3805
 101   0.0000      -0.047031        -1.2798
 102   0.0000      -0.024162        -0.6575
 103   0.0000      -0.017071        -0.4645
 104   0.0000       0.004787         0.1303
 105   0.0000       0.013418         0.3651

MULLIKEN ATOMIC CHARGES
-----------------------
   0 C :   -0.307715
   1 C :   -0.005974
   2 O :   -0.349969
   3 P :    0.607267
   4 S :   -0.319633
   5 O :   -0.372756
   6 C :   -0.001760
   7 C :   -0.318501
   8 S :   -0.109417
   9 C :   -0.349389
  10 S :   -0.085505
  11 P :    0.630221
  12 S :   -0.322001
  13 O :   -0.387195
  14 C :   -0.011369
  15 C :   -0.288443
  16 O :   -0.388893
  17 C :   -0.015044
  18 C :   -0.276987
  19 H :    0.115790
  20 H :    0.123457
  21 H :    0.117161
  22 H :    0.117609
  23 H :    0.114169
  24 H :    0.106599
  25 H :    0.115374
  26 H :    0.115693
  27 H :    0.127972
  28 H :    0.116650
  29 H :    0.202846
  30 H :    0.185729
  31 H :    0.119189
  32 H :    0.106314
  33 H :    0.109008
  34 H :    0.112674
  35 H :    0.108169
  36 H :    0.103546
  37 H :    0.107180
  38 H :    0.113636
  39 H :    0.111935
  40 H :    0.122362
Sum of atomic charges:   -0.0000000

LOEWDIN ATOMIC CHARGES
----------------------
   0 C :   -0.366414
   1 C :   -0.114534
   2 O :   -0.229775
   3 P :    0.574664
   4 S :   -0.304065
   5 O :   -0.241153
   6 C :   -0.116884
   7 C :   -0.371004
   8 S :    0.086645
   9 C :   -0.474731
  10 S :    0.083200
  11 P :    0.564612
  12 S :   -0.322003
  13 O :   -0.246777
  14 C :   -0.121286
  15 C :   -0.359761
  16 O :   -0.252819
  17 C :   -0.118180
  18 C :   -0.350252
  19 H :    0.132608
  20 H :    0.129289
  21 H :    0.116078
  22 H :    0.104527
  23 H :    0.125367
  24 H :    0.119648
  25 H :    0.113815
  26 H :    0.132434
  27 H :    0.121406
  28 H :    0.122960
  29 H :    0.125681
  30 H :    0.134714
  31 H :    0.111561
  32 H :    0.109398
  33 H :    0.129606
  34 H :    0.121555
  35 H :    0.121715
  36 H :    0.111998
  37 H :    0.109690
  38 H :    0.125196
  39 H :    0.131137
  40 H :    0.130133

  Mayer bond orders larger than 0.100000
B(  0-C ,  1-C ) :   1.1686 B(  0-C , 19-H ) :   0.9360 B(  0-C , 20-H ) :   0.9428
B(  0-C , 21-H ) :   0.9383 B(  1-C ,  2-O ) :   0.8984 B(  1-C , 22-H ) :   0.9143
B(  1-C , 23-H ) :   0.9335 B(  2-O ,  3-P ) :   1.1543 B(  3-P ,  4-S ) :   1.6251
B(  3-P ,  5-O ) :   1.0984 B(  3-P ,  8-S ) :   0.9255 B(  4-S ,  8-S ) :   0.1083
B(  5-O ,  6-C ) :   0.9041 B(  6-C ,  7-C ) :   1.1656 B(  6-C , 24-H ) :   0.9339
B(  6-C , 25-H ) :   0.9167 B(  7-C , 26-H ) :   0.9373 B(  7-C , 27-H ) :   0.9350
B(  7-C , 28-H ) :   0.9445 B(  8-S ,  9-C ) :   1.0175 B(  9-C , 10-S ) :   0.9616
B(  9-C , 29-H ) :   0.8630 B(  9-C , 30-H ) :   0.9037 B( 10-S , 11-P ) :   0.9930
B( 11-P , 12-S ) :   1.6487 B( 11-P , 13-O ) :   1.0838 B( 11-P , 16-O ) :   1.0897
B( 13-O , 14-C ) :   0.8968 B( 14-C , 15-C ) :   1.1629 B( 14-C , 31-H ) :   0.9207
B( 14-C , 32-H ) :   0.9116 B( 15-C , 33-H ) :   0.9417 B( 15-C , 34-H ) :   0.9418
B( 15-C , 35-H ) :   0.9483 B( 16-O , 17-C ) :   0.8997 B( 17-C , 18-C ) :   1.1618
B( 17-C , 36-H ) :   0.9294 B( 17-C , 37-H ) :   0.9111 B( 18-C , 38-H ) :   0.9513
B( 18-C , 39-H ) :   0.9416 B( 18-C , 40-H ) :   0.9503

Dispersion correction           -0.063177097
FINAL SINGLE POINT ENERGY     -2929.518612674995

DIPOLE MOMENT
-------------

Method             : SCF
Type of density    : Electron Density
Multiplicity       :   1
Irrep              :   0
Energy             : -2929.6404137526378690 Eh
Relativity type    :
Basis              : AO
                                X                 Y                 Z
Electronic contribution:      2.233971489       5.308823965      -9.352960521
Nuclear contribution   :     -1.595696450      -6.507705746      10.203916590
                        -----------------------------------------
Total Dipole Moment    :      0.638275039      -1.198881781       0.850956069
                        -----------------------------------------
Magnitude (a.u.)       :      1.602759739
Magnitude (Debye)      :      4.073891500

Rotational constants in cm-1:             0.012582             0.004353             0.004219
Rotational constants in MHz :           377.193066           130.511031           126.485151

                             ****ORCA TERMINATED NORMALLY****
TOTAL RUN TIME: 0 days 0 hours 0 minutes 20 seconds 492 msec
