                         Program Version 6.0.0  -   RELEASE  -
|  1> ! r2scan-3c def2/J RI DEFGRID2 scfconv6 printgap
|  2> %output
|  3>     printlevel normal
|  4> end
|  5> * xyz 0 1
|  6> C -1.817790067 -0.04242058 -0.3598542091
|  7> C -1.0510628863 1.2885022548 -0.2545573732
|  8> C 0.2708599028 1.1585457616 0.5134467427
|  9> C 1.0755684467 -0.0121479836 0.0299381634
| 10> O 2.2531080909 0.0721434282 -0.2706513633
| 11> C 0.3133321494 -1.3059315376 -0.0501744038
| 12> C -1.1289222224 -1.1624772322 0.416612732
| 13> H -1.8865967601 -0.3417270119 -1.4068663406
| 14> H -2.8353207036 0.0803913831 0.0108588317
| 15> H -0.8308718318 1.6666802211 -1.2536788457
| 16> H -1.6601773814 2.0393004972 0.2487857669
| 17> H 0.8603885365 2.0717127442 0.4228073639
| 18> H 0.063834458 0.9887666623 1.5722680585
| 19> H 0.3486189944 -1.6401454891 -1.0908204441
| 20> H 0.8526772176 -2.0557556765 0.533041727
| 21> H -1.6603170761 -2.1006851633 0.2538073225
| 22> H -1.1562768329 -0.9489038175 1.4857367043
| 23> *
| 24>
| 25>                          ****END OF INPUT****

CARTESIAN COORDINATES (ANGSTROEM)
---------------------------------
  C     -1.817790   -0.042421   -0.359854
  C     -1.051063    1.288502   -0.254557
  C      0.270860    1.158546    0.513447
  C      1.075568   -0.012148    0.029938
  O      2.253108    0.072143   -0.270651
  C      0.313332   -1.305932   -0.050174
  C     -1.128922   -1.162477    0.416613
  H     -1.886597   -0.341727   -1.406866
  H     -2.835321    0.080391    0.010859
  H     -0.830872    1.666680   -1.253679
  H     -1.660177    2.039300    0.248786
  H      0.860389    2.071713    0.422807
  H      0.063834    0.988767    1.572268
  H      0.348619   -1.640145   -1.090820
  H      0.852677   -2.055756    0.533042
  H     -1.660317   -2.100685    0.253807
  H     -1.156277   -0.948904    1.485737

 Total Charge           Charge          ....    0
 Multiplicity           Mult            ....    1
 Number of Electrons    NEL             ....   54
 Basis Dimension        Dim             ....  188

ORBITAL ENERGIES
----------------

  NO   OCC          E(Eh)            E(eV)
   0   2.0000     -18.932131      -515.1695
   1   2.0000     -10.113101      -275.1915
   2   2.0000     -10.041251      -273.2363
   3   2.0000     -10.039110      -273.1781
   4   2.0000     -10.038005      -273.1480
   5   2.0000     -10.037179      -273.1255
   6   2.0000     -10.036781      -273.1147
   7   2.0000      -0.996867       -27.1261
   8   2.0000      -0.807145       -21.9635
   9   2.0000      -0.727146       -19.7866
  10   2.0000      -0.697641       -18.9838
  11   2.0000      -0.606098       -16.4928
  12   2.0000      -0.560190       -15.2435
  13   2.0000      -0.488368       -13.2892
  14   2.0000      -0.470402       -12.8003
  15   2.0000      -0.443797       -12.0763
  16   2.0000      -0.420507       -11.4426
  17   2.0000      -0.389507       -10.5990
  18   2.0000      -0.387575       -10.5464
  19   2.0000      -0.372505       -10.1364
  20   2.0000      -0.359403        -9.7798
  21   2.0000      -0.348300        -9.4777
  22   2.0000      -0.332084        -9.0365
  23   2.0000      -0.305142        -8.3033
  24   2.0000      -0.296352        -8.0641
  25   2.0000      -0.290384        -7.9018
  26   2.0000      -0.206313        -5.6140
  27   0.0000      -0.045473        -1.2374
  28   0.0000       0.072139         1.9630
  29   0.0000       0.100935         2.7466
  30   0.0000       0.113964         3.1011
  31   0.0000       0.123029         3.3478

MULLIKEN ATOMIC CHARGES
-----------------------
   0 C :   -0.308435
   1 C :   -0.332285
   2 C :   -0.253245
   3 C :    0.223040
   4 O :   -0.344089
   5 C :   -0.344422
   6 C :   -0.252448
   7 H :    0.148445
   8 H :    0.158439
   9 H :    0.157687
  10 H :    0.156119
  11 H :    0.175330
  12 H :    0.157416
  13 H :    0.175113
  14 H :    0.181150
  15 H :    0.151999
  16 H :    0.150186
Sum of atomic charges:   -0.0000000

LOEWDIN ATOMIC CHARGES
----------------------
   0 C :   -0.303196
   1 C :   -0.290671
   2 C :   -0.272418
   3 C :    0.225312
   4 O :   -0.459067
   5 C :   -0.276877
   6 C :   -0.301510
   7 H :    0.157350
   8 H :    0.158259
   9 H :    0.160433
  10 H :    0.159591
  11 H :    0.179191
  12 H :    0.176435
  13 H :    0.185705
  14 H :    0.185782
  15 H :    0.160087
  16 H :    0.155594

  Mayer bond orders larger than 0.100000
B(  0-C ,  1-C ) :   0.8880 B(  0-C ,  6-C ) :   0.9114 B(  0-C ,  7-H ) :   0.9851
B(  0-C ,  8-H ) :   0.9665 B(  1-C ,  2-C ) :   0.8937 B(  1-C ,  9-H ) :   0.9853
B(  1-C , 10-H ) :   0.9685 B(  2-C ,  3-C ) :   0.9395 B(  2-C , 11-H ) :   0.9493
B(  2-C , 12-H ) :   0.9596 B(  3-C ,  4-O ) :   1.9369 B(  3-C ,  5-C ) :   0.9248
B(  5-C ,  6-C ) :   0.8804 B(  5-C , 13-H ) :   0.9652 B(  5-C , 14-H ) :   0.9368
B(  6-C , 15-H ) :   0.9450 B(  6-C , 16-H ) :   0.9938

Dispersion correction           -0.004786286
FINAL SINGLE POINT ENERGY      -309.800215591473

DIPOLE MOMENT
-------------

Method             : SCF
Type of density    : Electron Density
Multiplicity       :   1
Irrep              :   0
Energy             :  -309.8024536523927850 Eh
Relativity type    :
Basis              : AO
                                X                 Y                 Z
Electronic contribution:      6.097384781       0.122682022      -0.447644085
Nuclear contribution   :     -7.381901368      -0.224433370       0.723948206
                        -----------------------------------------
Total Dipole Moment    :     -1.284516588      -0.101751347       0.276304121
                        -----------------------------------------
Magnitude (a.u.)       :      1.317831616
Magnitude (Debye)      :      3.349661766

Rotational constants in cm-1:             0.144702             0.082151             0.059353
Rotational constants in MHz :          4338.057137          2462.810120          1779.349040

                             ****ORCA TERMINATED NORMALLY****
TOTAL RUN TIME: 0 days 0 hours 0 minutes 25 seconds 218 msec
