                         Program Version 6.0.0  -   RELEASE  -
|  1> ! r2scan-3c def2/J RI DEFGRID2 scfconv6 printgap
|  2> %output
|  3>     printlevel normal
|  4> end
|  5> %cpcm
|  6>     smd true
|  7>     smdsolvent "water"
|  8> end
|  9> * xyz 0 1
| 10> C -1.817790067 -0.04242058 -0.3598542091
| 11> C -1.0510628863 1.2885022548 -0.2545573732
| 12> C 0.2708599028 1.1585457616 0.5134467427
| 13> C 1.0755684467 -0.0121479836 0.0299381634
| 14> O 2.2531080909 0.0721434282 -0.2706513633
| 15> C 0.3133321494 -1.3059315376 -0.0501744038
| 16> C -1.1289222224 -1.1624772322 0.416612732
| 17> H -1.8865967601 -0.3417270119 -1.4068663406
| 18> H -2.8353207036 0.0803913831 0.0108588317
| 19> H -0.8308718318 1.6666802211 -1.2536788457
| 20> H -1.6601773814 2.0393004972 0.2487857669
| 21> H 0.8603885365 2.0717127442 0.4228073639
| 22> H 0.063834458 0.9887666623 1.5722680585
| 23> H 0.3486189944 -1.6401454891 -1.0908204441
| 24> H 0.8526772176 -2.0557556765 0.533041727
| 25> H -1.6603170761 -2.1006851633 0.2538073225
| 26> H -1.1562768329 -0.9489038175 1.4857367043
| 27> *
| 28>
| 29>                          ****END OF INPUT****

CARTESIAN COORDINATES (ANGSTROEM)
---------------------------------
  C     -1.817790   -0.042421   -0.359854
  C     -1.051063    1.288502   -0.254557
  C      0.270860    1.158546    0.513447
  C      1.075568   -0.012148    0.029938
  O      2.253108    0.072143   -0.270651
  C      0.313332   -1.305932   -0.050174
  C     -1.128922   -1.162477    0.416613
  H     -1.886597   -0.341727   -1.406866
  H     -2.835321    0.080391    0.010859
  H     -0.830872    1.666680   -1.253679
  H     -1.660177    2.039300    0.248786
  H      0.860389    2.071713    0.422807
  H      0.063834    0.988767    1.572268
  H      0.348619   -1.640145   -1.090820
  H      0.852677   -2.055756    0.533042
  H     -1.660317   -2.100685    0.253807
  H     -1.156277   -0.948904    1.485737

 Total Charge           Charge          ....    0
 Multiplicity           Mult            ....    1
 Number of Electrons    NEL             ....   54
 Basis Dimension        Dim             ....  188

ORBITAL ENERGIES
----------------

  NO   OCC          E(Eh)            E(eV)
   0   2.0000     -18.943696      -515.4842
   1   2.0000     -10.120992      -275.4062
   2   2.0000     -10.028211      -272.8815
   3   2.0000     -10.027951      -272.8744
   4   2.0000     -10.026022      -272.8219
   5   2.0000     -10.022128      -272.7160
   6   2.0000     -10.018972      -272.6301
   7   2.0000      -1.011302       -27.5189
   8   2.0000      -0.794644       -21.6234
   9   2.0000      -0.714782       -19.4502
  10   2.0000      -0.686944       -18.6927
  11   2.0000      -0.594250       -16.1704
  12   2.0000      -0.548396       -14.9226
  13   2.0000      -0.478047       -13.0083
  14   2.0000      -0.458437       -12.4747
  15   2.0000      -0.443672       -12.0729
  16   2.0000      -0.415229       -11.2990
  17   2.0000      -0.383232       -10.4283
  18   2.0000      -0.382599       -10.4110
  19   2.0000      -0.366548        -9.9743
  20   2.0000      -0.346446        -9.4273
  21   2.0000      -0.338652        -9.2152
  22   2.0000      -0.326601        -8.8873
  23   2.0000      -0.292319        -7.9544
  24   2.0000      -0.285948        -7.7811
  25   2.0000      -0.277701        -7.5566
  26   2.0000      -0.217461        -5.9174
  27   0.0000      -0.048671        -1.3244
  28   0.0000       0.087122         2.3707
  29   0.0000       0.115461         3.1419
  30   0.0000       0.124403         3.3852
  31   0.0000       0.131903         3.5893

MULLIKEN ATOMIC CHARGES
-----------------------
   0 C :   -0.322750
   1 C :   -0.338802
   2 C :   -0.278907
   3 C :    0.280149
   4 O :   -0.461220
   5 C :   -0.363597
   6 C :   -0.273115
   7 H :    0.158420
   8 H :    0.168359
   9 H :    0.166291
  10 H :    0.169316
  11 H :    0.175995
  12 H :    0.192737
  13 H :    0.196593
  14 H :    0.198411
  15 H :    0.162508
  16 H :    0.169612
Sum of atomic charges:   -0.0000000

LOEWDIN ATOMIC CHARGES
----------------------
   0 C :   -0.303666
   1 C :   -0.287734
   2 C :   -0.270633
   3 C :    0.243018
   4 O :   -0.542627
   5 C :   -0.274541
   6 C :   -0.298982
   7 H :    0.160387
   8 H :    0.161276
   9 H :    0.163047
  10 H :    0.164900
  11 H :    0.179324
  12 H :    0.191992
  13 H :    0.194545
  14 H :    0.193390
  15 H :    0.164195
  16 H :    0.162110

  Mayer bond orders larger than 0.100000
B(  0-C ,  1-C ) :   0.8859 B(  0-C ,  6-C ) :   0.9088 B(  0-C ,  7-H ) :   0.9831
B(  0-C ,  8-H ) :   0.9666 B(  1-C ,  2-C ) :   0.8871 B(  1-C ,  9-H ) :   0.9840
B(  1-C , 10-H ) :   0.9648 B(  2-C ,  3-C ) :   0.9534 B(  2-C , 11-H ) :   0.9504
B(  2-C , 12-H ) :   0.9432 B(  3-C ,  4-O ) :   1.8535 B(  3-C ,  5-C ) :   0.9448
B(  5-C ,  6-C ) :   0.8801 B(  5-C , 13-H ) :   0.9545 B(  5-C , 14-H ) :   0.9285
B(  6-C , 15-H ) :   0.9424 B(  6-C , 16-H ) :   0.9958

Dispersion correction           -0.004786286
FINAL SINGLE POINT ENERGY      -309.809098403822

DIPOLE MOMENT
-------------

Method             : SCF
Type of density    : Electron Density
Multiplicity       :   1
Irrep              :   0
Energy             :  -309.8113364647413164 Eh
Relativity type    :
Basis              : AO
                                X                 Y                 Z
Electronic contribution:      5.567698786       0.065917717      -0.298365124
Nuclear contribution   :     -7.381901368      -0.224433370       0.723948206
                        -----------------------------------------
Total Dipole Moment    :     -1.814202582      -0.158515653       0.425583082
                        -----------------------------------------
Magnitude (a.u.)       :      1.870181590
Magnitude (Debye)      :      4.753623826

Rotational constants in cm-1:             0.144702             0.082151             0.059353
Rotational constants in MHz :          4338.057137          2462.810120          1779.349040

                             ****ORCA TERMINATED NORMALLY****
TOTAL RUN TIME: 0 days 0 hours 0 minutes 24 seconds 98 msec
