                         Program Version 6.0.0  -   RELEASE  -
|  1> ! r2scan-3c def2/J RI DEFGRID2 scfconv6 printgap
|  2> %output
|  3>     printlevel normal
|  4> end
|  5> * xyz 0 1
|  6> C 3.8785566037 -1.203152653 -2.3430862144
|  7> C 2.5096043205 -0.5643652609 -2.2399395242
|  8> O 1.8198599223 -0.971640903 -1.0431515401
|  9> P 2.2878704885 -0.5205955105 0.4025349925
| 10> S 3.134530469 1.2478692347 0.535387106
| 11> O 3.2039516316 -1.7439527188 0.8379039313
| 12> C 4.1035980769 -1.6736798276 1.9578398222
| 13> C 3.3662691528 -1.5698655973 3.2773631432
| 14> S 0.4834753343 -0.8095709471 1.4554234703
| 15> C -0.1685927047 0.8611564746 1.1979641909
| 16> S -0.5156067284 1.2527891923 -0.5462274781
| 17> P -2.5215102267 0.5357935 -0.5966089103
| 18> S -3.4277134489 0.701605364 -2.3234700477
| 19> O -3.2063489967 1.2948145735 0.6195992954
| 20> C -3.5554469211 2.6888402207 0.4941940226
| 21> C -4.3963455504 3.0638172924 1.6973791603
| 22> O -2.490354752 -0.895976629 0.0761032912
| 23> C -2.5568519438 -2.0997875401 -0.7103541895
| 24> C -1.3075924435 -2.3084916684 -1.5422537817
| 25> H 3.7960157545 -2.282990824 -2.2521864229
| 26> H 4.3221394302 -0.9520874767 -3.3014108368
| 27> H 4.5217428541 -0.8301208128 -1.5467943777
| 28> H 1.8490602612 -0.885294415 -3.0466145061
| 29> H 2.5863720422 0.5279469114 -2.2405192383
| 30> H 4.680096879 -2.5970590594 1.8889495412
| 31> H 4.7624823215 -0.8106486432 1.8180213045
| 32> H 4.0781879751 -1.6423332364 4.09334651
| 33> H 2.8521426071 -0.6117492487 3.3420368039
| 34> H 2.6327866448 -2.3674883566 3.3646378494
| 35> H 0.5743341284 1.5874675263 1.5263823169
| 36> H -1.0851410133 0.931426181 1.7786144799
| 37> H -2.6345262989 3.2791647381 0.4477884837
| 38> H -4.1083236109 2.8258963648 -0.4410827285
| 39> H -4.6771592023 4.1091801161 1.6229412801
| 40> H -5.2928770167 2.4515442925 1.727786555
| 41> H -3.8323498641 2.9067390892 2.6121590851
| 42> H -2.6849601174 -2.8888218277 0.0315453657
| 43> H -3.4383199697 -2.0436971841 -1.3566997571
| 44> H -1.3914020992 -3.2417388293 -2.0898254727
| 45> H -1.200256033 -1.4895815865 -2.2545192372
| 46> H -0.4233871601 -2.3420272989 -0.9102208022
| 47> *
| 48>
| 49>                          ****END OF INPUT****

CARTESIAN COORDINATES (ANGSTROEM)
---------------------------------
  C      3.878557   -1.203153   -2.343086
  C      2.509604   -0.564365   -2.239940
  O      1.819860   -0.971641   -1.043152
  P      2.287870   -0.520596    0.402535
  S      3.134530    1.247869    0.535387
  O      3.203952   -1.743953    0.837904
  C      4.103598   -1.673680    1.957840
  C      3.366269   -1.569866    3.277363
  S      0.483475   -0.809571    1.455423
  C     -0.168593    0.861156    1.197964
  S     -0.515607    1.252789   -0.546227
  P     -2.521510    0.535793   -0.596609
  S     -3.427713    0.701605   -2.323470
  O     -3.206349    1.294815    0.619599
  C     -3.555447    2.688840    0.494194
  C     -4.396346    3.063817    1.697379
  O     -2.490355   -0.895977    0.076103
  C     -2.556852   -2.099788   -0.710354
  C     -1.307592   -2.308492   -1.542254
  H      3.796016   -2.282991   -2.252186
  H      4.322139   -0.952087   -3.301411
  H      4.521743   -0.830121   -1.546794
  H      1.849060   -0.885294   -3.046615
  H      2.586372    0.527947   -2.240519
  H      4.680097   -2.597059    1.888950
  H      4.762482   -0.810649    1.818021
  H      4.078188   -1.642333    4.093347
  H      2.852143   -0.611749    3.342037
  H      2.632787   -2.367488    3.364638
  H      0.574334    1.587468    1.526382
  H     -1.085141    0.931426    1.778614
  H     -2.634526    3.279165    0.447788
  H     -4.108324    2.825896   -0.441083
  H     -4.677159    4.109180    1.622941
  H     -5.292877    2.451544    1.727787
  H     -3.832350    2.906739    2.612159
  H     -2.684960   -2.888822    0.031545
  H     -3.438320   -2.043697   -1.356700
  H     -1.391402   -3.241739   -2.089825
  H     -1.200256   -1.489582   -2.254519
  H     -0.423387   -2.342027   -0.910221

 Total Charge           Charge          ....    0
 Multiplicity           Mult            ....    1
 Number of Electrons    NEL             ....  202
 Basis Dimension        Dim             ....  539

ORBITAL ENERGIES
----------------

  NO   OCC          E(Eh)            E(eV)
   0   2.0000     -88.578225     -2410.3360
   1   2.0000     -88.574101     -2410.2238
   2   2.0000     -88.527272     -2408.9495
   3   2.0000     -88.520388     -2408.7622
   4   2.0000     -76.918101     -2093.0479
   5   2.0000     -76.912548     -2092.8968
   6   2.0000     -18.997864      -516.9582
   7   2.0000     -18.991335      -516.7805
   8   2.0000     -18.990767      -516.7650
   9   2.0000     -18.990684      -516.7628
  10   2.0000     -10.108920      -275.0777
  11   2.0000     -10.103199      -274.9220
  12   2.0000     -10.098036      -274.7815
  13   2.0000     -10.097584      -274.7692
  14   2.0000     -10.095458      -274.7114
  15   2.0000     -10.033519      -273.0259
  16   2.0000     -10.032719      -273.0042
  17   2.0000     -10.029767      -272.9238
  18   2.0000     -10.019655      -272.6487
  19   2.0000      -7.872771      -214.2290
  20   2.0000      -7.867833      -214.0946
  21   2.0000      -7.821909      -212.8450
  22   2.0000      -7.814993      -212.6568
  23   2.0000      -6.596714      -179.5057
  24   2.0000      -6.591125      -179.3536
  25   2.0000      -5.819597      -158.3593
  26   2.0000      -5.816699      -158.2804
  27   2.0000      -5.815027      -158.2349
  28   2.0000      -5.811425      -158.1369
  29   2.0000      -5.809818      -158.0932
  30   2.0000      -5.805010      -157.9624
  31   2.0000      -5.769478      -156.9955
  32   2.0000      -5.762647      -156.8096
  33   2.0000      -5.762224      -156.7981
  34   2.0000      -5.761984      -156.7916
  35   2.0000      -5.755218      -156.6075
  36   2.0000      -5.755075      -156.6035
  37   2.0000      -4.742066      -129.0382
  38   2.0000      -4.741576      -129.0248
  39   2.0000      -4.740636      -128.9993
  40   2.0000      -4.736426      -128.8847
  41   2.0000      -4.736413      -128.8844
  42   2.0000      -4.734676      -128.8371
  43   2.0000      -1.053732       -28.6735
  44   2.0000      -1.051962       -28.6253
  45   2.0000      -1.014779       -27.6136
  46   2.0000      -1.010672       -27.5018
  47   2.0000      -0.802472       -21.8364
  48   2.0000      -0.759883       -20.6775
  49   2.0000      -0.750611       -20.4252
  50   2.0000      -0.734009       -19.9734
  51   2.0000      -0.726618       -19.7723
  52   2.0000      -0.712916       -19.3994
  53   2.0000      -0.690644       -18.7934
  54   2.0000      -0.670626       -18.2487
  55   2.0000      -0.635728       -17.2990
  56   2.0000      -0.625753       -17.0276
  57   2.0000      -0.608406       -16.5556
  58   2.0000      -0.598329       -16.2814
  59   2.0000      -0.591178       -16.0868
  60   2.0000      -0.529978       -14.4214
  61   2.0000      -0.520864       -14.1734
  62   2.0000      -0.496112       -13.4999
  63   2.0000      -0.487394       -13.2627
  64   2.0000      -0.480028       -13.0622
  65   2.0000      -0.463356       -12.6086
  66   2.0000      -0.461786       -12.5658
  67   2.0000      -0.455426       -12.3928
  68   2.0000      -0.449625       -12.2349
  69   2.0000      -0.436589       -11.8802
  70   2.0000      -0.427846       -11.6423
  71   2.0000      -0.413249       -11.2451
  72   2.0000      -0.412242       -11.2177
  73   2.0000      -0.407166       -11.0795
  74   2.0000      -0.397766       -10.8238
  75   2.0000      -0.392580       -10.6827
  76   2.0000      -0.383442       -10.4340
  77   2.0000      -0.375865       -10.2278
  78   2.0000      -0.370395       -10.0790
  79   2.0000      -0.368417       -10.0251
  80   2.0000      -0.363876        -9.9016
  81   2.0000      -0.358858        -9.7650
  82   2.0000      -0.357074        -9.7165
  83   2.0000      -0.352381        -9.5888
  84   2.0000      -0.346857        -9.4385
  85   2.0000      -0.333332        -9.0704
  86   2.0000      -0.328575        -8.9410
  87   2.0000      -0.318901        -8.6777
  88   2.0000      -0.313863        -8.5407
  89   2.0000      -0.304704        -8.2914
  90   2.0000      -0.301042        -8.1918
  91   2.0000      -0.292273        -7.9532
  92   2.0000      -0.284714        -7.7475
  93   2.0000      -0.280404        -7.6302
  94   2.0000      -0.271444        -7.3864
  95   2.0000      -0.244867        -6.6632
  96   2.0000      -0.233289        -6.3481
  97   2.0000      -0.227243        -6.1836
  98   2.0000      -0.222256        -6.0479
  99   2.0000      -0.217983        -5.9316
 100   2.0000      -0.216337        -5.8868
 101   0.0000      -0.045529        -1.2389
 102   0.0000      -0.023892        -0.6501
 103   0.0000      -0.012351        -0.3361
 104   0.0000       0.004157         0.1131
 105   0.0000       0.007452         0.2028

MULLIKEN ATOMIC CHARGES
-----------------------
   0 C :   -0.441457
   1 C :   -0.151122
   2 O :   -0.272154
   3 P :    0.666649
   4 S :   -0.477157
   5 O :   -0.302052
   6 C :   -0.149851
   7 C :   -0.452716
   8 S :   -0.100643
   9 C :   -0.241567
  10 S :   -0.149328
  11 P :    0.697518
  12 S :   -0.455254
  13 O :   -0.311028
  14 C :   -0.148098
  15 C :   -0.434215
  16 O :   -0.293672
  17 C :   -0.142008
  18 C :   -0.456077
  19 H :    0.156400
  20 H :    0.148345
  21 H :    0.165471
  22 H :    0.155689
  23 H :    0.173740
  24 H :    0.149602
  25 H :    0.171749
  26 H :    0.149035
  27 H :    0.176446
  28 H :    0.156196
  29 H :    0.218288
  30 H :    0.204178
  31 H :    0.155677
  32 H :    0.170608
  33 H :    0.147509
  34 H :    0.158135
  35 H :    0.148413
  36 H :    0.148399
  37 H :    0.167386
  38 H :    0.144384
  39 H :    0.170460
  40 H :    0.178120
Sum of atomic charges:   -0.0000000

LOEWDIN ATOMIC CHARGES
----------------------
   0 C :   -0.398682
   1 C :    0.020700
   2 O :   -0.680887
   3 P :    0.375507
   4 S :   -0.127683
   5 O :   -0.660286
   6 C :    0.020366
   7 C :   -0.406667
   8 S :    0.175179
   9 C :   -0.413943
  10 S :    0.163735
  11 P :    0.368273
  12 S :   -0.111280
  13 O :   -0.680968
  14 C :    0.019047
  15 C :   -0.384748
  16 O :   -0.659278
  17 C :    0.022009
  18 C :   -0.408632
  19 H :    0.160942
  20 H :    0.159989
  21 H :    0.163880
  22 H :    0.182186
  23 H :    0.181379
  24 H :    0.180161
  25 H :    0.179503
  26 H :    0.159792
  27 H :    0.165282
  28 H :    0.160595
  29 H :    0.191656
  30 H :    0.194348
  31 H :    0.172062
  32 H :    0.181246
  33 H :    0.160289
  34 H :    0.162012
  35 H :    0.157638
  36 H :    0.180789
  37 H :    0.179691
  38 H :    0.157754
  39 H :    0.166467
  40 H :    0.170575

  Mayer bond orders larger than 0.100000
B(  0-C ,  1-C ) :   0.9210 B(  0-C , 19-H ) :   0.9721 B(  0-C , 20-H ) :   0.9618
B(  0-C , 21-H ) :   0.9605 B(  1-C ,  2-O ) :   0.7937 B(  1-C , 22-H ) :   0.9613
B(  1-C , 23-H ) :   0.9640 B(  2-O ,  3-P ) :   1.1438 B(  3-P ,  4-S ) :   1.7466
B(  3-P ,  5-O ) :   1.0645 B(  3-P ,  8-S ) :   1.1030 B(  5-O ,  6-C ) :   0.8133
B(  6-C ,  7-C ) :   0.9217 B(  6-C , 24-H ) :   0.9578 B(  6-C , 25-H ) :   0.9673
B(  7-C , 26-H ) :   0.9584 B(  7-C , 27-H ) :   0.9627 B(  7-C , 28-H ) :   0.9681
B(  8-S ,  9-C ) :   0.9172 B(  9-C , 10-S ) :   0.8967 B(  9-C , 29-H ) :   0.9134
B(  9-C , 30-H ) :   0.9120 B( 10-S , 11-P ) :   1.0396 B( 11-P , 12-S ) :   1.8202
B( 11-P , 13-O ) :   1.0881 B( 11-P , 16-O ) :   1.1175 B( 13-O , 14-C ) :   0.7821
B( 14-C , 15-C ) :   0.9515 B( 14-C , 31-H ) :   0.9438 B( 14-C , 32-H ) :   0.9478
B( 15-C , 33-H ) :   0.9653 B( 15-C , 34-H ) :   0.9722 B( 15-C , 35-H ) :   0.9728
B( 16-O , 17-C ) :   0.7928 B( 17-C , 18-C ) :   0.9284 B( 17-C , 36-H ) :   0.9607
B( 17-C , 37-H ) :   0.9626 B( 18-C , 38-H ) :   0.9617 B( 18-C , 39-H ) :   0.9596
B( 18-C , 40-H ) :   0.9584

Dispersion correction           -0.021331237
FINAL SINGLE POINT ENERGY     -2932.465730743144

DIPOLE MOMENT
-------------

Method             : SCF
Type of density    : Electron Density
Multiplicity       :   1
Irrep              :   0
Energy             : -2932.4908868811698994 Eh
Relativity type    :
Basis              : AO
                                X                 Y                 Z
Electronic contribution:     -5.132867066       5.388953718      -3.825067371
Nuclear contribution   :      5.730906669      -6.089811289       4.722785479
                        -----------------------------------------
Total Dipole Moment    :      0.598039604      -0.700857572       0.897718108
                        -----------------------------------------
Magnitude (a.u.)       :      1.286371061
Magnitude (Debye)      :      3.269695389

Rotational constants in cm-1:             0.012729             0.004624             0.004250
Rotational constants in MHz :           381.616811           138.630011           127.402428

                             ****ORCA TERMINATED NORMALLY****
TOTAL RUN TIME: 0 days 0 hours 1 minutes 22 seconds 225 msec
