                         Program Version 6.0.0  -   RELEASE  -
|  1> ! r2scan-3c def2/J RI DEFGRID2 scfconv6 printgap
|  2> %output
|  3>     printlevel normal
|  4> end
|  5> %cpcm
|  6>     smd true
|  7>     smdsolvent "water"
|  8> end
|  9> * xyz 0 1
| 10> C 3.8785566037 -1.203152653 -2.3430862144
| 11> C 2.5096043205 -0.5643652609 -2.2399395242
| 12> O 1.8198599223 -0.971640903 -1.0431515401
| 13> P 2.2878704885 -0.5205955105 0.4025349925
| 14> S 3.134530469 1.2478692347 0.535387106
| 15> O 3.2039516316 -1.7439527188 0.8379039313
| 16> C 4.1035980769 -1.6736798276 1.9578398222
| 17> C 3.3662691528 -1.5698655973 3.2773631432
| 18> S 0.4834753343 -0.8095709471 1.4554234703
| 19> C -0.1685927047 0.8611564746 1.1979641909
| 20> S -0.5156067284 1.2527891923 -0.5462274781
| 21> P -2.5215102267 0.5357935 -0.5966089103
| 22> S -3.4277134489 0.701605364 -2.3234700477
| 23> O -3.2063489967 1.2948145735 0.6195992954
| 24> C -3.5554469211 2.6888402207 0.4941940226
| 25> C -4.3963455504 3.0638172924 1.6973791603
| 26> O -2.490354752 -0.895976629 0.0761032912
| 27> C -2.5568519438 -2.0997875401 -0.7103541895
| 28> C -1.3075924435 -2.3084916684 -1.5422537817
| 29> H 3.7960157545 -2.282990824 -2.2521864229
| 30> H 4.3221394302 -0.9520874767 -3.3014108368
| 31> H 4.5217428541 -0.8301208128 -1.5467943777
| 32> H 1.8490602612 -0.885294415 -3.0466145061
| 33> H 2.5863720422 0.5279469114 -2.2405192383
| 34> H 4.680096879 -2.5970590594 1.8889495412
| 35> H 4.7624823215 -0.8106486432 1.8180213045
| 36> H 4.0781879751 -1.6423332364 4.09334651
| 37> H 2.8521426071 -0.6117492487 3.3420368039
| 38> H 2.6327866448 -2.3674883566 3.3646378494
| 39> H 0.5743341284 1.5874675263 1.5263823169
| 40> H -1.0851410133 0.931426181 1.7786144799
| 41> H -2.6345262989 3.2791647381 0.4477884837
| 42> H -4.1083236109 2.8258963648 -0.4410827285
| 43> H -4.6771592023 4.1091801161 1.6229412801
| 44> H -5.2928770167 2.4515442925 1.727786555
| 45> H -3.8323498641 2.9067390892 2.6121590851
| 46> H -2.6849601174 -2.8888218277 0.0315453657
| 47> H -3.4383199697 -2.0436971841 -1.3566997571
| 48> H -1.3914020992 -3.2417388293 -2.0898254727
| 49> H -1.200256033 -1.4895815865 -2.2545192372
| 50> H -0.4233871601 -2.3420272989 -0.9102208022
| 51> *
| 52>
| 53>                          ****END OF INPUT****

CARTESIAN COORDINATES (ANGSTROEM)
---------------------------------
  C      3.878557   -1.203153   -2.343086
  C      2.509604   -0.564365   -2.239940
  O      1.819860   -0.971641   -1.043152
  P      2.287870   -0.520596    0.402535
  S      3.134530    1.247869    0.535387
  O      3.203952   -1.743953    0.837904
  C      4.103598   -1.673680    1.957840
  C      3.366269   -1.569866    3.277363
  S      0.483475   -0.809571    1.455423
  C     -0.168593    0.861156    1.197964
  S     -0.515607    1.252789   -0.546227
  P     -2.521510    0.535793   -0.596609
  S     -3.427713    0.701605   -2.323470
  O     -3.206349    1.294815    0.619599
  C     -3.555447    2.688840    0.494194
  C     -4.396346    3.063817    1.697379
  O     -2.490355   -0.895977    0.076103
  C     -2.556852   -2.099788   -0.710354
  C     -1.307592   -2.308492   -1.542254
  H      3.796016   -2.282991   -2.252186
  H      4.322139   -0.952087   -3.301411
  H      4.521743   -0.830121   -1.546794
  H      1.849060   -0.885294   -3.046615
  H      2.586372    0.527947   -2.240519
  H      4.680097   -2.597059    1.888950
  H      4.762482   -0.810649    1.818021
  H      4.078188   -1.642333    4.093347
  H      2.852143   -0.611749    3.342037
  H      2.632787   -2.367488    3.364638
  H      0.574334    1.587468    1.526382
  H     -1.085141    0.931426    1.778614
  H     -2.634526    3.279165    0.447788
  H     -4.108324    2.825896   -0.441083
  H     -4.677159    4.109180    1.622941
  H     -5.292877    2.451544    1.727787
  H     -3.832350    2.906739    2.612159
  H     -2.684960   -2.888822    0.031545
  H     -3.438320   -2.043697   -1.356700
  H     -1.391402   -3.241739   -2.089825
  H     -1.200256   -1.489582   -2.254519
  H     -0.423387   -2.342027   -0.910221

 Total Charge           Charge          ....    0
 Multiplicity           Mult            ....    1
 Number of Electrons    NEL             ....  202
 Basis Dimension        Dim             ....  539

ORBITAL ENERGIES
----------------

  NO   OCC          E(Eh)            E(eV)
   0   2.0000     -88.578599     -2410.3462
   1   2.0000     -88.578073     -2410.3319
   2   2.0000     -88.531010     -2409.0513
   3   2.0000     -88.530641     -2409.0412
   4   2.0000     -76.919562     -2093.0877
   5   2.0000     -76.919453     -2093.0847
   6   2.0000     -18.996586      -516.9234
   7   2.0000     -18.995701      -516.8993
   8   2.0000     -18.993783      -516.8471
   9   2.0000     -18.992035      -516.7995
  10   2.0000     -10.105687      -274.9897
  11   2.0000     -10.090443      -274.5749
  12   2.0000     -10.090209      -274.5685
  13   2.0000     -10.089838      -274.5584
  14   2.0000     -10.088973      -274.5349
  15   2.0000     -10.019671      -272.6491
  16   2.0000     -10.018849      -272.6267
  17   2.0000     -10.018608      -272.6202
  18   2.0000     -10.016124      -272.5526
  19   2.0000      -7.873108      -214.2381
  20   2.0000      -7.871895      -214.2052
  21   2.0000      -7.825979      -212.9557
  22   2.0000      -7.825555      -212.9442
  23   2.0000      -6.598234      -179.5471
  24   2.0000      -6.598105      -179.5436
  25   2.0000      -5.819938      -158.3686
  26   2.0000      -5.819055      -158.3445
  27   2.0000      -5.817041      -158.2897
  28   2.0000      -5.815460      -158.2467
  29   2.0000      -5.810162      -158.1025
  30   2.0000      -5.809130      -158.0745
  31   2.0000      -5.773525      -157.1056
  32   2.0000      -5.773072      -157.0933
  33   2.0000      -5.766242      -156.9074
  34   2.0000      -5.766063      -156.9026
  35   2.0000      -5.765844      -156.8966
  36   2.0000      -5.765660      -156.8916
  37   2.0000      -4.743554      -129.0787
  38   2.0000      -4.743406      -129.0746
  39   2.0000      -4.743349      -129.0731
  40   2.0000      -4.743101      -129.0663
  41   2.0000      -4.742203      -129.0419
  42   2.0000      -4.741735      -129.0292
  43   2.0000      -1.055801       -28.7298
  44   2.0000      -1.053046       -28.6548
  45   2.0000      -1.013698       -27.5841
  46   2.0000      -1.013551       -27.5801
  47   2.0000      -0.802102       -21.8263
  48   2.0000      -0.756599       -20.5881
  49   2.0000      -0.744026       -20.2460
  50   2.0000      -0.723629       -19.6910
  51   2.0000      -0.720544       -19.6070
  52   2.0000      -0.711861       -19.3707
  53   2.0000      -0.693910       -18.8823
  54   2.0000      -0.675457       -18.3801
  55   2.0000      -0.631986       -17.1972
  56   2.0000      -0.623676       -16.9711
  57   2.0000      -0.599671       -16.3179
  58   2.0000      -0.593373       -16.1465
  59   2.0000      -0.587442       -15.9851
  60   2.0000      -0.528011       -14.3679
  61   2.0000      -0.514898       -14.0111
  62   2.0000      -0.490961       -13.3597
  63   2.0000      -0.487377       -13.2622
  64   2.0000      -0.478211       -13.0128
  65   2.0000      -0.458372       -12.4729
  66   2.0000      -0.456350       -12.4179
  67   2.0000      -0.454758       -12.3746
  68   2.0000      -0.443066       -12.0564
  69   2.0000      -0.432173       -11.7600
  70   2.0000      -0.422736       -11.5032
  71   2.0000      -0.411779       -11.2051
  72   2.0000      -0.407191       -11.0802
  73   2.0000      -0.403842       -10.9891
  74   2.0000      -0.395001       -10.7485
  75   2.0000      -0.389289       -10.5931
  76   2.0000      -0.382236       -10.4012
  77   2.0000      -0.368566       -10.0292
  78   2.0000      -0.363858        -9.9011
  79   2.0000      -0.358738        -9.7618
  80   2.0000      -0.353541        -9.6203
  81   2.0000      -0.351791        -9.5727
  82   2.0000      -0.350315        -9.5326
  83   2.0000      -0.347186        -9.4474
  84   2.0000      -0.343909        -9.3582
  85   2.0000      -0.330107        -8.9827
  86   2.0000      -0.325381        -8.8541
  87   2.0000      -0.315677        -8.5900
  88   2.0000      -0.306051        -8.3281
  89   2.0000      -0.304314        -8.2808
  90   2.0000      -0.298830        -8.1316
  91   2.0000      -0.289990        -7.8910
  92   2.0000      -0.281820        -7.6687
  93   2.0000      -0.278510        -7.5786
  94   2.0000      -0.273807        -7.4507
  95   2.0000      -0.247323        -6.7300
  96   2.0000      -0.239686        -6.5222
  97   2.0000      -0.231499        -6.2994
  98   2.0000      -0.230708        -6.2779
  99   2.0000      -0.226641        -6.1672
 100   2.0000      -0.222289        -6.0488
 101   0.0000      -0.047747        -1.2993
 102   0.0000      -0.030057        -0.8179
 103   0.0000      -0.015247        -0.4149
 104   0.0000      -0.001106        -0.0301
 105   0.0000       0.007083         0.1927

MULLIKEN ATOMIC CHARGES
-----------------------
   0 C :   -0.483468
   1 C :   -0.150405
   2 O :   -0.298195
   3 P :    0.705099
   4 S :   -0.524018
   5 O :   -0.328270
   6 C :   -0.151110
   7 C :   -0.488697
   8 S :   -0.104776
   9 C :   -0.248314
  10 S :   -0.174078
  11 P :    0.718570
  12 S :   -0.510417
  13 O :   -0.330393
  14 C :   -0.135259
  15 C :   -0.481053
  16 O :   -0.311970
  17 C :   -0.139790
  18 C :   -0.488121
  19 H :    0.170138
  20 H :    0.171945
  21 H :    0.168114
  22 H :    0.178808
  23 H :    0.176812
  24 H :    0.176000
  25 H :    0.178553
  26 H :    0.173255
  27 H :    0.173227
  28 H :    0.169435
  29 H :    0.237284
  30 H :    0.237537
  31 H :    0.171680
  32 H :    0.172901
  33 H :    0.169396
  34 H :    0.165922
  35 H :    0.166017
  36 H :    0.176846
  37 H :    0.174532
  38 H :    0.171795
  39 H :    0.169171
  40 H :    0.175298
Sum of atomic charges:   -0.0000000

LOEWDIN ATOMIC CHARGES
----------------------
   0 C :   -0.402188
   1 C :    0.023012
   2 O :   -0.694803
   3 P :    0.380830
   4 S :   -0.155634
   5 O :   -0.671748
   6 C :    0.025945
   7 C :   -0.409764
   8 S :    0.175253
   9 C :   -0.403399
  10 S :    0.150805
  11 P :    0.372311
  12 S :   -0.151424
  13 O :   -0.690476
  14 C :    0.024090
  15 C :   -0.388379
  16 O :   -0.668651
  17 C :    0.026431
  18 C :   -0.411231
  19 H :    0.164307
  20 H :    0.168644
  21 H :    0.162626
  22 H :    0.191008
  23 H :    0.181907
  24 H :    0.191320
  25 H :    0.181705
  26 H :    0.168614
  27 H :    0.161628
  28 H :    0.163736
  29 H :    0.198396
  30 H :    0.206186
  31 H :    0.179115
  32 H :    0.181673
  33 H :    0.168950
  34 H :    0.163148
  35 H :    0.162814
  36 H :    0.192064
  37 H :    0.182265
  38 H :    0.167677
  39 H :    0.162958
  40 H :    0.168280

  Mayer bond orders larger than 0.100000
B(  0-C ,  1-C ) :   0.9118 B(  0-C , 19-H ) :   0.9710 B(  0-C , 20-H ) :   0.9560
B(  0-C , 21-H ) :   0.9595 B(  1-C ,  2-O ) :   0.7816 B(  1-C , 22-H ) :   0.9521
B(  1-C , 23-H ) :   0.9603 B(  2-O ,  3-P ) :   1.1489 B(  3-P ,  4-S ) :   1.7019
B(  3-P ,  5-O ) :   1.0728 B(  3-P ,  8-S ) :   1.1142 B(  5-O ,  6-C ) :   0.8015
B(  6-C ,  7-C ) :   0.9081 B(  6-C , 24-H ) :   0.9482 B(  6-C , 25-H ) :   0.9659
B(  7-C , 26-H ) :   0.9532 B(  7-C , 27-H ) :   0.9636 B(  7-C , 28-H ) :   0.9653
B(  8-S ,  9-C ) :   0.9134 B(  9-C , 10-S ) :   0.8914 B(  9-C , 29-H ) :   0.9071
B(  9-C , 30-H ) :   0.9012 B( 10-S , 11-P ) :   1.0566 B( 11-P , 12-S ) :   1.7847
B( 11-P , 13-O ) :   1.0973 B( 11-P , 16-O ) :   1.1222 B( 13-O , 14-C ) :   0.7765
B( 14-C , 15-C ) :   0.9469 B( 14-C , 31-H ) :   0.9353 B( 14-C , 32-H ) :   0.9447
B( 15-C , 33-H ) :   0.9589 B( 15-C , 34-H ) :   0.9707 B( 15-C , 35-H ) :   0.9703
B( 16-O , 17-C ) :   0.7825 B( 17-C , 18-C ) :   0.9159 B( 17-C , 36-H ) :   0.9507
B( 17-C , 37-H ) :   0.9597 B( 18-C , 38-H ) :   0.9562 B( 18-C , 39-H ) :   0.9620
B( 18-C , 40-H ) :   0.9587

Dispersion correction           -0.021331237
FINAL SINGLE POINT ENERGY     -2932.474014895893

DIPOLE MOMENT
-------------

Method             : SCF
Type of density    : Electron Density
Multiplicity       :   1
Irrep              :   0
Energy             : -2932.4991710339190831 Eh
Relativity type    :
Basis              : AO
                                X                 Y                 Z
Electronic contribution:     -4.941433085       5.202471502      -3.429312076
Nuclear contribution   :      5.730906669      -6.089811289       4.722785479
                        -----------------------------------------
Total Dipole Moment    :      0.789473585      -0.887339787       1.293473403
                        -----------------------------------------
Magnitude (a.u.)       :      1.756050650
Magnitude (Debye)      :      4.463526029

Rotational constants in cm-1:             0.012729             0.004624             0.004250
Rotational constants in MHz :           381.616811           138.630011           127.402428

                             ****ORCA TERMINATED NORMALLY****
TOTAL RUN TIME: 0 days 0 hours 1 minutes 47 seconds 213 msec
