                         Program Version 6.0.0  -   RELEASE  -
|  1> ! pbe def2-sv(p) def2/J RI DEFGRID1 loosescf d4 GCP(DFT/SV(P)) printgap
|  2> %output
|  3>     printlevel normal
|  4> end
|  5> * xyz 0 1
|  6> C 3.0320389875 0.3886323791 3.2226743779
|  7> C 1.6547754326 -0.0114205344 2.7390883857
|  8> O 1.4089510778 0.4670995463 1.3996124977
|  9> P 2.1824511396 -0.1182710938 0.1512176981
| 10> S 2.7382549713 -1.9968684015 0.3039198475
| 11> O 3.316219402 0.9765813977 -0.0431796846
| 12> C 4.2640522973 0.9384536206 -1.1279719614
| 13> C 5.5080373801 0.1615761902 -0.741605561
| 14> S 0.8485773611 0.3082976369 -1.4396862004
| 15> C -0.1161049958 -1.2181379729 -1.2928816818
| 16> S -1.1447499005 -1.2513599787 0.1905305394
| 17> P -2.5330291091 0.2332552949 -0.4737574857
| 18> S -2.9258951612 0.22569401 -2.3889091389
| 19> O -1.9589483935 1.6399903449 -0.0585787113
| 20> C -1.6556635071 2.0070432836 1.3109070293
| 21> C -0.6447474045 3.1340278296 1.2761513815
| 22> O -3.732946106 0.0750438188 0.5563993298
| 23> C -4.4000842889 -1.1595245667 0.8826019416
| 24> C -4.9112823002 -1.8923373543 -0.3395866723
| 25> H 3.1557549618 0.0838288468 4.2570272169
| 26> H 3.7900241977 -0.1039335978 2.6145330618
| 27> H 3.1619900236 1.4643923492 3.141279955
| 28> H 0.8655020816 0.4494264193 3.3342012392
| 29> H 1.5398979542 -1.1000457094 2.7463112246
| 30> H 3.7854103619 0.5033842937 -2.01029195
| 31> H 4.4954972643 1.9874263944 -1.322424763
| 32> H 5.9592619855 0.5955988861 0.1462656006
| 33> H 5.2577427361 -0.8770295187 -0.5369058136
| 34> H 6.2199570035 0.1978855723 -1.5598539993
| 35> H 0.5591975779 -2.0720638181 -1.230836861
| 36> H -0.754701326 -1.2706634172 -2.1754135928
| 37> H -2.5901407465 2.3156227436 1.7832429947
| 38> H -1.2594575005 1.128314362 1.8287983496
| 39> H -0.4524553284 3.4728836056 2.2890790193
| 40> H 0.2853092076 2.7906237123 0.8295000288
| 41> H -1.0318154372 3.9593983177 0.6855529056
| 42> H -3.7007434314 -1.7850073091 1.4443230491
| 43> H -5.2193743928 -0.8428289113 1.5303767836
| 44> H -4.0771586817 -2.2169642211 -0.9601017212
| 45> H -5.479380366 -2.762505274 -0.0268892207
| 46> H -5.5466731193 -1.2408867088 -0.9349044044
| 47> *
| 48>
| 49>                          ****END OF INPUT****

CARTESIAN COORDINATES (ANGSTROEM)
---------------------------------
  C      3.032039    0.388632    3.222674
  C      1.654775   -0.011421    2.739088
  O      1.408951    0.467100    1.399612
  P      2.182451   -0.118271    0.151218
  S      2.738255   -1.996868    0.303920
  O      3.316219    0.976581   -0.043180
  C      4.264052    0.938454   -1.127972
  C      5.508037    0.161576   -0.741606
  S      0.848577    0.308298   -1.439686
  C     -0.116105   -1.218138   -1.292882
  S     -1.144750   -1.251360    0.190531
  P     -2.533029    0.233255   -0.473757
  S     -2.925895    0.225694   -2.388909
  O     -1.958948    1.639990   -0.058579
  C     -1.655664    2.007043    1.310907
  C     -0.644747    3.134028    1.276151
  O     -3.732946    0.075044    0.556399
  C     -4.400084   -1.159525    0.882602
  C     -4.911282   -1.892337   -0.339587
  H      3.155755    0.083829    4.257027
  H      3.790024   -0.103934    2.614533
  H      3.161990    1.464392    3.141280
  H      0.865502    0.449426    3.334201
  H      1.539898   -1.100046    2.746311
  H      3.785410    0.503384   -2.010292
  H      4.495497    1.987426   -1.322425
  H      5.959262    0.595599    0.146266
  H      5.257743   -0.877030   -0.536906
  H      6.219957    0.197886   -1.559854
  H      0.559198   -2.072064   -1.230837
  H     -0.754701   -1.270663   -2.175414
  H     -2.590141    2.315623    1.783243
  H     -1.259458    1.128314    1.828798
  H     -0.452455    3.472884    2.289079
  H      0.285309    2.790624    0.829500
  H     -1.031815    3.959398    0.685553
  H     -3.700743   -1.785007    1.444323
  H     -5.219374   -0.842829    1.530377
  H     -4.077159   -2.216964   -0.960102
  H     -5.479380   -2.762505   -0.026889
  H     -5.546673   -1.240887   -0.934904

 Total Charge           Charge          ....    0
 Multiplicity           Mult            ....    1
 Number of Electrons    NEL             ....  202
 Basis Dimension        Dim             ....  334

ORBITAL ENERGIES
----------------

  NO   OCC          E(Eh)            E(eV)
   0   2.0000     -88.043345     -2395.7812
   1   2.0000     -88.042998     -2395.7718
   2   2.0000     -87.993692     -2394.4301
   3   2.0000     -87.981564     -2394.1001
   4   2.0000     -76.431396     -2079.8040
   5   2.0000     -76.424518     -2079.6169
   6   2.0000     -18.799032      -511.5477
   7   2.0000     -18.797060      -511.4940
   8   2.0000     -18.795258      -511.4450
   9   2.0000     -18.786781      -511.2143
  10   2.0000      -9.959470      -271.0110
  11   2.0000      -9.959323      -271.0069
  12   2.0000      -9.957187      -270.9488
  13   2.0000      -9.951735      -270.8005
  14   2.0000      -9.950230      -270.7595
  15   2.0000      -9.888366      -269.0761
  16   2.0000      -9.884821      -268.9797
  17   2.0000      -9.883232      -268.9364
  18   2.0000      -9.880869      -268.8721
  19   2.0000      -7.688469      -209.2139
  20   2.0000      -7.687703      -209.1930
  21   2.0000      -7.638527      -207.8549
  22   2.0000      -7.626933      -207.5394
  23   2.0000      -6.428957      -174.9408
  24   2.0000      -6.421733      -174.7442
  25   2.0000      -5.716250      -155.5471
  26   2.0000      -5.715334      -155.5221
  27   2.0000      -5.713072      -155.4606
  28   2.0000      -5.712228      -155.4376
  29   2.0000      -5.705436      -155.2528
  30   2.0000      -5.704983      -155.2405
  31   2.0000      -5.667292      -154.2149
  32   2.0000      -5.659115      -153.9924
  33   2.0000      -5.658890      -153.9862
  34   2.0000      -5.655982      -153.9071
  35   2.0000      -5.647457      -153.6751
  36   2.0000      -5.646999      -153.6627
  37   2.0000      -4.651441      -126.5721
  38   2.0000      -4.650753      -126.5534
  39   2.0000      -4.649447      -126.5179
  40   2.0000      -4.644595      -126.3858
  41   2.0000      -4.643738      -126.3625
  42   2.0000      -4.641760      -126.3087
  43   2.0000      -0.993669       -27.0391
  44   2.0000      -0.987206       -26.8632
  45   2.0000      -0.952398       -25.9161
  46   2.0000      -0.942364       -25.6430
  47   2.0000      -0.765609       -20.8333
  48   2.0000      -0.723145       -19.6778
  49   2.0000      -0.711602       -19.3637
  50   2.0000      -0.691258       -18.8101
  51   2.0000      -0.688918       -18.7464
  52   2.0000      -0.676809       -18.4169
  53   2.0000      -0.652195       -17.7471
  54   2.0000      -0.639166       -17.3926
  55   2.0000      -0.602584       -16.3971
  56   2.0000      -0.589200       -16.0329
  57   2.0000      -0.574728       -15.6391
  58   2.0000      -0.568680       -15.4746
  59   2.0000      -0.564703       -15.3663
  60   2.0000      -0.509168       -13.8552
  61   2.0000      -0.500005       -13.6058
  62   2.0000      -0.481032       -13.0895
  63   2.0000      -0.473641       -12.8884
  64   2.0000      -0.460396       -12.5280
  65   2.0000      -0.449431       -12.2296
  66   2.0000      -0.443397       -12.0655
  67   2.0000      -0.435201       -11.8424
  68   2.0000      -0.428639       -11.6639
  69   2.0000      -0.416776       -11.3411
  70   2.0000      -0.409215       -11.1353
  71   2.0000      -0.403291       -10.9741
  72   2.0000      -0.396024       -10.7764
  73   2.0000      -0.390249       -10.6192
  74   2.0000      -0.383184       -10.4270
  75   2.0000      -0.376966       -10.2578
  76   2.0000      -0.362638        -9.8679
  77   2.0000      -0.356835        -9.7100
  78   2.0000      -0.351371        -9.5613
  79   2.0000      -0.350759        -9.5446
  80   2.0000      -0.347543        -9.4571
  81   2.0000      -0.345186        -9.3930
  82   2.0000      -0.341876        -9.3029
  83   2.0000      -0.338677        -9.2159
  84   2.0000      -0.336556        -9.1582
  85   2.0000      -0.323880        -8.8132
  86   2.0000      -0.313696        -8.5361
  87   2.0000      -0.301953        -8.2166
  88   2.0000      -0.297060        -8.0834
  89   2.0000      -0.293145        -7.9769
  90   2.0000      -0.292587        -7.9617
  91   2.0000      -0.280550        -7.6342
  92   2.0000      -0.274085        -7.4582
  93   2.0000      -0.269085        -7.3222
  94   2.0000      -0.256863        -6.9896
  95   2.0000      -0.236190        -6.4271
  96   2.0000      -0.221385        -6.0242
  97   2.0000      -0.213346        -5.8054
  98   2.0000      -0.206554        -5.6206
  99   2.0000      -0.199395        -5.4258
 100   2.0000      -0.197032        -5.3615
 101   0.0000      -0.045230        -1.2308
 102   0.0000      -0.024400        -0.6640
 103   0.0000      -0.004971        -0.1353
 104   0.0000      -0.002747        -0.0747
 105   0.0000       0.014433         0.3927

MULLIKEN ATOMIC CHARGES
-----------------------
   0 C :   -0.305404
   1 C :   -0.009535
   2 O :   -0.360538
   3 P :    0.612808
   4 S :   -0.333332
   5 O :   -0.373205
   6 C :   -0.013603
   7 C :   -0.298173
   8 S :   -0.058102
   9 C :   -0.373857
  10 S :   -0.108677
  11 P :    0.600770
  12 S :   -0.309084
  13 O :   -0.350655
  14 C :   -0.014396
  15 C :   -0.283994
  16 O :   -0.384439
  17 C :   -0.010035
  18 C :   -0.308484
  19 H :    0.113083
  20 H :    0.126134
  21 H :    0.117159
  22 H :    0.105246
  23 H :    0.115452
  24 H :    0.106529
  25 H :    0.110843
  26 H :    0.114512
  27 H :    0.131660
  28 H :    0.110211
  29 H :    0.194119
  30 H :    0.195641
  31 H :    0.103950
  32 H :    0.105722
  33 H :    0.100191
  34 H :    0.128594
  35 H :    0.117813
  36 H :    0.112077
  37 H :    0.108582
  38 H :    0.125488
  39 H :    0.111234
  40 H :    0.127697
Sum of atomic charges:    0.0000000

LOEWDIN ATOMIC CHARGES
----------------------
   0 C :   -0.365021
   1 C :   -0.117657
   2 O :   -0.232138
   3 P :    0.570896
   4 S :   -0.317247
   5 O :   -0.243374
   6 C :   -0.115508
   7 C :   -0.364508
   8 S :    0.097581
   9 C :   -0.488751
  10 S :    0.064460
  11 P :    0.568289
  12 S :   -0.305579
  13 O :   -0.232332
  14 C :   -0.114486
  15 C :   -0.353520
  16 O :   -0.247728
  17 C :   -0.114295
  18 C :   -0.368799
  19 H :    0.131193
  20 H :    0.123193
  21 H :    0.126652
  22 H :    0.115136
  23 H :    0.111840
  24 H :    0.108583
  25 H :    0.120705
  26 H :    0.125434
  27 H :    0.124605
  28 H :    0.130147
  29 H :    0.127789
  30 H :    0.128665
  31 H :    0.112918
  32 H :    0.102484
  33 H :    0.125520
  34 H :    0.125032
  35 H :    0.128428
  36 H :    0.107985
  37 H :    0.120910
  38 H :    0.121549
  39 H :    0.130067
  40 H :    0.130882

  Mayer bond orders larger than 0.100000
B(  0-C ,  1-C ) :   1.1662 B(  0-C , 19-H ) :   0.9383 B(  0-C , 20-H ) :   0.9328
B(  0-C , 21-H ) :   0.9463 B(  1-C ,  2-O ) :   0.9005 B(  1-C , 22-H ) :   0.9293
B(  1-C , 23-H ) :   0.9148 B(  2-O ,  3-P ) :   1.1133 B(  3-P ,  4-S ) :   1.5912
B(  3-P ,  5-O ) :   1.1102 B(  3-P ,  8-S ) :   0.9691 B(  4-S ,  8-S ) :   0.1112
B(  5-O ,  6-C ) :   0.9037 B(  6-C ,  7-C ) :   1.1671 B(  6-C , 24-H ) :   0.9164
B(  6-C , 25-H ) :   0.9355 B(  7-C , 26-H ) :   0.9466 B(  7-C , 27-H ) :   0.9315
B(  7-C , 28-H ) :   0.9391 B(  8-S ,  9-C ) :   1.0068 B(  9-C , 10-S ) :   1.0067
B(  9-C , 29-H ) :   0.8718 B(  9-C , 30-H ) :   0.8689 B( 10-S , 11-P ) :   0.9341
B( 10-S , 12-S ) :   0.1097 B( 11-P , 12-S ) :   1.6471 B( 11-P , 13-O ) :   1.1428
B( 11-P , 16-O ) :   1.0843 B( 13-O , 14-C ) :   0.8875 B( 14-C , 15-C ) :   1.1688
B( 14-C , 31-H ) :   0.9316 B( 14-C , 32-H ) :   0.9091 B( 15-C , 33-H ) :   0.9410
B( 15-C , 34-H ) :   0.9392 B( 15-C , 35-H ) :   0.9478 B( 16-O , 17-C ) :   0.9137
B( 17-C , 18-C ) :   1.1672 B( 17-C , 36-H ) :   0.9267 B( 17-C , 37-H ) :   0.9334
B( 18-C , 38-H ) :   0.9324 B( 18-C , 39-H ) :   0.9348 B( 18-C , 40-H ) :   0.9430

Dispersion correction           -0.065783055
FINAL SINGLE POINT ENERGY     -2929.523701285761

DIPOLE MOMENT
-------------

Method             : SCF
Type of density    : Electron Density
Multiplicity       :   1
Irrep              :   0
Energy             : -2929.6433671227314335 Eh
Relativity type    :
Basis              : AO
                                X                 Y                 Z
Electronic contribution:     -8.304570945      -4.167071100     -13.774259926
Nuclear contribution   :      8.722369868       4.410307171      15.303645363
                        -----------------------------------------
Total Dipole Moment    :      0.417798923       0.243236071       1.529385436
                        -----------------------------------------
Magnitude (a.u.)       :      1.603976165
Magnitude (Debye)      :      4.076983409

Rotational constants in cm-1:             0.013580             0.004698             0.004515
Rotational constants in MHz :           407.115324           140.833860           135.367884

                             ****ORCA TERMINATED NORMALLY****
TOTAL RUN TIME: 0 days 0 hours 0 minutes 21 seconds 369 msec
