                         Program Version 6.0.0  -   RELEASE  -
|  1> ! pbe def2-sv(p) def2/J RI DEFGRID1 loosescf d4 GCP(DFT/SV(P)) printgap
|  2> %output
|  3>     printlevel normal
|  4> end
|  5> * xyz 0 1
|  6> C 3.4461343659 -2.3803065222 1.8844669135
|  7> C 3.5278624329 -0.8736117567 1.7471553131
|  8> O 3.599158433 -0.4858022228 0.3501840044
|  9> P 2.3504671723 0.0137184868 -0.4837052266
| 10> S 2.8615864742 0.5754012179 -2.2827433446
| 11> O 1.6317828704 1.130142122 0.4247893332
| 12> C 1.811562636 2.5349624039 0.1813110834
| 13> C 3.1799392409 2.9995200755 0.6359047164
| 14> S 0.9247624662 -1.5332339906 -0.324557746
| 15> C -0.1460306755 -0.9931916841 -1.6801827324
| 16> S -0.8226838997 0.6859744766 -1.4798840357
| 17> P -2.3809757403 0.2612125734 -0.1148080778
| 18> S -3.3406088321 1.8211567125 0.5768312048
| 19> O -1.7470608621 -0.6841293387 0.9961227845
| 20> C -1.0930478351 -0.1651734621 2.1688872237
| 21> C -0.7888638264 -1.339985026 3.0757249336
| 22> O -3.2061777852 -0.7767568425 -0.981309796
| 23> C -4.592723824 -1.0635317699 -0.6978347627
| 24> C -4.7605781031 -1.7779835349 0.6261115101
| 25> H 3.4733542241 -2.6412889536 2.9377074634
| 26> H 2.523963234 -2.7553811973 1.4459240727
| 27> H 4.2870304561 -2.8451488186 1.3775899297
| 28> H 4.4523663568 -0.487958507 2.1802514418
| 29> H 2.6685011034 -0.3832214468 2.2103887604
| 30> H 1.6699879311 2.7239794468 -0.8877982812
| 31> H 1.0071980253 3.0138049908 0.7430324018
| 32> H 3.9496350399 2.4814470047 0.0639261213
| 33> H 3.2720890027 4.0673398631 0.4650042106
| 34> H 3.3208213941 2.7898399903 1.6930325587
| 35> H -0.9603136027 -1.709209913 -1.7485490318
| 36> H 0.4377001383 -0.9605578452 -2.599536068
| 37> H -0.1769715687 0.3480067175 1.8622734402
| 38> H -1.7597326323 0.5619749823 2.6437352941
| 39> H -0.2770307632 -0.9829823066 3.9631687288
| 40> H -1.7103171233 -1.834761383 3.3675908
| 41> H -0.156863434 -2.0514989436 2.5512938239
| 42> H -5.1475615253 -0.1202341558 -0.7019042041
| 43> H -4.9063314561 -1.68288882 -1.5391702788
| 44> H -5.7997746241 -2.0665801999 0.7492338889
| 45> H -4.1311580589 -2.6633150234 0.6591424803
| 46> H -4.4796644459 -1.1123464225 1.4410902163
| 47> *
| 48>
| 49>                          ****END OF INPUT****

CARTESIAN COORDINATES (ANGSTROEM)
---------------------------------
  C      3.446134   -2.380307    1.884467
  C      3.527862   -0.873612    1.747155
  O      3.599158   -0.485802    0.350184
  P      2.350467    0.013718   -0.483705
  S      2.861586    0.575401   -2.282743
  O      1.631783    1.130142    0.424789
  C      1.811563    2.534962    0.181311
  C      3.179939    2.999520    0.635905
  S      0.924762   -1.533234   -0.324558
  C     -0.146031   -0.993192   -1.680183
  S     -0.822684    0.685974   -1.479884
  P     -2.380976    0.261213   -0.114808
  S     -3.340609    1.821157    0.576831
  O     -1.747061   -0.684129    0.996123
  C     -1.093048   -0.165173    2.168887
  C     -0.788864   -1.339985    3.075725
  O     -3.206178   -0.776757   -0.981310
  C     -4.592724   -1.063532   -0.697835
  C     -4.760578   -1.777984    0.626112
  H      3.473354   -2.641289    2.937707
  H      2.523963   -2.755381    1.445924
  H      4.287030   -2.845149    1.377590
  H      4.452366   -0.487959    2.180251
  H      2.668501   -0.383221    2.210389
  H      1.669988    2.723979   -0.887798
  H      1.007198    3.013805    0.743032
  H      3.949635    2.481447    0.063926
  H      3.272089    4.067340    0.465004
  H      3.320821    2.789840    1.693033
  H     -0.960314   -1.709210   -1.748549
  H      0.437700   -0.960558   -2.599536
  H     -0.176972    0.348007    1.862273
  H     -1.759733    0.561975    2.643735
  H     -0.277031   -0.982982    3.963169
  H     -1.710317   -1.834761    3.367591
  H     -0.156863   -2.051499    2.551294
  H     -5.147562   -0.120234   -0.701904
  H     -4.906331   -1.682889   -1.539170
  H     -5.799775   -2.066580    0.749234
  H     -4.131158   -2.663315    0.659142
  H     -4.479664   -1.112346    1.441090

 Total Charge           Charge          ....    0
 Multiplicity           Mult            ....    1
 Number of Electrons    NEL             ....  202
 Basis Dimension        Dim             ....  334

ORBITAL ENERGIES
----------------

  NO   OCC          E(Eh)            E(eV)
   0   2.0000     -88.046504     -2395.8672
   1   2.0000     -88.040756     -2395.7108
   2   2.0000     -87.990525     -2394.3439
   3   2.0000     -87.987258     -2394.2550
   4   2.0000     -76.430549     -2079.7810
   5   2.0000     -76.425492     -2079.6434
   6   2.0000     -18.800962      -511.6002
   7   2.0000     -18.793827      -511.4060
   8   2.0000     -18.793783      -511.4048
   9   2.0000     -18.791773      -511.3501
  10   2.0000      -9.966373      -271.1988
  11   2.0000      -9.959192      -271.0034
  12   2.0000      -9.954944      -270.8878
  13   2.0000      -9.949138      -270.7298
  14   2.0000      -9.948607      -270.7154
  15   2.0000      -9.896374      -269.2940
  16   2.0000      -9.888554      -269.0812
  17   2.0000      -9.886707      -269.0310
  18   2.0000      -9.885437      -268.9964
  19   2.0000      -7.691560      -209.2980
  20   2.0000      -7.685789      -209.1410
  21   2.0000      -7.635752      -207.7794
  22   2.0000      -7.632469      -207.6900
  23   2.0000      -6.428216      -174.9206
  24   2.0000      -6.423473      -174.7916
  25   2.0000      -5.719366      -155.6319
  26   2.0000      -5.716143      -155.5442
  27   2.0000      -5.714066      -155.4876
  28   2.0000      -5.710130      -155.3805
  29   2.0000      -5.708467      -155.3353
  30   2.0000      -5.702516      -155.1734
  31   2.0000      -5.664872      -154.1490
  32   2.0000      -5.661382      -154.0540
  33   2.0000      -5.656315      -153.9162
  34   2.0000      -5.655731      -153.9003
  35   2.0000      -5.653072      -153.8279
  36   2.0000      -5.652672      -153.8170
  37   2.0000      -4.651124      -126.5635
  38   2.0000      -4.649605      -126.5222
  39   2.0000      -4.648752      -126.4990
  40   2.0000      -4.645844      -126.4199
  41   2.0000      -4.645469      -126.4097
  42   2.0000      -4.643868      -126.3661
  43   2.0000      -0.990097       -26.9419
  44   2.0000      -0.988061       -26.8865
  45   2.0000      -0.948324       -25.8052
  46   2.0000      -0.946500       -25.7556
  47   2.0000      -0.766271       -20.8513
  48   2.0000      -0.726345       -19.7649
  49   2.0000      -0.714222       -19.4350
  50   2.0000      -0.693842       -18.8804
  51   2.0000      -0.690169       -18.7805
  52   2.0000      -0.675166       -18.3722
  53   2.0000      -0.655949       -17.8493
  54   2.0000      -0.640431       -17.4270
  55   2.0000      -0.599710       -16.3189
  56   2.0000      -0.593053       -16.1378
  57   2.0000      -0.584201       -15.8969
  58   2.0000      -0.566654       -15.4195
  59   2.0000      -0.565155       -15.3786
  60   2.0000      -0.507137       -13.7999
  61   2.0000      -0.502427       -13.6717
  62   2.0000      -0.482507       -13.1297
  63   2.0000      -0.478063       -13.0087
  64   2.0000      -0.461937       -12.5700
  65   2.0000      -0.454548       -12.3689
  66   2.0000      -0.440405       -11.9840
  67   2.0000      -0.436665       -11.8823
  68   2.0000      -0.427690       -11.6380
  69   2.0000      -0.417219       -11.3531
  70   2.0000      -0.413612       -11.2549
  71   2.0000      -0.401335       -10.9209
  72   2.0000      -0.400112       -10.8876
  73   2.0000      -0.382049       -10.3961
  74   2.0000      -0.381016       -10.3680
  75   2.0000      -0.377606       -10.2752
  76   2.0000      -0.366105        -9.9622
  77   2.0000      -0.365544        -9.9469
  78   2.0000      -0.363780        -9.8990
  79   2.0000      -0.359364        -9.7788
  80   2.0000      -0.353064        -9.6074
  81   2.0000      -0.348635        -9.4868
  82   2.0000      -0.347985        -9.4692
  83   2.0000      -0.343050        -9.3349
  84   2.0000      -0.334883        -9.1126
  85   2.0000      -0.320495        -8.7211
  86   2.0000      -0.318344        -8.6626
  87   2.0000      -0.308528        -8.3955
  88   2.0000      -0.299856        -8.1595
  89   2.0000      -0.289838        -7.8869
  90   2.0000      -0.283909        -7.7255
  91   2.0000      -0.279070        -7.5939
  92   2.0000      -0.276690        -7.5291
  93   2.0000      -0.271562        -7.3896
  94   2.0000      -0.258365        -7.0305
  95   2.0000      -0.231673        -6.3041
  96   2.0000      -0.218594        -5.9482
  97   2.0000      -0.210645        -5.7319
  98   2.0000      -0.207799        -5.6545
  99   2.0000      -0.205070        -5.5802
 100   2.0000      -0.202858        -5.5201
 101   0.0000      -0.043812        -1.1922
 102   0.0000      -0.019260        -0.5241
 103   0.0000      -0.010559        -0.2873
 104   0.0000      -0.003330        -0.0906
 105   0.0000       0.006914         0.1881

MULLIKEN ATOMIC CHARGES
-----------------------
   0 C :   -0.301824
   1 C :   -0.036287
   2 O :   -0.364569
   3 P :    0.617835
   4 S :   -0.304131
   5 O :   -0.382616
   6 C :   -0.007579
   7 C :   -0.308399
   8 S :   -0.107368
   9 C :   -0.342466
  10 S :   -0.062903
  11 P :    0.609905
  12 S :   -0.329447
  13 O :   -0.381451
  14 C :   -0.033599
  15 C :   -0.287776
  16 O :   -0.379949
  17 C :   -0.003961
  18 C :   -0.309531
  19 H :    0.113651
  20 H :    0.138782
  21 H :    0.126584
  22 H :    0.114689
  23 H :    0.114771
  24 H :    0.118258
  25 H :    0.107802
  26 H :    0.127331
  27 H :    0.115519
  28 H :    0.107560
  29 H :    0.188687
  30 H :    0.196338
  31 H :    0.126212
  32 H :    0.106424
  33 H :    0.106283
  34 H :    0.114139
  35 H :    0.117388
  36 H :    0.115386
  37 H :    0.106525
  38 H :    0.113300
  39 H :    0.115754
  40 H :    0.124734
Sum of atomic charges:    0.0000000

LOEWDIN ATOMIC CHARGES
----------------------
   0 C :   -0.361005
   1 C :   -0.117052
   2 O :   -0.241443
   3 P :    0.569278
   4 S :   -0.302229
   5 O :   -0.251850
   6 C :   -0.124197
   7 C :   -0.364730
   8 S :    0.092772
   9 C :   -0.474996
  10 S :    0.099519
  11 P :    0.564689
  12 S :   -0.326152
  13 O :   -0.246188
  14 C :   -0.131394
  15 C :   -0.353323
  16 O :   -0.247605
  17 C :   -0.114573
  18 C :   -0.366167
  19 H :    0.132055
  20 H :    0.118884
  21 H :    0.132613
  22 H :    0.123325
  23 H :    0.109542
  24 H :    0.110274
  25 H :    0.118443
  26 H :    0.124568
  27 H :    0.132387
  28 H :    0.120780
  29 H :    0.136026
  30 H :    0.135909
  31 H :    0.107747
  32 H :    0.107718
  33 H :    0.127502
  34 H :    0.125938
  35 H :    0.120387
  36 H :    0.113768
  37 H :    0.119415
  38 H :    0.131054
  39 H :    0.125634
  40 H :    0.122677

  Mayer bond orders larger than 0.100000
B(  0-C ,  1-C ) :   1.1681 B(  0-C , 19-H ) :   0.9383 B(  0-C , 20-H ) :   0.9315
B(  0-C , 21-H ) :   0.9444 B(  1-C ,  2-O ) :   0.8975 B(  1-C , 22-H ) :   0.9330
B(  1-C , 23-H ) :   0.9142 B(  2-O ,  3-P ) :   1.1278 B(  3-P ,  4-S ) :   1.6406
B(  3-P ,  5-O ) :   1.0506 B(  3-P ,  8-S ) :   0.9664 B(  4-S ,  8-S ) :   0.1027
B(  5-O ,  6-C ) :   0.8970 B(  6-C ,  7-C ) :   1.1613 B(  6-C , 24-H ) :   0.9122
B(  6-C , 25-H ) :   0.9320 B(  7-C , 26-H ) :   0.9359 B(  7-C , 27-H ) :   0.9407
B(  7-C , 28-H ) :   0.9475 B(  8-S ,  9-C ) :   0.9951 B(  9-C , 10-S ) :   0.9899
B(  9-C , 29-H ) :   0.8963 B(  9-C , 30-H ) :   0.8863 B( 10-S , 11-P ) :   0.9788
B( 11-P , 12-S ) :   1.6465 B( 11-P , 13-O ) :   1.0907 B( 11-P , 16-O ) :   1.1030
B( 13-O , 14-C ) :   0.8890 B( 14-C , 15-C ) :   1.1621 B( 14-C , 31-H ) :   0.9025
B( 14-C , 32-H ) :   0.9142 B( 15-C , 33-H ) :   0.9424 B( 15-C , 34-H ) :   0.9497
B( 15-C , 35-H ) :   0.9445 B( 16-O , 17-C ) :   0.9046 B( 17-C , 18-C ) :   1.1636
B( 17-C , 36-H ) :   0.9186 B( 17-C , 37-H ) :   0.9357 B( 18-C , 38-H ) :   0.9375
B( 18-C , 39-H ) :   0.9458 B( 18-C , 40-H ) :   0.9346

Dispersion correction           -0.066032959
FINAL SINGLE POINT ENERGY     -2929.521688748743

DIPOLE MOMENT
-------------

Method             : SCF
Type of density    : Electron Density
Multiplicity       :   1
Irrep              :   0
Energy             : -2929.6423377939986494 Eh
Relativity type    :
Basis              : AO
                                X                 Y                 Z
Electronic contribution:     -1.429787991       7.088140922     -20.619749497
Nuclear contribution   :      1.502949491      -8.099721285      22.111044327
                        -----------------------------------------
Total Dipole Moment    :      0.073161500      -1.011580364       1.491294830
                        -----------------------------------------
Magnitude (a.u.)       :      1.803498741
Magnitude (Debye)      :      4.584129493

Rotational constants in cm-1:             0.012283             0.005127             0.004778
Rotational constants in MHz :           368.233652           153.702640           143.233054

                             ****ORCA TERMINATED NORMALLY****
TOTAL RUN TIME: 0 days 0 hours 0 minutes 22 seconds 15 msec
