                         Program Version 6.0.0  -   RELEASE  -
|  1> ! pbe def2-sv(p) def2/J RI DEFGRID1 loosescf d4 GCP(DFT/SV(P)) printgap
|  2> %output
|  3>     printlevel normal
|  4> end
|  5> * xyz 0 1
|  6> C 4.6635675846 -2.9994934829 -1.1572521677
|  7> C 3.3166821942 -2.3132511201 -1.0627975833
|  8> O 3.5549692449 -0.9175952981 -0.7481002938
|  9> P 2.4021598888 0.0362947011 -0.2230112064
| 10> S 3.0853194099 1.8387533091 0.0843982491
| 11> O 1.7629603481 -0.7043826316 1.0468656672
| 12> C 2.2025526622 -0.4343356522 2.3975535108
| 13> C 1.1909358923 0.4309039363 3.1211486511
| 14> S 0.8454798089 -0.2292754912 -1.6267225811
| 15> C 0.0041908464 1.344001931 -1.2994041104
| 16> S -0.8183510716 1.3910325362 0.3029072572
| 17> P -2.6053119613 0.3202313379 -0.2025824393
| 18> S -2.9371401221 0.1543231108 -2.1261848897
| 19> O -3.8045091502 1.0822208226 0.4725612245
| 20> C -4.1173015647 1.1025538399 1.8872052704
| 21> C -3.0482321016 1.793373906 2.7065330895
| 22> O -2.5544352549 -1.0057981944 0.679526631
| 23> C -1.5209307488 -2.0030846879 0.638972031
| 24> C -1.5858831126 -2.8504407739 -0.6158937707
| 25> H 5.2693101202 -2.5226187241 -1.9223260037
| 26> H 5.1869051057 -2.933500859 -0.2076022706
| 27> H 4.5141995724 -4.042889629 -1.4152776699
| 28> H 2.6957311675 -2.7490154486 -0.2760068844
| 29> H 2.7764377509 -2.3549661869 -2.0119254551
| 30> H 2.2974889059 -1.4154287099 2.8662629195
| 31> H 3.1798535236 0.0560973652 2.3658648531
| 32> H 0.2160304932 -0.0483281287 3.1165648837
| 33> H 1.5154400459 0.5770768931 4.1461681654
| 34> H 1.1080186851 1.3986446578 2.6311212405
| 35> H -0.7353617149 1.4661595211 -2.0918126772
| 36> H 0.7383525388 2.1492804183 -1.301358358
| 37> H -5.0632302219 1.6450639852 1.922974593
| 38> H -4.2658523843 0.0736576108 2.2191339231
| 39> H -2.8668350186 2.7956053751 2.3271656227
| 40> H -3.376626557 1.8557724646 3.7393090111
| 41> H -2.1152973213 1.2340169589 2.6647721456
| 42> H -0.5470305643 -1.5121650482 0.7276882636
| 43> H -1.7097024722 -2.6046364477 1.5306198503
| 44> H -2.5811199767 -3.2716416891 -0.7323166682
| 45> H -1.3587494211 -2.2503814374 -1.4949954928
| 46> H -0.861215143 -3.6550028806 -0.5431870927
| 47> *
| 48>
| 49>                          ****END OF INPUT****

CARTESIAN COORDINATES (ANGSTROEM)
---------------------------------
  C      4.663568   -2.999493   -1.157252
  C      3.316682   -2.313251   -1.062798
  O      3.554969   -0.917595   -0.748100
  P      2.402160    0.036295   -0.223011
  S      3.085319    1.838753    0.084398
  O      1.762960   -0.704383    1.046866
  C      2.202553   -0.434336    2.397554
  C      1.190936    0.430904    3.121149
  S      0.845480   -0.229275   -1.626723
  C      0.004191    1.344002   -1.299404
  S     -0.818351    1.391033    0.302907
  P     -2.605312    0.320231   -0.202582
  S     -2.937140    0.154323   -2.126185
  O     -3.804509    1.082221    0.472561
  C     -4.117302    1.102554    1.887205
  C     -3.048232    1.793374    2.706533
  O     -2.554435   -1.005798    0.679527
  C     -1.520931   -2.003085    0.638972
  C     -1.585883   -2.850441   -0.615894
  H      5.269310   -2.522619   -1.922326
  H      5.186905   -2.933501   -0.207602
  H      4.514200   -4.042890   -1.415278
  H      2.695731   -2.749015   -0.276007
  H      2.776438   -2.354966   -2.011925
  H      2.297489   -1.415429    2.866263
  H      3.179854    0.056097    2.365865
  H      0.216030   -0.048328    3.116565
  H      1.515440    0.577077    4.146168
  H      1.108019    1.398645    2.631121
  H     -0.735362    1.466160   -2.091813
  H      0.738353    2.149280   -1.301358
  H     -5.063230    1.645064    1.922975
  H     -4.265852    0.073658    2.219134
  H     -2.866835    2.795605    2.327166
  H     -3.376627    1.855772    3.739309
  H     -2.115297    1.234017    2.664772
  H     -0.547031   -1.512165    0.727688
  H     -1.709702   -2.604636    1.530620
  H     -2.581120   -3.271642   -0.732317
  H     -1.358749   -2.250381   -1.494995
  H     -0.861215   -3.655003   -0.543187

 Total Charge           Charge          ....    0
 Multiplicity           Mult            ....    1
 Number of Electrons    NEL             ....  202
 Basis Dimension        Dim             ....  334

ORBITAL ENERGIES
----------------

  NO   OCC          E(Eh)            E(eV)
   0   2.0000     -88.045704     -2395.8454
   1   2.0000     -88.042658     -2395.7625
   2   2.0000     -87.991346     -2394.3663
   3   2.0000     -87.984494     -2394.1798
   4   2.0000     -76.429019     -2079.7393
   5   2.0000     -76.427428     -2079.6961
   6   2.0000     -18.796926      -511.4904
   7   2.0000     -18.796771      -511.4862
   8   2.0000     -18.793599      -511.3998
   9   2.0000     -18.792091      -511.3588
  10   2.0000      -9.964103      -271.1370
  11   2.0000      -9.959477      -271.0111
  12   2.0000      -9.958140      -270.9748
  13   2.0000      -9.952219      -270.8136
  14   2.0000      -9.951701      -270.7995
  15   2.0000      -9.896226      -269.2900
  16   2.0000      -9.894374      -269.2396
  17   2.0000      -9.886521      -269.0259
  18   2.0000      -9.878353      -268.8037
  19   2.0000      -7.690698      -209.2745
  20   2.0000      -7.687012      -209.1742
  21   2.0000      -7.636599      -207.8024
  22   2.0000      -7.629669      -207.6138
  23   2.0000      -6.427157      -174.8918
  24   2.0000      -6.424590      -174.8220
  25   2.0000      -5.718436      -155.6066
  26   2.0000      -5.715391      -155.5237
  27   2.0000      -5.714939      -155.5114
  28   2.0000      -5.711441      -155.4162
  29   2.0000      -5.707624      -155.3124
  30   2.0000      -5.704135      -155.2174
  31   2.0000      -5.665650      -154.1702
  32   2.0000      -5.658752      -153.9825
  33   2.0000      -5.657363      -153.9447
  34   2.0000      -5.656437      -153.9195
  35   2.0000      -5.650031      -153.7452
  36   2.0000      -5.649882      -153.7411
  37   2.0000      -4.650059      -126.5345
  38   2.0000      -4.648565      -126.4939
  39   2.0000      -4.647618      -126.4681
  40   2.0000      -4.647475      -126.4642
  41   2.0000      -4.646362      -126.4339
  42   2.0000      -4.644827      -126.3922
  43   2.0000      -0.989511       -26.9260
  44   2.0000      -0.989015       -26.9125
  45   2.0000      -0.948319       -25.8051
  46   2.0000      -0.944094       -25.6901
  47   2.0000      -0.765604       -20.8331
  48   2.0000      -0.726472       -19.7683
  49   2.0000      -0.715761       -19.4769
  50   2.0000      -0.697041       -18.9675
  51   2.0000      -0.690969       -18.8022
  52   2.0000      -0.676485       -18.4081
  53   2.0000      -0.653061       -17.7707
  54   2.0000      -0.640996       -17.4424
  55   2.0000      -0.597368       -16.2552
  56   2.0000      -0.588531       -16.0147
  57   2.0000      -0.580817       -15.8048
  58   2.0000      -0.579040       -15.7565
  59   2.0000      -0.560955       -15.2644
  60   2.0000      -0.517088       -14.0707
  61   2.0000      -0.498240       -13.5578
  62   2.0000      -0.486371       -13.2348
  63   2.0000      -0.474330       -12.9072
  64   2.0000      -0.460223       -12.5233
  65   2.0000      -0.449984       -12.2447
  66   2.0000      -0.448727       -12.2105
  67   2.0000      -0.440125       -11.9764
  68   2.0000      -0.427662       -11.6373
  69   2.0000      -0.422333       -11.4923
  70   2.0000      -0.405342       -11.0299
  71   2.0000      -0.402735       -10.9590
  72   2.0000      -0.401707       -10.9310
  73   2.0000      -0.390841       -10.6353
  74   2.0000      -0.380600       -10.3566
  75   2.0000      -0.374198       -10.1824
  76   2.0000      -0.368781       -10.0350
  77   2.0000      -0.361166        -9.8278
  78   2.0000      -0.358215        -9.7475
  79   2.0000      -0.355428        -9.6717
  80   2.0000      -0.351611        -9.5678
  81   2.0000      -0.347704        -9.4615
  82   2.0000      -0.345756        -9.4085
  83   2.0000      -0.340997        -9.2790
  84   2.0000      -0.334465        -9.1012
  85   2.0000      -0.324362        -8.8263
  86   2.0000      -0.317278        -8.6336
  87   2.0000      -0.311771        -8.4837
  88   2.0000      -0.297638        -8.0991
  89   2.0000      -0.292273        -7.9532
  90   2.0000      -0.288042        -7.8380
  91   2.0000      -0.278757        -7.5854
  92   2.0000      -0.275875        -7.5069
  93   2.0000      -0.273280        -7.4363
  94   2.0000      -0.259340        -7.0570
  95   2.0000      -0.235322        -6.4034
  96   2.0000      -0.218582        -5.9479
  97   2.0000      -0.213443        -5.8081
  98   2.0000      -0.205717        -5.5979
  99   2.0000      -0.201260        -5.4766
 100   2.0000      -0.199435        -5.4269
 101   0.0000      -0.047364        -1.2888
 102   0.0000      -0.029782        -0.8104
 103   0.0000      -0.006402        -0.1742
 104   0.0000       0.000406         0.0110
 105   0.0000       0.003342         0.0909

MULLIKEN ATOMIC CHARGES
-----------------------
   0 C :   -0.272227
   1 C :   -0.039094
   2 O :   -0.368236
   3 P :    0.614754
   4 S :   -0.305733
   5 O :   -0.383477
   6 C :   -0.010284
   7 C :   -0.302995
   8 S :   -0.100216
   9 C :   -0.339819
  10 S :   -0.119549
  11 P :    0.618451
  12 S :   -0.311743
  13 O :   -0.359226
  14 C :    0.005508
  15 C :   -0.345228
  16 O :   -0.383567
  17 C :   -0.049170
  18 C :   -0.301631
  19 H :    0.126812
  20 H :    0.118193
  21 H :    0.112933
  22 H :    0.105830
  23 H :    0.118504
  24 H :    0.099654
  25 H :    0.109839
  26 H :    0.124981
  27 H :    0.108309
  28 H :    0.133291
  29 H :    0.196224
  30 H :    0.194167
  31 H :    0.112985
  32 H :    0.110882
  33 H :    0.131325
  34 H :    0.117704
  35 H :    0.141535
  36 H :    0.142419
  37 H :    0.097108
  38 H :    0.114425
  39 H :    0.136848
  40 H :    0.099513
Sum of atomic charges:   -0.0000000

LOEWDIN ATOMIC CHARGES
----------------------
   0 C :   -0.348214
   1 C :   -0.121077
   2 O :   -0.247304
   3 P :    0.567644
   4 S :   -0.303509
   5 O :   -0.256291
   6 C :   -0.117131
   7 C :   -0.361544
   8 S :    0.091245
   9 C :   -0.485660
  10 S :    0.084662
  11 P :    0.569041
  12 S :   -0.300083
  13 O :   -0.235057
  14 C :   -0.108513
  15 C :   -0.370857
  16 O :   -0.246500
  17 C :   -0.126882
  18 C :   -0.367713
  19 H :    0.132616
  20 H :    0.128506
  21 H :    0.131468
  22 H :    0.108685
  23 H :    0.112851
  24 H :    0.114199
  25 H :    0.110510
  26 H :    0.121147
  27 H :    0.128667
  28 H :    0.124565
  29 H :    0.129477
  30 H :    0.131504
  31 H :    0.123931
  32 H :    0.114853
  33 H :    0.131334
  34 H :    0.133799
  35 H :    0.117269
  36 H :    0.104614
  37 H :    0.114896
  38 H :    0.126183
  39 H :    0.117522
  40 H :    0.125149

  Mayer bond orders larger than 0.100000
B(  0-C ,  1-C ) :   1.1659 B(  0-C , 19-H ) :   0.9495 B(  0-C , 20-H ) :   0.9509
B(  0-C , 21-H ) :   0.9402 B(  1-C ,  2-O ) :   0.9041 B(  1-C , 22-H ) :   0.9185
B(  1-C , 23-H ) :   0.9229 B(  2-O ,  3-P ) :   1.1225 B(  3-P ,  4-S ) :   1.6382
B(  3-P ,  5-O ) :   1.0629 B(  3-P ,  8-S ) :   0.9685 B(  4-S ,  8-S ) :   0.1018
B(  5-O ,  6-C ) :   0.8928 B(  6-C ,  7-C ) :   1.1728 B(  6-C , 24-H ) :   0.9334
B(  6-C , 25-H ) :   0.9092 B(  7-C , 26-H ) :   0.9411 B(  7-C , 27-H ) :   0.9375
B(  7-C , 28-H ) :   0.9363 B(  8-S ,  9-C ) :   1.0045 B(  9-C , 10-S ) :   1.0168
B(  9-C , 29-H ) :   0.8633 B(  9-C , 30-H ) :   0.8744 B( 10-S , 11-P ) :   0.9309
B( 10-S , 12-S ) :   0.1134 B( 11-P , 12-S ) :   1.6511 B( 11-P , 13-O ) :   1.1441
B( 11-P , 16-O ) :   1.0734 B( 13-O , 14-C ) :   0.9009 B( 14-C , 15-C ) :   1.1682
B( 14-C , 31-H ) :   0.9335 B( 14-C , 32-H ) :   0.9260 B( 15-C , 33-H ) :   0.9421
B( 15-C , 34-H ) :   0.9354 B( 15-C , 35-H ) :   0.9266 B( 16-O , 17-C ) :   0.9095
B( 17-C , 18-C ) :   1.1663 B( 17-C , 36-H ) :   0.8923 B( 17-C , 37-H ) :   0.9349
B( 18-C , 38-H ) :   0.9447 B( 18-C , 39-H ) :   0.9277 B( 18-C , 40-H ) :   0.9384

Dispersion correction           -0.065635384
FINAL SINGLE POINT ENERGY     -2929.519572766804

DIPOLE MOMENT
-------------

Method             : SCF
Type of density    : Electron Density
Multiplicity       :   1
Irrep              :   0
Energy             : -2929.6398190618360786 Eh
Relativity type    :
Basis              : AO
                                X                 Y                 Z
Electronic contribution:     -3.653962288      14.083583882     -15.892250511
Nuclear contribution   :      3.929424013     -15.545968729      17.630984718
                        -----------------------------------------
Total Dipole Moment    :      0.275461724      -1.462384847       1.738734208
                        -----------------------------------------
Magnitude (a.u.)       :      2.288590231
Magnitude (Debye)      :      5.817134072

Rotational constants in cm-1:             0.011927             0.005172             0.004695
Rotational constants in MHz :           357.560888           155.055769           140.744238

                             ****ORCA TERMINATED NORMALLY****
TOTAL RUN TIME: 0 days 0 hours 0 minutes 21 seconds 870 msec
