                         Program Version 6.0.0  -   RELEASE  -
|  1> ! pbe def2-sv(p) def2/J RI DEFGRID1 loosescf d4 GCP(DFT/SV(P)) printgap
|  2> %output
|  3>     printlevel normal
|  4> end
|  5> * xyz 0 1
|  6> C 5.4516615685 -0.2132261589 -0.1304072358
|  7> C 4.3623919748 0.2556798227 -1.075797714
|  8> O 3.1591347943 -0.5216281541 -0.9053760202
|  9> P 1.9804263057 -0.0656408446 0.0581563343
| 10> S 2.4601560347 0.3066843278 1.9250520556
| 11> O 0.9307903323 -1.2386688863 -0.1489489318
| 12> C 0.9769255498 -2.4348811522 0.657000212
| 13> C 2.2303447754 -3.2443263793 0.4053603212
| 14> S 1.1167703254 1.5010375635 -1.0431247914
| 15> C 0.0538037566 2.1988685589 0.2578724614
| 16> S -0.9850481646 1.0029862607 1.1379566215
| 17> P -2.0717292049 -0.0972679758 -0.3501962986
| 18> S -1.4848551665 -0.2774712641 -2.2065910118
| 19> O -3.5626359899 0.4656075294 -0.2287975412
| 20> C -4.1158065442 1.4263175354 -1.1378105452
| 21> C -3.3996318723 2.7601395043 -1.0668603201
| 22> O -2.1894304627 -1.5090845163 0.3437928341
| 23> C -2.4002937126 -1.788319405 1.7492960605
| 24> C -3.6565573126 -1.1516411397 2.3027126121
| 25> H 6.3577176923 0.3517987683 -0.3237757093
| 26> H 5.1490827215 -0.0549381117 0.9024697401
| 27> H 5.6489833143 -1.2708856784 -0.2821219286
| 28> H 4.6438743882 0.0967623061 -2.1185185064
| 29> H 4.1342497291 1.3139100661 -0.9187788902
| 30> H 0.9130825979 -2.1401747305 1.7103095369
| 31> H 0.0763898318 -2.976847482 0.3636271543
| 32> H 2.1625771026 -4.1841451278 0.9444724896
| 33> H 2.3422777098 -3.4406531763 -0.6579472741
| 34> H 3.1019343154 -2.6939275881 0.7571638087
| 35> H -0.5530251559 2.9623491317 -0.2225743258
| 36> H 0.6788867566 2.6322487367 1.0389443347
| 37> H -4.0612958814 1.0178082649 -2.1516328311
| 38> H -5.1575056949 1.5103334324 -0.8251974568
| 39> H -3.9386197075 3.4926591976 -1.6591444465
| 40> H -3.340295808 3.1032357857 -0.0365513773
| 41> H -2.3955356771 2.6525461245 -1.4772851367
| 42> H -2.4588210637 -2.8778177794 1.7777520423
| 43> H -1.5202602786 -1.4509351253 2.3032703265
| 44> H -4.5158873961 -1.4259799754 1.6968098998
| 45> H -3.8063394185 -1.4998506387 3.3201439479
| 46> H -3.5591878173 -0.068585504 2.3097521477
| 47> *
| 48>
| 49>                          ****END OF INPUT****

CARTESIAN COORDINATES (ANGSTROEM)
---------------------------------
  C      5.451662   -0.213226   -0.130407
  C      4.362392    0.255680   -1.075798
  O      3.159135   -0.521628   -0.905376
  P      1.980426   -0.065641    0.058156
  S      2.460156    0.306684    1.925052
  O      0.930790   -1.238669   -0.148949
  C      0.976926   -2.434881    0.657000
  C      2.230345   -3.244326    0.405360
  S      1.116770    1.501038   -1.043125
  C      0.053804    2.198869    0.257872
  S     -0.985048    1.002986    1.137957
  P     -2.071729   -0.097268   -0.350196
  S     -1.484855   -0.277471   -2.206591
  O     -3.562636    0.465608   -0.228798
  C     -4.115807    1.426318   -1.137811
  C     -3.399632    2.760140   -1.066860
  O     -2.189430   -1.509085    0.343793
  C     -2.400294   -1.788319    1.749296
  C     -3.656557   -1.151641    2.302713
  H      6.357718    0.351799   -0.323776
  H      5.149083   -0.054938    0.902470
  H      5.648983   -1.270886   -0.282122
  H      4.643874    0.096762   -2.118519
  H      4.134250    1.313910   -0.918779
  H      0.913083   -2.140175    1.710310
  H      0.076390   -2.976847    0.363627
  H      2.162577   -4.184145    0.944472
  H      2.342278   -3.440653   -0.657947
  H      3.101934   -2.693928    0.757164
  H     -0.553025    2.962349   -0.222574
  H      0.678887    2.632249    1.038944
  H     -4.061296    1.017808   -2.151633
  H     -5.157506    1.510333   -0.825197
  H     -3.938620    3.492659   -1.659144
  H     -3.340296    3.103236   -0.036551
  H     -2.395536    2.652546   -1.477285
  H     -2.458821   -2.877818    1.777752
  H     -1.520260   -1.450935    2.303270
  H     -4.515887   -1.425980    1.696810
  H     -3.806339   -1.499851    3.320144
  H     -3.559188   -0.068586    2.309752

 Total Charge           Charge          ....    0
 Multiplicity           Mult            ....    1
 Number of Electrons    NEL             ....  202
 Basis Dimension        Dim             ....  334

ORBITAL ENERGIES
----------------

  NO   OCC          E(Eh)            E(eV)
   0   2.0000     -88.042669     -2395.7628
   1   2.0000     -88.040608     -2395.7067
   2   2.0000     -87.983503     -2394.1528
   3   2.0000     -87.978170     -2394.0077
   4   2.0000     -76.423724     -2079.5952
   5   2.0000     -76.423368     -2079.5856
   6   2.0000     -18.790886      -511.3260
   7   2.0000     -18.790706      -511.3211
   8   2.0000     -18.783502      -511.1251
   9   2.0000     -18.783477      -511.1244
  10   2.0000      -9.962695      -271.0987
  11   2.0000      -9.958441      -270.9830
  12   2.0000      -9.953695      -270.8538
  13   2.0000      -9.950176      -270.7580
  14   2.0000      -9.944840      -270.6128
  15   2.0000      -9.887461      -269.0515
  16   2.0000      -9.887450      -269.0512
  17   2.0000      -9.880233      -268.8548
  18   2.0000      -9.878959      -268.8202
  19   2.0000      -7.686994      -209.1737
  20   2.0000      -7.685980      -209.1461
  21   2.0000      -7.628515      -207.5824
  22   2.0000      -7.623369      -207.4424
  23   2.0000      -6.421063      -174.7260
  24   2.0000      -6.420236      -174.7035
  25   2.0000      -5.715011      -155.5134
  26   2.0000      -5.713969      -155.4850
  27   2.0000      -5.711462      -155.4168
  28   2.0000      -5.710476      -155.3900
  29   2.0000      -5.703943      -155.2122
  30   2.0000      -5.702723      -155.1790
  31   2.0000      -5.657260      -153.9419
  32   2.0000      -5.652616      -153.8155
  33   2.0000      -5.649233      -153.7234
  34   2.0000      -5.648770      -153.7108
  35   2.0000      -5.644067      -153.5829
  36   2.0000      -5.643090      -153.5563
  37   2.0000      -4.643553      -126.3575
  38   2.0000      -4.643020      -126.3430
  39   2.0000      -4.642851      -126.3384
  40   2.0000      -4.641967      -126.3143
  41   2.0000      -4.641631      -126.3052
  42   2.0000      -4.640653      -126.2786
  43   2.0000      -0.983337       -26.7580
  44   2.0000      -0.981968       -26.7207
  45   2.0000      -0.941778       -25.6271
  46   2.0000      -0.940453       -25.5910
  47   2.0000      -0.762835       -20.7578
  48   2.0000      -0.717649       -19.5282
  49   2.0000      -0.708443       -19.2777
  50   2.0000      -0.690633       -18.7931
  51   2.0000      -0.683625       -18.6024
  52   2.0000      -0.672089       -18.2885
  53   2.0000      -0.649038       -17.6612
  54   2.0000      -0.638939       -17.3864
  55   2.0000      -0.595568       -16.2062
  56   2.0000      -0.591030       -16.0827
  57   2.0000      -0.577254       -15.7079
  58   2.0000      -0.572268       -15.5722
  59   2.0000      -0.563062       -15.3217
  60   2.0000      -0.500117       -13.6089
  61   2.0000      -0.491525       -13.3751
  62   2.0000      -0.471411       -12.8277
  63   2.0000      -0.469929       -12.7874
  64   2.0000      -0.456482       -12.4215
  65   2.0000      -0.444042       -12.0830
  66   2.0000      -0.437050       -11.8927
  67   2.0000      -0.435434       -11.8488
  68   2.0000      -0.431639       -11.7455
  69   2.0000      -0.414110       -11.2685
  70   2.0000      -0.402533       -10.9535
  71   2.0000      -0.399400       -10.8682
  72   2.0000      -0.394222       -10.7273
  73   2.0000      -0.389019       -10.5858
  74   2.0000      -0.383773       -10.4430
  75   2.0000      -0.375125       -10.2077
  76   2.0000      -0.364390        -9.9156
  77   2.0000      -0.357163        -9.7189
  78   2.0000      -0.353686        -9.6243
  79   2.0000      -0.350131        -9.5275
  80   2.0000      -0.346683        -9.4337
  81   2.0000      -0.345183        -9.3929
  82   2.0000      -0.342805        -9.3282
  83   2.0000      -0.334837        -9.1114
  84   2.0000      -0.330817        -9.0020
  85   2.0000      -0.318959        -8.6793
  86   2.0000      -0.307916        -8.3788
  87   2.0000      -0.295934        -8.0528
  88   2.0000      -0.293965        -7.9992
  89   2.0000      -0.290170        -7.8959
  90   2.0000      -0.281869        -7.6700
  91   2.0000      -0.275106        -7.4860
  92   2.0000      -0.265772        -7.2320
  93   2.0000      -0.261397        -7.1130
  94   2.0000      -0.256434        -6.9779
  95   2.0000      -0.237823        -6.4715
  96   2.0000      -0.216946        -5.9034
  97   2.0000      -0.207455        -5.6451
  98   2.0000      -0.196612        -5.3501
  99   2.0000      -0.193203        -5.2573
 100   2.0000      -0.182182        -4.9574
 101   0.0000      -0.049832        -1.3560
 102   0.0000      -0.028368        -0.7719
 103   0.0000      -0.010028        -0.2729
 104   0.0000       0.001656         0.0451
 105   0.0000       0.018706         0.5090

MULLIKEN ATOMIC CHARGES
-----------------------
   0 C :   -0.296049
   1 C :   -0.010826
   2 O :   -0.370609
   3 P :    0.614810
   4 S :   -0.344084
   5 O :   -0.353571
   6 C :   -0.032741
   7 C :   -0.297245
   8 S :   -0.069147
   9 C :   -0.318626
  10 S :   -0.136746
  11 P :    0.619035
  12 S :   -0.290283
  13 O :   -0.377409
  14 C :    0.009818
  15 C :   -0.338839
  16 O :   -0.369749
  17 C :   -0.041626
  18 C :   -0.290764
  19 H :    0.107307
  20 H :    0.129394
  21 H :    0.115997
  22 H :    0.109558
  23 H :    0.100859
  24 H :    0.112693
  25 H :    0.118647
  26 H :    0.107348
  27 H :    0.121082
  28 H :    0.123227
  29 H :    0.184624
  30 H :    0.189282
  31 H :    0.111797
  32 H :    0.102003
  33 H :    0.114505
  34 H :    0.119766
  35 H :    0.124241
  36 H :    0.110332
  37 H :    0.133826
  38 H :    0.121851
  39 H :    0.112535
  40 H :    0.123777
Sum of atomic charges:    0.0000000

LOEWDIN ATOMIC CHARGES
----------------------
   0 C :   -0.364551
   1 C :   -0.115715
   2 O :   -0.242951
   3 P :    0.567206
   4 S :   -0.336001
   5 O :   -0.232913
   6 C :   -0.122198
   7 C :   -0.365045
   8 S :    0.102883
   9 C :   -0.467613
  10 S :    0.072553
  11 P :    0.565402
  12 S :   -0.295205
  13 O :   -0.251644
  14 C :   -0.118525
  15 C :   -0.372488
  16 O :   -0.234223
  17 C :   -0.118648
  18 C :   -0.364912
  19 H :    0.128638
  20 H :    0.124278
  21 H :    0.125408
  22 H :    0.119817
  23 H :    0.106475
  24 H :    0.106683
  25 H :    0.119991
  26 H :    0.128751
  27 H :    0.128691
  28 H :    0.121486
  29 H :    0.130682
  30 H :    0.136474
  31 H :    0.111166
  32 H :    0.117857
  33 H :    0.132016
  34 H :    0.123920
  35 H :    0.117226
  36 H :    0.121531
  37 H :    0.111580
  38 H :    0.129550
  39 H :    0.131237
  40 H :    0.121133

  Mayer bond orders larger than 0.100000
B(  0-C ,  1-C ) :   1.1681 B(  0-C , 19-H ) :   0.9393 B(  0-C , 20-H ) :   0.9306
B(  0-C , 21-H ) :   0.9453 B(  1-C ,  2-O ) :   0.9056 B(  1-C , 22-H ) :   0.9356
B(  1-C , 23-H ) :   0.9149 B(  2-O ,  3-P ) :   1.1047 B(  3-P ,  4-S ) :   1.5935
B(  3-P ,  5-O ) :   1.1293 B(  3-P ,  8-S ) :   0.9772 B(  4-S ,  8-S ) :   0.1135
B(  5-O ,  6-C ) :   0.9056 B(  6-C ,  7-C ) :   1.1617 B(  6-C , 24-H ) :   0.9108
B(  6-C , 25-H ) :   0.9240 B(  7-C , 26-H ) :   0.9379 B(  7-C , 27-H ) :   0.9442
B(  7-C , 28-H ) :   0.9335 B(  8-S ,  9-C ) :   1.0060 B(  9-C , 10-S ) :   1.0080
B(  9-C , 29-H ) :   0.8960 B(  9-C , 30-H ) :   0.8944 B( 10-S , 11-P ) :   0.9189
B( 10-S , 12-S ) :   0.1212 B( 11-P , 12-S ) :   1.6533 B( 11-P , 13-O ) :   1.0619
B( 11-P , 16-O ) :   1.1284 B( 13-O , 14-C ) :   0.9230 B( 14-C , 15-C ) :   1.1584
B( 14-C , 31-H ) :   0.9154 B( 14-C , 32-H ) :   0.9334 B( 15-C , 33-H ) :   0.9363
B( 15-C , 34-H ) :   0.9438 B( 15-C , 35-H ) :   0.9207 B( 16-O , 17-C ) :   0.8966
B( 17-C , 18-C ) :   1.1761 B( 17-C , 36-H ) :   0.9329 B( 17-C , 37-H ) :   0.9111
B( 18-C , 38-H ) :   0.9431 B( 18-C , 39-H ) :   0.9348 B( 18-C , 40-H ) :   0.9366

Dispersion correction           -0.069090139
FINAL SINGLE POINT ENERGY     -2929.509935669859

DIPOLE MOMENT
-------------

Method             : SCF
Type of density    : Electron Density
Multiplicity       :   1
Irrep              :   0
Energy             : -2929.6268224293498861 Eh
Relativity type    :
Basis              : AO
                                X                 Y                 Z
Electronic contribution:     -0.297373020       4.825738353      -5.883620727
Nuclear contribution   :     -0.066758260      -4.614266908       6.304754452
                        -----------------------------------------
Total Dipole Moment    :     -0.364131280       0.211471445       0.421133725
                        -----------------------------------------
Magnitude (a.u.)       :      0.595537888
Magnitude (Debye)      :      1.513737012

Rotational constants in cm-1:             0.013232             0.005523             0.004960
Rotational constants in MHz :           396.694485           165.572701           148.700455

                             ****ORCA TERMINATED NORMALLY****
TOTAL RUN TIME: 0 days 0 hours 0 minutes 21 seconds 504 msec
