                         Program Version 6.0.0  -   RELEASE  -
|  1> ! pbe def2-sv(p) def2/J RI DEFGRID1 loosescf d4 GCP(DFT/SV(P)) printgap
|  2> %output
|  3>     printlevel normal
|  4> end
|  5> * xyz 0 1
|  6> C 3.1420447304 -1.2503655885 -2.4906311693
|  7> C 3.3380721287 0.2329218616 -2.2632286153
|  8> O 2.3514404012 0.7877941842 -1.3605427085
|  9> P 2.1585567518 0.3955956679 0.1494918249
| 10> S 1.2052735124 1.7648612717 1.1762519027
| 11> O 3.6778953201 0.192700722 0.5983337503
| 12> C 4.1169777902 0.2431665226 1.9657420729
| 13> C 3.608828687 -0.9258998469 2.7851259775
| 14> S 1.3076457028 -1.5592522547 0.2355674917
| 15> C 0.0135543124 -1.2920361801 1.4816185341
| 16> S -1.6829548863 -1.516186743 0.8729520924
| 17> P -1.9382488099 0.1743495363 -0.3871775745
| 18> S -0.6770246512 0.4194436425 -1.8662687007
| 19> O -2.019624314 1.4530728284 0.5229810632
| 20> C -2.6279921951 1.5584381276 1.8339601241
| 21> C -4.0990564505 1.2054989006 1.8316642601
| 22> O -3.43547768 -0.0314803273 -0.8744173896
| 23> C -3.7732821234 -1.0008867239 -1.8859543723
| 24> C -5.0878693732 -0.584447692 -2.5140696763
| 25> H 3.3404457134 -1.8048549016 -1.5744495086
| 26> H 2.1194067062 -1.4459116072 -2.8062296926
| 27> H 3.8264681069 -1.5855814314 -3.2635598929
| 28> H 3.1767853043 0.8030996624 -3.1794697718
| 29> H 4.3293347148 0.4443121976 -1.8566434976
| 30> H 5.2050763704 0.2337340003 1.8854323237
| 31> H 3.784401305 1.1915888139 2.3993384541
| 32> H 4.0997971304 -0.9201137535 3.752953318
| 33> H 2.5347090847 -0.8364270146 2.9355343619
| 34> H 3.8197963169 -1.8641837976 2.2787963069
| 35> H 0.1288697051 -0.2792729617 1.8790220896
| 36> H 0.1324463698 -2.0466417993 2.2549616445
| 37> H -2.0729267518 0.9185089743 2.5246078838
| 38> H -2.4580474477 2.604175128 2.0956082361
| 39> H -4.2346689127 0.1467681131 1.623040629
| 40> H -4.5145586259 1.4311628602 2.8089663992
| 41> H -4.622205316 1.7842853985 1.0751862014
| 42> H -2.9662551703 -1.0291410912 -2.6261724307
| 43> H -3.8521496482 -1.9782089536 -1.4029176271
| 44> H -5.3660862287 -1.3109688567 -3.2703128699
| 45> H -5.863887451 -0.5372441091 -1.755863259
| 46> H -4.9863589837 0.3935777218 -2.9763943473
| 47> *
| 48>
| 49>                          ****END OF INPUT****

CARTESIAN COORDINATES (ANGSTROEM)
---------------------------------
  C      3.142045   -1.250366   -2.490631
  C      3.338072    0.232922   -2.263229
  O      2.351440    0.787794   -1.360543
  P      2.158557    0.395596    0.149492
  S      1.205274    1.764861    1.176252
  O      3.677895    0.192701    0.598334
  C      4.116978    0.243167    1.965742
  C      3.608829   -0.925900    2.785126
  S      1.307646   -1.559252    0.235567
  C      0.013554   -1.292036    1.481619
  S     -1.682955   -1.516187    0.872952
  P     -1.938249    0.174350   -0.387178
  S     -0.677025    0.419444   -1.866269
  O     -2.019624    1.453073    0.522981
  C     -2.627992    1.558438    1.833960
  C     -4.099056    1.205499    1.831664
  O     -3.435478   -0.031480   -0.874417
  C     -3.773282   -1.000887   -1.885954
  C     -5.087869   -0.584448   -2.514070
  H      3.340446   -1.804855   -1.574450
  H      2.119407   -1.445912   -2.806230
  H      3.826468   -1.585581   -3.263560
  H      3.176785    0.803100   -3.179470
  H      4.329335    0.444312   -1.856643
  H      5.205076    0.233734    1.885432
  H      3.784401    1.191589    2.399338
  H      4.099797   -0.920114    3.752953
  H      2.534709   -0.836427    2.935534
  H      3.819796   -1.864184    2.278796
  H      0.128870   -0.279273    1.879022
  H      0.132446   -2.046642    2.254962
  H     -2.072927    0.918509    2.524608
  H     -2.458047    2.604175    2.095608
  H     -4.234669    0.146768    1.623041
  H     -4.514559    1.431163    2.808966
  H     -4.622205    1.784285    1.075186
  H     -2.966255   -1.029141   -2.626172
  H     -3.852150   -1.978209   -1.402918
  H     -5.366086   -1.310969   -3.270313
  H     -5.863887   -0.537244   -1.755863
  H     -4.986359    0.393578   -2.976394

 Total Charge           Charge          ....    0
 Multiplicity           Mult            ....    1
 Number of Electrons    NEL             ....  202
 Basis Dimension        Dim             ....  334

ORBITAL ENERGIES
----------------

  NO   OCC          E(Eh)            E(eV)
   0   2.0000     -88.039452     -2395.6753
   1   2.0000     -88.036951     -2395.6072
   2   2.0000     -87.981084     -2394.0870
   3   2.0000     -87.969620     -2393.7751
   4   2.0000     -76.422134     -2079.5520
   5   2.0000     -76.416532     -2079.3995
   6   2.0000     -18.785018      -511.1663
   7   2.0000     -18.784487      -511.1519
   8   2.0000     -18.784050      -511.1400
   9   2.0000     -18.782811      -511.1063
  10   2.0000      -9.953657      -270.8528
  11   2.0000      -9.952197      -270.8130
  12   2.0000      -9.951512      -270.7944
  13   2.0000      -9.951201      -270.7859
  14   2.0000      -9.947360      -270.6814
  15   2.0000      -9.885859      -269.0079
  16   2.0000      -9.884780      -268.9785
  17   2.0000      -9.884379      -268.9676
  18   2.0000      -9.882723      -268.9226
  19   2.0000      -7.684484      -209.1054
  20   2.0000      -7.681492      -209.0240
  21   2.0000      -7.626232      -207.5203
  22   2.0000      -7.614640      -207.2049
  23   2.0000      -6.419164      -174.6743
  24   2.0000      -6.413945      -174.5323
  25   2.0000      -5.712080      -155.4336
  26   2.0000      -5.709483      -155.3629
  27   2.0000      -5.708912      -155.3474
  28   2.0000      -5.706090      -155.2706
  29   2.0000      -5.701838      -155.1549
  30   2.0000      -5.698349      -155.0600
  31   2.0000      -5.655128      -153.8838
  32   2.0000      -5.646934      -153.6609
  33   2.0000      -5.646248      -153.6422
  34   2.0000      -5.643653      -153.5716
  35   2.0000      -5.635132      -153.3397
  36   2.0000      -5.634813      -153.3311
  37   2.0000      -4.642055      -126.3167
  38   2.0000      -4.640622      -126.2777
  39   2.0000      -4.639702      -126.2527
  40   2.0000      -4.636833      -126.1746
  41   2.0000      -4.635991      -126.1517
  42   2.0000      -4.633849      -126.0935
  43   2.0000      -0.982227       -26.7278
  44   2.0000      -0.979513       -26.6539
  45   2.0000      -0.938660       -25.5422
  46   2.0000      -0.937085       -25.4994
  47   2.0000      -0.756703       -20.5909
  48   2.0000      -0.715944       -19.4818
  49   2.0000      -0.708573       -19.2813
  50   2.0000      -0.688407       -18.7325
  51   2.0000      -0.687927       -18.7195
  52   2.0000      -0.674499       -18.3540
  53   2.0000      -0.644337       -17.5333
  54   2.0000      -0.628834       -17.1114
  55   2.0000      -0.594883       -16.1876
  56   2.0000      -0.585951       -15.9445
  57   2.0000      -0.576899       -15.6982
  58   2.0000      -0.564629       -15.3643
  59   2.0000      -0.559673       -15.2295
  60   2.0000      -0.499087       -13.5809
  61   2.0000      -0.491905       -13.3854
  62   2.0000      -0.473725       -12.8907
  63   2.0000      -0.465604       -12.6697
  64   2.0000      -0.449787       -12.2393
  65   2.0000      -0.444470       -12.0946
  66   2.0000      -0.441849       -12.0233
  67   2.0000      -0.429995       -11.7008
  68   2.0000      -0.428352       -11.6561
  69   2.0000      -0.423577       -11.5261
  70   2.0000      -0.406080       -11.0500
  71   2.0000      -0.397330       -10.8119
  72   2.0000      -0.394606       -10.7378
  73   2.0000      -0.382782       -10.4160
  74   2.0000      -0.374402       -10.1880
  75   2.0000      -0.366613        -9.9760
  76   2.0000      -0.358691        -9.7605
  77   2.0000      -0.354680        -9.6513
  78   2.0000      -0.353671        -9.6239
  79   2.0000      -0.349956        -9.5228
  80   2.0000      -0.345566        -9.4033
  81   2.0000      -0.344350        -9.3702
  82   2.0000      -0.339805        -9.2466
  83   2.0000      -0.335319        -9.1245
  84   2.0000      -0.331837        -9.0298
  85   2.0000      -0.311585        -8.4787
  86   2.0000      -0.307185        -8.3589
  87   2.0000      -0.294126        -8.0036
  88   2.0000      -0.290892        -7.9156
  89   2.0000      -0.289757        -7.8847
  90   2.0000      -0.283568        -7.7163
  91   2.0000      -0.270114        -7.3502
  92   2.0000      -0.267166        -7.2699
  93   2.0000      -0.257095        -6.9959
  94   2.0000      -0.251960        -6.8562
  95   2.0000      -0.234657        -6.3853
  96   2.0000      -0.217176        -5.9097
  97   2.0000      -0.200747        -5.4626
  98   2.0000      -0.198023        -5.3885
  99   2.0000      -0.181171        -4.9299
 100   2.0000      -0.180474        -4.9110
 101   0.0000      -0.036463        -0.9922
 102   0.0000      -0.028949        -0.7877
 103   0.0000      -0.008104        -0.2205
 104   0.0000       0.007342         0.1998
 105   0.0000       0.017555         0.4777

MULLIKEN ATOMIC CHARGES
-----------------------
   0 C :   -0.336682
   1 C :    0.007429
   2 O :   -0.347365
   3 P :    0.622091
   4 S :   -0.303372
   5 O :   -0.389173
   6 C :    0.005779
   7 C :   -0.319562
   8 S :   -0.098005
   9 C :   -0.356482
  10 S :   -0.122916
  11 P :    0.601947
  12 S :   -0.300934
  13 O :   -0.346339
  14 C :   -0.001521
  15 C :   -0.302998
  16 O :   -0.380015
  17 C :   -0.009492
  18 C :   -0.281203
  19 H :    0.125600
  20 H :    0.141472
  21 H :    0.114925
  22 H :    0.112748
  23 H :    0.108401
  24 H :    0.101826
  25 H :    0.109518
  26 H :    0.111352
  27 H :    0.122300
  28 H :    0.118698
  29 H :    0.193628
  30 H :    0.180824
  31 H :    0.106356
  32 H :    0.112766
  33 H :    0.116600
  34 H :    0.109997
  35 H :    0.121947
  36 H :    0.103860
  37 H :    0.100301
  38 H :    0.110342
  39 H :    0.113190
  40 H :    0.122164
Sum of atomic charges:   -0.0000000

LOEWDIN ATOMIC CHARGES
----------------------
   0 C :   -0.371967
   1 C :   -0.106777
   2 O :   -0.222995
   3 P :    0.578297
   4 S :   -0.294789
   5 O :   -0.256228
   6 C :   -0.116588
   7 C :   -0.369560
   8 S :    0.080697
   9 C :   -0.489278
  10 S :    0.055598
  11 P :    0.559162
  12 S :   -0.306900
  13 O :   -0.224664
  14 C :   -0.109884
  15 C :   -0.366363
  16 O :   -0.247604
  17 C :   -0.122220
  18 C :   -0.350912
  19 H :    0.115816
  20 H :    0.133643
  21 H :    0.132317
  22 H :    0.124490
  23 H :    0.113257
  24 H :    0.117347
  25 H :    0.110272
  26 H :    0.129965
  27 H :    0.119296
  28 H :    0.124526
  29 H :    0.116731
  30 H :    0.135351
  31 H :    0.107909
  32 H :    0.123944
  33 H :    0.118737
  34 H :    0.129580
  35 H :    0.128991
  36 H :    0.107440
  37 H :    0.108376
  38 H :    0.130114
  39 H :    0.124953
  40 H :    0.129920

  Mayer bond orders larger than 0.100000
B(  0-C ,  1-C ) :   1.1703 B(  0-C , 19-H ) :   0.9319 B(  0-C , 20-H ) :   0.9391
B(  0-C , 21-H ) :   0.9355 B(  1-C ,  2-O ) :   0.9006 B(  1-C , 22-H ) :   0.9323
B(  1-C , 23-H ) :   0.9262 B(  2-O ,  3-P ) :   1.1496 B(  3-P ,  4-S ) :   1.6097
B(  3-P ,  5-O ) :   1.0533 B(  3-P ,  8-S ) :   0.9406 B(  4-S ,  8-S ) :   0.1167
B(  4-S , 29-H ) :   0.1318 B(  5-O ,  6-C ) :   0.9209 B(  6-C ,  7-C ) :   1.1644
B(  6-C , 24-H ) :   0.9347 B(  6-C , 25-H ) :   0.9155 B(  7-C , 26-H ) :   0.9368
B(  7-C , 27-H ) :   0.9379 B(  7-C , 28-H ) :   0.9422 B(  8-S ,  9-C ) :   1.0110
B(  9-C , 10-S ) :   0.9863 B(  9-C , 29-H ) :   0.8374 B(  9-C , 30-H ) :   0.9070
B( 10-S , 11-P ) :   0.9433 B( 10-S , 12-S ) :   0.1151 B( 11-P , 12-S ) :   1.6663
B( 11-P , 13-O ) :   1.1487 B( 11-P , 16-O ) :   1.0786 B( 13-O , 14-C ) :   0.8997
B( 14-C , 15-C ) :   1.1688 B( 14-C , 31-H ) :   0.9179 B( 14-C , 32-H ) :   0.9348
B( 15-C , 33-H ) :   0.9381 B( 15-C , 34-H ) :   0.9363 B( 15-C , 35-H ) :   0.9440
B( 16-O , 17-C ) :   0.9062 B( 17-C , 18-C ) :   1.1608 B( 17-C , 36-H ) :   0.9023
B( 17-C , 37-H ) :   0.9310 B( 18-C , 38-H ) :   0.9420 B( 18-C , 39-H ) :   0.9517
B( 18-C , 40-H ) :   0.9504

Dispersion correction           -0.067314832
FINAL SINGLE POINT ENERGY     -2929.509304900513

DIPOLE MOMENT
-------------

Method             : SCF
Type of density    : Electron Density
Multiplicity       :   1
Irrep              :   0
Energy             : -2929.6270351604794087 Eh
Relativity type    :
Basis              : AO
                                X                 Y                 Z
Electronic contribution:      4.492478009       4.791749698      -2.139160970
Nuclear contribution   :     -4.357883670      -5.783577411       2.811992894
                        -----------------------------------------
Total Dipole Moment    :      0.134594339      -0.991827713       0.672831925
                        -----------------------------------------
Magnitude (a.u.)       :      1.206043385
Magnitude (Debye)      :      3.065518664

Rotational constants in cm-1:             0.012940             0.005266             0.004650
Rotational constants in MHz :           387.939489           157.862057           139.392868

                             ****ORCA TERMINATED NORMALLY****
TOTAL RUN TIME: 0 days 0 hours 0 minutes 21 seconds 14 msec
