                         Program Version 6.0.1  -  RELEASE   -
|  1> ! r2scan-3c def2/J RI DEFGRID2 scfconv6 printgap
|  2> %output
|  3>     printlevel normal
|  4> end
|  5> * xyz 0 1
|  6> C 3.8552217703 -4.0691565652 -1.5501823436
|  7> C 2.9243648854 -3.0328504035 -2.1590754268
|  8> O 2.797760753 -1.8820249775 -1.3004748035
|  9> C 1.9027120694 -1.9148574879 -0.3358162698
| 10> O 1.1600867232 -2.8451146998 -0.1127019397
| 11> C 1.871374971 -0.6095453653 0.4356266674
| 12> C 1.2062856173 0.4683080519 -0.4224877678
| 13> H 1.8415552738 0.6902759816 -1.2868986869
| 14> C 1.0184263893 1.7607443936 0.3576533603
| 15> O 1.8528809714 2.1755558627 1.1245002092
| 16> O -0.1156401083 2.3663291729 0.0629187137
| 17> C -0.3961820757 3.6288945145 0.7009941333
| 18> C 0.2045962112 4.7766800921 -0.0917426682
| 19> S -0.3538802319 -0.1069516145 -1.1715569121
| 20> P -1.696362105 0.0778892642 0.4687597483
| 21> S -1.0048902144 0.2742715446 2.2922155943
| 22> O -2.7197516025 1.2209219862 0.0965636256
| 23> C -3.4223741459 1.2487112211 -1.1628238804
| 24> O -2.6165303377 -1.2180111689 0.2628362959
| 25> C -2.1569329598 -2.5198140945 0.6415103568
| 26> H 3.4327598932 -4.454422316 -0.6249021084
| 27> H 3.9824389057 -4.8903362602 -2.2477102685
| 28> H 4.8239719514 -3.6248671879 -1.3387541527
| 29> H 1.928744288 -3.45419609 -2.3234868667
| 30> H 3.327685572 -2.6328965484 -3.0892436907
| 31> H 2.884168954 -0.2861989088 0.6758019189
| 32> H 1.3096059025 -0.7585967449 1.3597869306
| 33> H -1.4850566728 3.6799532501 0.7315031047
| 34> H 0.0050211048 3.5940662188 1.7179152386
| 35> H 1.289582645 4.7029894628 -0.0916487014
| 36> H -0.1557092467 4.7540100165 -1.1164466261
| 37> H -0.0846382521 5.7147470625 0.3699734546
| 38> H -3.9870672132 2.1771987302 -1.1516829197
| 39> H -4.0880109543 0.390945136 -1.2344528314
| 40> H -2.7078202057 1.2385744597 -1.9857900418
| 41> H -1.2377157732 -2.7777928444 0.1130693972
| 42> H -2.9581884157 -3.2020251216 0.3712171948
| 43> H -1.9726910782 -2.549977851 1.716104369
| 44> *
| 45>
| 46>                          ****END OF INPUT****

CARTESIAN COORDINATES (ANGSTROEM)
---------------------------------
  C      3.855222   -4.069157   -1.550182
  C      2.924365   -3.032850   -2.159075
  O      2.797761   -1.882025   -1.300475
  C      1.902712   -1.914857   -0.335816
  O      1.160087   -2.845115   -0.112702
  C      1.871375   -0.609545    0.435627
  C      1.206286    0.468308   -0.422488
  H      1.841555    0.690276   -1.286899
  C      1.018426    1.760744    0.357653
  O      1.852881    2.175556    1.124500
  O     -0.115640    2.366329    0.062919
  C     -0.396182    3.628895    0.700994
  C      0.204596    4.776680   -0.091743
  S     -0.353880   -0.106952   -1.171557
  P     -1.696362    0.077889    0.468760
  S     -1.004890    0.274272    2.292216
  O     -2.719752    1.220922    0.096564
  C     -3.422374    1.248711   -1.162824
  O     -2.616530   -1.218011    0.262836
  C     -2.156933   -2.519814    0.641510
  H      3.432760   -4.454422   -0.624902
  H      3.982439   -4.890336   -2.247710
  H      4.823972   -3.624867   -1.338754
  H      1.928744   -3.454196   -2.323487
  H      3.327686   -2.632897   -3.089244
  H      2.884169   -0.286199    0.675802
  H      1.309606   -0.758597    1.359787
  H     -1.485057    3.679953    0.731503
  H      0.005021    3.594066    1.717915
  H      1.289583    4.702989   -0.091649
  H     -0.155709    4.754010   -1.116447
  H     -0.084638    5.714747    0.369973
  H     -3.987067    2.177199   -1.151683
  H     -4.088011    0.390945   -1.234453
  H     -2.707820    1.238574   -1.985790
  H     -1.237716   -2.777793    0.113069
  H     -2.958188   -3.202025    0.371217
  H     -1.972691   -2.549978    1.716104

 Total Charge           Charge          ....    0
 Multiplicity           Mult            ....    1
 Number of Electrons    NEL             ....  174
 Basis Dimension        Dim             ....  510

ORBITAL ENERGIES
----------------

  NO   OCC          E(Eh)            E(eV)
   0   2.0000     -88.573578     -2410.2096
   1   2.0000     -88.517912     -2408.6949
   2   2.0000     -76.913662     -2092.9271
   3   2.0000     -19.006829      -517.2021
   4   2.0000     -19.003319      -517.1066
   5   2.0000     -18.994293      -516.8610
   6   2.0000     -18.986196      -516.6407
   7   2.0000     -18.938236      -515.3356
   8   2.0000     -18.935390      -515.2581
   9   2.0000     -10.166216      -276.6368
  10   2.0000     -10.160521      -276.4818
  11   2.0000     -10.103301      -274.9248
  12   2.0000     -10.098618      -274.7974
  13   2.0000     -10.098350      -274.7901
  14   2.0000     -10.090792      -274.5844
  15   2.0000     -10.078516      -274.2504
  16   2.0000     -10.049836      -273.4699
  17   2.0000     -10.033516      -273.0259
  18   2.0000     -10.030508      -272.9440
  19   2.0000      -7.868246      -214.1058
  20   2.0000      -7.812652      -212.5931
  21   2.0000      -6.591801      -179.3720
  22   2.0000      -5.815285      -158.2420
  23   2.0000      -5.812079      -158.1547
  24   2.0000      -5.805128      -157.9656
  25   2.0000      -5.760631      -156.7547
  26   2.0000      -5.752871      -156.5436
  27   2.0000      -5.752398      -156.5307
  28   2.0000      -4.737500      -128.9139
  29   2.0000      -4.736855      -128.8964
  30   2.0000      -4.735328      -128.8548
  31   2.0000      -1.083053       -29.4714
  32   2.0000      -1.082198       -29.4481
  33   2.0000      -1.048655       -28.5353
  34   2.0000      -1.005680       -27.3659
  35   2.0000      -0.988795       -26.9065
  36   2.0000      -0.985029       -26.8040
  37   2.0000      -0.812481       -22.1087
  38   2.0000      -0.756783       -20.5931
  39   2.0000      -0.741235       -20.1700
  40   2.0000      -0.730707       -19.8836
  41   2.0000      -0.695732       -18.9318
  42   2.0000      -0.670944       -18.2573
  43   2.0000      -0.659044       -17.9335
  44   2.0000      -0.651164       -17.7191
  45   2.0000      -0.632883       -17.2216
  46   2.0000      -0.601698       -16.3730
  47   2.0000      -0.541296       -14.7294
  48   2.0000      -0.530448       -14.4342
  49   2.0000      -0.527207       -14.3460
  50   2.0000      -0.503086       -13.6897
  51   2.0000      -0.491904       -13.3854
  52   2.0000      -0.473335       -12.8801
  53   2.0000      -0.463343       -12.6082
  54   2.0000      -0.459938       -12.5156
  55   2.0000      -0.450991       -12.2721
  56   2.0000      -0.448797       -12.2124
  57   2.0000      -0.442691       -12.0462
  58   2.0000      -0.433823       -11.8049
  59   2.0000      -0.425086       -11.5672
  60   2.0000      -0.421601       -11.4723
  61   2.0000      -0.416192       -11.3252
  62   2.0000      -0.412752       -11.2315
  63   2.0000      -0.403640       -10.9836
  64   2.0000      -0.400833       -10.9072
  65   2.0000      -0.383662       -10.4400
  66   2.0000      -0.374994       -10.2041
  67   2.0000      -0.369363       -10.0509
  68   2.0000      -0.359905        -9.7935
  69   2.0000      -0.353998        -9.6328
  70   2.0000      -0.348284        -9.4773
  71   2.0000      -0.345640        -9.4054
  72   2.0000      -0.339294        -9.2327
  73   2.0000      -0.330182        -8.9847
  74   2.0000      -0.321525        -8.7491
  75   2.0000      -0.316330        -8.6078
  76   2.0000      -0.311762        -8.4835
  77   2.0000      -0.310009        -8.4358
  78   2.0000      -0.287847        -7.8327
  79   2.0000      -0.281036        -7.6474
  80   2.0000      -0.278260        -7.5718
  81   2.0000      -0.274158        -7.4602
  82   2.0000      -0.255277        -6.9464
  83   2.0000      -0.242739        -6.6053
  84   2.0000      -0.227184        -6.1820
  85   2.0000      -0.215449        -5.8627
  86   2.0000      -0.214770        -5.8442
  87   0.0000      -0.044273        -1.2047
  88   0.0000      -0.032983        -0.8975
  89   0.0000      -0.014950        -0.4068
  90   0.0000       0.003601         0.0980
  91   0.0000       0.013618         0.3706

MULLIKEN ATOMIC CHARGES
-----------------------
   0 C :   -0.468137
   1 C :   -0.134047
   2 O :   -0.172344
   3 C :    0.435865
   4 O :   -0.403213
   5 C :   -0.478882
   6 C :    0.008189
   7 H :    0.200807
   8 C :    0.267755
   9 O :   -0.396917
  10 O :   -0.142471
  11 C :   -0.151486
  12 C :   -0.471705
  13 S :   -0.187695
  14 P :    0.786582
  15 S :   -0.435664
  16 O :   -0.316050
  17 C :   -0.294026
  18 O :   -0.362482
  19 C :   -0.301919
  20 H :    0.174956
  21 H :    0.148524
  22 H :    0.153232
  23 H :    0.168916
  24 H :    0.149121
  25 H :    0.189165
  26 H :    0.219154
  27 H :    0.165023
  28 H :    0.181097
  29 H :    0.170817
  30 H :    0.151845
  31 H :    0.150637
  32 H :    0.154837
  33 H :    0.171247
  34 H :    0.167214
  35 H :    0.188509
  36 H :    0.144156
  37 H :    0.169393
Sum of atomic charges:    0.0000000

LOEWDIN ATOMIC CHARGES
----------------------
   0 C :   -0.388621
   1 C :    0.029553
   2 O :   -0.588511
   3 C :    0.339720
   4 O :   -0.442871
   5 C :   -0.206412
   6 C :   -0.186862
   7 H :    0.206137
   8 C :    0.339797
   9 O :   -0.411343
  10 O :   -0.635423
  11 C :    0.031592
  12 C :   -0.387714
  13 S :    0.220533
  14 P :    0.411321
  15 S :   -0.056992
  16 O :   -0.654188
  17 C :   -0.052327
  18 O :   -0.685161
  19 C :   -0.058348
  20 H :    0.166349
  21 H :    0.159967
  22 H :    0.158221
  23 H :    0.188427
  24 H :    0.178546
  25 H :    0.194229
  26 H :    0.200603
  27 H :    0.185613
  28 H :    0.194775
  29 H :    0.164615
  30 H :    0.156946
  31 H :    0.160442
  32 H :    0.179118
  33 H :    0.174780
  34 H :    0.173374
  35 H :    0.190612
  36 H :    0.173601
  37 H :    0.175901

  Mayer bond orders larger than 0.100000
B(  0-C ,  1-C ) :   0.9394 B(  0-C , 20-H ) :   0.9705 B(  0-C , 21-H ) :   0.9648
B(  0-C , 22-H ) :   0.9722 B(  1-C ,  2-O ) :   0.8119 B(  1-C , 23-H ) :   0.9677
B(  1-C , 24-H ) :   0.9604 B(  2-O ,  3-C ) :   1.0267 B(  3-C ,  4-O ) :   1.8126
B(  3-C ,  5-C ) :   0.8803 B(  5-C ,  6-C ) :   0.8907 B(  5-C , 25-H ) :   0.9464
B(  5-C , 26-H ) :   0.9854 B(  6-C ,  7-H ) :   0.8812 B(  6-C ,  8-C ) :   0.9470
B(  6-C , 13-S ) :   0.8511 B(  8-C ,  9-O ) :   1.8647 B(  8-C , 10-O ) :   1.1007
B( 10-O , 11-C ) :   0.7923 B( 11-C , 12-C ) :   0.9230 B( 11-C , 27-H ) :   0.9566
B( 11-C , 28-H ) :   0.9632 B( 12-C , 29-H ) :   0.9726 B( 12-C , 30-H ) :   0.9766
B( 12-C , 31-H ) :   0.9657 B( 13-S , 14-P ) :   1.0119 B( 14-P , 15-S ) :   1.7614
B( 14-P , 16-O ) :   1.1416 B( 14-P , 18-O ) :   1.0369 B( 16-O , 17-C ) :   0.8014
B( 17-C , 32-H ) :   0.9655 B( 17-C , 33-H ) :   0.9609 B( 17-C , 34-H ) :   0.9551
B( 18-O , 19-C ) :   0.8318 B( 19-C , 35-H ) :   0.9413 B( 19-C , 36-H ) :   0.9680
B( 19-C , 37-H ) :   0.9578

Dispersion correction           -0.017896623
FINAL SINGLE POINT ENERGY     -1981.452820922013

DIPOLE MOMENT
-------------

Method             : SCF
Type of density    : Electron Density
Multiplicity       :   1
Irrep              :   0
Energy             : -1981.4723780443428041 Eh
Relativity type    :
Basis              : AO
                                X                 Y                 Z
Electronic contribution:     -7.458207730       1.701513179       7.419061595
Nuclear contribution   :      7.328833646      -1.661287510      -9.301554188
                        -----------------------------------------
Total Dipole Moment    :     -0.129374084       0.040225670      -1.882492593
                        -----------------------------------------
Magnitude (a.u.)       :      1.887361683
Magnitude (Debye)      :      4.797292150

Rotational constants in cm-1:             0.013402             0.007238             0.005755
Rotational constants in MHz :           401.785261           216.982379           172.520269

                             ****ORCA TERMINATED NORMALLY****
TOTAL RUN TIME: 0 days 0 hours 1 minutes 17 seconds 590 msec
