                         Program Version 6.0.1  -  RELEASE   -
|  1> ! r2scan-3c def2/J RI DEFGRID2 scfconv6 printgap
|  2> %output
|  3>     printlevel normal
|  4> end
|  5> %cpcm
|  6>     smd true
|  7>     smdsolvent "water"
|  8> end
|  9> * xyz 0 1
| 10> C 3.8552217703 -4.0691565652 -1.5501823436
| 11> C 2.9243648854 -3.0328504035 -2.1590754268
| 12> O 2.797760753 -1.8820249775 -1.3004748035
| 13> C 1.9027120694 -1.9148574879 -0.3358162698
| 14> O 1.1600867232 -2.8451146998 -0.1127019397
| 15> C 1.871374971 -0.6095453653 0.4356266674
| 16> C 1.2062856173 0.4683080519 -0.4224877678
| 17> H 1.8415552738 0.6902759816 -1.2868986869
| 18> C 1.0184263893 1.7607443936 0.3576533603
| 19> O 1.8528809714 2.1755558627 1.1245002092
| 20> O -0.1156401083 2.3663291729 0.0629187137
| 21> C -0.3961820757 3.6288945145 0.7009941333
| 22> C 0.2045962112 4.7766800921 -0.0917426682
| 23> S -0.3538802319 -0.1069516145 -1.1715569121
| 24> P -1.696362105 0.0778892642 0.4687597483
| 25> S -1.0048902144 0.2742715446 2.2922155943
| 26> O -2.7197516025 1.2209219862 0.0965636256
| 27> C -3.4223741459 1.2487112211 -1.1628238804
| 28> O -2.6165303377 -1.2180111689 0.2628362959
| 29> C -2.1569329598 -2.5198140945 0.6415103568
| 30> H 3.4327598932 -4.454422316 -0.6249021084
| 31> H 3.9824389057 -4.8903362602 -2.2477102685
| 32> H 4.8239719514 -3.6248671879 -1.3387541527
| 33> H 1.928744288 -3.45419609 -2.3234868667
| 34> H 3.327685572 -2.6328965484 -3.0892436907
| 35> H 2.884168954 -0.2861989088 0.6758019189
| 36> H 1.3096059025 -0.7585967449 1.3597869306
| 37> H -1.4850566728 3.6799532501 0.7315031047
| 38> H 0.0050211048 3.5940662188 1.7179152386
| 39> H 1.289582645 4.7029894628 -0.0916487014
| 40> H -0.1557092467 4.7540100165 -1.1164466261
| 41> H -0.0846382521 5.7147470625 0.3699734546
| 42> H -3.9870672132 2.1771987302 -1.1516829197
| 43> H -4.0880109543 0.390945136 -1.2344528314
| 44> H -2.7078202057 1.2385744597 -1.9857900418
| 45> H -1.2377157732 -2.7777928444 0.1130693972
| 46> H -2.9581884157 -3.2020251216 0.3712171948
| 47> H -1.9726910782 -2.549977851 1.716104369
| 48> *
| 49>
| 50>                          ****END OF INPUT****

CARTESIAN COORDINATES (ANGSTROEM)
---------------------------------
  C      3.855222   -4.069157   -1.550182
  C      2.924365   -3.032850   -2.159075
  O      2.797761   -1.882025   -1.300475
  C      1.902712   -1.914857   -0.335816
  O      1.160087   -2.845115   -0.112702
  C      1.871375   -0.609545    0.435627
  C      1.206286    0.468308   -0.422488
  H      1.841555    0.690276   -1.286899
  C      1.018426    1.760744    0.357653
  O      1.852881    2.175556    1.124500
  O     -0.115640    2.366329    0.062919
  C     -0.396182    3.628895    0.700994
  C      0.204596    4.776680   -0.091743
  S     -0.353880   -0.106952   -1.171557
  P     -1.696362    0.077889    0.468760
  S     -1.004890    0.274272    2.292216
  O     -2.719752    1.220922    0.096564
  C     -3.422374    1.248711   -1.162824
  O     -2.616530   -1.218011    0.262836
  C     -2.156933   -2.519814    0.641510
  H      3.432760   -4.454422   -0.624902
  H      3.982439   -4.890336   -2.247710
  H      4.823972   -3.624867   -1.338754
  H      1.928744   -3.454196   -2.323487
  H      3.327686   -2.632897   -3.089244
  H      2.884169   -0.286199    0.675802
  H      1.309606   -0.758597    1.359787
  H     -1.485057    3.679953    0.731503
  H      0.005021    3.594066    1.717915
  H      1.289583    4.702989   -0.091649
  H     -0.155709    4.754010   -1.116447
  H     -0.084638    5.714747    0.369973
  H     -3.987067    2.177199   -1.151683
  H     -4.088011    0.390945   -1.234453
  H     -2.707820    1.238574   -1.985790
  H     -1.237716   -2.777793    0.113069
  H     -2.958188   -3.202025    0.371217
  H     -1.972691   -2.549978    1.716104

 Total Charge           Charge          ....    0
 Multiplicity           Mult            ....    1
 Number of Electrons    NEL             ....  174
 Basis Dimension        Dim             ....  510

ORBITAL ENERGIES
----------------

  NO   OCC          E(Eh)            E(eV)
   0   2.0000     -88.579442     -2410.3692
   1   2.0000     -88.531496     -2409.0645
   2   2.0000     -76.922813     -2093.1761
   3   2.0000     -19.011354      -517.3253
   4   2.0000     -19.008652      -517.2517
   5   2.0000     -18.998334      -516.9710
   6   2.0000     -18.994297      -516.8611
   7   2.0000     -18.954611      -515.7812
   8   2.0000     -18.947672      -515.5924
   9   2.0000     -10.179463      -276.9973
  10   2.0000     -10.169659      -276.7305
  11   2.0000     -10.104244      -274.9505
  12   2.0000     -10.087334      -274.4903
  13   2.0000     -10.086202      -274.4595
  14   2.0000     -10.085325      -274.4356
  15   2.0000     -10.079476      -274.2765
  16   2.0000     -10.052693      -273.5477
  17   2.0000     -10.020145      -272.6620
  18   2.0000     -10.019372      -272.6410
  19   2.0000      -7.873996      -214.2623
  20   2.0000      -7.826591      -212.9724
  21   2.0000      -6.601045      -179.6236
  22   2.0000      -5.821069      -158.3993
  23   2.0000      -5.817837      -158.3114
  24   2.0000      -5.810858      -158.1215
  25   2.0000      -5.774431      -157.1303
  26   2.0000      -5.766853      -156.9240
  27   2.0000      -5.766360      -156.9106
  28   2.0000      -4.746691      -129.1640
  29   2.0000      -4.746068      -129.1471
  30   2.0000      -4.744684      -129.1094
  31   2.0000      -1.092162       -29.7193
  32   2.0000      -1.086520       -29.5657
  33   2.0000      -1.054143       -28.6847
  34   2.0000      -1.011539       -27.5254
  35   2.0000      -1.003365       -27.3029
  36   2.0000      -0.995142       -27.0792
  37   2.0000      -0.815768       -22.1982
  38   2.0000      -0.752138       -20.4667
  39   2.0000      -0.739096       -20.1118
  40   2.0000      -0.730442       -19.8763
  41   2.0000      -0.695568       -18.9274
  42   2.0000      -0.670375       -18.2418
  43   2.0000      -0.662677       -18.0324
  44   2.0000      -0.654041       -17.7974
  45   2.0000      -0.627366       -17.0715
  46   2.0000      -0.600290       -16.3347
  47   2.0000      -0.543589       -14.7918
  48   2.0000      -0.528204       -14.3732
  49   2.0000      -0.525675       -14.3043
  50   2.0000      -0.506844       -13.7919
  51   2.0000      -0.493214       -13.4210
  52   2.0000      -0.473938       -12.8965
  53   2.0000      -0.468731       -12.7548
  54   2.0000      -0.465008       -12.6535
  55   2.0000      -0.460780       -12.5385
  56   2.0000      -0.450662       -12.2631
  57   2.0000      -0.445608       -12.1256
  58   2.0000      -0.434868       -11.8334
  59   2.0000      -0.426408       -11.6032
  60   2.0000      -0.423073       -11.5124
  61   2.0000      -0.415789       -11.3142
  62   2.0000      -0.410535       -11.1712
  63   2.0000      -0.403621       -10.9831
  64   2.0000      -0.399296       -10.8654
  65   2.0000      -0.380888       -10.3645
  66   2.0000      -0.373580       -10.1656
  67   2.0000      -0.365325        -9.9410
  68   2.0000      -0.360094        -9.7987
  69   2.0000      -0.353201        -9.6111
  70   2.0000      -0.347152        -9.4465
  71   2.0000      -0.346162        -9.4196
  72   2.0000      -0.336706        -9.1622
  73   2.0000      -0.331520        -9.0211
  74   2.0000      -0.323367        -8.7993
  75   2.0000      -0.316275        -8.6063
  76   2.0000      -0.310660        -8.4535
  77   2.0000      -0.307553        -8.3689
  78   2.0000      -0.291320        -7.9272
  79   2.0000      -0.285094        -7.7578
  80   2.0000      -0.284070        -7.7299
  81   2.0000      -0.281922        -7.6715
  82   2.0000      -0.268250        -7.2995
  83   2.0000      -0.256097        -6.9688
  84   2.0000      -0.238113        -6.4794
  85   2.0000      -0.229874        -6.2552
  86   2.0000      -0.227651        -6.1947
  87   0.0000      -0.052239        -1.4215
  88   0.0000      -0.042054        -1.1444
  89   0.0000      -0.022951        -0.6245
  90   0.0000      -0.000709        -0.0193
  91   0.0000       0.006336         0.1724

MULLIKEN ATOMIC CHARGES
-----------------------
   0 C :   -0.495016
   1 C :   -0.138302
   2 O :   -0.181839
   3 C :    0.457199
   4 O :   -0.468427
   5 C :   -0.496760
   6 C :    0.027359
   7 H :    0.250911
   8 C :    0.284769
   9 O :   -0.465024
  10 O :   -0.155498
  11 C :   -0.146031
  12 C :   -0.499528
  13 S :   -0.186233
  14 P :    0.809287
  15 S :   -0.491814
  16 O :   -0.351337
  17 C :   -0.299108
  18 O :   -0.382265
  19 C :   -0.321466
  20 H :    0.170567
  21 H :    0.172011
  22 H :    0.166629
  23 H :    0.174889
  24 H :    0.176721
  25 H :    0.208509
  26 H :    0.216647
  27 H :    0.182599
  28 H :    0.178983
  29 H :    0.171046
  30 H :    0.168963
  31 H :    0.173526
  32 H :    0.184048
  33 H :    0.186375
  34 H :    0.178629
  35 H :    0.181713
  36 H :    0.177470
  37 H :    0.179799
Sum of atomic charges:    0.0000000

LOEWDIN ATOMIC CHARGES
----------------------
   0 C :   -0.391456
   1 C :    0.035865
   2 O :   -0.584271
   3 C :    0.347731
   4 O :   -0.488813
   5 C :   -0.206725
   6 C :   -0.181593
   7 H :    0.225910
   8 C :    0.348567
   9 O :   -0.460849
  10 O :   -0.635207
  11 C :    0.034970
  12 C :   -0.387570
  13 S :    0.231995
  14 P :    0.412160
  15 S :   -0.098991
  16 O :   -0.671485
  17 C :   -0.042867
  18 O :   -0.693661
  19 C :   -0.057520
  20 H :    0.163084
  21 H :    0.168691
  22 H :    0.162658
  23 H :    0.190623
  24 H :    0.190591
  25 H :    0.203299
  26 H :    0.196672
  27 H :    0.193139
  28 H :    0.193367
  29 H :    0.163922
  30 H :    0.163713
  31 H :    0.169158
  32 H :    0.191860
  33 H :    0.181857
  34 H :    0.179393
  35 H :    0.186693
  36 H :    0.187480
  37 H :    0.177607

  Mayer bond orders larger than 0.100000
B(  0-C ,  1-C ) :   0.9360 B(  0-C , 20-H ) :   0.9688 B(  0-C , 21-H ) :   0.9595
B(  0-C , 22-H ) :   0.9689 B(  1-C ,  2-O ) :   0.7935 B(  1-C , 23-H ) :   0.9630
B(  1-C , 24-H ) :   0.9507 B(  2-O ,  3-C ) :   1.0594 B(  3-C ,  4-O ) :   1.7600
B(  3-C ,  5-C ) :   0.8994 B(  5-C ,  6-C ) :   0.8694 B(  5-C , 25-H ) :   0.9247
B(  5-C , 26-H ) :   0.9951 B(  6-C ,  7-H ) :   0.8597 B(  6-C ,  8-C ) :   0.9569
B(  6-C , 13-S ) :   0.8285 B(  8-C ,  9-O ) :   1.8170 B(  8-C , 10-O ) :   1.1212
B( 10-O , 11-C ) :   0.7728 B( 11-C , 12-C ) :   0.9319 B( 11-C , 27-H ) :   0.9475
B( 11-C , 28-H ) :   0.9546 B( 12-C , 29-H ) :   0.9693 B( 12-C , 30-H ) :   0.9720
B( 12-C , 31-H ) :   0.9597 B( 13-S , 14-P ) :   1.0285 B( 14-P , 15-S ) :   1.7321
B( 14-P , 16-O ) :   1.1466 B( 14-P , 18-O ) :   1.0332 B( 16-O , 17-C ) :   0.7925
B( 17-C , 32-H ) :   0.9541 B( 17-C , 33-H ) :   0.9521 B( 17-C , 34-H ) :   0.9465
B( 18-O , 19-C ) :   0.8235 B( 19-C , 35-H ) :   0.9420 B( 19-C , 36-H ) :   0.9573
B( 19-C , 37-H ) :   0.9548

Dispersion correction           -0.017896623
FINAL SINGLE POINT ENERGY     -1981.465992762587

DIPOLE MOMENT
-------------

Method             : SCF
Type of density    : Electron Density
Multiplicity       :   1
Irrep              :   0
Energy             : -1981.4855498849171909 Eh
Relativity type    :
Basis              : AO
                                X                 Y                 Z
Electronic contribution:     -7.462798806       1.835198697       6.454294727
Nuclear contribution   :      7.328833646      -1.661287510      -9.301554188
                        -----------------------------------------
Total Dipole Moment    :     -0.133965160       0.173911187      -2.847259462
                        -----------------------------------------
Magnitude (a.u.)       :      2.855709755
Magnitude (Debye)      :      7.258637345

Rotational constants in cm-1:             0.013402             0.007238             0.005755
Rotational constants in MHz :           401.785261           216.982379           172.520269

                             ****ORCA TERMINATED NORMALLY****
TOTAL RUN TIME: 0 days 0 hours 1 minutes 49 seconds 585 msec
