                         Program Version 6.0.0  -   RELEASE  -
|  1> ! pbe def2-sv(p) def2/J RI DEFGRID1 loosescf d4 GCP(DFT/SV(P)) printgap
|  2> %output
|  3>     printlevel normal
|  4> end
|  5> * xyz 0 1
|  6> C -0.7841626934 0.000127961 0.6771292491
|  7> C 0.5921419159 0.0001782754 0.026325874
|  8> Cl 0.4606301395 -5.65145e-05 -1.7417178649
|  9> Cl 1.4870603271 -1.4422401333 0.5449213753
| 10> Cl 1.4874266282 1.4423949524 0.5448815464
| 11> Cl -1.6754260251 1.4511985172 0.1816400218
| 12> Cl -1.6746855981 -1.4514024406 0.1817244635
| 13> H -0.7018099334 6.58539e-05 1.7669170268
| 14> *
| 15>
| 16>                          ****END OF INPUT****

CARTESIAN COORDINATES (ANGSTROEM)
---------------------------------
  C     -0.784163    0.000128    0.677129
  C      0.592142    0.000178    0.026326
  Cl     0.460630   -0.000057   -1.741718
  Cl     1.487060   -1.442240    0.544921
  Cl     1.487427    1.442395    0.544882
  Cl    -1.675426    1.451199    0.181640
  Cl    -1.674686   -1.451402    0.181724
  H     -0.701810    0.000066    1.766917

 Total Charge           Charge          ....    0
 Multiplicity           Mult            ....    1
 Number of Electrons    NEL             ....   98
 Basis Dimension        Dim             ....  120

ORBITAL ENERGIES
----------------

  NO   OCC          E(Eh)            E(eV)
   0   2.0000    -100.665331     -2739.2429
   1   2.0000    -100.665286     -2739.2417
   2   2.0000    -100.660917     -2739.1228
   3   2.0000    -100.656702     -2739.0081
   4   2.0000    -100.656658     -2739.0069
   5   2.0000     -10.081860      -274.3413
   6   2.0000     -10.036317      -273.1021
   7   2.0000      -9.201919      -250.3969
   8   2.0000      -9.201880      -250.3959
   9   2.0000      -9.197355      -250.2728
  10   2.0000      -9.193016      -250.1547
  11   2.0000      -9.192981      -250.1537
  12   2.0000      -7.033991      -191.4046
  13   2.0000      -7.033967      -191.4040
  14   2.0000      -7.029600      -191.2851
  15   2.0000      -7.025101      -191.1627
  16   2.0000      -7.025079      -191.1621
  17   2.0000      -7.021322      -191.0599
  18   2.0000      -7.021305      -191.0594
  19   2.0000      -7.020993      -191.0509
  20   2.0000      -7.020969      -191.0503
  21   2.0000      -7.016556      -190.9302
  22   2.0000      -7.016529      -190.9295
  23   2.0000      -7.012427      -190.8178
  24   2.0000      -7.012407      -190.8173
  25   2.0000      -7.012139      -190.8100
  26   2.0000      -7.012123      -190.8096
  27   2.0000      -0.899929       -24.4883
  28   2.0000      -0.829397       -22.5690
  29   2.0000      -0.782076       -21.2814
  30   2.0000      -0.772562       -21.0225
  31   2.0000      -0.757306       -20.6073
  32   2.0000      -0.650007       -17.6876
  33   2.0000      -0.547839       -14.9074
  34   2.0000      -0.482918       -13.1409
  35   2.0000      -0.464235       -12.6325
  36   2.0000      -0.460489       -12.5305
  37   2.0000      -0.416754       -11.3405
  38   2.0000      -0.406786       -11.0692
  39   2.0000      -0.324096        -8.8191
  40   2.0000      -0.320351        -8.7172
  41   2.0000      -0.304121        -8.2756
  42   2.0000      -0.300477        -8.1764
  43   2.0000      -0.296432        -8.0663
  44   2.0000      -0.288861        -7.8603
  45   2.0000      -0.283760        -7.7215
  46   2.0000      -0.271998        -7.4014
  47   2.0000      -0.267642        -7.2829
  48   2.0000      -0.259336        -7.0569
  49   0.0000      -0.052086        -1.4173
  50   0.0000      -0.051693        -1.4066
  51   0.0000      -0.048120        -1.3094
  52   0.0000      -0.007452        -0.2028
  53   0.0000       0.020090         0.5467

MULLIKEN ATOMIC CHARGES
-----------------------
   0 C :   -0.039694
   1 C :   -0.113123
   2 Cl:    0.013679
   3 Cl:    0.010009
   4 Cl:    0.010017
   5 Cl:   -0.033877
   6 Cl:   -0.033909
   7 H :    0.186897
Sum of atomic charges:   -0.0000000

LOEWDIN ATOMIC CHARGES
----------------------
   0 C :   -0.334003
   1 C :   -0.355516
   2 Cl:    0.116715
   3 Cl:    0.115660
   4 Cl:    0.115678
   5 Cl:    0.099852
   6 Cl:    0.099841
   7 H :    0.141772

  Mayer bond orders larger than 0.100000
B(  0-C ,  1-C ) :   0.8536 B(  0-C ,  5-Cl) :   1.0856 B(  0-C ,  6-Cl) :   1.0855
B(  0-C ,  7-H ) :   0.8840 B(  1-C ,  2-Cl) :   1.0768 B(  1-C ,  3-Cl) :   1.0661
B(  1-C ,  4-Cl) :   1.0662

Dispersion correction           -0.015519303
FINAL SINGLE POINT ENERGY     -2375.963864633771

DIPOLE MOMENT
-------------

Method             : SCF
Type of density    : Electron Density
Multiplicity       :   1
Irrep              :   0
Energy             : -2375.9733789818760670 Eh
Relativity type    :
Basis              : AO
                                X                 Y                 Z
Electronic contribution:      0.815104450      -0.000043014      -1.653526355
Nuclear contribution   :     -0.772518988       0.000203547       2.044982233
                        -----------------------------------------
Total Dipole Moment    :      0.042585463       0.000160533       0.391455878
                        -----------------------------------------
Magnitude (a.u.)       :      0.393765478
Magnitude (Debye)      :      1.000872305

Rotational constants in cm-1:             0.038624             0.032733             0.025076
Rotational constants in MHz :          1157.912495           981.305800           751.769566

                             ****ORCA TERMINATED NORMALLY****
TOTAL RUN TIME: 0 days 0 hours 0 minutes 6 seconds 77 msec
