                         Program Version 6.0.0  -   RELEASE  -
|  1> ! pbe def2-sv(p) def2/J RI DEFGRID1 loosescf d4 GCP(DFT/SV(P)) printgap
|  2> %output
|  3>     printlevel normal
|  4> end
|  5> * xyz 0 1
|  6> C 2.1074019921 -0.7827046133 -2.4493965514
|  7> C 3.3850635546 -0.7419746024 -1.6367139418
|  8> O 3.1996247471 -1.304455174 -0.3286653821
|  9> P 2.5388168028 -0.4970450819 0.8758593823
| 10> S 2.9862009349 1.4188430413 0.9039388179
| 11> O 2.9639429115 -1.3896012821 2.1126586383
| 12> C 4.2861766293 -1.9354368903 2.3090543162
| 13> C 5.341614233 -0.8563472321 2.437443289
| 14> S 0.4732233525 -0.9605494599 0.9503039698
| 15> C -0.2326518834 0.7005278999 0.7745327883
| 16> S -0.8137106985 1.0902497483 -0.9040818949
| 17> P -2.8300446505 0.4546714337 -0.6493075403
| 18> S -4.0111405798 0.6370208703 -2.1986355056
| 19> O -3.3033402409 1.1975486653 0.6770642172
| 20> C -3.9873735434 2.4616220793 0.6214540946
| 21> C -3.0715225674 3.5915617897 0.1930685657
| 22> O -2.7155691887 -0.9921543001 -0.0069822481
| 23> C -2.8195818343 -2.178878709 -0.8143587914
| 24> C -1.6328851695 -2.3475655786 -1.741750558
| 25> H 1.7070636877 -1.792928959 -2.4722006104
| 26> H 1.3630764406 -0.1144310734 -2.0183931811
| 27> H 2.3161451614 -0.4577775932 -3.4634424595
| 28> H 3.7439373463 0.2871546459 -1.5284045176
| 29> H 4.1641313676 -1.3605137825 -2.0851458432
| 30> H 4.1877891498 -2.510003119 3.2315862918
| 31> H 4.5100623561 -2.6050167314 1.4759223547
| 32> H 5.0797266168 -0.1637504454 3.2340313907
| 33> H 6.3008413989 -1.3132210505 2.6596487657
| 34> H 5.422208885 -0.2957224148 1.506932789
| 35> H 0.5429371168 1.4327674822 1.011733194
| 36> H -1.0731628984 0.7698295124 1.4599026934
| 37> H -4.8302625956 2.3697798123 -0.0709156344
| 38> H -4.3575529204 2.6049934949 1.6377046032
| 39> H -2.1987597782 3.6449904871 0.8394195255
| 40> H -2.7410808965 3.4345473808 -0.8333745992
| 41> H -3.6136411099 4.5302598657 0.2471298527
| 42> H -2.8780999218 -2.9867945657 -0.0840971643
| 43> H -3.7497098406 -2.1251516715 -1.3892039452
| 44> H -0.7095847124 -2.3680786277 -1.1685447186
| 45> H -1.7380356517 -3.2773483711 -2.2915409879
| 46> H -1.596327313 -1.5197221365 -2.4500154356
| 47> *
| 48>
| 49>                          ****END OF INPUT****

CARTESIAN COORDINATES (ANGSTROEM)
---------------------------------
  C      2.107402   -0.782705   -2.449397
  C      3.385064   -0.741975   -1.636714
  O      3.199625   -1.304455   -0.328665
  P      2.538817   -0.497045    0.875859
  S      2.986201    1.418843    0.903939
  O      2.963943   -1.389601    2.112659
  C      4.286177   -1.935437    2.309054
  C      5.341614   -0.856347    2.437443
  S      0.473223   -0.960549    0.950304
  C     -0.232652    0.700528    0.774533
  S     -0.813711    1.090250   -0.904082
  P     -2.830045    0.454671   -0.649308
  S     -4.011141    0.637021   -2.198636
  O     -3.303340    1.197549    0.677064
  C     -3.987374    2.461622    0.621454
  C     -3.071523    3.591562    0.193069
  O     -2.715569   -0.992154   -0.006982
  C     -2.819582   -2.178879   -0.814359
  C     -1.632885   -2.347566   -1.741751
  H      1.707064   -1.792929   -2.472201
  H      1.363076   -0.114431   -2.018393
  H      2.316145   -0.457778   -3.463442
  H      3.743937    0.287155   -1.528405
  H      4.164131   -1.360514   -2.085146
  H      4.187789   -2.510003    3.231586
  H      4.510062   -2.605017    1.475922
  H      5.079727   -0.163750    3.234031
  H      6.300841   -1.313221    2.659649
  H      5.422209   -0.295722    1.506933
  H      0.542937    1.432767    1.011733
  H     -1.073163    0.769830    1.459903
  H     -4.830263    2.369780   -0.070916
  H     -4.357553    2.604993    1.637705
  H     -2.198760    3.644990    0.839420
  H     -2.741081    3.434547   -0.833375
  H     -3.613641    4.530260    0.247130
  H     -2.878100   -2.986795   -0.084097
  H     -3.749710   -2.125152   -1.389204
  H     -0.709585   -2.368079   -1.168545
  H     -1.738036   -3.277348   -2.291541
  H     -1.596327   -1.519722   -2.450015

 Total Charge           Charge          ....    0
 Multiplicity           Mult            ....    1
 Number of Electrons    NEL             ....  202
 Basis Dimension        Dim             ....  334

ORBITAL ENERGIES
----------------

  NO   OCC          E(Eh)            E(eV)
   0   2.0000     -88.045839     -2395.8491
   1   2.0000     -88.044167     -2395.8036
   2   2.0000     -87.995274     -2394.4731
   3   2.0000     -87.991038     -2394.3579
   4   2.0000     -76.431815     -2079.8154
   5   2.0000     -76.428184     -2079.7166
   6   2.0000     -18.799535      -511.5613
   7   2.0000     -18.795097      -511.4406
   8   2.0000     -18.792736      -511.3763
   9   2.0000     -18.791123      -511.3325
  10   2.0000      -9.959034      -270.9991
  11   2.0000      -9.954949      -270.8879
  12   2.0000      -9.953505      -270.8486
  13   2.0000      -9.952925      -270.8329
  14   2.0000      -9.950950      -270.7791
  15   2.0000      -9.887515      -269.0530
  16   2.0000      -9.883909      -268.9548
  17   2.0000      -9.883789      -268.9516
  18   2.0000      -9.879156      -268.8255
  19   2.0000      -7.690767      -209.2764
  20   2.0000      -7.688481      -209.2142
  21   2.0000      -7.640083      -207.8972
  22   2.0000      -7.636184      -207.7911
  23   2.0000      -6.429352      -174.9516
  24   2.0000      -6.425666      -174.8513
  25   2.0000      -5.718571      -155.6102
  26   2.0000      -5.716530      -155.5547
  27   2.0000      -5.715234      -155.5194
  28   2.0000      -5.712883      -155.4554
  29   2.0000      -5.707830      -155.3179
  30   2.0000      -5.705504      -155.2547
  31   2.0000      -5.668793      -154.2557
  32   2.0000      -5.665152      -154.1566
  33   2.0000      -5.660906      -154.0411
  34   2.0000      -5.660279      -154.0240
  35   2.0000      -5.656694      -153.9265
  36   2.0000      -5.656421      -153.9190
  37   2.0000      -4.652124      -126.5907
  38   2.0000      -4.650793      -126.5545
  39   2.0000      -4.649934      -126.5311
  40   2.0000      -4.647918      -126.4763
  41   2.0000      -4.647881      -126.4753
  42   2.0000      -4.646004      -126.4242
  43   2.0000      -0.993127       -27.0244
  44   2.0000      -0.989384       -26.9225
  45   2.0000      -0.949041       -25.8247
  46   2.0000      -0.946346       -25.7514
  47   2.0000      -0.762893       -20.7594
  48   2.0000      -0.724670       -19.7193
  49   2.0000      -0.710147       -19.3241
  50   2.0000      -0.691579       -18.8188
  51   2.0000      -0.682201       -18.5636
  52   2.0000      -0.678609       -18.4659
  53   2.0000      -0.658705       -17.9243
  54   2.0000      -0.641821       -17.4648
  55   2.0000      -0.603442       -16.4205
  56   2.0000      -0.596891       -16.2422
  57   2.0000      -0.581298       -15.8179
  58   2.0000      -0.569333       -15.4923
  59   2.0000      -0.559308       -15.2196
  60   2.0000      -0.501152       -13.6370
  61   2.0000      -0.494945       -13.4681
  62   2.0000      -0.476751       -12.9730
  63   2.0000      -0.466795       -12.7021
  64   2.0000      -0.463380       -12.6092
  65   2.0000      -0.449004       -12.2180
  66   2.0000      -0.446061       -12.1379
  67   2.0000      -0.434064       -11.8115
  68   2.0000      -0.422340       -11.4924
  69   2.0000      -0.420852       -11.4520
  70   2.0000      -0.416662       -11.3379
  71   2.0000      -0.405982       -11.0473
  72   2.0000      -0.398556       -10.8452
  73   2.0000      -0.390546       -10.6273
  74   2.0000      -0.385146       -10.4804
  75   2.0000      -0.377367       -10.2687
  76   2.0000      -0.369835       -10.0637
  77   2.0000      -0.355742        -9.6802
  78   2.0000      -0.352794        -9.6000
  79   2.0000      -0.350930        -9.5493
  80   2.0000      -0.346271        -9.4225
  81   2.0000      -0.344800        -9.3825
  82   2.0000      -0.340618        -9.2687
  83   2.0000      -0.338119        -9.2007
  84   2.0000      -0.334744        -9.1088
  85   2.0000      -0.323338        -8.7985
  86   2.0000      -0.318644        -8.6707
  87   2.0000      -0.301527        -8.2050
  88   2.0000      -0.300015        -8.1638
  89   2.0000      -0.294092        -8.0026
  90   2.0000      -0.288835        -7.8596
  91   2.0000      -0.280026        -7.6199
  92   2.0000      -0.271371        -7.3844
  93   2.0000      -0.266162        -7.2426
  94   2.0000      -0.258273        -7.0280
  95   2.0000      -0.232535        -6.3276
  96   2.0000      -0.221783        -6.0350
  97   2.0000      -0.215411        -5.8616
  98   2.0000      -0.211173        -5.7463
  99   2.0000      -0.208337        -5.6691
 100   2.0000      -0.204511        -5.5650
 101   0.0000      -0.039602        -1.0776
 102   0.0000      -0.033917        -0.9229
 103   0.0000      -0.019899        -0.5415
 104   0.0000       0.004225         0.1150
 105   0.0000       0.008085         0.2200

MULLIKEN ATOMIC CHARGES
-----------------------
   0 C :   -0.326886
   1 C :   -0.008214
   2 O :   -0.380903
   3 P :    0.624547
   4 S :   -0.326163
   5 O :   -0.372095
   6 C :   -0.001496
   7 C :   -0.315612
   8 S :   -0.068250
   9 C :   -0.367887
  10 S :   -0.072282
  11 P :    0.574053
  12 S :   -0.312892
  13 O :   -0.367438
  14 C :   -0.004800
  15 C :   -0.313320
  16 O :   -0.368909
  17 C :    0.003796
  18 C :   -0.340726
  19 H :    0.121705
  20 H :    0.140287
  21 H :    0.112844
  22 H :    0.111823
  23 H :    0.102545
  24 H :    0.109874
  25 H :    0.110235
  26 H :    0.126031
  27 H :    0.111950
  28 H :    0.128021
  29 H :    0.198041
  30 H :    0.197787
  31 H :    0.114332
  32 H :    0.107652
  33 H :    0.116520
  34 H :    0.128482
  35 H :    0.113348
  36 H :    0.106555
  37 H :    0.112206
  38 H :    0.140389
  39 H :    0.108986
  40 H :    0.125865
Sum of atomic charges:   -0.0000000

LOEWDIN ATOMIC CHARGES
----------------------
   0 C :   -0.367246
   1 C :   -0.121740
   2 O :   -0.246053
   3 P :    0.567396
   4 S :   -0.304562
   5 O :   -0.243644
   6 C :   -0.110742
   7 C :   -0.366380
   8 S :    0.107224
   9 C :   -0.488776
  10 S :    0.095850
  11 P :    0.571969
  12 S :   -0.313828
  13 O :   -0.241226
  14 C :   -0.118800
  15 C :   -0.368042
  16 O :   -0.242394
  17 C :   -0.116386
  18 C :   -0.375749
  19 H :    0.126342
  20 H :    0.112892
  21 H :    0.132260
  22 H :    0.108354
  23 H :    0.116914
  24 H :    0.121882
  25 H :    0.113417
  26 H :    0.130769
  27 H :    0.130186
  28 H :    0.122086
  29 H :    0.125877
  30 H :    0.134974
  31 H :    0.111429
  32 H :    0.119507
  33 H :    0.124414
  34 H :    0.122132
  35 H :    0.131165
  36 H :    0.120060
  37 H :    0.110598
  38 H :    0.117463
  39 H :    0.129549
  40 H :    0.120860

  Mayer bond orders larger than 0.100000
B(  0-C ,  1-C ) :   1.1629 B(  0-C , 19-H ) :   0.9425 B(  0-C , 20-H ) :   0.9278
B(  0-C , 21-H ) :   0.9375 B(  1-C ,  2-O ) :   0.9098 B(  1-C , 22-H ) :   0.9094
B(  1-C , 23-H ) :   0.9323 B(  2-O ,  3-P ) :   1.0811 B(  3-P ,  4-S ) :   1.6060
B(  3-P ,  5-O ) :   1.1334 B(  3-P ,  8-S ) :   0.9658 B(  4-S ,  8-S ) :   0.1220
B(  4-S , 29-H ) :   0.1137 B(  5-O ,  6-C ) :   0.9069 B(  6-C ,  7-C ) :   1.1658
B(  6-C , 24-H ) :   0.9346 B(  6-C , 25-H ) :   0.9289 B(  7-C , 26-H ) :   0.9454
B(  7-C , 27-H ) :   0.9364 B(  7-C , 28-H ) :   0.9365 B(  8-S ,  9-C ) :   1.0109
B(  9-C , 10-S ) :   0.9784 B(  9-C , 29-H ) :   0.8495 B(  9-C , 30-H ) :   0.8846
B( 10-S , 11-P ) :   0.9784 B( 11-P , 12-S ) :   1.6354 B( 11-P , 13-O ) :   1.0868
B( 11-P , 16-O ) :   1.1035 B( 13-O , 14-C ) :   0.9081 B( 14-C , 15-C ) :   1.1632
B( 14-C , 31-H ) :   0.9154 B( 14-C , 32-H ) :   0.9344 B( 15-C , 33-H ) :   0.9464
B( 15-C , 34-H ) :   0.9358 B( 15-C , 35-H ) :   0.9381 B( 16-O , 17-C ) :   0.9049
B( 17-C , 18-C ) :   1.1622 B( 17-C , 36-H ) :   0.9333 B( 17-C , 37-H ) :   0.9184
B( 18-C , 38-H ) :   0.9282 B( 18-C , 39-H ) :   0.9368 B( 18-C , 40-H ) :   0.9354

Dispersion correction           -0.064067314
FINAL SINGLE POINT ENERGY     -2929.522094235117

DIPOLE MOMENT
-------------

Method             : SCF
Type of density    : Electron Density
Multiplicity       :   1
Irrep              :   0
Energy             : -2929.6439988182296474 Eh
Relativity type    :
Basis              : AO
                                X                 Y                 Z
Electronic contribution:     -8.664599567       2.855130170       2.878284099
Nuclear contribution   :      9.544470246      -3.642455502      -2.523467530
                        -----------------------------------------
Total Dipole Moment    :      0.879870679      -0.787325332       0.354816569
                        -----------------------------------------
Magnitude (a.u.)       :      1.232861869
Magnitude (Debye)      :      3.133685833

Rotational constants in cm-1:             0.014331             0.004089             0.003806
Rotational constants in MHz :           429.631929           122.591996           114.101492

                             ****ORCA TERMINATED NORMALLY****
TOTAL RUN TIME: 0 days 0 hours 0 minutes 20 seconds 726 msec
