                         Program Version 6.0.0  -   RELEASE  -
|  1> ! r2scan-3c def2/J RI DEFGRID2 scfconv6 printgap
|  2> %output
|  3>     printlevel normal
|  4> end
|  5> * xyz 0 1
|  6> C 5.3048416659 -1.3920456064 -1.1708023253
|  7> C 3.8887616881 -1.7029027169 -1.6161773504
|  8> O 2.9818857529 -1.7120958558 -0.4960593333
|  9> P 2.1922696654 -0.4205393164 -0.0161518178
| 10> S 3.2422486974 1.1706283622 0.4583639581
| 11> O 1.3040416533 -1.022279986 1.144731673
| 12> C 1.6932680784 -0.9178215598 2.5313577883
| 13> C 2.9056335759 -1.7738011859 2.828443428
| 14> S 0.7714793986 -0.1459762362 -1.5642935971
| 15> C 0.2624779288 1.5199090759 -1.0688504208
| 16> S -0.7312967604 1.5218560954 0.4416562411
| 17> P -2.4125088882 0.4933877321 -0.3889453216
| 18> S -2.7716758108 0.8707013501 -2.2720344367
| 19> O -3.5738734084 0.8680541846 0.6284283908
| 20> C -4.1648176815 2.1855453971 0.6353091851
| 21> C -5.4706668562 2.10379291 1.3989699845
| 22> O -2.2100252768 -1.0390967901 -0.1003082403
| 23> C -2.0990365131 -1.5754536601 1.2445812434
| 24> C -1.4419839922 -2.9357778461 1.1455729269
| 25> H 5.9680631346 -1.444569005 -2.0281654273
| 26> H 5.3568064244 -0.3926841853 -0.7443779293
| 27> H 5.627774606 -2.1105746712 -0.4226583481
| 28> H 3.8152051335 -2.7091608848 -2.0329971507
| 29> H 3.539858478 -0.9774831802 -2.3570351918
| 30> H 1.8937134277 0.1342685323 2.7577630765
| 31> H 0.8130856397 -1.2552074574 3.0798555174
| 32> H 3.7642212122 -1.3963127947 2.2740460669
| 33> H 3.1253637319 -1.7343286509 3.8906266488
| 34> H 2.722030188 -2.8030435175 2.5321040016
| 35> H -0.328965345 1.9234695938 -1.8904937489
| 36> H 1.1447247251 2.1289897661 -0.8689476786
| 37> H -3.4610210417 2.87095464 1.1148377575
| 38> H -4.3233440997 2.5001409881 -0.4012947682
| 39> H -5.9303600783 3.0862942842 1.4218808327
| 40> H -6.1441764441 1.4044339978 0.9117235273
| 41> H -5.2871890085 1.7682342534 2.4153706088
| 42> H -1.5058274717 -0.8803236123 1.8464221599
| 43> H -3.1072944037 -1.6409669477 1.6572024748
| 44> H -1.3988092244 -3.384057632 2.1330772684
| 45> H -2.0172031974 -3.5763794521 0.4832789273
| 46> H -0.4348691048 -2.8373611836 0.7486376296
| 47> *
| 48>
| 49>                          ****END OF INPUT****

CARTESIAN COORDINATES (ANGSTROEM)
---------------------------------
  C      5.304842   -1.392046   -1.170802
  C      3.888762   -1.702903   -1.616177
  O      2.981886   -1.712096   -0.496059
  P      2.192270   -0.420539   -0.016152
  S      3.242249    1.170628    0.458364
  O      1.304042   -1.022280    1.144732
  C      1.693268   -0.917822    2.531358
  C      2.905634   -1.773801    2.828443
  S      0.771479   -0.145976   -1.564294
  C      0.262478    1.519909   -1.068850
  S     -0.731297    1.521856    0.441656
  P     -2.412509    0.493388   -0.388945
  S     -2.771676    0.870701   -2.272034
  O     -3.573873    0.868054    0.628428
  C     -4.164818    2.185545    0.635309
  C     -5.470667    2.103793    1.398970
  O     -2.210025   -1.039097   -0.100308
  C     -2.099037   -1.575454    1.244581
  C     -1.441984   -2.935778    1.145573
  H      5.968063   -1.444569   -2.028165
  H      5.356806   -0.392684   -0.744378
  H      5.627775   -2.110575   -0.422658
  H      3.815205   -2.709161   -2.032997
  H      3.539858   -0.977483   -2.357035
  H      1.893713    0.134269    2.757763
  H      0.813086   -1.255207    3.079856
  H      3.764221   -1.396313    2.274046
  H      3.125364   -1.734329    3.890627
  H      2.722030   -2.803044    2.532104
  H     -0.328965    1.923470   -1.890494
  H      1.144725    2.128990   -0.868948
  H     -3.461021    2.870955    1.114838
  H     -4.323344    2.500141   -0.401295
  H     -5.930360    3.086294    1.421881
  H     -6.144176    1.404434    0.911724
  H     -5.287189    1.768234    2.415371
  H     -1.505827   -0.880324    1.846422
  H     -3.107294   -1.640967    1.657202
  H     -1.398809   -3.384058    2.133077
  H     -2.017203   -3.576379    0.483279
  H     -0.434869   -2.837361    0.748638

 Total Charge           Charge          ....    0
 Multiplicity           Mult            ....    1
 Number of Electrons    NEL             ....  202
 Basis Dimension        Dim             ....  539

ORBITAL ENERGIES
----------------

  NO   OCC          E(Eh)            E(eV)
   0   2.0000     -88.574534     -2410.2356
   1   2.0000     -88.572634     -2410.1839
   2   2.0000     -88.523428     -2408.8449
   3   2.0000     -88.518281     -2408.7049
   4   2.0000     -76.916365     -2093.0007
   5   2.0000     -76.911675     -2092.8731
   6   2.0000     -18.996133      -516.9111
   7   2.0000     -18.994250      -516.8598
   8   2.0000     -18.993666      -516.8439
   9   2.0000     -18.989972      -516.7434
  10   2.0000     -10.103599      -274.9329
  11   2.0000     -10.102319      -274.8981
  12   2.0000     -10.100979      -274.8616
  13   2.0000     -10.100748      -274.8553
  14   2.0000     -10.099773      -274.8288
  15   2.0000     -10.034559      -273.0542
  16   2.0000     -10.032517      -272.9987
  17   2.0000     -10.029429      -272.9146
  18   2.0000     -10.028297      -272.8838
  19   2.0000      -7.868578      -214.1149
  20   2.0000      -7.866832      -214.0674
  21   2.0000      -7.818298      -212.7467
  22   2.0000      -7.813086      -212.6049
  23   2.0000      -6.594912      -179.4567
  24   2.0000      -6.590315      -179.3316
  25   2.0000      -5.815461      -158.2467
  26   2.0000      -5.813615      -158.1965
  27   2.0000      -5.812428      -158.1642
  28   2.0000      -5.810658      -158.1160
  29   2.0000      -5.805747      -157.9824
  30   2.0000      -5.804116      -157.9380
  31   2.0000      -5.765884      -156.8977
  32   2.0000      -5.760809      -156.7596
  33   2.0000      -5.758547      -156.6980
  34   2.0000      -5.758378      -156.6934
  35   2.0000      -5.753290      -156.5550
  36   2.0000      -5.753078      -156.5492
  37   2.0000      -4.740368      -128.9920
  38   2.0000      -4.739872      -128.9785
  39   2.0000      -4.738638      -128.9449
  40   2.0000      -4.736138      -128.8769
  41   2.0000      -4.735283      -128.8536
  42   2.0000      -4.733713      -128.8109
  43   2.0000      -1.054376       -28.6910
  44   2.0000      -1.051490       -28.6125
  45   2.0000      -1.015277       -27.6271
  46   2.0000      -1.009568       -27.4718
  47   2.0000      -0.800688       -21.7878
  48   2.0000      -0.760634       -20.6979
  49   2.0000      -0.752236       -20.4694
  50   2.0000      -0.736154       -20.0318
  51   2.0000      -0.734405       -19.9842
  52   2.0000      -0.710132       -19.3237
  53   2.0000      -0.684336       -18.6217
  54   2.0000      -0.668737       -18.1973
  55   2.0000      -0.632283       -17.2053
  56   2.0000      -0.615960       -16.7611
  57   2.0000      -0.606424       -16.5016
  58   2.0000      -0.603552       -16.4235
  59   2.0000      -0.595112       -16.1938
  60   2.0000      -0.537576       -14.6282
  61   2.0000      -0.524986       -14.2856
  62   2.0000      -0.501937       -13.6584
  63   2.0000      -0.498931       -13.5766
  64   2.0000      -0.476312       -12.9611
  65   2.0000      -0.466802       -12.7023
  66   2.0000      -0.459995       -12.5171
  67   2.0000      -0.456758       -12.4290
  68   2.0000      -0.446899       -12.1607
  69   2.0000      -0.428561       -11.6617
  70   2.0000      -0.425454       -11.5772
  71   2.0000      -0.414063       -11.2672
  72   2.0000      -0.411420       -11.1953
  73   2.0000      -0.404941       -11.0190
  74   2.0000      -0.393538       -10.7087
  75   2.0000      -0.389975       -10.6118
  76   2.0000      -0.382994       -10.4218
  77   2.0000      -0.375241       -10.2108
  78   2.0000      -0.370417       -10.0796
  79   2.0000      -0.365182        -9.9371
  80   2.0000      -0.364032        -9.9058
  81   2.0000      -0.362554        -9.8656
  82   2.0000      -0.356893        -9.7116
  83   2.0000      -0.353411        -9.6168
  84   2.0000      -0.350710        -9.5433
  85   2.0000      -0.335438        -9.1277
  86   2.0000      -0.324381        -8.8269
  87   2.0000      -0.318738        -8.6733
  88   2.0000      -0.315330        -8.5806
  89   2.0000      -0.314394        -8.5551
  90   2.0000      -0.306745        -8.3470
  91   2.0000      -0.293847        -7.9960
  92   2.0000      -0.286594        -7.7986
  93   2.0000      -0.280668        -7.6374
  94   2.0000      -0.270767        -7.3679
  95   2.0000      -0.247292        -6.7292
  96   2.0000      -0.232069        -6.3149
  97   2.0000      -0.226221        -6.1558
  98   2.0000      -0.217767        -5.9258
  99   2.0000      -0.214198        -5.8286
 100   2.0000      -0.212435        -5.7807
 101   0.0000      -0.045591        -1.2406
 102   0.0000      -0.023957        -0.6519
 103   0.0000      -0.003013        -0.0820
 104   0.0000       0.003039         0.0827
 105   0.0000       0.015633         0.4254

MULLIKEN ATOMIC CHARGES
-----------------------
   0 C :   -0.453305
   1 C :   -0.138335
   2 O :   -0.297768
   3 P :    0.666195
   4 S :   -0.487722
   5 O :   -0.254998
   6 C :   -0.140480
   7 C :   -0.453875
   8 S :   -0.118748
   9 C :   -0.231210
  10 S :   -0.190187
  11 P :    0.674859
  12 S :   -0.449092
  13 O :   -0.282543
  14 C :   -0.153277
  15 C :   -0.440361
  16 O :   -0.259131
  17 C :   -0.097747
  18 C :   -0.480521
  19 H :    0.146280
  20 H :    0.182129
  21 H :    0.151251
  22 H :    0.151987
  23 H :    0.155705
  24 H :    0.177380
  25 H :    0.146718
  26 H :    0.170596
  27 H :    0.148837
  28 H :    0.157602
  29 H :    0.218476
  30 H :    0.211660
  31 H :    0.152731
  32 H :    0.170650
  33 H :    0.147320
  34 H :    0.159097
  35 H :    0.150460
  36 H :    0.153289
  37 H :    0.155835
  38 H :    0.142944
  39 H :    0.155704
  40 H :    0.181598
Sum of atomic charges:   -0.0000000

LOEWDIN ATOMIC CHARGES
----------------------
   0 C :   -0.401933
   1 C :    0.023704
   2 O :   -0.660140
   3 P :    0.377583
   4 S :   -0.135846
   5 O :   -0.679588
   6 C :    0.016492
   7 C :   -0.398675
   8 S :    0.174640
   9 C :   -0.426076
  10 S :    0.133185
  11 P :    0.375361
  12 S :   -0.102388
  13 O :   -0.672112
  14 C :    0.019734
  15 C :   -0.386002
  16 O :   -0.645160
  17 C :    0.025116
  18 C :   -0.390083
  19 H :    0.158742
  20 H :    0.169149
  21 H :    0.157858
  22 H :    0.179986
  23 H :    0.176538
  24 H :    0.182695
  25 H :    0.177655
  26 H :    0.166637
  27 H :    0.159964
  28 H :    0.160588
  29 H :    0.191888
  30 H :    0.191652
  31 H :    0.172452
  32 H :    0.181203
  33 H :    0.160523
  34 H :    0.161957
  35 H :    0.158388
  36 H :    0.175705
  37 H :    0.174143
  38 H :    0.158652
  39 H :    0.162501
  40 H :    0.173312

  Mayer bond orders larger than 0.100000
B(  0-C ,  1-C ) :   0.9521 B(  0-C , 19-H ) :   0.9638 B(  0-C , 20-H ) :   0.9565
B(  0-C , 21-H ) :   0.9747 B(  1-C ,  2-O ) :   0.7815 B(  1-C , 22-H ) :   0.9633
B(  1-C , 23-H ) :   0.9631 B(  2-O ,  3-P ) :   1.0747 B(  3-P ,  4-S ) :   1.7366
B(  3-P ,  5-O ) :   1.1360 B(  3-P ,  8-S ) :   1.1062 B(  5-O ,  6-C ) :   0.7641
B(  6-C ,  7-C ) :   0.9163 B(  6-C , 24-H ) :   0.9582 B(  6-C , 25-H ) :   0.9616
B(  7-C , 26-H ) :   0.9582 B(  7-C , 27-H ) :   0.9639 B(  7-C , 28-H ) :   0.9748
B(  8-S ,  9-C ) :   0.9142 B(  9-C , 10-S ) :   0.9111 B(  9-C , 29-H ) :   0.9063
B(  9-C , 30-H ) :   0.9038 B( 10-S , 11-P ) :   0.9698 B( 11-P , 12-S ) :   1.8249
B( 11-P , 13-O ) :   1.0537 B( 11-P , 16-O ) :   1.1873 B( 13-O , 14-C ) :   0.7850
B( 14-C , 15-C ) :   0.9548 B( 14-C , 31-H ) :   0.9416 B( 14-C , 32-H ) :   0.9514
B( 15-C , 33-H ) :   0.9638 B( 15-C , 34-H ) :   0.9715 B( 15-C , 35-H ) :   0.9716
B( 16-O , 17-C ) :   0.7251 B( 17-C , 18-C ) :   0.9334 B( 17-C , 36-H ) :   0.9551
B( 17-C , 37-H ) :   0.9439 B( 18-C , 38-H ) :   0.9681 B( 18-C , 39-H ) :   0.9680
B( 18-C , 40-H ) :   0.9654

Dispersion correction           -0.021265610
FINAL SINGLE POINT ENERGY     -2932.466863263015

DIPOLE MOMENT
-------------

Method             : SCF
Type of density    : Electron Density
Multiplicity       :   1
Irrep              :   0
Energy             : -2932.4919521844885821 Eh
Relativity type    :
Basis              : AO
                                X                 Y                 Z
Electronic contribution:     -3.633320461      10.139251853     -14.557710278
Nuclear contribution   :      3.754689469     -10.832460505      15.963784402
                        -----------------------------------------
Total Dipole Moment    :      0.121369008      -0.693208651       1.406074124
                        -----------------------------------------
Magnitude (a.u.)       :      1.572359091
Magnitude (Debye)      :      3.996619193

Rotational constants in cm-1:             0.013774             0.004573             0.004289
Rotational constants in MHz :           412.947977           137.109694           128.570493

                             ****ORCA TERMINATED NORMALLY****
TOTAL RUN TIME: 0 days 0 hours 1 minutes 18 seconds 27 msec
