                         Program Version 6.0.0  -   RELEASE  -
|  1> ! r2scan-3c def2/J RI DEFGRID2 scfconv6 printgap
|  2> %output
|  3>     printlevel normal
|  4> end
|  5> %cpcm
|  6>     smd true
|  7>     smdsolvent "water"
|  8> end
|  9> * xyz 0 1
| 10> C 5.3048416659 -1.3920456064 -1.1708023253
| 11> C 3.8887616881 -1.7029027169 -1.6161773504
| 12> O 2.9818857529 -1.7120958558 -0.4960593333
| 13> P 2.1922696654 -0.4205393164 -0.0161518178
| 14> S 3.2422486974 1.1706283622 0.4583639581
| 15> O 1.3040416533 -1.022279986 1.144731673
| 16> C 1.6932680784 -0.9178215598 2.5313577883
| 17> C 2.9056335759 -1.7738011859 2.828443428
| 18> S 0.7714793986 -0.1459762362 -1.5642935971
| 19> C 0.2624779288 1.5199090759 -1.0688504208
| 20> S -0.7312967604 1.5218560954 0.4416562411
| 21> P -2.4125088882 0.4933877321 -0.3889453216
| 22> S -2.7716758108 0.8707013501 -2.2720344367
| 23> O -3.5738734084 0.8680541846 0.6284283908
| 24> C -4.1648176815 2.1855453971 0.6353091851
| 25> C -5.4706668562 2.10379291 1.3989699845
| 26> O -2.2100252768 -1.0390967901 -0.1003082403
| 27> C -2.0990365131 -1.5754536601 1.2445812434
| 28> C -1.4419839922 -2.9357778461 1.1455729269
| 29> H 5.9680631346 -1.444569005 -2.0281654273
| 30> H 5.3568064244 -0.3926841853 -0.7443779293
| 31> H 5.627774606 -2.1105746712 -0.4226583481
| 32> H 3.8152051335 -2.7091608848 -2.0329971507
| 33> H 3.539858478 -0.9774831802 -2.3570351918
| 34> H 1.8937134277 0.1342685323 2.7577630765
| 35> H 0.8130856397 -1.2552074574 3.0798555174
| 36> H 3.7642212122 -1.3963127947 2.2740460669
| 37> H 3.1253637319 -1.7343286509 3.8906266488
| 38> H 2.722030188 -2.8030435175 2.5321040016
| 39> H -0.328965345 1.9234695938 -1.8904937489
| 40> H 1.1447247251 2.1289897661 -0.8689476786
| 41> H -3.4610210417 2.87095464 1.1148377575
| 42> H -4.3233440997 2.5001409881 -0.4012947682
| 43> H -5.9303600783 3.0862942842 1.4218808327
| 44> H -6.1441764441 1.4044339978 0.9117235273
| 45> H -5.2871890085 1.7682342534 2.4153706088
| 46> H -1.5058274717 -0.8803236123 1.8464221599
| 47> H -3.1072944037 -1.6409669477 1.6572024748
| 48> H -1.3988092244 -3.384057632 2.1330772684
| 49> H -2.0172031974 -3.5763794521 0.4832789273
| 50> H -0.4348691048 -2.8373611836 0.7486376296
| 51> *
| 52>
| 53>                          ****END OF INPUT****

CARTESIAN COORDINATES (ANGSTROEM)
---------------------------------
  C      5.304842   -1.392046   -1.170802
  C      3.888762   -1.702903   -1.616177
  O      2.981886   -1.712096   -0.496059
  P      2.192270   -0.420539   -0.016152
  S      3.242249    1.170628    0.458364
  O      1.304042   -1.022280    1.144732
  C      1.693268   -0.917822    2.531358
  C      2.905634   -1.773801    2.828443
  S      0.771479   -0.145976   -1.564294
  C      0.262478    1.519909   -1.068850
  S     -0.731297    1.521856    0.441656
  P     -2.412509    0.493388   -0.388945
  S     -2.771676    0.870701   -2.272034
  O     -3.573873    0.868054    0.628428
  C     -4.164818    2.185545    0.635309
  C     -5.470667    2.103793    1.398970
  O     -2.210025   -1.039097   -0.100308
  C     -2.099037   -1.575454    1.244581
  C     -1.441984   -2.935778    1.145573
  H      5.968063   -1.444569   -2.028165
  H      5.356806   -0.392684   -0.744378
  H      5.627775   -2.110575   -0.422658
  H      3.815205   -2.709161   -2.032997
  H      3.539858   -0.977483   -2.357035
  H      1.893713    0.134269    2.757763
  H      0.813086   -1.255207    3.079856
  H      3.764221   -1.396313    2.274046
  H      3.125364   -1.734329    3.890627
  H      2.722030   -2.803044    2.532104
  H     -0.328965    1.923470   -1.890494
  H      1.144725    2.128990   -0.868948
  H     -3.461021    2.870955    1.114838
  H     -4.323344    2.500141   -0.401295
  H     -5.930360    3.086294    1.421881
  H     -6.144176    1.404434    0.911724
  H     -5.287189    1.768234    2.415371
  H     -1.505827   -0.880324    1.846422
  H     -3.107294   -1.640967    1.657202
  H     -1.398809   -3.384058    2.133077
  H     -2.017203   -3.576379    0.483279
  H     -0.434869   -2.837361    0.748638

 Total Charge           Charge          ....    0
 Multiplicity           Mult            ....    1
 Number of Electrons    NEL             ....  202
 Basis Dimension        Dim             ....  539

ORBITAL ENERGIES
----------------

  NO   OCC          E(Eh)            E(eV)
   0   2.0000     -88.580131     -2410.3879
   1   2.0000     -88.578085     -2410.3322
   2   2.0000     -88.531137     -2409.0547
   3   2.0000     -88.528933     -2408.9947
   4   2.0000     -76.920265     -2093.1068
   5   2.0000     -76.920022     -2093.1002
   6   2.0000     -18.996832      -516.9301
   7   2.0000     -18.996681      -516.9260
   8   2.0000     -18.996527      -516.9218
   9   2.0000     -18.993694      -516.8447
  10   2.0000     -10.103101      -274.9193
  11   2.0000     -10.092842      -274.6402
  12   2.0000     -10.092211      -274.6230
  13   2.0000     -10.091045      -274.5913
  14   2.0000     -10.089810      -274.5577
  15   2.0000     -10.019963      -272.6570
  16   2.0000     -10.019295      -272.6389
  17   2.0000     -10.018927      -272.6289
  18   2.0000     -10.016918      -272.5742
  19   2.0000      -7.874303      -214.2707
  20   2.0000      -7.872255      -214.2149
  21   2.0000      -7.826294      -212.9643
  22   2.0000      -7.824067      -212.9037
  23   2.0000      -6.598943      -179.5664
  24   2.0000      -6.598582      -179.5565
  25   2.0000      -5.821129      -158.4010
  26   2.0000      -5.819050      -158.3444
  27   2.0000      -5.818135      -158.3195
  28   2.0000      -5.816104      -158.2642
  29   2.0000      -5.811544      -158.1401
  30   2.0000      -5.809507      -158.0847
  31   2.0000      -5.773898      -157.1157
  32   2.0000      -5.771608      -157.0534
  33   2.0000      -5.766474      -156.9137
  34   2.0000      -5.766361      -156.9107
  35   2.0000      -5.764318      -156.8551
  36   2.0000      -5.764141      -156.8503
  37   2.0000      -4.744704      -129.1099
  38   2.0000      -4.743968      -129.0899
  39   2.0000      -4.743872      -129.0873
  40   2.0000      -4.743543      -129.0784
  41   2.0000      -4.742478      -129.0494
  42   2.0000      -4.742411      -129.0476
  43   2.0000      -1.056061       -28.7369
  44   2.0000      -1.054084       -28.6831
  45   2.0000      -1.014195       -27.5976
  46   2.0000      -1.013412       -27.5764
  47   2.0000      -0.804801       -21.8997
  48   2.0000      -0.757577       -20.6147
  49   2.0000      -0.745941       -20.2981
  50   2.0000      -0.727338       -19.7919
  51   2.0000      -0.723601       -19.6902
  52   2.0000      -0.710180       -19.3250
  53   2.0000      -0.688853       -18.7446
  54   2.0000      -0.675940       -18.3933
  55   2.0000      -0.628034       -17.0897
  56   2.0000      -0.612464       -16.6660
  57   2.0000      -0.598688       -16.2911
  58   2.0000      -0.598125       -16.2758
  59   2.0000      -0.593197       -16.1417
  60   2.0000      -0.535370       -14.5682
  61   2.0000      -0.520437       -14.1618
  62   2.0000      -0.500099       -13.6084
  63   2.0000      -0.493088       -13.4176
  64   2.0000      -0.476770       -12.9736
  65   2.0000      -0.461410       -12.5556
  66   2.0000      -0.454338       -12.3632
  67   2.0000      -0.450963       -12.2713
  68   2.0000      -0.442541       -12.0422
  69   2.0000      -0.429436       -11.6855
  70   2.0000      -0.419756       -11.4221
  71   2.0000      -0.412934       -11.2365
  72   2.0000      -0.405250       -11.0274
  73   2.0000      -0.402725       -10.9587
  74   2.0000      -0.391677       -10.6581
  75   2.0000      -0.385353       -10.4860
  76   2.0000      -0.381024       -10.3682
  77   2.0000      -0.370067       -10.0700
  78   2.0000      -0.362346        -9.8599
  79   2.0000      -0.356444        -9.6993
  80   2.0000      -0.354938        -9.6584
  81   2.0000      -0.354056        -9.6343
  82   2.0000      -0.351823        -9.5736
  83   2.0000      -0.346021        -9.4157
  84   2.0000      -0.344854        -9.3840
  85   2.0000      -0.331695        -9.0259
  86   2.0000      -0.322082        -8.7643
  87   2.0000      -0.317173        -8.6307
  88   2.0000      -0.314436        -8.5562
  89   2.0000      -0.307102        -8.3567
  90   2.0000      -0.301521        -8.2048
  91   2.0000      -0.289970        -7.8905
  92   2.0000      -0.286111        -7.7855
  93   2.0000      -0.280760        -7.6399
  94   2.0000      -0.273862        -7.4522
  95   2.0000      -0.252648        -6.8749
  96   2.0000      -0.240356        -6.5404
  97   2.0000      -0.235830        -6.4173
  98   2.0000      -0.225778        -6.1437
  99   2.0000      -0.224250        -6.1022
 100   2.0000      -0.221780        -6.0349
 101   0.0000      -0.052377        -1.4252
 102   0.0000      -0.031534        -0.8581
 103   0.0000      -0.008043        -0.2189
 104   0.0000      -0.002897        -0.0788
 105   0.0000       0.013853         0.3769

MULLIKEN ATOMIC CHARGES
-----------------------
   0 C :   -0.489549
   1 C :   -0.131986
   2 O :   -0.323709
   3 P :    0.700604
   4 S :   -0.527319
   5 O :   -0.276599
   6 C :   -0.136591
   7 C :   -0.495817
   8 S :   -0.147999
   9 C :   -0.238202
  10 S :   -0.188435
  11 P :    0.682307
  12 S :   -0.501631
  13 O :   -0.301971
  14 C :   -0.140156
  15 C :   -0.481080
  16 O :   -0.292409
  17 C :   -0.100918
  18 C :   -0.509728
  19 H :    0.169936
  20 H :    0.171246
  21 H :    0.167586
  22 H :    0.177500
  23 H :    0.164800
  24 H :    0.177672
  25 H :    0.182250
  26 H :    0.167960
  27 H :    0.173829
  28 H :    0.172427
  29 H :    0.234913
  30 H :    0.231137
  31 H :    0.170657
  32 H :    0.172378
  33 H :    0.169621
  34 H :    0.166552
  35 H :    0.165998
  36 H :    0.174664
  37 H :    0.177154
  38 H :    0.173602
  39 H :    0.166423
  40 H :    0.172883
Sum of atomic charges:   -0.0000000

LOEWDIN ATOMIC CHARGES
----------------------
   0 C :   -0.405626
   1 C :    0.029027
   2 O :   -0.671063
   3 P :    0.382724
   4 S :   -0.160199
   5 O :   -0.687191
   6 C :    0.022507
   7 C :   -0.402176
   8 S :    0.156860
   9 C :   -0.421660
  10 S :    0.138393
  11 P :    0.376232
  12 S :   -0.144208
  13 O :   -0.678798
  14 C :    0.025188
  15 C :   -0.388919
  16 O :   -0.669243
  17 C :    0.031687
  18 C :   -0.392177
  19 H :    0.167542
  20 H :    0.163037
  21 H :    0.162464
  22 H :    0.190908
  23 H :    0.180267
  24 H :    0.182811
  25 H :    0.191552
  26 H :    0.162995
  27 H :    0.169231
  28 H :    0.164265
  29 H :    0.196565
  30 H :    0.197343
  31 H :    0.180071
  32 H :    0.181771
  33 H :    0.169285
  34 H :    0.163303
  35 H :    0.163253
  36 H :    0.183541
  37 H :    0.184027
  38 H :    0.171523
  39 H :    0.164334
  40 H :    0.168554

  Mayer bond orders larger than 0.100000
B(  0-C ,  1-C ) :   0.9432 B(  0-C , 19-H ) :   0.9589 B(  0-C , 20-H ) :   0.9607
B(  0-C , 21-H ) :   0.9717 B(  1-C ,  2-O ) :   0.7700 B(  1-C , 22-H ) :   0.9533
B(  1-C , 23-H ) :   0.9567 B(  2-O ,  3-P ) :   1.0821 B(  3-P ,  4-S ) :   1.7075
B(  3-P ,  5-O ) :   1.1480 B(  3-P ,  8-S ) :   1.1048 B(  5-O ,  6-C ) :   0.7523
B(  6-C ,  7-C ) :   0.9013 B(  6-C , 24-H ) :   0.9549 B(  6-C , 25-H ) :   0.9516
B(  7-C , 26-H ) :   0.9584 B(  7-C , 27-H ) :   0.9578 B(  7-C , 28-H ) :   0.9740
B(  8-S ,  9-C ) :   0.9030 B(  9-C , 10-S ) :   0.9012 B(  9-C , 29-H ) :   0.9019
B(  9-C , 30-H ) :   0.9005 B( 10-S , 11-P ) :   0.9854 B( 11-P , 12-S ) :   1.8038
B( 11-P , 13-O ) :   1.0656 B( 11-P , 16-O ) :   1.1922 B( 13-O , 14-C ) :   0.7759
B( 14-C , 15-C ) :   0.9533 B( 14-C , 31-H ) :   0.9322 B( 14-C , 32-H ) :   0.9486
B( 15-C , 33-H ) :   0.9579 B( 15-C , 34-H ) :   0.9695 B( 15-C , 35-H ) :   0.9680
B( 16-O , 17-C ) :   0.7151 B( 17-C , 18-C ) :   0.9263 B( 17-C , 36-H ) :   0.9456
B( 17-C , 37-H ) :   0.9338 B( 18-C , 38-H ) :   0.9601 B( 18-C , 39-H ) :   0.9677
B( 18-C , 40-H ) :   0.9658

Dispersion correction           -0.021265610
FINAL SINGLE POINT ENERGY     -2932.476449601518

DIPOLE MOMENT
-------------

Method             : SCF
Type of density    : Electron Density
Multiplicity       :   1
Irrep              :   0
Energy             : -2932.5015385229917229 Eh
Relativity type    :
Basis              : AO
                                X                 Y                 Z
Electronic contribution:     -3.578366082      10.078547686     -13.914142046
Nuclear contribution   :      3.754689469     -10.832460505      15.963784402
                        -----------------------------------------
Total Dipole Moment    :      0.176323387      -0.753912819       2.049642356
                        -----------------------------------------
Magnitude (a.u.)       :      2.191006221
Magnitude (Debye)      :      5.569095231

Rotational constants in cm-1:             0.013774             0.004573             0.004289
Rotational constants in MHz :           412.947977           137.109694           128.570493

                             ****ORCA TERMINATED NORMALLY****
TOTAL RUN TIME: 0 days 0 hours 1 minutes 56 seconds 173 msec
