                         Program Version 6.0.1  -  RELEASE   -
|  1> ! pbe def2-sv(p) def2/J RI DEFGRID1 loosescf d4 GCP(DFT/SV(P)) printgap
|  2> %output
|  3>     printlevel normal
|  4> end
|  5> * xyz 0 1
|  6> C 4.0330550106 -2.865663555 0.5188986421
|  7> C 2.5188939313 -2.8125775749 0.3986494348
|  8> O 2.1211498502 -2.0440295132 -0.7524340531
|  9> C 2.0479932602 -0.735945103 -0.6479650731
| 10> O 2.262672393 -0.0979609932 0.3625684915
| 11> C 1.6536323012 -0.0817808216 -1.9599204896
| 12> C 0.4121944068 0.7918800377 -1.7606286229
| 13> H 0.2892173982 1.4632766115 -2.6138275051
| 14> C 0.5158723736 1.6116355112 -0.4899176684
| 15> O -0.2758006416 1.4840176247 0.4283286443
| 16> O 1.4931733603 2.4656123418 -0.5316149918
| 17> C 1.7574546254 3.2692261141 0.6396644123
| 18> C 0.853186696 4.4892420569 0.6845364109
| 19> S -1.1203773852 -0.1928009077 -1.7032083602
| 20> P -1.6328874255 -0.5119265082 0.3465513518
| 21> S -0.4494047182 -1.1114150119 1.7890088893
| 22> O -2.7775440592 0.5504104889 0.7188364468
| 23> C -2.6911689974 1.5806744895 1.6998538241
| 24> O -2.5687504926 -1.7851572043 0.0692137886
| 25> C -3.7054694248 -1.7935144923 -0.8092377951
| 26> H 4.300210191 -3.5095406569 1.3500324461
| 27> H 4.4669570323 -3.2588179738 -0.3964132398
| 28> H 4.427748471 -1.8693645369 0.7043978554
| 29> H 2.0651735933 -2.3669213853 1.2895518759
| 30> H 2.0946030045 -3.8008899344 0.2215173512
| 31> H 1.4613869561 -0.8452384317 -2.7117512733
| 32> H 2.4827734318 0.5561142677 -2.2725826226
| 33> H 1.6250448715 2.6384043314 1.5228634137
| 34> H 2.8047665384 3.550333322 0.532539423
| 35> H 0.963715733 5.0710819324 -0.2262296447
| 36> H -0.1857724386 4.1865430955 0.791737118
| 37> H 1.1274781767 5.1019890342 1.5366594069
| 38> H -2.4807864038 2.5289717698 1.2081359428
| 39> H -1.9042060107 1.3546206241 2.4202045306
| 40> H -3.6606699675 1.6087644539 2.1934165015
| 41> H -4.2252670461 -2.7228763827 -0.5894352331
| 42> H -3.3726378811 -1.7767372069 -1.8467171676
| 43> H -4.345871618 -0.9373881913 -0.605090157
| 44> *
| 45>
| 46>                          ****END OF INPUT****

CARTESIAN COORDINATES (ANGSTROEM)
---------------------------------
  C      4.033055   -2.865664    0.518899
  C      2.518894   -2.812578    0.398649
  O      2.121150   -2.044030   -0.752434
  C      2.047993   -0.735945   -0.647965
  O      2.262672   -0.097961    0.362568
  C      1.653632   -0.081781   -1.959920
  C      0.412194    0.791880   -1.760629
  H      0.289217    1.463277   -2.613828
  C      0.515872    1.611636   -0.489918
  O     -0.275801    1.484018    0.428329
  O      1.493173    2.465612   -0.531615
  C      1.757455    3.269226    0.639664
  C      0.853187    4.489242    0.684536
  S     -1.120377   -0.192801   -1.703208
  P     -1.632887   -0.511927    0.346551
  S     -0.449405   -1.111415    1.789009
  O     -2.777544    0.550410    0.718836
  C     -2.691169    1.580674    1.699854
  O     -2.568750   -1.785157    0.069214
  C     -3.705469   -1.793514   -0.809238
  H      4.300210   -3.509541    1.350032
  H      4.466957   -3.258818   -0.396413
  H      4.427748   -1.869365    0.704398
  H      2.065174   -2.366921    1.289552
  H      2.094603   -3.800890    0.221517
  H      1.461387   -0.845238   -2.711751
  H      2.482773    0.556114   -2.272583
  H      1.625045    2.638404    1.522863
  H      2.804767    3.550333    0.532539
  H      0.963716    5.071082   -0.226230
  H     -0.185772    4.186543    0.791737
  H      1.127478    5.101989    1.536659
  H     -2.480786    2.528972    1.208136
  H     -1.904206    1.354621    2.420205
  H     -3.660670    1.608764    2.193417
  H     -4.225267   -2.722876   -0.589435
  H     -3.372638   -1.776737   -1.846717
  H     -4.345872   -0.937388   -0.605090

 Total Charge           Charge          ....    0
 Multiplicity           Mult            ....    1
 Number of Electrons    NEL             ....  174
 Basis Dimension        Dim             ....  316

ORBITAL ENERGIES
----------------

  NO   OCC          E(Eh)            E(eV)
   0   2.0000     -88.030515     -2395.4321
   1   2.0000     -87.956479     -2393.4175
   2   2.0000     -76.413130     -2079.3070
   3   2.0000     -18.818633      -512.0810
   4   2.0000     -18.800335      -511.5831
   5   2.0000     -18.771376      -510.7951
   6   2.0000     -18.763283      -510.5749
   7   2.0000     -18.762580      -510.5558
   8   2.0000     -18.737670      -509.8779
   9   2.0000     -10.031574      -272.9730
  10   2.0000     -10.010152      -272.3901
  11   2.0000      -9.955891      -270.9136
  12   2.0000      -9.955875      -270.9131
  13   2.0000      -9.936463      -270.3849
  14   2.0000      -9.930539      -270.2237
  15   2.0000      -9.929241      -270.1884
  16   2.0000      -9.915496      -269.8144
  17   2.0000      -9.895251      -269.2635
  18   2.0000      -9.881277      -268.8832
  19   2.0000      -7.675636      -208.8647
  20   2.0000      -7.601815      -206.8559
  21   2.0000      -6.407777      -174.3645
  22   2.0000      -5.703900      -155.2110
  23   2.0000      -5.699834      -155.1004
  24   2.0000      -5.692485      -154.9004
  25   2.0000      -5.631319      -153.2360
  26   2.0000      -5.622623      -152.9994
  27   2.0000      -5.621101      -152.9579
  28   2.0000      -4.630859      -126.0121
  29   2.0000      -4.629683      -125.9801
  30   2.0000      -4.628287      -125.9421
  31   2.0000      -1.032097       -28.0848
  32   2.0000      -1.007337       -27.4110
  33   2.0000      -0.961328       -26.1591
  34   2.0000      -0.939007       -25.5517
  35   2.0000      -0.916064       -24.9274
  36   2.0000      -0.915169       -24.9030
  37   2.0000      -0.767364       -20.8810
  38   2.0000      -0.713810       -19.4238
  39   2.0000      -0.703076       -19.1317
  40   2.0000      -0.683281       -18.5930
  41   2.0000      -0.652319       -17.7505
  42   2.0000      -0.627124       -17.0649
  43   2.0000      -0.621635       -16.9156
  44   2.0000      -0.596987       -16.2448
  45   2.0000      -0.595243       -16.1974
  46   2.0000      -0.566144       -15.4056
  47   2.0000      -0.513304       -13.9677
  48   2.0000      -0.500548       -13.6206
  49   2.0000      -0.495830       -13.4922
  50   2.0000      -0.483671       -13.1614
  51   2.0000      -0.464963       -12.6523
  52   2.0000      -0.456753       -12.4289
  53   2.0000      -0.447191       -12.1687
  54   2.0000      -0.435038       -11.8380
  55   2.0000      -0.429633       -11.6909
  56   2.0000      -0.422212       -11.4890
  57   2.0000      -0.417626       -11.3642
  58   2.0000      -0.411546       -11.1987
  59   2.0000      -0.403000       -10.9662
  60   2.0000      -0.395333       -10.7576
  61   2.0000      -0.393923       -10.7192
  62   2.0000      -0.386831       -10.5262
  63   2.0000      -0.382357       -10.4045
  64   2.0000      -0.380120       -10.3436
  65   2.0000      -0.364480        -9.9180
  66   2.0000      -0.360486        -9.8093
  67   2.0000      -0.354042        -9.6340
  68   2.0000      -0.349865        -9.5203
  69   2.0000      -0.340589        -9.2679
  70   2.0000      -0.332118        -9.0374
  71   2.0000      -0.326403        -8.8819
  72   2.0000      -0.318643        -8.6707
  73   2.0000      -0.307669        -8.3721
  74   2.0000      -0.297539        -8.0964
  75   2.0000      -0.287960        -7.8358
  76   2.0000      -0.284746        -7.7483
  77   2.0000      -0.281957        -7.6724
  78   2.0000      -0.276375        -7.5205
  79   2.0000      -0.256278        -6.9737
  80   2.0000      -0.255146        -6.9429
  81   2.0000      -0.245497        -6.6803
  82   2.0000      -0.240490        -6.5441
  83   2.0000      -0.223911        -6.0929
  84   2.0000      -0.210501        -5.7280
  85   2.0000      -0.178343        -4.8530
  86   2.0000      -0.166400        -4.5280
  87   0.0000      -0.043093        -1.1726
  88   0.0000      -0.032654        -0.8886
  89   0.0000      -0.026492        -0.7209
  90   0.0000      -0.000318        -0.0087
  91   0.0000       0.035637         0.9697

MULLIKEN ATOMIC CHARGES
-----------------------
   0 C :   -0.306072
   1 C :   -0.022327
   2 O :   -0.215726
   3 C :    0.102770
   4 O :   -0.202116
   5 C :   -0.030289
   6 C :   -0.285989
   7 H :    0.147615
   8 C :    0.227897
   9 O :   -0.206532
  10 O :   -0.217009
  11 C :   -0.005570
  12 C :   -0.319147
  13 S :   -0.132046
  14 P :    0.647852
  15 S :   -0.324239
  16 O :   -0.403351
  17 C :   -0.088288
  18 O :   -0.381640
  19 C :   -0.115321
  20 H :    0.114058
  21 H :    0.108491
  22 H :    0.122297
  23 H :    0.135470
  24 H :    0.104943
  25 H :    0.116498
  26 H :    0.122378
  27 H :    0.130323
  28 H :    0.107639
  29 H :    0.114486
  30 H :    0.134338
  31 H :    0.118856
  32 H :    0.109085
  33 H :    0.118676
  34 H :    0.113042
  35 H :    0.123526
  36 H :    0.119084
  37 H :    0.116337
Sum of atomic charges:   -0.0000000

LOEWDIN ATOMIC CHARGES
----------------------
   0 C :   -0.357321
   1 C :   -0.112507
   2 O :   -0.041734
   3 C :    0.028848
   4 O :   -0.158097
   5 C :   -0.246675
   6 C :   -0.257388
   7 H :    0.147538
   8 C :    0.030670
   9 O :   -0.145895
  10 O :   -0.032092
  11 C :   -0.101850
  12 C :   -0.357555
  13 S :    0.084134
  14 P :    0.579637
  15 S :   -0.320059
  16 O :   -0.262104
  17 C :   -0.210667
  18 O :   -0.263822
  19 C :   -0.218211
  20 H :    0.131431
  21 H :    0.121781
  22 H :    0.127897
  23 H :    0.121995
  24 H :    0.120353
  25 H :    0.136557
  26 H :    0.146245
  27 H :    0.131261
  28 H :    0.121775
  29 H :    0.125365
  30 H :    0.128997
  31 H :    0.134133
  32 H :    0.105911
  33 H :    0.110989
  34 H :    0.114325
  35 H :    0.121709
  36 H :    0.104123
  37 H :    0.110303

  Mayer bond orders larger than 0.100000
B(  0-C ,  1-C ) :   1.1642 B(  0-C , 20-H ) :   0.9451 B(  0-C , 21-H ) :   0.9478
B(  0-C , 22-H ) :   0.9465 B(  1-C ,  2-O ) :   0.9054 B(  1-C , 23-H ) :   0.9056
B(  1-C , 24-H ) :   0.9389 B(  2-O ,  3-C ) :   1.2699 B(  2-O ,  4-O ) :   0.1000
B(  3-C ,  4-O ) :   1.9634 B(  3-C ,  5-C ) :   0.9955 B(  4-O ,  8-C ) :   0.1013
B(  5-C ,  6-C ) :   1.0256 B(  5-C , 25-H ) :   0.9036 B(  5-C , 26-H ) :   0.8770
B(  6-C ,  7-H ) :   0.8773 B(  6-C ,  8-C ) :   0.9144 B(  6-C , 13-S ) :   1.0485
B(  8-C ,  9-O ) :   1.8701 B(  8-C , 10-O ) :   1.2774 B(  9-O , 14-P ) :   0.1558
B( 10-O , 11-C ) :   0.8955 B( 11-C , 12-C ) :   1.1708 B( 11-C , 27-H ) :   0.9169
B( 11-C , 28-H ) :   0.9378 B( 12-C , 29-H ) :   0.9464 B( 12-C , 30-H ) :   0.9422
B( 12-C , 31-H ) :   0.9431 B( 13-S , 14-P ) :   0.9183 B( 13-S , 15-S ) :   0.1108
B( 14-P , 15-S ) :   1.5970 B( 14-P , 16-O ) :   1.0629 B( 14-P , 18-O ) :   1.0721
B( 16-O , 17-C ) :   0.9355 B( 17-C , 32-H ) :   0.9532 B( 17-C , 33-H ) :   0.9345
B( 17-C , 34-H ) :   0.9533 B( 18-O , 19-C ) :   0.9392 B( 19-C , 35-H ) :   0.9608
B( 19-C , 36-H ) :   0.9416 B( 19-C , 37-H ) :   0.9427

Dispersion correction           -0.053813329
FINAL SINGLE POINT ENERGY     -1979.001535087889

DIPOLE MOMENT
-------------

Method             : SCF
Type of density    : Electron Density
Multiplicity       :   1
Irrep              :   0
Energy             : -1979.1320347413784475 Eh
Relativity type    :
Basis              : AO
                                X                 Y                 Z
Electronic contribution:     -8.458158319      -5.814404723      -3.022909833
Nuclear contribution   :      8.951537463       7.044884877       2.046117969
                        -----------------------------------------
Total Dipole Moment    :      0.493379144       1.230480155      -0.976791864
                        -----------------------------------------
Magnitude (a.u.)       :      1.646701775
Magnitude (Debye)      :      4.185583279

Rotational constants in cm-1:             0.010831             0.009412             0.006693
Rotational constants in MHz :           324.692707           282.164132           200.637353

                             ****ORCA TERMINATED NORMALLY****
TOTAL RUN TIME: 0 days 0 hours 0 minutes 40 seconds 980 msec
