                         Program Version 6.0.0  -   RELEASE  -
|  1> ! r2scan-3c def2/J RI DEFGRID2 scfconv6 printgap
|  2> %output
|  3>     printlevel normal
|  4> end
|  5> * xyz 0 1
|  6> C 5.3255173525 -1.9418780206 -1.2450083667
|  7> C 4.0387503898 -1.373853942 -1.8115521863
|  8> O 2.9792011524 -1.5588042442 -0.8505955587
|  9> P 2.0856926989 -0.358398123 -0.3091814353
| 10> S 3.0907966367 1.2783026676 0.0976036114
| 11> O 1.331809714 -1.0712846961 0.8834830538
| 12> C 1.8464133986 -1.0811663 2.2350823036
| 13> C 1.085577331 -0.0912052531 3.0943469416
| 14> S 0.5515493522 -0.2186146827 -1.7457202615
| 15> C -0.0106787609 1.4584003996 -1.3342720838
| 16> S -0.5527768981 1.625745902 0.3826720082
| 17> P -2.238176637 0.3577110687 0.2786363463
| 18> S -3.2085845226 0.2718159441 -1.427213454
| 19> O -3.0770729636 0.7801345896 1.5631353744
| 20> C -3.4904451457 2.1169234733 1.903638853
| 21> C -4.1844263928 2.8335210359 0.7640543513
| 22> O -1.6767653892 -1.033156448 0.789253208
| 23> C -2.229705095 -2.311792971 0.4102648254
| 24> C -1.3574874287 -2.9925638984 -0.6260235489
| 25> H 5.1835086028 -2.9831691019 -0.9704933802
| 26> H 6.1075470152 -1.869270606 -1.9936900707
| 27> H 5.6242239405 -1.3806948526 -0.3627781842
| 28> H 3.7314263355 -1.9002567206 -2.7171624139
| 29> H 4.1471042554 -0.3063956128 -2.0267306903
| 30> H 1.7030989389 -2.1056664323 2.5820850825
| 31> H 2.9138600062 -0.8439306699 2.2170500305
| 32> H 1.4018299223 -0.1950395837 4.1272665563
| 33> H 1.2819401813 0.9257139292 2.760419826
| 34> H 0.0172885245 -0.2815785814 3.021062342
| 35> H -0.8400233459 1.6726509947 -2.0081234921
| 36> H 0.8078107033 2.1646422232 -1.4665094067
| 37> H -4.1639077625 1.9679147162 2.7496412337
| 38> H -2.6056146597 2.6718609085 2.2276627401
| 39> H -5.0177071922 2.2412269969 0.3932146672
| 40> H -4.5529254802 3.7923101733 1.114431878
| 41> H -3.4878324945 3.0001142321 -0.0563855841
| 42> H -2.2659145053 -2.8837072081 1.3389276207
| 43> H -3.2438347125 -2.1665498048 0.0270304984
| 44> H -0.3244185234 -3.016709774 -0.2874056502
| 45> H -1.7116241021 -4.0068979671 -0.7792169667
| 46> H -1.401774455 -2.4532103088 -1.5699674126
| 47> *
| 48>
| 49>                          ****END OF INPUT****

CARTESIAN COORDINATES (ANGSTROEM)
---------------------------------
  C      5.325517   -1.941878   -1.245008
  C      4.038750   -1.373854   -1.811552
  O      2.979201   -1.558804   -0.850596
  P      2.085693   -0.358398   -0.309181
  S      3.090797    1.278303    0.097604
  O      1.331810   -1.071285    0.883483
  C      1.846413   -1.081166    2.235082
  C      1.085577   -0.091205    3.094347
  S      0.551549   -0.218615   -1.745720
  C     -0.010679    1.458400   -1.334272
  S     -0.552777    1.625746    0.382672
  P     -2.238177    0.357711    0.278636
  S     -3.208585    0.271816   -1.427213
  O     -3.077073    0.780135    1.563135
  C     -3.490445    2.116923    1.903639
  C     -4.184426    2.833521    0.764054
  O     -1.676765   -1.033156    0.789253
  C     -2.229705   -2.311793    0.410265
  C     -1.357487   -2.992564   -0.626024
  H      5.183509   -2.983169   -0.970493
  H      6.107547   -1.869271   -1.993690
  H      5.624224   -1.380695   -0.362778
  H      3.731426   -1.900257   -2.717162
  H      4.147104   -0.306396   -2.026731
  H      1.703099   -2.105666    2.582085
  H      2.913860   -0.843931    2.217050
  H      1.401830   -0.195040    4.127267
  H      1.281940    0.925714    2.760420
  H      0.017289   -0.281579    3.021062
  H     -0.840023    1.672651   -2.008123
  H      0.807811    2.164642   -1.466509
  H     -4.163908    1.967915    2.749641
  H     -2.605615    2.671861    2.227663
  H     -5.017707    2.241227    0.393215
  H     -4.552925    3.792310    1.114432
  H     -3.487832    3.000114   -0.056386
  H     -2.265915   -2.883707    1.338928
  H     -3.243835   -2.166550    0.027030
  H     -0.324419   -3.016710   -0.287406
  H     -1.711624   -4.006898   -0.779217
  H     -1.401774   -2.453210   -1.569967

 Total Charge           Charge          ....    0
 Multiplicity           Mult            ....    1
 Number of Electrons    NEL             ....  202
 Basis Dimension        Dim             ....  539

ORBITAL ENERGIES
----------------

  NO   OCC          E(Eh)            E(eV)
   0   2.0000     -88.577767     -2410.3236
   1   2.0000     -88.575915     -2410.2732
   2   2.0000     -88.521276     -2408.7864
   3   2.0000     -88.517444     -2408.6821
   4   2.0000     -76.914139     -2092.9401
   5   2.0000     -76.913049     -2092.9105
   6   2.0000     -18.990802      -516.7660
   7   2.0000     -18.989370      -516.7270
   8   2.0000     -18.987138      -516.6663
   9   2.0000     -18.982349      -516.5360
  10   2.0000     -10.107798      -275.0472
  11   2.0000     -10.102149      -274.8935
  12   2.0000     -10.098307      -274.7889
  13   2.0000     -10.097771      -274.7743
  14   2.0000     -10.092510      -274.6312
  15   2.0000     -10.031083      -272.9597
  16   2.0000     -10.026482      -272.8344
  17   2.0000     -10.022683      -272.7311
  18   2.0000     -10.018045      -272.6049
  19   2.0000      -7.872227      -214.2142
  20   2.0000      -7.870274      -214.1610
  21   2.0000      -7.816083      -212.6864
  22   2.0000      -7.812298      -212.5834
  23   2.0000      -6.592518      -179.3915
  24   2.0000      -6.591157      -179.3545
  25   2.0000      -5.819089      -158.3455
  26   2.0000      -5.817191      -158.2938
  27   2.0000      -5.815984      -158.2610
  28   2.0000      -5.814129      -158.2105
  29   2.0000      -5.809413      -158.0822
  30   2.0000      -5.807334      -158.0256
  31   2.0000      -5.763724      -156.8389
  32   2.0000      -5.760006      -156.7377
  33   2.0000      -5.756390      -156.6393
  34   2.0000      -5.756073      -156.6307
  35   2.0000      -5.752697      -156.5389
  36   2.0000      -5.752124      -156.5232
  37   2.0000      -4.737981      -128.9270
  38   2.0000      -4.737366      -128.9103
  39   2.0000      -4.736680      -128.8916
  40   2.0000      -4.736387      -128.8836
  41   2.0000      -4.736195      -128.8784
  42   2.0000      -4.734815      -128.8409
  43   2.0000      -1.047869       -28.5140
  44   2.0000      -1.044934       -28.4341
  45   2.0000      -1.007945       -27.4276
  46   2.0000      -1.004303       -27.3285
  47   2.0000      -0.804223       -21.8840
  48   2.0000      -0.758463       -20.6388
  49   2.0000      -0.748142       -20.3580
  50   2.0000      -0.729725       -19.8568
  51   2.0000      -0.726346       -19.7649
  52   2.0000      -0.708738       -19.2857
  53   2.0000      -0.684870       -18.6363
  54   2.0000      -0.670636       -18.2489
  55   2.0000      -0.628729       -17.1086
  56   2.0000      -0.620286       -16.8788
  57   2.0000      -0.607313       -16.5258
  58   2.0000      -0.601847       -16.3771
  59   2.0000      -0.588677       -16.0187
  60   2.0000      -0.530845       -14.4450
  61   2.0000      -0.521688       -14.1959
  62   2.0000      -0.495552       -13.4847
  63   2.0000      -0.485264       -13.2047
  64   2.0000      -0.475176       -12.9302
  65   2.0000      -0.459508       -12.5039
  66   2.0000      -0.453288       -12.3346
  67   2.0000      -0.450176       -12.2499
  68   2.0000      -0.447315       -12.1721
  69   2.0000      -0.435523       -11.8512
  70   2.0000      -0.425211       -11.5706
  71   2.0000      -0.410372       -11.1668
  72   2.0000      -0.406552       -11.0628
  73   2.0000      -0.400937       -10.9101
  74   2.0000      -0.393605       -10.7105
  75   2.0000      -0.387764       -10.5516
  76   2.0000      -0.384502       -10.4628
  77   2.0000      -0.368629       -10.0309
  78   2.0000      -0.366424        -9.9709
  79   2.0000      -0.363556        -9.8929
  80   2.0000      -0.361107        -9.8262
  81   2.0000      -0.355732        -9.6800
  82   2.0000      -0.353496        -9.6191
  83   2.0000      -0.350772        -9.5450
  84   2.0000      -0.349618        -9.5136
  85   2.0000      -0.330522        -8.9940
  86   2.0000      -0.314609        -8.5610
  87   2.0000      -0.312073        -8.4919
  88   2.0000      -0.311189        -8.4679
  89   2.0000      -0.305699        -8.3185
  90   2.0000      -0.295180        -8.0322
  91   2.0000      -0.293249        -7.9797
  92   2.0000      -0.285047        -7.7565
  93   2.0000      -0.278500        -7.5784
  94   2.0000      -0.270830        -7.3696
  95   2.0000      -0.244394        -6.6503
  96   2.0000      -0.231448        -6.2980
  97   2.0000      -0.226258        -6.1568
  98   2.0000      -0.218683        -5.9507
  99   2.0000      -0.212437        -5.7807
 100   2.0000      -0.210405        -5.7254
 101   0.0000      -0.049036        -1.3343
 102   0.0000      -0.026810        -0.7295
 103   0.0000      -0.001842        -0.0501
 104   0.0000       0.000326         0.0089
 105   0.0000       0.009427         0.2565

MULLIKEN ATOMIC CHARGES
-----------------------
   0 C :   -0.458188
   1 C :   -0.118024
   2 O :   -0.290509
   3 P :    0.660930
   4 S :   -0.476628
   5 O :   -0.252621
   6 C :   -0.119536
   7 C :   -0.478414
   8 S :   -0.112200
   9 C :   -0.250164
  10 S :   -0.123550
  11 P :    0.652372
  12 S :   -0.466127
  13 O :   -0.281408
  14 C :   -0.157564
  15 C :   -0.427189
  16 O :   -0.254993
  17 C :   -0.125045
  18 C :   -0.474856
  19 H :    0.153230
  20 H :    0.146486
  21 H :    0.163460
  22 H :    0.150035
  23 H :    0.163381
  24 H :    0.148122
  25 H :    0.156384
  26 H :    0.141336
  27 H :    0.177332
  28 H :    0.167545
  29 H :    0.206487
  30 H :    0.210041
  31 H :    0.149226
  32 H :    0.152737
  33 H :    0.166440
  34 H :    0.146476
  35 H :    0.166190
  36 H :    0.145560
  37 H :    0.162414
  38 H :    0.164257
  39 H :    0.140035
  40 H :    0.176540
Sum of atomic charges:   -0.0000000

LOEWDIN ATOMIC CHARGES
----------------------
   0 C :   -0.390830
   1 C :    0.019873
   2 O :   -0.663728
   3 P :    0.370716
   4 S :   -0.131348
   5 O :   -0.667567
   6 C :    0.027910
   7 C :   -0.403245
   8 S :    0.179853
   9 C :   -0.418491
  10 S :    0.175053
  11 P :    0.383030
  12 S :   -0.129152
  13 O :   -0.659266
  14 C :    0.022778
  15 C :   -0.408160
  16 O :   -0.663936
  17 C :    0.024721
  18 C :   -0.405790
  19 H :    0.158975
  20 H :    0.159384
  21 H :    0.162261
  22 H :    0.173600
  23 H :    0.180346
  24 H :    0.177110
  25 H :    0.176891
  26 H :    0.155979
  27 H :    0.166242
  28 H :    0.165089
  29 H :    0.191074
  30 H :    0.188936
  31 H :    0.181254
  32 H :    0.171470
  33 H :    0.165886
  34 H :    0.157745
  35 H :    0.164909
  36 H :    0.175771
  37 H :    0.178766
  38 H :    0.164725
  39 H :    0.155263
  40 H :    0.165902

  Mayer bond orders larger than 0.100000
B(  0-C ,  1-C ) :   0.9628 B(  0-C , 19-H ) :   0.9733 B(  0-C , 20-H ) :   0.9658
B(  0-C , 21-H ) :   0.9710 B(  1-C ,  2-O ) :   0.7552 B(  1-C , 22-H ) :   0.9538
B(  1-C , 23-H ) :   0.9590 B(  2-O ,  3-P ) :   1.0653 B(  3-P ,  4-S ) :   1.7602
B(  3-P ,  5-O ) :   1.1676 B(  3-P ,  8-S ) :   1.0917 B(  5-O ,  6-C ) :   0.7586
B(  6-C ,  7-C ) :   0.9436 B(  6-C , 24-H ) :   0.9602 B(  6-C , 25-H ) :   0.9650
B(  7-C , 26-H ) :   0.9629 B(  7-C , 27-H ) :   0.9638 B(  7-C , 28-H ) :   0.9682
B(  8-S ,  9-C ) :   0.9053 B(  9-C , 10-S ) :   0.9041 B(  9-C , 29-H ) :   0.9099
B(  9-C , 30-H ) :   0.9121 B( 10-S , 11-P ) :   1.0581 B( 11-P , 12-S ) :   1.7728
B( 11-P , 13-O ) :   1.0895 B( 11-P , 16-O ) :   1.1430 B( 13-O , 14-C ) :   0.8108
B( 14-C , 15-C ) :   0.9379 B( 14-C , 31-H ) :   0.9586 B( 14-C , 32-H ) :   0.9647
B( 15-C , 33-H ) :   0.9654 B( 15-C , 34-H ) :   0.9617 B( 15-C , 35-H ) :   0.9557
B( 16-O , 17-C ) :   0.7643 B( 17-C , 18-C ) :   0.9434 B( 17-C , 36-H ) :   0.9600
B( 17-C , 37-H ) :   0.9650 B( 18-C , 38-H ) :   0.9680 B( 18-C , 39-H ) :   0.9637
B( 18-C , 40-H ) :   0.9637

Dispersion correction           -0.022159448
FINAL SINGLE POINT ENERGY     -2932.460780970369

DIPOLE MOMENT
-------------

Method             : SCF
Type of density    : Electron Density
Multiplicity       :   1
Irrep              :   0
Energy             : -2932.4848837061385893 Eh
Relativity type    :
Basis              : AO
                                X                 Y                 Z
Electronic contribution:     -2.975929224       7.083627046      -7.242648942
Nuclear contribution   :      3.232909028      -7.592387848       7.946461858
                        -----------------------------------------
Total Dipole Moment    :      0.256979805      -0.508760801       0.703812916
                        -----------------------------------------
Magnitude (a.u.)       :      0.905664835
Magnitude (Debye)      :      2.302017066

Rotational constants in cm-1:             0.013493             0.005091             0.004857
Rotational constants in MHz :           404.509079           152.637050           145.612159

                             ****ORCA TERMINATED NORMALLY****
TOTAL RUN TIME: 0 days 0 hours 1 minutes 26 seconds 517 msec
