                         Program Version 6.0.0  -   RELEASE  -
|  1> ! r2scan-3c def2/J RI DEFGRID2 scfconv6 printgap
|  2> %output
|  3>     printlevel normal
|  4> end
|  5> %cpcm
|  6>     smd true
|  7>     smdsolvent "water"
|  8> end
|  9> * xyz 0 1
| 10> C 5.3255173525 -1.9418780206 -1.2450083667
| 11> C 4.0387503898 -1.373853942 -1.8115521863
| 12> O 2.9792011524 -1.5588042442 -0.8505955587
| 13> P 2.0856926989 -0.358398123 -0.3091814353
| 14> S 3.0907966367 1.2783026676 0.0976036114
| 15> O 1.331809714 -1.0712846961 0.8834830538
| 16> C 1.8464133986 -1.0811663 2.2350823036
| 17> C 1.085577331 -0.0912052531 3.0943469416
| 18> S 0.5515493522 -0.2186146827 -1.7457202615
| 19> C -0.0106787609 1.4584003996 -1.3342720838
| 20> S -0.5527768981 1.625745902 0.3826720082
| 21> P -2.238176637 0.3577110687 0.2786363463
| 22> S -3.2085845226 0.2718159441 -1.427213454
| 23> O -3.0770729636 0.7801345896 1.5631353744
| 24> C -3.4904451457 2.1169234733 1.903638853
| 25> C -4.1844263928 2.8335210359 0.7640543513
| 26> O -1.6767653892 -1.033156448 0.789253208
| 27> C -2.229705095 -2.311792971 0.4102648254
| 28> C -1.3574874287 -2.9925638984 -0.6260235489
| 29> H 5.1835086028 -2.9831691019 -0.9704933802
| 30> H 6.1075470152 -1.869270606 -1.9936900707
| 31> H 5.6242239405 -1.3806948526 -0.3627781842
| 32> H 3.7314263355 -1.9002567206 -2.7171624139
| 33> H 4.1471042554 -0.3063956128 -2.0267306903
| 34> H 1.7030989389 -2.1056664323 2.5820850825
| 35> H 2.9138600062 -0.8439306699 2.2170500305
| 36> H 1.4018299223 -0.1950395837 4.1272665563
| 37> H 1.2819401813 0.9257139292 2.760419826
| 38> H 0.0172885245 -0.2815785814 3.021062342
| 39> H -0.8400233459 1.6726509947 -2.0081234921
| 40> H 0.8078107033 2.1646422232 -1.4665094067
| 41> H -4.1639077625 1.9679147162 2.7496412337
| 42> H -2.6056146597 2.6718609085 2.2276627401
| 43> H -5.0177071922 2.2412269969 0.3932146672
| 44> H -4.5529254802 3.7923101733 1.114431878
| 45> H -3.4878324945 3.0001142321 -0.0563855841
| 46> H -2.2659145053 -2.8837072081 1.3389276207
| 47> H -3.2438347125 -2.1665498048 0.0270304984
| 48> H -0.3244185234 -3.016709774 -0.2874056502
| 49> H -1.7116241021 -4.0068979671 -0.7792169667
| 50> H -1.401774455 -2.4532103088 -1.5699674126
| 51> *
| 52>
| 53>                          ****END OF INPUT****

CARTESIAN COORDINATES (ANGSTROEM)
---------------------------------
  C      5.325517   -1.941878   -1.245008
  C      4.038750   -1.373854   -1.811552
  O      2.979201   -1.558804   -0.850596
  P      2.085693   -0.358398   -0.309181
  S      3.090797    1.278303    0.097604
  O      1.331810   -1.071285    0.883483
  C      1.846413   -1.081166    2.235082
  C      1.085577   -0.091205    3.094347
  S      0.551549   -0.218615   -1.745720
  C     -0.010679    1.458400   -1.334272
  S     -0.552777    1.625746    0.382672
  P     -2.238177    0.357711    0.278636
  S     -3.208585    0.271816   -1.427213
  O     -3.077073    0.780135    1.563135
  C     -3.490445    2.116923    1.903639
  C     -4.184426    2.833521    0.764054
  O     -1.676765   -1.033156    0.789253
  C     -2.229705   -2.311793    0.410265
  C     -1.357487   -2.992564   -0.626024
  H      5.183509   -2.983169   -0.970493
  H      6.107547   -1.869271   -1.993690
  H      5.624224   -1.380695   -0.362778
  H      3.731426   -1.900257   -2.717162
  H      4.147104   -0.306396   -2.026731
  H      1.703099   -2.105666    2.582085
  H      2.913860   -0.843931    2.217050
  H      1.401830   -0.195040    4.127267
  H      1.281940    0.925714    2.760420
  H      0.017289   -0.281579    3.021062
  H     -0.840023    1.672651   -2.008123
  H      0.807811    2.164642   -1.466509
  H     -4.163908    1.967915    2.749641
  H     -2.605615    2.671861    2.227663
  H     -5.017707    2.241227    0.393215
  H     -4.552925    3.792310    1.114432
  H     -3.487832    3.000114   -0.056386
  H     -2.265915   -2.883707    1.338928
  H     -3.243835   -2.166550    0.027030
  H     -0.324419   -3.016710   -0.287406
  H     -1.711624   -4.006898   -0.779217
  H     -1.401774   -2.453210   -1.569967

 Total Charge           Charge          ....    0
 Multiplicity           Mult            ....    1
 Number of Electrons    NEL             ....  202
 Basis Dimension        Dim             ....  539

ORBITAL ENERGIES
----------------

  NO   OCC          E(Eh)            E(eV)
   0   2.0000     -88.580791     -2410.4059
   1   2.0000     -88.579509     -2410.3710
   2   2.0000     -88.527531     -2408.9566
   3   2.0000     -88.525206     -2408.8933
   4   2.0000     -76.919082     -2093.0746
   5   2.0000     -76.919017     -2093.0729
   6   2.0000     -18.993120      -516.8291
   7   2.0000     -18.992731      -516.8185
   8   2.0000     -18.991009      -516.7716
   9   2.0000     -18.988444      -516.7018
  10   2.0000     -10.106368      -275.0083
  11   2.0000     -10.091941      -274.6157
  12   2.0000     -10.090026      -274.5636
  13   2.0000     -10.089088      -274.5380
  14   2.0000     -10.088055      -274.5099
  15   2.0000     -10.018625      -272.6206
  16   2.0000     -10.018042      -272.6048
  17   2.0000     -10.016002      -272.5493
  18   2.0000     -10.014465      -272.5074
  19   2.0000      -7.875223      -214.2957
  20   2.0000      -7.873909      -214.2599
  21   2.0000      -7.822610      -212.8640
  22   2.0000      -7.820352      -212.8026
  23   2.0000      -6.597474      -179.5264
  24   2.0000      -6.597188      -179.5186
  25   2.0000      -5.822100      -158.4274
  26   2.0000      -5.820800      -158.3920
  27   2.0000      -5.818979      -158.3425
  28   2.0000      -5.817739      -158.3087
  29   2.0000      -5.812404      -158.1636
  30   2.0000      -5.811023      -158.1260
  31   2.0000      -5.770208      -157.0154
  32   2.0000      -5.768000      -156.9553
  33   2.0000      -5.762906      -156.8166
  34   2.0000      -5.762603      -156.8084
  35   2.0000      -5.760741      -156.7577
  36   2.0000      -5.760192      -156.7428
  37   2.0000      -4.742897      -129.0608
  38   2.0000      -4.742672      -129.0547
  39   2.0000      -4.742339      -129.0456
  40   2.0000      -4.742241      -129.0429
  41   2.0000      -4.741392      -129.0198
  42   2.0000      -4.740889      -129.0061
  43   2.0000      -1.050780       -28.5932
  44   2.0000      -1.049112       -28.5478
  45   2.0000      -1.010200       -27.4889
  46   2.0000      -1.008118       -27.4323
  47   2.0000      -0.805885       -21.9293
  48   2.0000      -0.756596       -20.5880
  49   2.0000      -0.743846       -20.2411
  50   2.0000      -0.722141       -19.6505
  51   2.0000      -0.720990       -19.6191
  52   2.0000      -0.709081       -19.2951
  53   2.0000      -0.688622       -18.7384
  54   2.0000      -0.675964       -18.3939
  55   2.0000      -0.629004       -17.1161
  56   2.0000      -0.617844       -16.8124
  57   2.0000      -0.603053       -16.4099
  58   2.0000      -0.596481       -16.2311
  59   2.0000      -0.586911       -15.9707
  60   2.0000      -0.527524       -14.3547
  61   2.0000      -0.519452       -14.1350
  62   2.0000      -0.493405       -13.4262
  63   2.0000      -0.484417       -13.1817
  64   2.0000      -0.474490       -12.9115
  65   2.0000      -0.456301       -12.4166
  66   2.0000      -0.450563       -12.2604
  67   2.0000      -0.448178       -12.1955
  68   2.0000      -0.443139       -12.0584
  69   2.0000      -0.434189       -11.8149
  70   2.0000      -0.423737       -11.5305
  71   2.0000      -0.408938       -11.1278
  72   2.0000      -0.404457       -11.0058
  73   2.0000      -0.399362       -10.8672
  74   2.0000      -0.391645       -10.6572
  75   2.0000      -0.385948       -10.5022
  76   2.0000      -0.383196       -10.4273
  77   2.0000      -0.366023        -9.9600
  78   2.0000      -0.362962        -9.8767
  79   2.0000      -0.356404        -9.6983
  80   2.0000      -0.355056        -9.6616
  81   2.0000      -0.351035        -9.5522
  82   2.0000      -0.349642        -9.5143
  83   2.0000      -0.348230        -9.4758
  84   2.0000      -0.344938        -9.3863
  85   2.0000      -0.329761        -8.9733
  86   2.0000      -0.313497        -8.5307
  87   2.0000      -0.310093        -8.4381
  88   2.0000      -0.306717        -8.3462
  89   2.0000      -0.305205        -8.3051
  90   2.0000      -0.295201        -8.0328
  91   2.0000      -0.293687        -7.9916
  92   2.0000      -0.286510        -7.7963
  93   2.0000      -0.278683        -7.5834
  94   2.0000      -0.272752        -7.4220
  95   2.0000      -0.247488        -6.7345
  96   2.0000      -0.235996        -6.4218
  97   2.0000      -0.233502        -6.3539
  98   2.0000      -0.225332        -6.1316
  99   2.0000      -0.219601        -5.9756
 100   2.0000      -0.218212        -5.9378
 101   0.0000      -0.053127        -1.4457
 102   0.0000      -0.032503        -0.8844
 103   0.0000      -0.006349        -0.1728
 104   0.0000      -0.003180        -0.0865
 105   0.0000       0.008458         0.2301

MULLIKEN ATOMIC CHARGES
-----------------------
   0 C :   -0.492988
   1 C :   -0.118587
   2 O :   -0.317927
   3 P :    0.693253
   4 S :   -0.517995
   5 O :   -0.282104
   6 C :   -0.126756
   7 C :   -0.499886
   8 S :   -0.127737
   9 C :   -0.261898
  10 S :   -0.126857
  11 P :    0.689815
  12 S :   -0.511930
  13 O :   -0.316706
  14 C :   -0.159262
  15 C :   -0.466134
  16 O :   -0.288137
  17 C :   -0.126444
  18 C :   -0.499290
  19 H :    0.166220
  20 H :    0.169870
  21 H :    0.165540
  22 H :    0.173959
  23 H :    0.166755
  24 H :    0.175540
  25 H :    0.170353
  26 H :    0.167429
  27 H :    0.171599
  28 H :    0.166455
  29 H :    0.227742
  30 H :    0.234855
  31 H :    0.175498
  32 H :    0.172816
  33 H :    0.170036
  34 H :    0.172613
  35 H :    0.165862
  36 H :    0.173041
  37 H :    0.169512
  38 H :    0.165102
  39 H :    0.165756
  40 H :    0.171017
Sum of atomic charges:   -0.0000000

LOEWDIN ATOMIC CHARGES
----------------------
   0 C :   -0.394954
   1 C :    0.024222
   2 O :   -0.676564
   3 P :    0.375535
   4 S :   -0.156887
   5 O :   -0.684596
   6 C :    0.032027
   7 C :   -0.405086
   8 S :    0.172060
   9 C :   -0.411299
  10 S :    0.176376
  11 P :    0.387617
  12 S :   -0.158294
  13 O :   -0.674056
  14 C :    0.028748
  15 C :   -0.411661
  16 O :   -0.681633
  17 C :    0.028518
  18 C :   -0.408328
  19 H :    0.162964
  20 H :    0.168220
  21 H :    0.161367
  22 H :    0.183408
  23 H :    0.181669
  24 H :    0.188411
  25 H :    0.181764
  26 H :    0.165515
  27 H :    0.162399
  28 H :    0.163670
  29 H :    0.197986
  30 H :    0.196843
  31 H :    0.192322
  32 H :    0.179191
  33 H :    0.164161
  34 H :    0.167665
  35 H :    0.161647
  36 H :    0.187156
  37 H :    0.181477
  38 H :    0.163861
  39 H :    0.164625
  40 H :    0.161935

  Mayer bond orders larger than 0.100000
B(  0-C ,  1-C ) :   0.9580 B(  0-C , 19-H ) :   0.9697 B(  0-C , 20-H ) :   0.9605
B(  0-C , 21-H ) :   0.9695 B(  1-C ,  2-O ) :   0.7438 B(  1-C , 22-H ) :   0.9449
B(  1-C , 23-H ) :   0.9555 B(  2-O ,  3-P ) :   1.0715 B(  3-P ,  4-S ) :   1.7253
B(  3-P ,  5-O ) :   1.1707 B(  3-P ,  8-S ) :   1.1023 B(  5-O ,  6-C ) :   0.7454
B(  6-C ,  7-C ) :   0.9334 B(  6-C , 24-H ) :   0.9499 B(  6-C , 25-H ) :   0.9614
B(  7-C , 26-H ) :   0.9587 B(  7-C , 27-H ) :   0.9658 B(  7-C , 28-H ) :   0.9666
B(  8-S ,  9-C ) :   0.8956 B(  9-C , 10-S ) :   0.8949 B(  9-C , 29-H ) :   0.9042
B(  9-C , 30-H ) :   0.9050 B( 10-S , 11-P ) :   1.0736 B( 11-P , 12-S ) :   1.7348
B( 11-P , 13-O ) :   1.0957 B( 11-P , 16-O ) :   1.1425 B( 13-O , 14-C ) :   0.8014
B( 14-C , 15-C ) :   0.9202 B( 14-C , 31-H ) :   0.9489 B( 14-C , 32-H ) :   0.9595
B( 15-C , 33-H ) :   0.9663 B( 15-C , 34-H ) :   0.9557 B( 15-C , 35-H ) :   0.9575
B( 16-O , 17-C ) :   0.7538 B( 17-C , 18-C ) :   0.9346 B( 17-C , 36-H ) :   0.9501
B( 17-C , 37-H ) :   0.9622 B( 18-C , 38-H ) :   0.9664 B( 18-C , 39-H ) :   0.9592
B( 18-C , 40-H ) :   0.9655

Dispersion correction           -0.022159448
FINAL SINGLE POINT ENERGY     -2932.468632433514

DIPOLE MOMENT
-------------

Method             : SCF
Type of density    : Electron Density
Multiplicity       :   1
Irrep              :   0
Energy             : -2932.4927351692840602 Eh
Relativity type    :
Basis              : AO
                                X                 Y                 Z
Electronic contribution:     -2.882125940       7.045000263      -7.045841526
Nuclear contribution   :      3.232909028      -7.592387848       7.946461858
                        -----------------------------------------
Total Dipole Moment    :      0.350783088      -0.547387585       0.900620332
                        -----------------------------------------
Magnitude (a.u.)       :      1.110765018
Magnitude (Debye)      :      2.823340301

Rotational constants in cm-1:             0.013493             0.005091             0.004857
Rotational constants in MHz :           404.509079           152.637050           145.612159

                             ****ORCA TERMINATED NORMALLY****
TOTAL RUN TIME: 0 days 0 hours 1 minutes 59 seconds 47 msec
