                         Program Version 6.0.0  -   RELEASE  -
|  1> ! pbe def2-sv(p) def2/J RI DEFGRID1 loosescf d4 GCP(DFT/SV(P)) printgap
|  2> %output
|  3>     printlevel normal
|  4> end
|  5> * xyz 0 1
|  6> C 3.520541538 1.6292016205 -1.654655207
|  7> C 2.1086510998 1.7631815962 -1.1260839452
|  8> O 1.5402750262 0.4858313117 -0.7792465237
|  9> P 2.0967391013 -0.4181406661 0.3924793824
| 10> S 2.8378262485 0.5238012993 1.9469295184
| 11> O 3.1138151729 -1.3665830656 -0.3732321822
| 12> C 4.0931600622 -2.1634261766 0.3171116518
| 13> C 3.4571871022 -3.278688704 1.1216217001
| 14> S 0.4014240811 -1.6305265321 0.7242589449
| 15> C -0.3840623117 -0.5499998574 1.9494917777
| 16> S -0.922915522 1.048536079 1.2762049388
| 17> P -2.1133152177 0.3916199464 -0.3592258938
| 18> S -1.3174471903 0.1218382245 -2.1344959178
| 19> O -3.3085664982 1.4437292765 -0.3706091865
| 20> C -3.246127499 2.6587512452 -1.1319145737
| 21> C -2.2410707204 3.6308547135 -0.5476831695
| 22> O -2.7851043856 -0.8706251726 0.3167881252
| 23> C -3.3422543543 -1.9454665334 -0.4690210496
| 24> C -4.6209599266 -1.5228178271 -1.1603883354
| 25> H 4.1787346451 1.2707871655 -0.8636095157
| 26> H 3.5440998608 0.9231378893 -2.4808788926
| 27> H 3.870837954 2.5986881133 -1.9946287626
| 28> H 1.4257129309 2.148727996 -1.8856231967
| 29> H 2.0814790919 2.403746298 -0.2381211167
| 30> H 4.7249103265 -2.5515821462 -0.4828697545
| 31> H 4.6764165429 -1.5045792874 0.968490232
| 32> H 4.2346864222 -3.9220312611 1.5209106873
| 33> H 2.8839930284 -2.8614335188 1.9486734
| 34> H 2.7896725884 -3.8638406418 0.4937754978
| 35> H 0.3341107329 -0.3075062815 2.733958392
| 36> H -1.2398519574 -1.0888041734 2.3464441077
| 37> H -2.9836181614 2.4070916422 -2.1653173327
| 38> H -4.2622798829 3.0526547837 -1.0906140912
| 39> H -2.2590168174 4.557898701 -1.1114464989
| 40> H -2.4719209369 3.8340060212 0.4948537602
| 41> H -1.2400406187 3.2006104391 -0.6020631112
| 42> H -2.5924345745 -2.2670108646 -1.1991551545
| 43> H -3.5143301025 -2.7399556464 0.2581032329
| 44> H -5.0618384 -2.3806616713 -1.658223881
| 45> H -5.3241259208 -1.120890713 -0.4358736423
| 46> H -4.4024601172 -0.7556997378 -1.9021915238
| 47> *
| 48>
| 49>                          ****END OF INPUT****

CARTESIAN COORDINATES (ANGSTROEM)
---------------------------------
  C      3.520542    1.629202   -1.654655
  C      2.108651    1.763182   -1.126084
  O      1.540275    0.485831   -0.779247
  P      2.096739   -0.418141    0.392479
  S      2.837826    0.523801    1.946930
  O      3.113815   -1.366583   -0.373232
  C      4.093160   -2.163426    0.317112
  C      3.457187   -3.278689    1.121622
  S      0.401424   -1.630527    0.724259
  C     -0.384062   -0.550000    1.949492
  S     -0.922916    1.048536    1.276205
  P     -2.113315    0.391620   -0.359226
  S     -1.317447    0.121838   -2.134496
  O     -3.308566    1.443729   -0.370609
  C     -3.246127    2.658751   -1.131915
  C     -2.241071    3.630855   -0.547683
  O     -2.785104   -0.870625    0.316788
  C     -3.342254   -1.945467   -0.469021
  C     -4.620960   -1.522818   -1.160388
  H      4.178735    1.270787   -0.863610
  H      3.544100    0.923138   -2.480879
  H      3.870838    2.598688   -1.994629
  H      1.425713    2.148728   -1.885623
  H      2.081479    2.403746   -0.238121
  H      4.724910   -2.551582   -0.482870
  H      4.676417   -1.504579    0.968490
  H      4.234686   -3.922031    1.520911
  H      2.883993   -2.861434    1.948673
  H      2.789673   -3.863841    0.493775
  H      0.334111   -0.307506    2.733958
  H     -1.239852   -1.088804    2.346444
  H     -2.983618    2.407092   -2.165317
  H     -4.262280    3.052655   -1.090614
  H     -2.259017    4.557899   -1.111446
  H     -2.471921    3.834006    0.494854
  H     -1.240041    3.200610   -0.602063
  H     -2.592435   -2.267011   -1.199155
  H     -3.514330   -2.739956    0.258103
  H     -5.061838   -2.380662   -1.658224
  H     -5.324126   -1.120891   -0.435874
  H     -4.402460   -0.755700   -1.902192

 Total Charge           Charge          ....    0
 Multiplicity           Mult            ....    1
 Number of Electrons    NEL             ....  202
 Basis Dimension        Dim             ....  334

ORBITAL ENERGIES
----------------

  NO   OCC          E(Eh)            E(eV)
   0   2.0000     -88.041294     -2395.7254
   1   2.0000     -88.037053     -2395.6100
   2   2.0000     -87.987469     -2394.2608
   3   2.0000     -87.981945     -2394.1104
   4   2.0000     -76.424177     -2079.6076
   5   2.0000     -76.423581     -2079.5914
   6   2.0000     -18.793826      -511.4060
   7   2.0000     -18.792839      -511.3791
   8   2.0000     -18.788727      -511.2673
   9   2.0000     -18.781884      -511.0810
  10   2.0000      -9.954582      -270.8779
  11   2.0000      -9.952243      -270.8143
  12   2.0000      -9.952195      -270.8130
  13   2.0000      -9.950838      -270.7761
  14   2.0000      -9.943508      -270.5766
  15   2.0000      -9.886488      -269.0250
  16   2.0000      -9.883985      -268.9569
  17   2.0000      -9.883370      -268.9402
  18   2.0000      -9.878308      -268.8024
  19   2.0000      -7.686379      -209.1570
  20   2.0000      -7.682064      -209.0396
  21   2.0000      -7.632416      -207.6886
  22   2.0000      -7.626886      -207.5381
  23   2.0000      -6.421729      -174.7441
  24   2.0000      -6.421120      -174.7276
  25   2.0000      -5.714210      -155.4916
  26   2.0000      -5.711043      -155.4054
  27   2.0000      -5.710254      -155.3839
  28   2.0000      -5.706582      -155.2840
  29   2.0000      -5.703181      -155.1914
  30   2.0000      -5.698721      -155.0701
  31   2.0000      -5.661140      -154.0474
  32   2.0000      -5.655685      -153.8990
  33   2.0000      -5.653186      -153.8310
  34   2.0000      -5.652651      -153.8165
  35   2.0000      -5.647728      -153.6825
  36   2.0000      -5.646976      -153.6620
  37   2.0000      -4.644083      -126.3719
  38   2.0000      -4.643789      -126.3639
  39   2.0000      -4.643418      -126.3538
  40   2.0000      -4.642902      -126.3398
  41   2.0000      -4.642465      -126.3279
  42   2.0000      -4.641455      -126.3004
  43   2.0000      -0.986716       -26.8499
  44   2.0000      -0.983683       -26.7674
  45   2.0000      -0.946798       -25.7637
  46   2.0000      -0.942002       -25.6332
  47   2.0000      -0.762205       -20.7407
  48   2.0000      -0.718446       -19.5499
  49   2.0000      -0.705283       -19.1917
  50   2.0000      -0.687388       -18.7048
  51   2.0000      -0.683985       -18.6122
  52   2.0000      -0.670761       -18.2523
  53   2.0000      -0.650845       -17.7104
  54   2.0000      -0.637300       -17.3418
  55   2.0000      -0.601521       -16.3682
  56   2.0000      -0.593775       -16.1574
  57   2.0000      -0.572644       -15.5824
  58   2.0000      -0.569287       -15.4911
  59   2.0000      -0.559162       -15.2156
  60   2.0000      -0.494741       -13.4626
  61   2.0000      -0.488562       -13.2945
  62   2.0000      -0.474336       -12.9073
  63   2.0000      -0.469185       -12.7672
  64   2.0000      -0.456415       -12.4197
  65   2.0000      -0.440790       -11.9945
  66   2.0000      -0.438664       -11.9367
  67   2.0000      -0.436640       -11.8816
  68   2.0000      -0.422966       -11.5095
  69   2.0000      -0.414552       -11.2805
  70   2.0000      -0.409238       -11.1359
  71   2.0000      -0.393055       -10.6956
  72   2.0000      -0.389583       -10.6011
  73   2.0000      -0.388613       -10.5747
  74   2.0000      -0.383074       -10.4240
  75   2.0000      -0.376255       -10.2384
  76   2.0000      -0.369951       -10.0669
  77   2.0000      -0.357530        -9.7289
  78   2.0000      -0.354741        -9.6530
  79   2.0000      -0.350140        -9.5278
  80   2.0000      -0.346858        -9.4385
  81   2.0000      -0.345187        -9.3930
  82   2.0000      -0.342037        -9.3073
  83   2.0000      -0.337282        -9.1779
  84   2.0000      -0.329822        -8.9749
  85   2.0000      -0.318968        -8.6795
  86   2.0000      -0.306020        -8.3272
  87   2.0000      -0.294802        -8.0220
  88   2.0000      -0.294101        -8.0029
  89   2.0000      -0.284877        -7.7519
  90   2.0000      -0.278996        -7.5919
  91   2.0000      -0.273307        -7.4371
  92   2.0000      -0.268843        -7.3156
  93   2.0000      -0.262631        -7.1466
  94   2.0000      -0.259970        -7.0741
  95   2.0000      -0.233092        -6.3428
  96   2.0000      -0.216464        -5.8903
  97   2.0000      -0.208997        -5.6871
  98   2.0000      -0.204416        -5.5624
  99   2.0000      -0.196705        -5.3526
 100   2.0000      -0.190943        -5.1958
 101   0.0000      -0.045936        -1.2500
 102   0.0000      -0.021127        -0.5749
 103   0.0000      -0.017859        -0.4860
 104   0.0000       0.006733         0.1832
 105   0.0000       0.020768         0.5651

MULLIKEN ATOMIC CHARGES
-----------------------
   0 C :   -0.306733
   1 C :   -0.006470
   2 O :   -0.343436
   3 P :    0.620611
   4 S :   -0.342595
   5 O :   -0.368480
   6 C :   -0.005185
   7 C :   -0.314558
   8 S :   -0.084143
   9 C :   -0.339516
  10 S :   -0.099139
  11 P :    0.617679
  12 S :   -0.314165
  13 O :   -0.368386
  14 C :   -0.002214
  15 C :   -0.333322
  16 O :   -0.377306
  17 C :   -0.005872
  18 C :   -0.303824
  19 H :    0.119221
  20 H :    0.118810
  21 H :    0.109415
  22 H :    0.109572
  23 H :    0.109815
  24 H :    0.106691
  25 H :    0.111175
  26 H :    0.113107
  27 H :    0.125004
  28 H :    0.119056
  29 H :    0.190157
  30 H :    0.186576
  31 H :    0.107686
  32 H :    0.105309
  33 H :    0.115547
  34 H :    0.124546
  35 H :    0.134698
  36 H :    0.116494
  37 H :    0.102154
  38 H :    0.111948
  39 H :    0.116851
  40 H :    0.123220
Sum of atomic charges:   -0.0000000

LOEWDIN ATOMIC CHARGES
----------------------
   0 C :   -0.365744
   1 C :   -0.117317
   2 O :   -0.226879
   3 P :    0.576411
   4 S :   -0.328426
   5 O :   -0.240923
   6 C :   -0.118899
   7 C :   -0.369519
   8 S :    0.094716
   9 C :   -0.476960
  10 S :    0.081899
  11 P :    0.571675
  12 S :   -0.308310
  13 O :   -0.245075
  14 C :   -0.122569
  15 C :   -0.370342
  16 O :   -0.240946
  17 C :   -0.117992
  18 C :   -0.364164
  19 H :    0.120210
  20 H :    0.127332
  21 H :    0.129203
  22 H :    0.117288
  23 H :    0.109573
  24 H :    0.119432
  25 H :    0.110540
  26 H :    0.131077
  27 H :    0.120487
  28 H :    0.124858
  29 H :    0.129626
  30 H :    0.133956
  31 H :    0.107509
  32 H :    0.118917
  33 H :    0.132264
  34 H :    0.127313
  35 H :    0.119883
  36 H :    0.112362
  37 H :    0.116913
  38 H :    0.130540
  39 H :    0.126716
  40 H :    0.123361

  Mayer bond orders larger than 0.100000
B(  0-C ,  1-C ) :   1.1627 B(  0-C , 19-H ) :   0.9358 B(  0-C , 20-H ) :   0.9451
B(  0-C , 21-H ) :   0.9394 B(  1-C ,  2-O ) :   0.9073 B(  1-C , 22-H ) :   0.9264
B(  1-C , 23-H ) :   0.9201 B(  2-O ,  3-P ) :   1.1493 B(  3-P ,  4-S ) :   1.5815
B(  3-P ,  5-O ) :   1.1127 B(  3-P ,  8-S ) :   0.9503 B(  4-S ,  8-S ) :   0.1092
B(  5-O ,  6-C ) :   0.9079 B(  6-C ,  7-C ) :   1.1665 B(  6-C , 24-H ) :   0.9337
B(  6-C , 25-H ) :   0.9158 B(  7-C , 26-H ) :   0.9378 B(  7-C , 27-H ) :   0.9352
B(  7-C , 28-H ) :   0.9446 B(  8-S ,  9-C ) :   1.0099 B(  9-C , 10-S ) :   1.0024
B(  9-C , 29-H ) :   0.8801 B(  9-C , 30-H ) :   0.9025 B( 10-S , 11-P ) :   0.9482
B( 10-S , 12-S ) :   0.1054 B( 11-P , 12-S ) :   1.6249 B( 11-P , 13-O ) :   1.0956
B( 11-P , 16-O ) :   1.1115 B( 13-O , 14-C ) :   0.9156 B( 14-C , 15-C ) :   1.1624
B( 14-C , 31-H ) :   0.9111 B( 14-C , 32-H ) :   0.9323 B( 15-C , 33-H ) :   0.9387
B( 15-C , 34-H ) :   0.9436 B( 15-C , 35-H ) :   0.9307 B( 16-O , 17-C ) :   0.8995
B( 17-C , 18-C ) :   1.1655 B( 17-C , 36-H ) :   0.9144 B( 17-C , 37-H ) :   0.9343
B( 18-C , 38-H ) :   0.9391 B( 18-C , 39-H ) :   0.9460 B( 18-C , 40-H ) :   0.9355

Dispersion correction           -0.067510824
FINAL SINGLE POINT ENERGY     -2929.521741386153

DIPOLE MOMENT
-------------

Method             : SCF
Type of density    : Electron Density
Multiplicity       :   1
Irrep              :   0
Energy             : -2929.6389439423483054 Eh
Relativity type    :
Basis              : AO
                                X                 Y                 Z
Electronic contribution:      0.212285904      -1.270968895       6.805025698
Nuclear contribution   :     -0.605141948       0.986760370      -6.991310001
                        -----------------------------------------
Total Dipole Moment    :     -0.392856044      -0.284208525      -0.186284303
                        -----------------------------------------
Magnitude (a.u.)       :      0.519434499
Magnitude (Debye)      :      1.320297570

Rotational constants in cm-1:             0.012501             0.005399             0.004751
Rotational constants in MHz :           374.764722           161.866102           142.434917

                             ****ORCA TERMINATED NORMALLY****
TOTAL RUN TIME: 0 days 0 hours 0 minutes 21 seconds 351 msec
