                         Program Version 6.0.0  -   RELEASE  -
|  1> ! pbe def2-sv(p) def2/J RI DEFGRID1 loosescf d4 GCP(DFT/SV(P)) printgap
|  2> %output
|  3>     printlevel normal
|  4> end
|  5> * xyz 0 1
|  6> C 5.3323745602 -0.1658145108 -1.4362683692
|  7> C 4.5304659456 -0.5783881011 -0.2175956997
|  8> O 3.5629828449 0.4255317189 0.1457008951
|  9> P 2.0921128561 0.5076340235 -0.4623105634
| 10> S 1.9376817961 0.7749494159 -2.3928626258
| 11> O 1.5105058469 1.7009143167 0.3806361114
| 12> C 1.6311756313 1.7557098945 1.8265055009
| 13> C 0.5701389387 2.7019898716 2.3459943453
| 14> S 1.2490910867 -1.303231069 0.2782752302
| 15> C 0.1533208358 -1.766572898 -1.0980842899
| 16> S -1.5416877262 -2.0714250966 -0.5589609323
| 17> P -2.0052359413 -0.0957915838 0.0850564773
| 18> S -1.3717134951 1.3459179275 -1.0796974251
| 19> O -1.493292834 0.0428806153 1.5658164662
| 20> C -1.9110337887 -0.8714579984 2.6202653108
| 21> C -0.7261512839 -1.1404292168 3.5239213587
| 22> O -3.5778647851 -0.1747275973 0.2914255236
| 23> C -4.4828113839 -0.2505084077 -0.8293223965
| 24> C -5.8823876217 0.0063443989 -0.3092532119
| 25> H 6.0842850483 -0.9208591887 -1.6413264629
| 26> H 4.6812931658 -0.0663770468 -2.3020148445
| 27> H 5.8195183603 0.788920746 -1.2581810349
| 28> H 5.1671038854 -0.6640576595 0.6651991836
| 29> H 4.0138442681 -1.5268342727 -0.3888057996
| 30> H 1.4973264047 0.7450169997 2.2240334816
| 31> H 2.6379197585 2.107774891 2.0588449574
| 32> H -0.4181057388 2.3305588233 2.085557531
| 33> H 0.6569681738 2.7794191154 3.4249987053
| 34> H 0.6975369307 3.6842448122 1.8998095516
| 35> H 0.5089683606 -2.7027744784 -1.5209505684
| 36> H 0.1762372977 -0.9634315552 -1.8407443067
| 37> H -2.725517979 -0.3802943679 3.1543068164
| 38> H -2.2797332189 -1.7928054622 2.1613748019
| 39> H 0.0736528388 -1.61994364 2.9644026465
| 40> H -0.3571676655 -0.2096804375 3.945128783
| 41> H -1.0406372291 -1.797543373 4.3282481342
| 42> H -4.1817369275 0.4974440566 -1.5700564641
| 43> H -4.3961882421 -1.2467322336 -1.2713807125
| 44> H -6.1406632338 -0.7355426937 0.4405449751
| 45> H -5.9387560356 0.9949332168 0.1374886868
| 46> H -6.5849268213 -0.0547881072 -1.1337593427
| 47> *
| 48>
| 49>                          ****END OF INPUT****

CARTESIAN COORDINATES (ANGSTROEM)
---------------------------------
  C      5.332375   -0.165815   -1.436268
  C      4.530466   -0.578388   -0.217596
  O      3.562983    0.425532    0.145701
  P      2.092113    0.507634   -0.462311
  S      1.937682    0.774949   -2.392863
  O      1.510506    1.700914    0.380636
  C      1.631176    1.755710    1.826506
  C      0.570139    2.701990    2.345994
  S      1.249091   -1.303231    0.278275
  C      0.153321   -1.766573   -1.098084
  S     -1.541688   -2.071425   -0.558961
  P     -2.005236   -0.095792    0.085056
  S     -1.371713    1.345918   -1.079697
  O     -1.493293    0.042881    1.565816
  C     -1.911034   -0.871458    2.620265
  C     -0.726151   -1.140429    3.523921
  O     -3.577865   -0.174728    0.291426
  C     -4.482811   -0.250508   -0.829322
  C     -5.882388    0.006344   -0.309253
  H      6.084285   -0.920859   -1.641326
  H      4.681293   -0.066377   -2.302015
  H      5.819518    0.788921   -1.258181
  H      5.167104   -0.664058    0.665199
  H      4.013844   -1.526834   -0.388806
  H      1.497326    0.745017    2.224033
  H      2.637920    2.107775    2.058845
  H     -0.418106    2.330559    2.085558
  H      0.656968    2.779419    3.424999
  H      0.697537    3.684245    1.899810
  H      0.508968   -2.702774   -1.520951
  H      0.176237   -0.963432   -1.840744
  H     -2.725518   -0.380294    3.154307
  H     -2.279733   -1.792805    2.161375
  H      0.073653   -1.619944    2.964403
  H     -0.357168   -0.209680    3.945129
  H     -1.040637   -1.797543    4.328248
  H     -4.181737    0.497444   -1.570056
  H     -4.396188   -1.246732   -1.271381
  H     -6.140663   -0.735543    0.440545
  H     -5.938756    0.994933    0.137489
  H     -6.584927   -0.054788   -1.133759

 Total Charge           Charge          ....    0
 Multiplicity           Mult            ....    1
 Number of Electrons    NEL             ....  202
 Basis Dimension        Dim             ....  334

ORBITAL ENERGIES
----------------

  NO   OCC          E(Eh)            E(eV)
   0   2.0000     -88.043738     -2395.7919
   1   2.0000     -88.041357     -2395.7271
   2   2.0000     -87.979143     -2394.0342
   3   2.0000     -87.978424     -2394.0146
   4   2.0000     -76.423024     -2079.5762
   5   2.0000     -76.420500     -2079.5075
   6   2.0000     -18.794445      -511.4229
   7   2.0000     -18.793314      -511.3921
   8   2.0000     -18.788286      -511.2553
   9   2.0000     -18.782639      -511.1016
  10   2.0000      -9.959160      -271.0025
  11   2.0000      -9.954213      -270.8679
  12   2.0000      -9.952884      -270.8317
  13   2.0000      -9.951208      -270.7861
  14   2.0000      -9.948239      -270.7054
  15   2.0000      -9.891319      -269.1565
  16   2.0000      -9.889969      -269.1197
  17   2.0000      -9.876828      -268.7622
  18   2.0000      -9.876119      -268.7429
  19   2.0000      -7.688892      -209.2254
  20   2.0000      -7.685789      -209.1409
  21   2.0000      -7.624025      -207.4603
  22   2.0000      -7.623642      -207.4499
  23   2.0000      -6.420646      -174.7147
  24   2.0000      -6.417786      -174.6368
  25   2.0000      -5.716689      -155.5590
  26   2.0000      -5.713575      -155.4743
  27   2.0000      -5.713185      -155.4637
  28   2.0000      -5.710112      -155.3800
  29   2.0000      -5.706182      -155.2731
  30   2.0000      -5.703094      -155.1891
  31   2.0000      -5.653119      -153.8292
  32   2.0000      -5.652750      -153.8192
  33   2.0000      -5.644517      -153.5951
  34   2.0000      -5.644169      -153.5856
  35   2.0000      -5.644111      -153.5841
  36   2.0000      -5.643700      -153.5729
  37   2.0000      -4.643493      -126.3559
  38   2.0000      -4.642520      -126.3294
  39   2.0000      -4.640678      -126.2793
  40   2.0000      -4.640488      -126.2741
  41   2.0000      -4.639648      -126.2512
  42   2.0000      -4.638108      -126.2093
  43   2.0000      -0.990319       -26.9479
  44   2.0000      -0.982654       -26.7394
  45   2.0000      -0.946291       -25.7499
  46   2.0000      -0.936712       -25.4892
  47   2.0000      -0.761285       -20.7156
  48   2.0000      -0.721005       -19.6196
  49   2.0000      -0.710276       -19.3276
  50   2.0000      -0.694287       -18.8925
  51   2.0000      -0.683322       -18.5941
  52   2.0000      -0.674046       -18.3417
  53   2.0000      -0.645823       -17.5737
  54   2.0000      -0.631173       -17.1751
  55   2.0000      -0.586021       -15.9465
  56   2.0000      -0.579939       -15.7809
  57   2.0000      -0.573874       -15.6159
  58   2.0000      -0.567422       -15.4403
  59   2.0000      -0.563193       -15.3253
  60   2.0000      -0.513633       -13.9767
  61   2.0000      -0.501950       -13.6588
  62   2.0000      -0.484401       -13.1812
  63   2.0000      -0.474859       -12.9216
  64   2.0000      -0.451774       -12.2934
  65   2.0000      -0.447667       -12.1816
  66   2.0000      -0.438745       -11.9389
  67   2.0000      -0.435029       -11.8378
  68   2.0000      -0.429743       -11.6939
  69   2.0000      -0.417338       -11.3563
  70   2.0000      -0.405373       -11.0308
  71   2.0000      -0.396084       -10.7780
  72   2.0000      -0.393288       -10.7019
  73   2.0000      -0.380718       -10.3599
  74   2.0000      -0.379098       -10.3158
  75   2.0000      -0.366571        -9.9749
  76   2.0000      -0.360183        -9.8011
  77   2.0000      -0.355687        -9.6787
  78   2.0000      -0.350930        -9.5493
  79   2.0000      -0.349746        -9.5171
  80   2.0000      -0.346573        -9.4307
  81   2.0000      -0.345101        -9.3907
  82   2.0000      -0.340089        -9.2543
  83   2.0000      -0.330285        -8.9875
  84   2.0000      -0.329618        -8.9694
  85   2.0000      -0.316683        -8.6174
  86   2.0000      -0.310284        -8.4432
  87   2.0000      -0.304142        -8.2761
  88   2.0000      -0.301031        -8.1915
  89   2.0000      -0.292393        -7.9564
  90   2.0000      -0.290028        -7.8921
  91   2.0000      -0.275764        -7.5039
  92   2.0000      -0.266805        -7.2601
  93   2.0000      -0.261112        -7.1052
  94   2.0000      -0.255993        -6.9659
  95   2.0000      -0.236706        -6.4411
  96   2.0000      -0.222239        -6.0474
  97   2.0000      -0.209535        -5.7017
  98   2.0000      -0.198828        -5.4104
  99   2.0000      -0.190018        -5.1706
 100   2.0000      -0.181158        -4.9296
 101   0.0000      -0.039776        -1.0823
 102   0.0000      -0.030338        -0.8255
 103   0.0000      -0.004245        -0.1155
 104   0.0000       0.011516         0.3134
 105   0.0000       0.018407         0.5009

MULLIKEN ATOMIC CHARGES
-----------------------
   0 C :   -0.293902
   1 C :   -0.006796
   2 O :   -0.385294
   3 P :    0.610284
   4 S :   -0.287240
   5 O :   -0.345610
   6 C :   -0.019737
   7 C :   -0.286730
   8 S :   -0.132685
   9 C :   -0.342660
  10 S :   -0.117221
  11 P :    0.580465
  12 S :   -0.272176
  13 O :   -0.354488
  14 C :   -0.009408
  15 C :   -0.296755
  16 O :   -0.386494
  17 C :   -0.010734
  18 C :   -0.280596
  19 H :    0.104430
  20 H :    0.129595
  21 H :    0.113525
  22 H :    0.101766
  23 H :    0.096783
  24 H :    0.101645
  25 H :    0.105348
  26 H :    0.136056
  27 H :    0.099525
  28 H :    0.119099
  29 H :    0.178416
  30 H :    0.210287
  31 H :    0.111164
  32 H :    0.103518
  33 H :    0.132357
  34 H :    0.122799
  35 H :    0.110821
  36 H :    0.107981
  37 H :    0.103974
  38 H :    0.113118
  39 H :    0.121722
  40 H :    0.113847
Sum of atomic charges:    0.0000000

LOEWDIN ATOMIC CHARGES
----------------------
   0 C :   -0.365356
   1 C :   -0.117895
   2 O :   -0.250123
   3 P :    0.567323
   4 S :   -0.288618
   5 O :   -0.226109
   6 C :   -0.112242
   7 C :   -0.355977
   8 S :    0.061418
   9 C :   -0.480303
  10 S :    0.058309
  11 P :    0.553322
  12 S :   -0.281996
  13 O :   -0.232969
  14 C :   -0.112614
  15 C :   -0.356735
  16 O :   -0.254198
  17 C :   -0.119446
  18 C :   -0.350491
  19 H :    0.127279
  20 H :    0.123811
  21 H :    0.126204
  22 H :    0.116384
  23 H :    0.101822
  24 H :    0.102255
  25 H :    0.113299
  26 H :    0.129038
  27 H :    0.124236
  28 H :    0.129919
  29 H :    0.135232
  30 H :    0.125770
  31 H :    0.118210
  32 H :    0.104787
  33 H :    0.122950
  34 H :    0.126763
  35 H :    0.130418
  36 H :    0.111398
  37 H :    0.108292
  38 H :    0.125322
  39 H :    0.129559
  40 H :    0.131752

  Mayer bond orders larger than 0.100000
B(  0-C ,  1-C ) :   1.1661 B(  0-C , 19-H ) :   0.9389 B(  0-C , 20-H ) :   0.9294
B(  0-C , 21-H ) :   0.9474 B(  1-C ,  2-O ) :   0.9142 B(  1-C , 22-H ) :   0.9367
B(  1-C , 23-H ) :   0.9130 B(  2-O ,  3-P ) :   1.0693 B(  3-P ,  4-S ) :   1.6520
B(  3-P ,  5-O ) :   1.1450 B(  3-P ,  8-S ) :   0.9409 B(  4-S ,  8-S ) :   0.1158
B(  5-O ,  6-C ) :   0.8911 B(  6-C ,  7-C ) :   1.1676 B(  6-C , 24-H ) :   0.9121
B(  6-C , 25-H ) :   0.9307 B(  7-C , 26-H ) :   0.9338 B(  7-C , 27-H ) :   0.9386
B(  7-C , 28-H ) :   0.9470 B(  8-S ,  9-C ) :   0.9943 B(  9-C , 10-S ) :   1.0013
B(  9-C , 29-H ) :   0.9112 B(  9-C , 30-H ) :   0.8425 B( 10-S , 11-P ) :   0.9353
B( 10-S , 12-S ) :   0.1083 B( 11-P , 12-S ) :   1.6920 B( 11-P , 13-O ) :   1.1196
B( 11-P , 16-O ) :   1.0786 B( 13-O , 14-C ) :   0.8809 B( 14-C , 15-C ) :   1.1685
B( 14-C , 31-H ) :   0.9339 B( 14-C , 32-H ) :   0.9103 B( 15-C , 33-H ) :   0.9367
B( 15-C , 34-H ) :   0.9434 B( 15-C , 35-H ) :   0.9384 B( 16-O , 17-C ) :   0.9043
B( 17-C , 18-C ) :   1.1595 B( 17-C , 36-H ) :   0.9117 B( 17-C , 37-H ) :   0.9281
B( 18-C , 38-H ) :   0.9511 B( 18-C , 39-H ) :   0.9509 B( 18-C , 40-H ) :   0.9419

Dispersion correction           -0.066052852
FINAL SINGLE POINT ENERGY     -2929.519883949860

DIPOLE MOMENT
-------------

Method             : SCF
Type of density    : Electron Density
Multiplicity       :   1
Irrep              :   0
Energy             : -2929.6390284785934455 Eh
Relativity type    :
Basis              : AO
                                X                 Y                 Z
Electronic contribution:      1.640660793      -0.229397278     -14.386550233
Nuclear contribution   :     -2.007610144      -1.008922793      16.019701526
                        -----------------------------------------
Total Dipole Moment    :     -0.366949351      -1.238320071       1.633151293
                        -----------------------------------------
Magnitude (a.u.)       :      2.082131497
Magnitude (Debye)      :      5.292357675

Rotational constants in cm-1:             0.012883             0.005120             0.004818
Rotational constants in MHz :           386.210963           153.480642           144.428589

                             ****ORCA TERMINATED NORMALLY****
TOTAL RUN TIME: 0 days 0 hours 0 minutes 21 seconds 812 msec
