                         Program Version 6.0.0  -   RELEASE  -
|  1> ! pbe def2-sv(p) def2/J RI DEFGRID1 loosescf d4 GCP(DFT/SV(P)) printgap
|  2> %output
|  3>     printlevel normal
|  4> end
|  5> * xyz 0 1
|  6> C 1.2376153182 0.7512960627 3.1334827024
|  7> C 2.4277315763 -0.1588740341 2.9056818269
|  8> O 2.979332772 0.0072714499 1.5889774602
|  9> P 2.2377592607 -0.5351902091 0.2918520287
| 10> S 1.4122819945 -2.3047107128 0.5181482819
| 11> O 3.3632137924 -0.4587264346 -0.8222427452
| 12> C 4.2475401173 -1.5649404872 -1.0950411129
| 13> C 5.2324613513 -1.7874847259 0.0331726179
| 14> S 1.0889224334 1.1241995521 -0.3253183306
| 15> C 0.4570053929 0.4724323169 -1.8881700746
| 16> S -0.964148409 -0.668078771 -1.7361480764
| 17> P -2.3106611318 0.4803066909 -0.5860665102
| 18> S -4.2135590329 0.0767713772 -0.8323543669
| 19> O -1.7999398941 1.9247050189 -0.9847210444
| 20> C -2.3269910416 3.12175037 -0.364407967
| 21> C -3.4637310173 3.6976286479 -1.1847287489
| 22> O -1.8432487925 0.3757272788 0.9424628501
| 23> C -2.4859100123 -0.5212462958 1.8622451533
| 24> C -2.1826362822 -1.970899743 1.5445428782
| 25> H 1.5111240583 1.7849132955 2.9377110304
| 26> H 0.4237034047 0.4761634087 2.463444558
| 27> H 0.900635586 0.6541527908 4.1606832245
| 28> H 2.1423375871 -1.2087635663 3.0328420589
| 29> H 3.254690691 0.0850072547 3.5738313501
| 30> H 3.6421616839 -2.4622100233 -1.2615901201
| 31> H 4.7495706422 -1.2776579994 -2.0199235837
| 32> H 5.948032151 -2.5498381526 -0.2587024102
| 33> H 5.7578736311 -0.8635706258 0.2598035062
| 34> H 4.7045928901 -2.1206791992 0.9255642268
| 35> H 1.2313976898 -0.1026554936 -2.3909921563
| 36> H 0.156905658 1.3304244223 -2.4827834462
| 37> H -2.6510304835 2.8865827045 0.6520767778
| 38> H -1.4730407126 3.8006559315 -0.3270161157
| 39> H -3.1297019126 3.8999987589 -2.1984803821
| 40> H -4.2937139737 2.9952394859 -1.2250597813
| 41> H -3.8026101684 4.6213865447 -0.7266558859
| 42> H -2.0971128681 -0.229321524 2.8387670116
| 43> H -3.5656022935 -0.3437448049 1.8199614469
| 44> H -1.1102744346 -2.1505967755 1.5244565614
| 45> H -2.6373345514 -2.6101144901 2.293905021
| 46> H -2.5914399885 -2.2265014846 0.5663646002
| 47> *
| 48>
| 49>                          ****END OF INPUT****

CARTESIAN COORDINATES (ANGSTROEM)
---------------------------------
  C      1.237615    0.751296    3.133483
  C      2.427732   -0.158874    2.905682
  O      2.979333    0.007271    1.588977
  P      2.237759   -0.535190    0.291852
  S      1.412282   -2.304711    0.518148
  O      3.363214   -0.458726   -0.822243
  C      4.247540   -1.564940   -1.095041
  C      5.232461   -1.787485    0.033173
  S      1.088922    1.124200   -0.325318
  C      0.457005    0.472432   -1.888170
  S     -0.964148   -0.668079   -1.736148
  P     -2.310661    0.480307   -0.586067
  S     -4.213559    0.076771   -0.832354
  O     -1.799940    1.924705   -0.984721
  C     -2.326991    3.121750   -0.364408
  C     -3.463731    3.697629   -1.184729
  O     -1.843249    0.375727    0.942463
  C     -2.485910   -0.521246    1.862245
  C     -2.182636   -1.970900    1.544543
  H      1.511124    1.784913    2.937711
  H      0.423703    0.476163    2.463445
  H      0.900636    0.654153    4.160683
  H      2.142338   -1.208764    3.032842
  H      3.254691    0.085007    3.573831
  H      3.642162   -2.462210   -1.261590
  H      4.749571   -1.277658   -2.019924
  H      5.948032   -2.549838   -0.258702
  H      5.757874   -0.863571    0.259804
  H      4.704593   -2.120679    0.925564
  H      1.231398   -0.102655   -2.390992
  H      0.156906    1.330424   -2.482783
  H     -2.651030    2.886583    0.652077
  H     -1.473041    3.800656   -0.327016
  H     -3.129702    3.899999   -2.198480
  H     -4.293714    2.995239   -1.225060
  H     -3.802610    4.621387   -0.726656
  H     -2.097113   -0.229322    2.838767
  H     -3.565602   -0.343745    1.819961
  H     -1.110274   -2.150597    1.524457
  H     -2.637335   -2.610114    2.293905
  H     -2.591440   -2.226501    0.566365

 Total Charge           Charge          ....    0
 Multiplicity           Mult            ....    1
 Number of Electrons    NEL             ....  202
 Basis Dimension        Dim             ....  334

ORBITAL ENERGIES
----------------

  NO   OCC          E(Eh)            E(eV)
   0   2.0000     -88.045238     -2395.8327
   1   2.0000     -88.036894     -2395.6057
   2   2.0000     -87.991435     -2394.3687
   3   2.0000     -87.983007     -2394.1393
   4   2.0000     -76.430176     -2079.7708
   5   2.0000     -76.424199     -2079.6082
   6   2.0000     -18.799155      -511.5510
   7   2.0000     -18.796771      -511.4861
   8   2.0000     -18.794810      -511.4328
   9   2.0000     -18.786326      -511.2019
  10   2.0000      -9.960611      -271.0420
  11   2.0000      -9.957438      -270.9557
  12   2.0000      -9.956629      -270.9336
  13   2.0000      -9.955201      -270.8948
  14   2.0000      -9.942807      -270.5575
  15   2.0000      -9.888656      -269.0840
  16   2.0000      -9.887222      -269.0450
  17   2.0000      -9.882741      -268.9230
  18   2.0000      -9.868231      -268.5282
  19   2.0000      -7.690416      -209.2668
  20   2.0000      -7.682448      -209.0500
  21   2.0000      -7.636003      -207.7862
  22   2.0000      -7.628115      -207.5716
  23   2.0000      -6.427932      -174.9129
  24   2.0000      -6.421810      -174.7463
  25   2.0000      -5.718367      -155.6047
  26   2.0000      -5.715036      -155.5140
  27   2.0000      -5.710898      -155.4014
  28   2.0000      -5.707125      -155.2988
  29   2.0000      -5.706681      -155.2867
  30   2.0000      -5.699031      -155.0785
  31   2.0000      -5.664711      -154.1446
  32   2.0000      -5.657076      -153.9369
  33   2.0000      -5.656557      -153.9228
  34   2.0000      -5.656491      -153.9209
  35   2.0000      -5.649028      -153.7179
  36   2.0000      -5.647937      -153.6882
  37   2.0000      -4.650500      -126.5465
  38   2.0000      -4.649738      -126.5258
  39   2.0000      -4.648318      -126.4872
  40   2.0000      -4.644542      -126.3844
  41   2.0000      -4.643647      -126.3600
  42   2.0000      -4.642077      -126.3173
  43   2.0000      -0.992244       -27.0003
  44   2.0000      -0.985740       -26.8233
  45   2.0000      -0.952714       -25.9247
  46   2.0000      -0.942301       -25.6413
  47   2.0000      -0.763768       -20.7832
  48   2.0000      -0.722916       -19.6716
  49   2.0000      -0.707891       -19.2627
  50   2.0000      -0.691589       -18.8191
  51   2.0000      -0.680288       -18.5116
  52   2.0000      -0.673348       -18.3227
  53   2.0000      -0.656239       -17.8572
  54   2.0000      -0.638339       -17.3701
  55   2.0000      -0.603499       -16.4220
  56   2.0000      -0.588647       -16.0179
  57   2.0000      -0.577159       -15.7053
  58   2.0000      -0.572788       -15.5863
  59   2.0000      -0.561400       -15.2765
  60   2.0000      -0.500703       -13.6248
  61   2.0000      -0.498045       -13.5525
  62   2.0000      -0.480190       -13.0666
  63   2.0000      -0.465522       -12.6675
  64   2.0000      -0.463995       -12.6260
  65   2.0000      -0.446543       -12.1511
  66   2.0000      -0.443740       -12.0748
  67   2.0000      -0.432469       -11.7681
  68   2.0000      -0.426319       -11.6007
  69   2.0000      -0.418147       -11.3783
  70   2.0000      -0.413347       -11.2478
  71   2.0000      -0.397802       -10.8247
  72   2.0000      -0.393528       -10.7085
  73   2.0000      -0.391669       -10.6579
  74   2.0000      -0.382891       -10.4190
  75   2.0000      -0.378190       -10.2911
  76   2.0000      -0.364793        -9.9265
  77   2.0000      -0.360158        -9.8004
  78   2.0000      -0.354204        -9.6384
  79   2.0000      -0.352467        -9.5911
  80   2.0000      -0.349296        -9.5048
  81   2.0000      -0.345510        -9.4018
  82   2.0000      -0.340444        -9.2639
  83   2.0000      -0.335793        -9.1374
  84   2.0000      -0.324763        -8.8373
  85   2.0000      -0.321105        -8.7377
  86   2.0000      -0.306871        -8.3504
  87   2.0000      -0.299960        -8.1623
  88   2.0000      -0.295115        -8.0305
  89   2.0000      -0.290559        -7.9065
  90   2.0000      -0.286573        -7.7981
  91   2.0000      -0.279930        -7.6173
  92   2.0000      -0.275630        -7.5003
  93   2.0000      -0.267742        -7.2856
  94   2.0000      -0.261433        -7.1140
  95   2.0000      -0.232690        -6.3318
  96   2.0000      -0.219251        -5.9661
  97   2.0000      -0.209857        -5.7105
  98   2.0000      -0.203503        -5.5376
  99   2.0000      -0.202559        -5.5119
 100   2.0000      -0.192154        -5.2288
 101   0.0000      -0.043527        -1.1844
 102   0.0000      -0.023114        -0.6290
 103   0.0000      -0.020763        -0.5650
 104   0.0000      -0.003851        -0.1048
 105   0.0000       0.014879         0.4049

MULLIKEN ATOMIC CHARGES
-----------------------
   0 C :   -0.356345
   1 C :   -0.005035
   2 O :   -0.371020
   3 P :    0.601689
   4 S :   -0.311241
   5 O :   -0.371783
   6 C :   -0.007771
   7 C :   -0.305029
   8 S :   -0.073817
   9 C :   -0.333441
  10 S :   -0.070744
  11 P :    0.627995
  12 S :   -0.321446
  13 O :   -0.386175
  14 C :   -0.005095
  15 C :   -0.291153
  16 O :   -0.380408
  17 C :   -0.006863
  18 C :   -0.324857
  19 H :    0.118283
  20 H :    0.164989
  21 H :    0.114488
  22 H :    0.110162
  23 H :    0.106768
  24 H :    0.112638
  25 H :    0.105495
  26 H :    0.113528
  27 H :    0.118620
  28 H :    0.121841
  29 H :    0.182800
  30 H :    0.190571
  31 H :    0.105036
  32 H :    0.105829
  33 H :    0.113201
  34 H :    0.132075
  35 H :    0.108099
  36 H :    0.098021
  37 H :    0.110760
  38 H :    0.139672
  39 H :    0.103897
  40 H :    0.115765
Sum of atomic charges:    0.0000000

LOEWDIN ATOMIC CHARGES
----------------------
   0 C :   -0.374218
   1 C :   -0.120588
   2 O :   -0.242254
   3 P :    0.567084
   4 S :   -0.299905
   5 O :   -0.243970
   6 C :   -0.119836
   7 C :   -0.363651
   8 S :    0.104132
   9 C :   -0.471236
  10 S :    0.093123
  11 P :    0.566876
  12 S :   -0.317422
  13 O :   -0.247319
  14 C :   -0.110046
  15 C :   -0.361857
  16 O :   -0.247631
  17 C :   -0.125125
  18 C :   -0.374803
  19 H :    0.125916
  20 H :    0.126203
  21 H :    0.131417
  22 H :    0.108875
  23 H :    0.119195
  24 H :    0.110473
  25 H :    0.118702
  26 H :    0.131141
  27 H :    0.127355
  28 H :    0.122954
  29 H :    0.134456
  30 H :    0.137799
  31 H :    0.112182
  32 H :    0.117818
  33 H :    0.126119
  34 H :    0.126924
  35 H :    0.128910
  36 H :    0.112311
  37 H :    0.105958
  38 H :    0.117158
  39 H :    0.127827
  40 H :    0.118956

  Mayer bond orders larger than 0.100000
B(  0-C ,  1-C ) :   1.1633 B(  0-C , 19-H ) :   0.9433 B(  0-C , 20-H ) :   0.9183
B(  0-C , 21-H ) :   0.9378 B(  1-C ,  2-O ) :   0.9068 B(  1-C , 22-H ) :   0.9118
B(  1-C , 23-H ) :   0.9326 B(  2-O ,  3-P ) :   1.1040 B(  3-P ,  4-S ) :   1.6184
B(  3-P ,  5-O ) :   1.1089 B(  3-P ,  8-S ) :   0.9724 B(  4-S ,  8-S ) :   0.1155
B(  5-O ,  6-C ) :   0.9039 B(  6-C ,  7-C ) :   1.1665 B(  6-C , 24-H ) :   0.9143
B(  6-C , 25-H ) :   0.9341 B(  7-C , 26-H ) :   0.9390 B(  7-C , 27-H ) :   0.9462
B(  7-C , 28-H ) :   0.9377 B(  8-S ,  9-C ) :   1.0011 B(  9-C , 10-S ) :   0.9913
B(  9-C , 29-H ) :   0.8978 B(  9-C , 30-H ) :   0.9041 B( 10-S , 11-P ) :   0.9885
B( 11-P , 12-S ) :   1.6434 B( 11-P , 13-O ) :   1.0995 B( 11-P , 16-O ) :   1.0627
B( 13-O , 14-C ) :   0.8895 B( 14-C , 15-C ) :   1.1705 B( 14-C , 31-H ) :   0.9178
B( 14-C , 32-H ) :   0.9363 B( 15-C , 33-H ) :   0.9471 B( 15-C , 34-H ) :   0.9325
B( 15-C , 35-H ) :   0.9397 B( 16-O , 17-C ) :   0.8974 B( 17-C , 18-C ) :   1.1700
B( 17-C , 36-H ) :   0.9272 B( 17-C , 37-H ) :   0.9118 B( 18-C , 38-H ) :   0.9245
B( 18-C , 39-H ) :   0.9374 B( 18-C , 40-H ) :   0.9337

Dispersion correction           -0.065953530
FINAL SINGLE POINT ENERGY     -2929.519842532865

DIPOLE MOMENT
-------------

Method             : SCF
Type of density    : Electron Density
Multiplicity       :   1
Irrep              :   0
Energy             : -2929.6395499937634668 Eh
Relativity type    :
Basis              : AO
                                X                 Y                 Z
Electronic contribution:     -5.374129945      -3.298411729     -12.858277451
Nuclear contribution   :      6.816560416       4.245226109      13.625212068
                        -----------------------------------------
Total Dipole Moment    :      1.442430471       0.946814380       0.766934617
                        -----------------------------------------
Magnitude (a.u.)       :      1.888187449
Magnitude (Debye)      :      4.799391081

Rotational constants in cm-1:             0.013440             0.004813             0.004683
Rotational constants in MHz :           402.921152           144.283790           140.395384

                             ****ORCA TERMINATED NORMALLY****
TOTAL RUN TIME: 0 days 0 hours 0 minutes 21 seconds 269 msec
