                         Program Version 6.0.0  -   RELEASE  -
|  1> ! pbe def2-sv(p) def2/J RI DEFGRID1 loosescf d4 GCP(DFT/SV(P)) printgap
|  2> %output
|  3>     printlevel normal
|  4> end
|  5> * xyz 0 1
|  6> C 5.6976381012 -0.3338037472 -0.7085079941
|  7> C 4.5815409127 -1.15846162 -1.3140037356
|  8> O 3.4209761112 -1.2042249675 -0.4581310684
|  9> P 2.5150436795 0.0681013323 -0.1890454632
| 10> S 2.2775712378 1.2537359917 -1.739709204
| 11> O 3.20664117 0.7252008763 1.0803638948
| 12> C 2.9305486471 2.0698642625 1.5075366972
| 13> C 1.5272740788 2.2117583674 2.0601074406
| 14> S 0.831664101 -0.9314393263 0.5789918894
| 15> C 0.0451445374 -1.2599387948 -1.0408842486
| 16> S -1.6677808609 -1.7564464268 -0.8420533903
| 17> P -2.4938832157 0.1187525016 -0.2141969682
| 18> S -1.399800149 1.7075556056 -0.5495072276
| 19> O -2.9145117843 -0.0811557487 1.3057285816
| 20> C -2.0096436 0.0848653148 2.4108920126
| 21> C -2.841521671 0.2884816669 3.6611952112
| 22> O -3.8806874263 0.2059802998 -0.945137937
| 23> C -4.7748614121 -0.8960036816 -1.2446855085
| 24> C -5.1412731154 -1.7043708363 -0.0198954149
| 25> H 5.4001524753 0.7129129457 -0.6612326372
| 26> H 5.9190039862 -0.6823963597 0.296732647
| 27> H 6.5855489666 -0.4204028057 -1.3269439248
| 28> H 4.8644654775 -2.2061053873 -1.4239862208
| 29> H 4.2795470606 -0.7468503174 -2.2825536594
| 30> H 3.6860715485 2.2615155419 2.2707699077
| 31> H 3.0769463323 2.7433326273 0.65681371
| 32> H 0.7972783283 2.094633374 1.2583358244
| 33> H 1.34453502 1.4563235081 2.8206632959
| 34> H 1.4074042856 3.1994728335 2.4934445193
| 35> H 0.5542047782 -2.0873935472 -1.529862054
| 36> H 0.0999189056 -0.3451931471 -1.6370003873
| 37> H -1.3844120515 -0.8098648966 2.4839617207
| 38> H -1.3674428742 0.9489061173 2.2114169518
| 39> H -2.1798131363 0.4096238339 4.5122899888
| 40> H -3.4587737132 1.1762782231 3.556934368
| 41> H -3.4841387124 -0.5714926721 3.8241348118
| 42> H -5.643624176 -0.395834586 -1.6753591209
| 43> H -4.2952082507 -1.5256529924 -1.9980121757
| 44> H -4.2623151195 -2.215114571 0.3680226979
| 45> H -5.5448603247 -1.0554370297 0.7525517679
| 46> H -5.886469804 -2.444281357 -0.295165934
| 47> *
| 48>
| 49>                          ****END OF INPUT****

CARTESIAN COORDINATES (ANGSTROEM)
---------------------------------
  C      5.697638   -0.333804   -0.708508
  C      4.581541   -1.158462   -1.314004
  O      3.420976   -1.204225   -0.458131
  P      2.515044    0.068101   -0.189045
  S      2.277571    1.253736   -1.739709
  O      3.206641    0.725201    1.080364
  C      2.930549    2.069864    1.507537
  C      1.527274    2.211758    2.060107
  S      0.831664   -0.931439    0.578992
  C      0.045145   -1.259939   -1.040884
  S     -1.667781   -1.756446   -0.842053
  P     -2.493883    0.118753   -0.214197
  S     -1.399800    1.707556   -0.549507
  O     -2.914512   -0.081156    1.305729
  C     -2.009644    0.084865    2.410892
  C     -2.841522    0.288482    3.661195
  O     -3.880687    0.205980   -0.945138
  C     -4.774861   -0.896004   -1.244686
  C     -5.141273   -1.704371   -0.019895
  H      5.400152    0.712913   -0.661233
  H      5.919004   -0.682396    0.296733
  H      6.585549   -0.420403   -1.326944
  H      4.864465   -2.206105   -1.423986
  H      4.279547   -0.746850   -2.282554
  H      3.686072    2.261516    2.270770
  H      3.076946    2.743333    0.656814
  H      0.797278    2.094633    1.258336
  H      1.344535    1.456324    2.820663
  H      1.407404    3.199473    2.493445
  H      0.554205   -2.087394   -1.529862
  H      0.099919   -0.345193   -1.637000
  H     -1.384412   -0.809865    2.483962
  H     -1.367443    0.948906    2.211417
  H     -2.179813    0.409624    4.512290
  H     -3.458774    1.176278    3.556934
  H     -3.484139   -0.571493    3.824135
  H     -5.643624   -0.395835   -1.675359
  H     -4.295208   -1.525653   -1.998012
  H     -4.262315   -2.215115    0.368023
  H     -5.544860   -1.055437    0.752552
  H     -5.886470   -2.444281   -0.295166

 Total Charge           Charge          ....    0
 Multiplicity           Mult            ....    1
 Number of Electrons    NEL             ....  202
 Basis Dimension        Dim             ....  334

ORBITAL ENERGIES
----------------

  NO   OCC          E(Eh)            E(eV)
   0   2.0000     -88.047833     -2395.9033
   1   2.0000     -88.038642     -2395.6532
   2   2.0000     -87.985011     -2394.1939
   3   2.0000     -87.980470     -2394.0703
   4   2.0000     -76.425095     -2079.6326
   5   2.0000     -76.423582     -2079.5914
   6   2.0000     -18.794323      -511.4195
   7   2.0000     -18.792911      -511.3811
   8   2.0000     -18.789145      -511.2786
   9   2.0000     -18.786759      -511.2137
  10   2.0000      -9.961293      -271.0606
  11   2.0000      -9.953036      -270.8359
  12   2.0000      -9.950697      -270.7722
  13   2.0000      -9.949238      -270.7325
  14   2.0000      -9.949184      -270.7311
  15   2.0000      -9.892013      -269.1754
  16   2.0000      -9.886756      -269.0323
  17   2.0000      -9.882821      -268.9252
  18   2.0000      -9.879007      -268.8215
  19   2.0000      -7.692683      -209.3285
  20   2.0000      -7.683827      -209.0876
  21   2.0000      -7.629839      -207.6185
  22   2.0000      -7.625292      -207.4947
  23   2.0000      -6.422602      -174.7679
  24   2.0000      -6.421241      -174.7309
  25   2.0000      -5.720562      -155.6644
  26   2.0000      -5.716993      -155.5673
  27   2.0000      -5.711743      -155.4244
  28   2.0000      -5.709935      -155.3752
  29   2.0000      -5.708663      -155.3406
  30   2.0000      -5.700410      -155.1160
  31   2.0000      -5.658604      -153.9784
  32   2.0000      -5.654435      -153.8650
  33   2.0000      -5.650541      -153.7590
  34   2.0000      -5.650116      -153.7475
  35   2.0000      -5.645748      -153.6286
  36   2.0000      -5.645375      -153.6185
  37   2.0000      -4.645287      -126.4047
  38   2.0000      -4.644415      -126.3809
  39   2.0000      -4.643773      -126.3635
  40   2.0000      -4.642904      -126.3398
  41   2.0000      -4.642891      -126.3395
  42   2.0000      -4.641799      -126.3098
  43   2.0000      -0.987270       -26.8650
  44   2.0000      -0.985109       -26.8062
  45   2.0000      -0.945342       -25.7241
  46   2.0000      -0.944697       -25.7065
  47   2.0000      -0.763219       -20.7682
  48   2.0000      -0.722663       -19.6647
  49   2.0000      -0.711357       -19.3570
  50   2.0000      -0.693953       -18.8834
  51   2.0000      -0.685374       -18.6500
  52   2.0000      -0.673902       -18.3378
  53   2.0000      -0.648426       -17.6446
  54   2.0000      -0.634188       -17.2571
  55   2.0000      -0.599546       -16.3145
  56   2.0000      -0.595068       -16.1926
  57   2.0000      -0.570909       -15.5352
  58   2.0000      -0.569067       -15.4851
  59   2.0000      -0.561728       -15.2854
  60   2.0000      -0.502257       -13.6671
  61   2.0000      -0.490935       -13.3590
  62   2.0000      -0.480299       -13.0696
  63   2.0000      -0.471578       -12.8323
  64   2.0000      -0.454308       -12.3623
  65   2.0000      -0.448159       -12.1950
  66   2.0000      -0.437248       -11.8981
  67   2.0000      -0.436526       -11.8785
  68   2.0000      -0.432165       -11.7598
  69   2.0000      -0.417558       -11.3623
  70   2.0000      -0.410383       -11.1671
  71   2.0000      -0.398769       -10.8510
  72   2.0000      -0.392062       -10.6686
  73   2.0000      -0.390984       -10.6392
  74   2.0000      -0.382017       -10.3952
  75   2.0000      -0.378162       -10.2903
  76   2.0000      -0.361864        -9.8468
  77   2.0000      -0.356945        -9.7130
  78   2.0000      -0.354351        -9.6424
  79   2.0000      -0.352253        -9.5853
  80   2.0000      -0.349810        -9.5188
  81   2.0000      -0.346097        -9.4178
  82   2.0000      -0.341151        -9.2832
  83   2.0000      -0.340008        -9.2521
  84   2.0000      -0.332587        -9.0501
  85   2.0000      -0.314129        -8.5479
  86   2.0000      -0.313052        -8.5186
  87   2.0000      -0.295640        -8.0448
  88   2.0000      -0.293906        -7.9976
  89   2.0000      -0.291479        -7.9316
  90   2.0000      -0.280948        -7.6450
  91   2.0000      -0.277640        -7.5550
  92   2.0000      -0.271239        -7.3808
  93   2.0000      -0.263678        -7.1750
  94   2.0000      -0.258995        -7.0476
  95   2.0000      -0.233648        -6.3579
  96   2.0000      -0.221970        -6.0401
  97   2.0000      -0.207858        -5.6561
  98   2.0000      -0.201956        -5.4955
  99   2.0000      -0.193408        -5.2629
 100   2.0000      -0.192321        -5.2333
 101   0.0000      -0.046555        -1.2668
 102   0.0000      -0.032208        -0.8764
 103   0.0000      -0.009148        -0.2489
 104   0.0000       0.011280         0.3070
 105   0.0000       0.015823         0.4306

MULLIKEN ATOMIC CHARGES
-----------------------
   0 C :   -0.306920
   1 C :   -0.004106
   2 O :   -0.370300
   3 P :    0.613307
   4 S :   -0.320544
   5 O :   -0.371933
   6 C :    0.006572
   7 C :   -0.363024
   8 S :   -0.097114
   9 C :   -0.339327
  10 S :   -0.130264
  11 P :    0.595436
  12 S :   -0.287381
  13 O :   -0.376519
  14 C :   -0.034313
  15 C :   -0.273089
  16 O :   -0.356437
  17 C :   -0.011887
  18 C :   -0.313713
  19 H :    0.122262
  20 H :    0.117441
  21 H :    0.111391
  22 H :    0.103701
  23 H :    0.109047
  24 H :    0.102972
  25 H :    0.111187
  26 H :    0.172986
  27 H :    0.112033
  28 H :    0.112458
  29 H :    0.180379
  30 H :    0.211202
  31 H :    0.107175
  32 H :    0.123376
  33 H :    0.109751
  34 H :    0.118243
  35 H :    0.113086
  36 H :    0.115938
  37 H :    0.117937
  38 H :    0.126098
  39 H :    0.126546
  40 H :    0.116349
Sum of atomic charges:   -0.0000000

LOEWDIN ATOMIC CHARGES
----------------------
   0 C :   -0.364361
   1 C :   -0.118865
   2 O :   -0.246830
   3 P :    0.571597
   4 S :   -0.308489
   5 O :   -0.241853
   6 C :   -0.117499
   7 C :   -0.377342
   8 S :    0.081547
   9 C :   -0.477956
  10 S :    0.065642
  11 P :    0.563736
  12 S :   -0.284576
  13 O :   -0.246153
  14 C :   -0.123979
  15 C :   -0.350064
  16 O :   -0.232817
  17 C :   -0.112853
  18 C :   -0.367282
  19 H :    0.122923
  20 H :    0.126722
  21 H :    0.129931
  22 H :    0.118058
  23 H :    0.109520
  24 H :    0.117532
  25 H :    0.111715
  26 H :    0.123486
  27 H :    0.120427
  28 H :    0.131365
  29 H :    0.133914
  30 H :    0.124691
  31 H :    0.103925
  32 H :    0.111185
  33 H :    0.129892
  34 H :    0.128156
  35 H :    0.124896
  36 H :    0.125426
  37 H :    0.111839
  38 H :    0.119135
  39 H :    0.130861
  40 H :    0.132797

  Mayer bond orders larger than 0.100000
B(  0-C ,  1-C ) :   1.1648 B(  0-C , 19-H ) :   0.9379 B(  0-C , 20-H ) :   0.9462
B(  0-C , 21-H ) :   0.9388 B(  1-C ,  2-O ) :   0.9113 B(  1-C , 22-H ) :   0.9350
B(  1-C , 23-H ) :   0.9150 B(  2-O ,  3-P ) :   1.1183 B(  3-P ,  4-S ) :   1.6066
B(  3-P ,  5-O ) :   1.1111 B(  3-P ,  8-S ) :   0.9650 B(  4-S ,  8-S ) :   0.1157
B(  5-O ,  6-C ) :   0.9055 B(  6-C ,  7-C ) :   1.1640 B(  6-C , 24-H ) :   0.9329
B(  6-C , 25-H ) :   0.9155 B(  7-C , 26-H ) :   0.9127 B(  7-C , 27-H ) :   0.9431
B(  7-C , 28-H ) :   0.9367 B(  8-S ,  9-C ) :   0.9764 B(  9-C , 10-S ) :   1.0241
B(  9-C , 29-H ) :   0.9049 B(  9-C , 30-H ) :   0.8533 B( 10-S , 11-P ) :   0.9140
B( 10-S , 12-S ) :   0.1119 B( 11-P , 12-S ) :   1.6627 B( 11-P , 13-O ) :   1.0837
B( 11-P , 16-O ) :   1.1551 B( 13-O , 14-C ) :   0.9040 B( 14-C , 15-C ) :   1.1575
B( 14-C , 31-H ) :   0.9229 B( 14-C , 32-H ) :   0.9080 B( 15-C , 33-H ) :   0.9423
B( 15-C , 34-H ) :   0.9501 B( 15-C , 35-H ) :   0.9512 B( 16-O , 17-C ) :   0.8998
B( 17-C , 18-C ) :   1.1685 B( 17-C , 36-H ) :   0.9340 B( 17-C , 37-H ) :   0.9224
B( 18-C , 38-H ) :   0.9372 B( 18-C , 39-H ) :   0.9422 B( 18-C , 40-H ) :   0.9345

Dispersion correction           -0.064561976
FINAL SINGLE POINT ENERGY     -2929.516316583890

DIPOLE MOMENT
-------------

Method             : SCF
Type of density    : Electron Density
Multiplicity       :   1
Irrep              :   0
Energy             : -2929.6363309655962439 Eh
Relativity type    :
Basis              : AO
                                X                 Y                 Z
Electronic contribution:     -0.571349616      -0.337472106     -13.346344842
Nuclear contribution   :      0.454014412      -0.652034797      14.217304570
                        -----------------------------------------
Total Dipole Moment    :     -0.117335204      -0.989506903       0.870959728
                        -----------------------------------------
Magnitude (a.u.)       :      1.323428241
Magnitude (Debye)      :      3.363887257

Rotational constants in cm-1:             0.014092             0.004463             0.004093
Rotational constants in MHz :           422.465588           133.811970           122.707863

                             ****ORCA TERMINATED NORMALLY****
TOTAL RUN TIME: 0 days 0 hours 0 minutes 20 seconds 982 msec
