                         Program Version 6.0.0  -   RELEASE  -
|  1> ! pbe def2-sv(p) def2/J RI DEFGRID1 loosescf d4 GCP(DFT/SV(P)) printgap
|  2> %output
|  3>     printlevel normal
|  4> end
|  5> * xyz 0 1
|  6> C -0.4674658371 -0.7269697794 -3.7323e-06
|  7> C -0.3958568927 0.7683113921 1.08096e-05
|  8> C 0.8633251309 -0.0413477939 -1.09795e-05
|  9> H -0.7868756785 -1.223370304 -0.9032537791
| 10> H -0.7867026595 -1.2235520318 0.9032722814
| 11> H -0.666183539 1.2931362629 -0.9032702389
| 12> H -0.6661927651 1.2930662441 0.9033243201
| 13> H 1.45291669 -0.0696262731 -0.9032922808
| 14> H 1.4530093394 -0.069580242 0.9032661968
| 15> *
| 16>
| 17>                          ****END OF INPUT****

CARTESIAN COORDINATES (ANGSTROEM)
---------------------------------
  C     -0.467466   -0.726970   -0.000004
  C     -0.395857    0.768311    0.000011
  C      0.863325   -0.041348   -0.000011
  H     -0.786876   -1.223370   -0.903254
  H     -0.786703   -1.223552    0.903272
  H     -0.666184    1.293136   -0.903270
  H     -0.666193    1.293066    0.903324
  H      1.452917   -0.069626   -0.903292
  H      1.453009   -0.069580    0.903266

 Total Charge           Charge          ....    0
 Multiplicity           Mult            ....    1
 Number of Electrons    NEL             ....   24
 Basis Dimension        Dim             ....   54

ORBITAL ENERGIES
----------------

  NO   OCC          E(Eh)            E(eV)
   0   2.0000      -9.885609      -269.0011
   1   2.0000      -9.885590      -269.0006
   2   2.0000      -9.885574      -269.0001
   3   2.0000      -0.772474       -21.0201
   4   2.0000      -0.529176       -14.3996
   5   2.0000      -0.529156       -14.3991
   6   2.0000      -0.443654       -12.0724
   7   2.0000      -0.420066       -11.4306
   8   2.0000      -0.316296        -8.6069
   9   2.0000      -0.316269        -8.6061
  10   2.0000      -0.257458        -7.0058
  11   2.0000      -0.257454        -7.0057
  12   0.0000       0.051431         1.3995
  13   0.0000       0.056396         1.5346
  14   0.0000       0.097078         2.6416
  15   0.0000       0.097086         2.6419
  16   0.0000       0.114612         3.1187

MULLIKEN ATOMIC CHARGES
-----------------------
   0 C :   -0.223438
   1 C :   -0.223324
   2 C :   -0.224072
   3 H :    0.111764
   4 H :    0.111774
   5 H :    0.111767
   6 H :    0.111763
   7 H :    0.111877
   8 H :    0.111890
Sum of atomic charges:    0.0000000

LOEWDIN ATOMIC CHARGES
----------------------
   0 C :   -0.248369
   1 C :   -0.248343
   2 C :   -0.248480
   3 H :    0.124195
   4 H :    0.124194
   5 H :    0.124192
   6 H :    0.124191
   7 H :    0.124210
   8 H :    0.124211

  Mayer bond orders larger than 0.100000
B(  0-C ,  1-C ) :   1.0626 B(  0-C ,  2-C ) :   1.0622 B(  0-C ,  3-H ) :   0.9388
B(  0-C ,  4-H ) :   0.9388 B(  1-C ,  2-C ) :   1.0623 B(  1-C ,  5-H ) :   0.9388
B(  1-C ,  6-H ) :   0.9388 B(  2-C ,  7-H ) :   0.9388 B(  2-C ,  8-H ) :   0.9388

Dispersion correction           -0.004086606
FINAL SINGLE POINT ENERGY      -117.593342511679

DIPOLE MOMENT
-------------

Method             : SCF
Type of density    : Electron Density
Multiplicity       :   1
Irrep              :   0
Energy             :  -117.6237105575509929 Eh
Relativity type    :
Basis              : AO
                                X                 Y                 Z
Electronic contribution:     -0.000038105      -0.000095347      -0.000054118
Nuclear contribution   :     -0.000026843       0.000069102       0.000043624
                        -----------------------------------------
Total Dipole Moment    :     -0.000064949      -0.000026245      -0.000010494
                        -----------------------------------------
Magnitude (a.u.)       :      0.000070833
Magnitude (Debye)      :      0.000180042

Rotational constants in cm-1:             0.679981             0.679954             0.424472
Rotational constants in MHz :         20385.316797         20384.502584         12725.350997

                             ****ORCA TERMINATED NORMALLY****
TOTAL RUN TIME: 0 days 0 hours 0 minutes 4 seconds 242 msec
