                         Program Version 6.0.0  -   RELEASE  -
|  1> ! pbe def2-sv(p) def2/J RI DEFGRID1 loosescf d4 GCP(DFT/SV(P)) printgap
|  2> %output
|  3>     printlevel normal
|  4> end
|  5> * xyz 0 1
|  6> C 5.6637511508 -0.6286183173 -1.0812615507
|  7> C 4.16988071 -0.8825251569 -1.0904514669
|  8> O 3.5247143364 0.2462109972 -0.4706686433
|  9> P 1.9567213058 0.484577768 -0.6289613648
| 10> S 1.3509229202 0.4837636622 -2.4922684691
| 11> O 1.7806316083 1.8655944379 0.0991538744
| 12> C 2.5633204508 2.3199331639 1.2335185972
| 13> C 2.4461451521 1.3995940843 2.429305477
| 14> S 1.1255827724 -1.0628307413 0.5905545918
| 15> C -0.0366494746 -1.8253254034 -0.5841666562
| 16> S -1.6635786298 -2.1575367448 0.1362459352
| 17> P -2.4311078424 -0.1917275978 0.4128366449
| 18> S -1.3405724911 1.2978885285 -0.2800109112
| 19> O -2.8221482881 -0.1606145703 1.9457482235
| 20> C -1.8324403545 -0.1992455293 2.993704109
| 21> C -1.476068516 1.2049065803 3.4437440058
| 22> O -3.9184482824 -0.235547186 -0.1183131384
| 23> C -4.2560083839 0.1154786211 -1.4704159902
| 24> C -3.6824772098 -0.8636674884 -2.4759844214
| 25> H 5.8922725316 0.2719866326 -1.6443255004
| 26> H 6.0150840311 -0.5059915874 -0.0609759679
| 27> H 6.1699839104 -1.4730522742 -1.5370704762
| 28> H 3.9138252892 -1.7782717896 -0.5174051478
| 29> H 3.7860982359 -0.9860945258 -2.1110221555
| 30> H 3.6015627406 2.4159623103 0.9106202444
| 31> H 2.143129374 3.3056473537 1.4398713837
| 32> H 2.8704674176 0.4234897182 2.1995762319
| 33> H 2.9869910343 1.8340579758 3.264178213
| 34> H 1.4033308819 1.2700387631 2.7060051019
| 35> H 0.3493533743 -2.7983900543 -0.876769514
| 36> H -0.1229789528 -1.1601522397 -1.4479912559
| 37> H -2.3059116608 -0.7653103273 3.7979894596
| 38> H -0.9448276318 -0.7394428007 2.645023601
| 39> H -2.3694283457 1.7263323795 3.7757148078
| 40> H -0.76451599 1.1523107668 4.2618117584
| 41> H -1.0400755043 1.7639818791 2.6175684578
| 42> H -5.34675832 0.1066227872 -1.477453931
| 43> H -3.8917864853 1.1285701646 -1.670651799
| 44> H -4.0804126532 -0.6432495569 -3.4614524316
| 45> H -2.5969017788 -0.7690321456 -2.5115963066
| 46> H -3.940750992 -1.883139213 -2.200530997
| 47> *
| 48>
| 49>                          ****END OF INPUT****

CARTESIAN COORDINATES (ANGSTROEM)
---------------------------------
  C      5.663751   -0.628618   -1.081262
  C      4.169881   -0.882525   -1.090451
  O      3.524714    0.246211   -0.470669
  P      1.956721    0.484578   -0.628961
  S      1.350923    0.483764   -2.492268
  O      1.780632    1.865594    0.099154
  C      2.563320    2.319933    1.233519
  C      2.446145    1.399594    2.429305
  S      1.125583   -1.062831    0.590555
  C     -0.036649   -1.825325   -0.584167
  S     -1.663579   -2.157537    0.136246
  P     -2.431108   -0.191728    0.412837
  S     -1.340572    1.297889   -0.280011
  O     -2.822148   -0.160615    1.945748
  C     -1.832440   -0.199246    2.993704
  C     -1.476069    1.204907    3.443744
  O     -3.918448   -0.235547   -0.118313
  C     -4.256008    0.115479   -1.470416
  C     -3.682477   -0.863667   -2.475984
  H      5.892273    0.271987   -1.644326
  H      6.015084   -0.505992   -0.060976
  H      6.169984   -1.473052   -1.537070
  H      3.913825   -1.778272   -0.517405
  H      3.786098   -0.986095   -2.111022
  H      3.601563    2.415962    0.910620
  H      2.143129    3.305647    1.439871
  H      2.870467    0.423490    2.199576
  H      2.986991    1.834058    3.264178
  H      1.403331    1.270039    2.706005
  H      0.349353   -2.798390   -0.876770
  H     -0.122979   -1.160152   -1.447991
  H     -2.305912   -0.765310    3.797989
  H     -0.944828   -0.739443    2.645024
  H     -2.369428    1.726332    3.775715
  H     -0.764516    1.152311    4.261812
  H     -1.040076    1.763982    2.617568
  H     -5.346758    0.106623   -1.477454
  H     -3.891786    1.128570   -1.670652
  H     -4.080413   -0.643250   -3.461452
  H     -2.596902   -0.769032   -2.511596
  H     -3.940751   -1.883139   -2.200531

 Total Charge           Charge          ....    0
 Multiplicity           Mult            ....    1
 Number of Electrons    NEL             ....  202
 Basis Dimension        Dim             ....  334

ORBITAL ENERGIES
----------------

  NO   OCC          E(Eh)            E(eV)
   0   2.0000     -88.043146     -2395.7758
   1   2.0000     -88.041166     -2395.7219
   2   2.0000     -87.982601     -2394.1283
   3   2.0000     -87.981796     -2394.1064
   4   2.0000     -76.425661     -2079.6480
   5   2.0000     -76.421947     -2079.5469
   6   2.0000     -18.792725      -511.3761
   7   2.0000     -18.791870      -511.3528
   8   2.0000     -18.784259      -511.1457
   9   2.0000     -18.784011      -511.1389
  10   2.0000      -9.958760      -270.9916
  11   2.0000      -9.952434      -270.8195
  12   2.0000      -9.952191      -270.8129
  13   2.0000      -9.950605      -270.7697
  14   2.0000      -9.947625      -270.6886
  15   2.0000      -9.892904      -269.1996
  16   2.0000      -9.889725      -269.1131
  17   2.0000      -9.880355      -268.8581
  18   2.0000      -9.879847      -268.8443
  19   2.0000      -7.688102      -209.2039
  20   2.0000      -7.685411      -209.1307
  21   2.0000      -7.626967      -207.5403
  22   2.0000      -7.626933      -207.5394
  23   2.0000      -6.422667      -174.7697
  24   2.0000      -6.419208      -174.6755
  25   2.0000      -5.716035      -155.5412
  26   2.0000      -5.713294      -155.4666
  27   2.0000      -5.712330      -155.4404
  28   2.0000      -5.710000      -155.3770
  29   2.0000      -5.705325      -155.2498
  30   2.0000      -5.702463      -155.1719
  31   2.0000      -5.656031      -153.9084
  32   2.0000      -5.655870      -153.9041
  33   2.0000      -5.647518      -153.6768
  34   2.0000      -5.647348      -153.6722
  35   2.0000      -5.647306      -153.6710
  36   2.0000      -5.647099      -153.6654
  37   2.0000      -4.645647      -126.4145
  38   2.0000      -4.644236      -126.3761
  39   2.0000      -4.643000      -126.3424
  40   2.0000      -4.641462      -126.3006
  41   2.0000      -4.641315      -126.2966
  42   2.0000      -4.639604      -126.2500
  43   2.0000      -0.988986       -26.9117
  44   2.0000      -0.984522       -26.7902
  45   2.0000      -0.943727       -25.6801
  46   2.0000      -0.940133       -25.5823
  47   2.0000      -0.758713       -20.6456
  48   2.0000      -0.719939       -19.5905
  49   2.0000      -0.710054       -19.3215
  50   2.0000      -0.694866       -18.9083
  51   2.0000      -0.679425       -18.4881
  52   2.0000      -0.675852       -18.3909
  53   2.0000      -0.649406       -17.6712
  54   2.0000      -0.631897       -17.1948
  55   2.0000      -0.597463       -16.2578
  56   2.0000      -0.591793       -16.1035
  57   2.0000      -0.573907       -15.6168
  58   2.0000      -0.567046       -15.4301
  59   2.0000      -0.559427       -15.2228
  60   2.0000      -0.506661       -13.7869
  61   2.0000      -0.494857       -13.4657
  62   2.0000      -0.475608       -12.9419
  63   2.0000      -0.465169       -12.6579
  64   2.0000      -0.449707       -12.2371
  65   2.0000      -0.446624       -12.1533
  66   2.0000      -0.445422       -12.1205
  67   2.0000      -0.435107       -11.8399
  68   2.0000      -0.426686       -11.6107
  69   2.0000      -0.418283       -11.3820
  70   2.0000      -0.409725       -11.1492
  71   2.0000      -0.402082       -10.9412
  72   2.0000      -0.395668       -10.7667
  73   2.0000      -0.385444       -10.4885
  74   2.0000      -0.380904       -10.3649
  75   2.0000      -0.370262       -10.0753
  76   2.0000      -0.365033        -9.9331
  77   2.0000      -0.357766        -9.7353
  78   2.0000      -0.354979        -9.6595
  79   2.0000      -0.352594        -9.5946
  80   2.0000      -0.346669        -9.4333
  81   2.0000      -0.343965        -9.3598
  82   2.0000      -0.339403        -9.2356
  83   2.0000      -0.334723        -9.1083
  84   2.0000      -0.330970        -9.0061
  85   2.0000      -0.315616        -8.5884
  86   2.0000      -0.311534        -8.4773
  87   2.0000      -0.302798        -8.2396
  88   2.0000      -0.296306        -8.0629
  89   2.0000      -0.293334        -7.9820
  90   2.0000      -0.286217        -7.7884
  91   2.0000      -0.275287        -7.4910
  92   2.0000      -0.266101        -7.2410
  93   2.0000      -0.259673        -7.0661
  94   2.0000      -0.253731        -6.9044
  95   2.0000      -0.237730        -6.4690
  96   2.0000      -0.220970        -6.0129
  97   2.0000      -0.212598        -5.7851
  98   2.0000      -0.198099        -5.3905
  99   2.0000      -0.193054        -5.2533
 100   2.0000      -0.183755        -5.0002
 101   0.0000      -0.042553        -1.1579
 102   0.0000      -0.036223        -0.9857
 103   0.0000      -0.012155        -0.3308
 104   0.0000       0.008890         0.2419
 105   0.0000       0.012265         0.3337

MULLIKEN ATOMIC CHARGES
-----------------------
   0 C :   -0.280975
   1 C :   -0.005423
   2 O :   -0.388855
   3 P :    0.624325
   4 S :   -0.299170
   5 O :   -0.356835
   6 C :    0.012874
   7 C :   -0.358239
   8 S :   -0.131960
   9 C :   -0.338033
  10 S :   -0.113808
  11 P :    0.583002
  12 S :   -0.308952
  13 O :   -0.354016
  14 C :   -0.023137
  15 C :   -0.301111
  16 O :   -0.355518
  17 C :    0.002267
  18 C :   -0.329803
  19 H :    0.120920
  20 H :    0.112727
  21 H :    0.112107
  22 H :    0.096166
  23 H :    0.102764
  24 H :    0.111870
  25 H :    0.113848
  26 H :    0.126941
  27 H :    0.116941
  28 H :    0.145050
  29 H :    0.175515
  30 H :    0.219021
  31 H :    0.105795
  32 H :    0.110663
  33 H :    0.115873
  34 H :    0.107659
  35 H :    0.140938
  36 H :    0.105704
  37 H :    0.114455
  38 H :    0.112876
  39 H :    0.137140
  40 H :    0.118391
Sum of atomic charges:   -0.0000000

LOEWDIN ATOMIC CHARGES
----------------------
   0 C :   -0.350520
   1 C :   -0.124179
   2 O :   -0.254044
   3 P :    0.576536
   4 S :   -0.293851
   5 O :   -0.228252
   6 C :   -0.104628
   7 C :   -0.373628
   8 S :    0.059715
   9 C :   -0.482126
  10 S :    0.074266
  11 P :    0.561355
  12 S :   -0.297578
  13 O :   -0.236717
  14 C :   -0.118421
  15 C :   -0.365588
  16 O :   -0.234617
  17 C :   -0.117139
  18 C :   -0.370416
  19 H :    0.128923
  20 H :    0.124659
  21 H :    0.131018
  22 H :    0.104908
  23 H :    0.107038
  24 H :    0.115745
  25 H :    0.124960
  26 H :    0.117384
  27 H :    0.134001
  28 H :    0.130224
  29 H :    0.134464
  30 H :    0.122013
  31 H :    0.118294
  32 H :    0.098388
  33 H :    0.127559
  34 H :    0.125612
  35 H :    0.124421
  36 H :    0.119280
  37 H :    0.112243
  38 H :    0.131090
  39 H :    0.123512
  40 H :    0.124098

  Mayer bond orders larger than 0.100000
B(  0-C ,  1-C ) :   1.1604 B(  0-C , 19-H ) :   0.9510 B(  0-C , 20-H ) :   0.9517
B(  0-C , 21-H ) :   0.9421 B(  1-C ,  2-O ) :   0.9072 B(  1-C , 22-H ) :   0.9234
B(  1-C , 23-H ) :   0.9079 B(  2-O ,  3-P ) :   1.0584 B(  3-P ,  4-S ) :   1.6368
B(  3-P ,  5-O ) :   1.1431 B(  3-P ,  8-S ) :   0.9283 B(  4-S ,  8-S ) :   0.1201
B(  4-S , 30-H ) :   0.1084 B(  5-O ,  6-C ) :   0.8979 B(  6-C ,  7-C ) :   1.1705
B(  6-C , 24-H ) :   0.9280 B(  6-C , 25-H ) :   0.9320 B(  7-C , 26-H ) :   0.9312
B(  7-C , 27-H ) :   0.9339 B(  7-C , 28-H ) :   0.9292 B(  8-S ,  9-C ) :   0.9933
B(  9-C , 10-S ) :   1.0033 B(  9-C , 29-H ) :   0.9084 B(  9-C , 30-H ) :   0.8402
B( 10-S , 11-P ) :   0.9348 B( 10-S , 12-S ) :   0.1232 B( 11-P , 12-S ) :   1.6205
B( 11-P , 13-O ) :   1.1281 B( 11-P , 16-O ) :   1.1297 B( 13-O , 14-C ) :   0.9115
B( 14-C , 15-C ) :   1.1740 B( 14-C , 31-H ) :   0.9358 B( 14-C , 32-H ) :   0.9024
B( 15-C , 33-H ) :   0.9423 B( 15-C , 34-H ) :   0.9342 B( 15-C , 35-H ) :   0.9208
B( 16-O , 17-C ) :   0.9135 B( 17-C , 18-C ) :   1.1619 B( 17-C , 36-H ) :   0.9343
B( 17-C , 37-H ) :   0.9169 B( 18-C , 38-H ) :   0.9373 B( 18-C , 39-H ) :   0.9330
B( 18-C , 40-H ) :   0.9433

Dispersion correction           -0.066298697
FINAL SINGLE POINT ENERGY     -2929.516754215821

DIPOLE MOMENT
-------------

Method             : SCF
Type of density    : Electron Density
Multiplicity       :   1
Irrep              :   0
Energy             : -2929.6347475925340405 Eh
Relativity type    :
Basis              : AO
                                X                 Y                 Z
Electronic contribution:    -10.527628098      -2.124077677      -6.938974388
Nuclear contribution   :     11.420529157       1.584986582       7.874118549
                        -----------------------------------------
Total Dipole Moment    :      0.892901059      -0.539091095       0.935144161
                        -----------------------------------------
Magnitude (a.u.)       :      1.400851923
Magnitude (Debye)      :      3.560682617

Rotational constants in cm-1:             0.012153             0.005367             0.004679
Rotational constants in MHz :           364.344491           160.889626           140.278873

                             ****ORCA TERMINATED NORMALLY****
TOTAL RUN TIME: 0 days 0 hours 0 minutes 21 seconds 161 msec
