                         Program Version 6.0.0  -   RELEASE  -
|  1> ! pbe def2-sv(p) def2/J RI DEFGRID1 loosescf d4 GCP(DFT/SV(P)) printgap
|  2> %output
|  3>     printlevel normal
|  4> end
|  5> * xyz 0 1
|  6> C 5.3921147111 -0.065136002 -0.7982924811
|  7> C 4.419589894 -0.8077621371 0.0975200329
|  8> O 3.3719689935 0.0694500109 0.5561635709
|  9> P 1.9565280155 0.1518562685 -0.1680597692
| 10> S 1.9988954732 0.4526001406 -2.1092214792
| 11> O 1.2391219283 1.2404419665 0.7279240211
| 12> C 1.2876873672 2.6459578441 0.418943777
| 13> C 2.6872344389 3.2045614509 0.5553192813
| 14> S 1.0719297271 -1.6401862087 0.4771866715
| 15> C -0.1629709537 -1.9316741224 -0.8361459312
| 16> S -1.8566377123 -1.9740973715 -0.2129857287
| 17> P -2.1054672854 0.1080907193 0.1343230889
| 18> S -1.4185499637 1.2867788223 -1.2685552335
| 19> O -1.4707343427 0.4264102935 1.5428265145
| 20> C -1.9497899529 -0.1326020679 2.7970629679
| 21> C -1.0109133506 -1.2096130588 3.3014565159
| 22> O -3.659656549 0.2450398064 0.4406181269
| 23> C -4.6458201496 0.4366924094 -0.5901287554
| 24> C -4.7856201945 -0.7733137164 -1.4905105227
| 25> H 4.8851214341 0.2806232336 -1.6966865986
| 26> H 5.8043121018 0.7923977116 -0.2738430696
| 27> H 6.1977970248 -0.7339466431 -1.0828940265
| 28> H 4.9055495236 -1.1577619033 1.0100266695
| 29> H 3.9755301314 -1.6578092233 -0.4283801708
| 30> H 0.9038928729 2.7915969755 -0.5968108362
| 31> H 0.5933078042 3.0914300781 1.1332128224
| 32> H 3.0871924355 2.9768814535 1.5399510283
| 33> H 3.334056628 2.7611247379 -0.2008829417
| 34> H 2.6597283411 4.2800960164 0.4110029281
| 35> H 0.0274236124 -2.9138512187 -1.2605900416
| 36> H -0.0601333381 -1.148265606 -1.59245826
| 37> H -1.9742068439 0.7201384069 3.4775186728
| 38> H -2.9606383808 -0.5165490579 2.6516603508
| 39> H 0.0058360207 -0.8274387395 3.3472765078
| 40> H -1.3252090202 -1.5108169364 4.2957386518
| 41> H -1.0247179471 -2.0774018003 2.6464719537
| 42> H -5.5631100999 0.6329522607 -0.0330790474
| 43> H -4.3672939814 1.3203800671 -1.1723987975
| 44> H -4.9322891765 -1.6726945342 -0.8978725442
| 45> H -5.6371172111 -0.6307969642 -2.1481535981
| 46> H -3.8898590351 -0.8938922688 -2.0974278504
| 47> *
| 48>
| 49>                          ****END OF INPUT****

CARTESIAN COORDINATES (ANGSTROEM)
---------------------------------
  C      5.392115   -0.065136   -0.798292
  C      4.419590   -0.807762    0.097520
  O      3.371969    0.069450    0.556164
  P      1.956528    0.151856   -0.168060
  S      1.998895    0.452600   -2.109221
  O      1.239122    1.240442    0.727924
  C      1.287687    2.645958    0.418944
  C      2.687234    3.204561    0.555319
  S      1.071930   -1.640186    0.477187
  C     -0.162971   -1.931674   -0.836146
  S     -1.856638   -1.974097   -0.212986
  P     -2.105467    0.108091    0.134323
  S     -1.418550    1.286779   -1.268555
  O     -1.470734    0.426410    1.542827
  C     -1.949790   -0.132602    2.797063
  C     -1.010913   -1.209613    3.301457
  O     -3.659657    0.245040    0.440618
  C     -4.645820    0.436692   -0.590129
  C     -4.785620   -0.773314   -1.490511
  H      4.885121    0.280623   -1.696687
  H      5.804312    0.792398   -0.273843
  H      6.197797   -0.733947   -1.082894
  H      4.905550   -1.157762    1.010027
  H      3.975530   -1.657809   -0.428380
  H      0.903893    2.791597   -0.596811
  H      0.593308    3.091430    1.133213
  H      3.087192    2.976881    1.539951
  H      3.334057    2.761125   -0.200883
  H      2.659728    4.280096    0.411003
  H      0.027424   -2.913851   -1.260590
  H     -0.060133   -1.148266   -1.592458
  H     -1.974207    0.720138    3.477519
  H     -2.960638   -0.516549    2.651660
  H      0.005836   -0.827439    3.347277
  H     -1.325209   -1.510817    4.295739
  H     -1.024718   -2.077402    2.646472
  H     -5.563110    0.632952   -0.033079
  H     -4.367294    1.320380   -1.172399
  H     -4.932289   -1.672695   -0.897873
  H     -5.637117   -0.630797   -2.148154
  H     -3.889859   -0.893892   -2.097428

 Total Charge           Charge          ....    0
 Multiplicity           Mult            ....    1
 Number of Electrons    NEL             ....  202
 Basis Dimension        Dim             ....  334

ORBITAL ENERGIES
----------------

  NO   OCC          E(Eh)            E(eV)
   0   2.0000     -88.043991     -2395.7988
   1   2.0000     -88.039688     -2395.6817
   2   2.0000     -87.982629     -2394.1290
   3   2.0000     -87.980159     -2394.0618
   4   2.0000     -76.424731     -2079.6227
   5   2.0000     -76.420145     -2079.4979
   6   2.0000     -18.795335      -511.4471
   7   2.0000     -18.787535      -511.2348
   8   2.0000     -18.787354      -511.2299
   9   2.0000     -18.779219      -511.0085
  10   2.0000      -9.954456      -270.8745
  11   2.0000      -9.953984      -270.8617
  12   2.0000      -9.953402      -270.8458
  13   2.0000      -9.950211      -270.7590
  14   2.0000      -9.937939      -270.4251
  15   2.0000      -9.885038      -268.9855
  16   2.0000      -9.880033      -268.8494
  17   2.0000      -9.877946      -268.7926
  18   2.0000      -9.874976      -268.7117
  19   2.0000      -7.689037      -209.2293
  20   2.0000      -7.684905      -209.1169
  21   2.0000      -7.627528      -207.5556
  22   2.0000      -7.625069      -207.4887
  23   2.0000      -6.422221      -174.7575
  24   2.0000      -6.417653      -174.6332
  25   2.0000      -5.716822      -155.5626
  26   2.0000      -5.713472      -155.4715
  27   2.0000      -5.712751      -155.4518
  28   2.0000      -5.709290      -155.3577
  29   2.0000      -5.706166      -155.2727
  30   2.0000      -5.701937      -155.1576
  31   2.0000      -5.656520      -153.9217
  32   2.0000      -5.653930      -153.8513
  33   2.0000      -5.648016      -153.6903
  34   2.0000      -5.647720      -153.6823
  35   2.0000      -5.645830      -153.6309
  36   2.0000      -5.645157      -153.6125
  37   2.0000      -4.645145      -126.4008
  38   2.0000      -4.643891      -126.3667
  39   2.0000      -4.642445      -126.3274
  40   2.0000      -4.640003      -126.2609
  41   2.0000      -4.639335      -126.2427
  42   2.0000      -4.638416      -126.2177
  43   2.0000      -0.987249       -26.8644
  44   2.0000      -0.979716       -26.6594
  45   2.0000      -0.942659       -25.6510
  46   2.0000      -0.937023       -25.4977
  47   2.0000      -0.761270       -20.7152
  48   2.0000      -0.718380       -19.5481
  49   2.0000      -0.706068       -19.2131
  50   2.0000      -0.688886       -18.7455
  51   2.0000      -0.680390       -18.5143
  52   2.0000      -0.672204       -18.2916
  53   2.0000      -0.648629       -17.6501
  54   2.0000      -0.631850       -17.1935
  55   2.0000      -0.597373       -16.2553
  56   2.0000      -0.588000       -16.0003
  57   2.0000      -0.574066       -15.6211
  58   2.0000      -0.564030       -15.3480
  59   2.0000      -0.557245       -15.1634
  60   2.0000      -0.501212       -13.6387
  61   2.0000      -0.493912       -13.4400
  62   2.0000      -0.472132       -12.8474
  63   2.0000      -0.465810       -12.6753
  64   2.0000      -0.449736       -12.2379
  65   2.0000      -0.443676       -12.0730
  66   2.0000      -0.438719       -11.9382
  67   2.0000      -0.433447       -11.7947
  68   2.0000      -0.427661       -11.6372
  69   2.0000      -0.415743       -11.3129
  70   2.0000      -0.407516       -11.0891
  71   2.0000      -0.394586       -10.7372
  72   2.0000      -0.389047       -10.5865
  73   2.0000      -0.382190       -10.3999
  74   2.0000      -0.375433       -10.2161
  75   2.0000      -0.368360       -10.0236
  76   2.0000      -0.366225        -9.9655
  77   2.0000      -0.353908        -9.6303
  78   2.0000      -0.353788        -9.6271
  79   2.0000      -0.348578        -9.4853
  80   2.0000      -0.341456        -9.2915
  81   2.0000      -0.341040        -9.2802
  82   2.0000      -0.336120        -9.1463
  83   2.0000      -0.333080        -9.0636
  84   2.0000      -0.328327        -8.9342
  85   2.0000      -0.314687        -8.5631
  86   2.0000      -0.308637        -8.3984
  87   2.0000      -0.300126        -8.1668
  88   2.0000      -0.293787        -7.9944
  89   2.0000      -0.291589        -7.9345
  90   2.0000      -0.276143        -7.5142
  91   2.0000      -0.268985        -7.3194
  92   2.0000      -0.262991        -7.1563
  93   2.0000      -0.260730        -7.0948
  94   2.0000      -0.257487        -7.0066
  95   2.0000      -0.233584        -6.3561
  96   2.0000      -0.220740        -6.0067
  97   2.0000      -0.213618        -5.8128
  98   2.0000      -0.202245        -5.5034
  99   2.0000      -0.192564        -5.2399
 100   2.0000      -0.184154        -5.0111
 101   0.0000      -0.038283        -1.0417
 102   0.0000      -0.029047        -0.7904
 103   0.0000      -0.009201        -0.2504
 104   0.0000       0.013237         0.3602
 105   0.0000       0.019449         0.5292

MULLIKEN ATOMIC CHARGES
-----------------------
   0 C :   -0.292226
   1 C :   -0.007422
   2 O :   -0.375603
   3 P :    0.606283
   4 S :   -0.319762
   5 O :   -0.351898
   6 C :   -0.002856
   7 C :   -0.305520
   8 S :   -0.095826
   9 C :   -0.354122
  10 S :   -0.109323
  11 P :    0.605161
  12 S :   -0.297882
  13 O :   -0.347868
  14 C :   -0.018742
  15 C :   -0.283673
  16 O :   -0.384233
  17 C :    0.001147
  18 C :   -0.319779
  19 H :    0.128377
  20 H :    0.113648
  21 H :    0.105891
  22 H :    0.104530
  23 H :    0.097724
  24 H :    0.123431
  25 H :    0.100541
  26 H :    0.111972
  27 H :    0.123623
  28 H :    0.108432
  29 H :    0.182229
  30 H :    0.209827
  31 H :    0.108305
  32 H :    0.106983
  33 H :    0.123972
  34 H :    0.104464
  35 H :    0.120410
  36 H :    0.104298
  37 H :    0.112573
  38 H :    0.116566
  39 H :    0.114731
  40 H :    0.131617
Sum of atomic charges:   -0.0000000

LOEWDIN ATOMIC CHARGES
----------------------
   0 C :   -0.363596
   1 C :   -0.117561
   2 O :   -0.247764
   3 P :    0.566941
   4 S :   -0.313788
   5 O :   -0.229552
   6 C :   -0.118822
   7 C :   -0.366665
   8 S :    0.086927
   9 C :   -0.479547
  10 S :    0.074747
  11 P :    0.565847
  12 S :   -0.286563
  13 O :   -0.233044
  14 C :   -0.110021
  15 C :   -0.363870
  16 O :   -0.249346
  17 C :   -0.116111
  18 C :   -0.371450
  19 H :    0.124428
  20 H :    0.124601
  21 H :    0.127887
  22 H :    0.117239
  23 H :    0.105586
  24 H :    0.108979
  25 H :    0.117714
  26 H :    0.123778
  27 H :    0.121464
  28 H :    0.128893
  29 H :    0.137522
  30 H :    0.126638
  31 H :    0.121039
  32 H :    0.109821
  33 H :    0.127025
  34 H :    0.126649
  35 H :    0.114826
  36 H :    0.118322
  37 H :    0.112930
  38 H :    0.122809
  39 H :    0.132027
  40 H :    0.123060

  Mayer bond orders larger than 0.100000
B(  0-C ,  1-C ) :   1.1681 B(  0-C , 19-H ) :   0.9308 B(  0-C , 20-H ) :   0.9458
B(  0-C , 21-H ) :   0.9399 B(  1-C ,  2-O ) :   0.9081 B(  1-C , 22-H ) :   0.9361
B(  1-C , 23-H ) :   0.9127 B(  2-O ,  3-P ) :   1.0935 B(  3-P ,  4-S ) :   1.6002
B(  3-P ,  5-O ) :   1.1501 B(  3-P ,  8-S ) :   0.9706 B(  4-S ,  8-S ) :   0.1163
B(  5-O ,  6-C ) :   0.9015 B(  6-C ,  7-C ) :   1.1584 B(  6-C , 24-H ) :   0.9121
B(  6-C , 25-H ) :   0.9357 B(  7-C , 26-H ) :   0.9448 B(  7-C , 27-H ) :   0.9347
B(  7-C , 28-H ) :   0.9388 B(  8-S ,  9-C ) :   0.9923 B(  9-C , 10-S ) :   1.0081
B(  9-C , 29-H ) :   0.9113 B(  9-C , 30-H ) :   0.8472 B( 10-S , 11-P ) :   0.9370
B( 10-S , 12-S ) :   0.1054 B( 11-P , 12-S ) :   1.6423 B( 11-P , 13-O ) :   1.1459
B( 11-P , 16-O ) :   1.0825 B( 13-O , 14-C ) :   0.8933 B( 14-C , 15-C ) :   1.1685
B( 14-C , 31-H ) :   0.9352 B( 14-C , 32-H ) :   0.9187 B( 15-C , 33-H ) :   0.9424
B( 15-C , 34-H ) :   0.9370 B( 15-C , 35-H ) :   0.9335 B( 16-O , 17-C ) :   0.9055
B( 17-C , 18-C ) :   1.1670 B( 17-C , 36-H ) :   0.9344 B( 17-C , 37-H ) :   0.9168
B( 18-C , 38-H ) :   0.9437 B( 18-C , 39-H ) :   0.9370 B( 18-C , 40-H ) :   0.9347

Dispersion correction           -0.068106603
FINAL SINGLE POINT ENERGY     -2929.520444361184

DIPOLE MOMENT
-------------

Method             : SCF
Type of density    : Electron Density
Multiplicity       :   1
Irrep              :   0
Energy             : -2929.6381024183688169 Eh
Relativity type    :
Basis              : AO
                                X                 Y                 Z
Electronic contribution:     -4.939600119      -3.987667649      -5.686936609
Nuclear contribution   :      4.489272927       3.516223971       6.765310251
                        -----------------------------------------
Total Dipole Moment    :     -0.450327192      -0.471443678       1.078373642
                        -----------------------------------------
Magnitude (a.u.)       :      1.260136276
Magnitude (Debye)      :      3.203011865

Rotational constants in cm-1:             0.013368             0.005188             0.005044
Rotational constants in MHz :           400.747796           155.531791           151.222185

                             ****ORCA TERMINATED NORMALLY****
TOTAL RUN TIME: 0 days 0 hours 0 minutes 21 seconds 228 msec
