                         Program Version 6.0.1  -  RELEASE   -
|  1> ! pbe def2-sv(p) def2/J RI DEFGRID1 loosescf d4 GCP(DFT/SV(P)) printgap
|  2> %output
|  3>     printlevel normal
|  4> end
|  5> * xyz 0 1
|  6> C 3.0183368822 -2.8255976835 1.352532923
|  7> C 3.1032279023 -1.3115862401 1.2619714671
|  8> O 2.7771602445 -0.882593004 -0.0755123697
|  9> C 1.6454690512 -0.2836937935 -0.3174287
| 10> O 0.818982651 0.0295757331 0.5294668825
| 11> C 1.4458605865 0.0432597065 -1.7761491676
| 12> C 0.2382280102 0.9617726483 -1.9000997502
| 13> H 0.1875058761 1.406753283 -2.897120819
| 14> C 0.2759946374 2.0777793779 -0.8633248613
| 15> O -0.6910386018 2.4849268861 -0.2641525775
| 16> O 1.495850082 2.5691307432 -0.7629845151
| 17> C 1.7533818371 3.6099232701 0.2025439986
| 18> C 2.4945933379 3.0339037294 1.3980882479
| 19> S -1.3589555736 0.0857505699 -1.7762846496
| 20> P -1.6255629476 -0.782509579 0.1407967376
| 21> S -0.6900704794 -2.426966784 0.6873326749
| 22> O -1.8715279438 0.3416237013 1.2274737238
| 23> C -1.1786727665 0.4722355262 2.4648539081
| 24> O -3.1846375903 -1.1116197091 -0.0679401154
| 25> C -3.6248185191 -2.1664309444 -0.9260094678
| 26> H 3.6596615756 -3.2797678128 0.6033402702
| 27> H 3.3360316658 -3.1431667131 2.339934211
| 28> H 1.9938331293 -3.1551043169 1.1885052134
| 29> H 4.1227177211 -0.9617993241 1.4329351897
| 30> H 2.41490553 -0.8354908427 1.9650259818
| 31> H 1.286167827 -0.881438136 -2.3338459761
| 32> H 2.3454480684 0.5275483967 -2.1573236024
| 33> H 2.3623131113 4.3446758043 -0.3257997468
| 34> H 0.798878349 4.0520147589 0.5010537378
| 35> H 2.6689914577 3.8182367413 2.1269165366
| 36> H 1.9017480566 2.2462878528 1.8601599847
| 37> H 3.4467156936 2.6157161005 1.0835085313
| 38> H -1.9355830948 0.6600721839 3.2235724148
| 39> H -0.4921682802 1.3145634833 2.3905420102
| 40> H -0.626505289 -0.4415110101 2.6934862332
| 41> H -3.0238349699 -3.0625660181 -0.7560746847
| 42> H -3.5490166512 -1.8591026126 -1.9689159273
| 43> H -4.6616175436 -2.35045366 -0.6554622512
| 44> *
| 45>
| 46>                          ****END OF INPUT****

CARTESIAN COORDINATES (ANGSTROEM)
---------------------------------
  C      3.018337   -2.825598    1.352533
  C      3.103228   -1.311586    1.261971
  O      2.777160   -0.882593   -0.075512
  C      1.645469   -0.283694   -0.317429
  O      0.818983    0.029576    0.529467
  C      1.445861    0.043260   -1.776149
  C      0.238228    0.961773   -1.900100
  H      0.187506    1.406753   -2.897121
  C      0.275995    2.077779   -0.863325
  O     -0.691039    2.484927   -0.264153
  O      1.495850    2.569131   -0.762985
  C      1.753382    3.609923    0.202544
  C      2.494593    3.033904    1.398088
  S     -1.358956    0.085751   -1.776285
  P     -1.625563   -0.782510    0.140797
  S     -0.690070   -2.426967    0.687333
  O     -1.871528    0.341624    1.227474
  C     -1.178673    0.472236    2.464854
  O     -3.184638   -1.111620   -0.067940
  C     -3.624819   -2.166431   -0.926009
  H      3.659662   -3.279768    0.603340
  H      3.336032   -3.143167    2.339934
  H      1.993833   -3.155104    1.188505
  H      4.122718   -0.961799    1.432935
  H      2.414906   -0.835491    1.965026
  H      1.286168   -0.881438   -2.333846
  H      2.345448    0.527548   -2.157324
  H      2.362313    4.344676   -0.325800
  H      0.798878    4.052015    0.501054
  H      2.668991    3.818237    2.126917
  H      1.901748    2.246288    1.860160
  H      3.446716    2.615716    1.083509
  H     -1.935583    0.660072    3.223572
  H     -0.492168    1.314563    2.390542
  H     -0.626505   -0.441511    2.693486
  H     -3.023835   -3.062566   -0.756075
  H     -3.549017   -1.859103   -1.968916
  H     -4.661618   -2.350454   -0.655462

 Total Charge           Charge          ....    0
 Multiplicity           Mult            ....    1
 Number of Electrons    NEL             ....  174
 Basis Dimension        Dim             ....  316

ORBITAL ENERGIES
----------------

  NO   OCC          E(Eh)            E(eV)
   0   2.0000     -88.029773     -2395.4119
   1   2.0000     -87.966768     -2393.6975
   2   2.0000     -76.415426     -2079.3694
   3   2.0000     -18.818918      -512.0888
   4   2.0000     -18.809366      -511.8289
   5   2.0000     -18.775207      -510.8994
   6   2.0000     -18.770178      -510.7625
   7   2.0000     -18.759880      -510.4823
   8   2.0000     -18.736599      -509.8488
   9   2.0000     -10.027342      -272.8579
  10   2.0000     -10.016023      -272.5498
  11   2.0000      -9.954937      -270.8876
  12   2.0000      -9.953146      -270.8389
  13   2.0000      -9.951089      -270.7829
  14   2.0000      -9.928403      -270.1656
  15   2.0000      -9.927962      -270.1536
  16   2.0000      -9.919371      -269.9198
  17   2.0000      -9.894226      -269.2356
  18   2.0000      -9.885051      -268.9859
  19   2.0000      -7.674656      -208.8380
  20   2.0000      -7.611973      -207.1323
  21   2.0000      -6.411279      -174.4598
  22   2.0000      -5.703136      -155.1902
  23   2.0000      -5.698926      -155.0757
  24   2.0000      -5.691229      -154.8662
  25   2.0000      -5.640952      -153.4981
  26   2.0000      -5.632711      -153.2738
  27   2.0000      -5.631863      -153.2508
  28   2.0000      -4.633785      -126.0917
  29   2.0000      -4.633538      -126.0850
  30   2.0000      -4.631689      -126.0347
  31   2.0000      -1.028608       -27.9899
  32   2.0000      -1.015069       -27.6214
  33   2.0000      -0.968038       -26.3416
  34   2.0000      -0.935530       -25.4571
  35   2.0000      -0.923865       -25.1397
  36   2.0000      -0.917893       -24.9771
  37   2.0000      -0.765711       -20.8361
  38   2.0000      -0.718639       -19.5552
  39   2.0000      -0.708653       -19.2834
  40   2.0000      -0.686540       -18.6817
  41   2.0000      -0.655286       -17.8313
  42   2.0000      -0.624055       -16.9814
  43   2.0000      -0.616104       -16.7650
  44   2.0000      -0.608179       -16.5494
  45   2.0000      -0.597508       -16.2590
  46   2.0000      -0.568377       -15.4663
  47   2.0000      -0.512465       -13.9449
  48   2.0000      -0.511099       -13.9077
  49   2.0000      -0.495321       -13.4784
  50   2.0000      -0.490759       -13.3542
  51   2.0000      -0.462839       -12.5945
  52   2.0000      -0.457541       -12.4503
  53   2.0000      -0.452880       -12.3235
  54   2.0000      -0.444766       -12.1027
  55   2.0000      -0.434352       -11.8193
  56   2.0000      -0.417581       -11.3629
  57   2.0000      -0.414038       -11.2666
  58   2.0000      -0.408369       -11.1123
  59   2.0000      -0.401880       -10.9357
  60   2.0000      -0.399506       -10.8711
  61   2.0000      -0.395382       -10.7589
  62   2.0000      -0.389143       -10.5891
  63   2.0000      -0.383803       -10.4438
  64   2.0000      -0.380761       -10.3610
  65   2.0000      -0.373095       -10.1524
  66   2.0000      -0.363568        -9.8932
  67   2.0000      -0.356173        -9.6920
  68   2.0000      -0.346369        -9.4252
  69   2.0000      -0.343064        -9.3352
  70   2.0000      -0.337685        -9.1889
  71   2.0000      -0.332893        -9.0585
  72   2.0000      -0.327570        -8.9136
  73   2.0000      -0.304186        -8.2773
  74   2.0000      -0.301342        -8.1999
  75   2.0000      -0.298699        -8.1280
  76   2.0000      -0.286254        -7.7894
  77   2.0000      -0.277770        -7.5585
  78   2.0000      -0.269818        -7.3421
  79   2.0000      -0.264785        -7.2052
  80   2.0000      -0.250173        -6.8076
  81   2.0000      -0.247778        -6.7424
  82   2.0000      -0.240403        -6.5417
  83   2.0000      -0.226583        -6.1656
  84   2.0000      -0.215981        -5.8771
  85   2.0000      -0.185510        -5.0480
  86   2.0000      -0.178999        -4.8708
  87   0.0000      -0.048273        -1.3136
  88   0.0000      -0.026746        -0.7278
  89   0.0000      -0.021987        -0.5983
  90   0.0000      -0.005328        -0.1450
  91   0.0000       0.025719         0.6999

MULLIKEN ATOMIC CHARGES
-----------------------
   0 C :   -0.300260
   1 C :   -0.029810
   2 O :   -0.209712
   3 C :    0.146532
   4 O :   -0.230504
   5 C :   -0.057457
   6 C :   -0.302308
   7 H :    0.147318
   8 C :    0.186974
   9 O :   -0.162156
  10 O :   -0.249832
  11 C :   -0.016557
  12 C :   -0.322643
  13 S :   -0.092437
  14 P :    0.643818
  15 S :   -0.372192
  16 O :   -0.349511
  17 C :   -0.097934
  18 O :   -0.375758
  19 C :   -0.103586
  20 H :    0.111589
  21 H :    0.110231
  22 H :    0.142690
  23 H :    0.104531
  24 H :    0.122837
  25 H :    0.138089
  26 H :    0.123763
  27 H :    0.104894
  28 H :    0.119083
  29 H :    0.115406
  30 H :    0.144763
  31 H :    0.111321
  32 H :    0.115985
  33 H :    0.122124
  34 H :    0.115519
  35 H :    0.111981
  36 H :    0.112625
  37 H :    0.120584
Sum of atomic charges:    0.0000000

LOEWDIN ATOMIC CHARGES
----------------------
   0 C :   -0.357364
   1 C :   -0.107372
   2 O :   -0.032384
   3 C :    0.045104
   4 O :   -0.163848
   5 C :   -0.253101
   6 C :   -0.264428
   7 H :    0.152588
   8 C :    0.007986
   9 O :   -0.146273
  10 O :   -0.066071
  11 C :   -0.108780
  12 C :   -0.357752
  13 S :    0.113015
  14 P :    0.583496
  15 S :   -0.345461
  16 O :   -0.220785
  17 C :   -0.208920
  18 O :   -0.257925
  19 C :   -0.221196
  20 H :    0.124635
  21 H :    0.130521
  22 H :    0.127419
  23 H :    0.117722
  24 H :    0.122073
  25 H :    0.150913
  26 H :    0.147530
  27 H :    0.118129
  28 H :    0.123589
  29 H :    0.131422
  30 H :    0.129553
  31 H :    0.123185
  32 H :    0.116678
  33 H :    0.109613
  34 H :    0.105481
  35 H :    0.105446
  36 H :    0.105456
  37 H :    0.120106

  Mayer bond orders larger than 0.100000
B(  0-C ,  1-C ) :   1.1795 B(  0-C , 20-H ) :   0.9480 B(  0-C , 21-H ) :   0.9415
B(  0-C , 22-H ) :   0.9285 B(  1-C ,  2-O ) :   0.8945 B(  1-C , 23-H ) :   0.9346
B(  1-C , 24-H ) :   0.9071 B(  2-O ,  3-C ) :   1.2955 B(  3-C ,  4-O ) :   1.8460
B(  3-C ,  5-C ) :   1.0134 B(  5-C ,  6-C ) :   1.0287 B(  5-C , 25-H ) :   0.8802
B(  5-C , 26-H ) :   0.8752 B(  6-C ,  7-H ) :   0.8648 B(  6-C ,  8-C ) :   0.8696
B(  6-C , 13-S ) :   1.0590 B(  8-C ,  9-O ) :   2.1133 B(  8-C , 10-O ) :   1.2108
B( 10-O , 11-C ) :   0.9102 B( 11-C , 12-C ) :   1.1773 B( 11-C , 27-H ) :   0.9369
B( 11-C , 28-H ) :   0.9061 B( 12-C , 29-H ) :   0.9424 B( 12-C , 30-H ) :   0.9326
B( 12-C , 31-H ) :   0.9479 B( 13-S , 14-P ) :   0.9604 B( 13-S , 15-S ) :   0.1121
B( 14-P , 15-S ) :   1.5528 B( 14-P , 16-O ) :   1.1454 B( 14-P , 18-O ) :   1.0677
B( 16-O , 17-C ) :   0.9324 B( 17-C , 32-H ) :   0.9523 B( 17-C , 33-H ) :   0.9471
B( 17-C , 34-H ) :   0.9298 B( 18-O , 19-C ) :   0.9455 B( 19-C , 35-H ) :   0.9282
B( 19-C , 36-H ) :   0.9475 B( 19-C , 37-H ) :   0.9597

Dispersion correction           -0.055542819
FINAL SINGLE POINT ENERGY     -1979.005125177649

DIPOLE MOMENT
-------------

Method             : SCF
Type of density    : Electron Density
Multiplicity       :   1
Irrep              :   0
Energy             : -1979.1352634010108886 Eh
Relativity type    :
Basis              : AO
                                X                 Y                 Z
Electronic contribution:    -14.901980970      -1.178573260      -9.692189087
Nuclear contribution   :     16.734394040       1.770449902       9.591114233
                        -----------------------------------------
Total Dipole Moment    :      1.832413071       0.591876642      -0.101074854
                        -----------------------------------------
Magnitude (a.u.)       :      1.928282072
Magnitude (Debye)      :      4.901303513

Rotational constants in cm-1:             0.012538             0.009067             0.007055
Rotational constants in MHz :           375.873809           271.830470           211.492430

                             ****ORCA TERMINATED NORMALLY****
TOTAL RUN TIME: 0 days 0 hours 0 minutes 28 seconds 197 msec
