                         Program Version 6.0.1  -  RELEASE   -
|  1> ! pbe def2-sv(p) def2/J RI DEFGRID1 loosescf d4 GCP(DFT/SV(P)) printgap
|  2> %output
|  3>     printlevel normal
|  4> end
|  5> * xyz 0 1
|  6> C 3.5600105861 -3.9743193394 -0.8466194515
|  7> C 4.1840297817 -2.6620540748 -1.2938504999
|  8> O 3.211644152 -1.8377370645 -1.9679734209
|  9> C 2.4408419889 -1.0575505638 -1.2440982558
| 10> O 2.5025138375 -0.9492228911 -0.0360718803
| 11> C 1.4657989489 -0.2750728003 -2.0985268957
| 12> C 0.415060332 0.3669883423 -1.2033922274
| 13> H -0.2002337127 1.0737304362 -1.7705990022
| 14> C 1.0968817166 1.1451684409 -0.0894344811
| 15> O 2.0088550394 1.9098486608 -0.3088472958
| 16> O 0.5487847678 0.937004314 1.0900397061
| 17> C 1.0925759654 1.6363449693 2.2261431431
| 18> C 0.4177970911 2.9843801514 2.4118995635
| 19> S -0.6998791178 -0.9118197234 -0.5350937981
| 20> P -2.1125330071 0.3735274061 0.3980704579
| 21> S -2.2025669659 2.2084359579 -0.2774009611
| 22> O -3.4713327887 -0.4573591105 0.2116340284
| 23> C -4.0679419755 -0.6214683706 -1.0794173043
| 24> O -1.9653987559 0.2917621215 1.9683785562
| 25> C -1.8759553963 -0.964931591 2.666550434
| 26> H 3.1306259898 -4.4935291927 -1.6987122512
| 27> H 4.3230194917 -4.5980961153 -0.3929570293
| 28> H 2.7768163064 -3.7848521663 -0.1159544033
| 29> H 4.9647447002 -2.8233983511 -2.0370230848
| 30> H 4.5795105353 -2.1068497064 -0.4385523309
| 31> H 1.0131016742 -0.9322790746 -2.8397782834
| 32> H 2.0273004748 0.5078155151 -2.6134431672
| 33> H 0.9016107133 0.9744435761 3.071137775
| 34> H 2.1679328839 1.7512664919 2.064529023
| 35> H -0.6584465145 2.8537236793 2.5020624785
| 36> H 0.8004898348 3.4571493406 3.3099891091
| 37> H 0.6181752989 3.6260794451 1.5564238966
| 38> H -4.1550359911 0.3455479056 -1.577277084
| 39> H -5.0524970121 -1.0434485302 -0.8950138273
| 40> H -3.4641231667 -1.299135318 -1.68259961
| 41> H -0.9713160847 -1.4914960338 2.3620104421
| 42> H -2.7531277276 -1.5736476704 2.4559902711
| 43> H -1.8325101444 -0.7020171099 3.7202931782
| 44> *
| 45>
| 46>                          ****END OF INPUT****

CARTESIAN COORDINATES (ANGSTROEM)
---------------------------------
  C      3.560011   -3.974319   -0.846619
  C      4.184030   -2.662054   -1.293850
  O      3.211644   -1.837737   -1.967973
  C      2.440842   -1.057551   -1.244098
  O      2.502514   -0.949223   -0.036072
  C      1.465799   -0.275073   -2.098527
  C      0.415060    0.366988   -1.203392
  H     -0.200234    1.073730   -1.770599
  C      1.096882    1.145168   -0.089434
  O      2.008855    1.909849   -0.308847
  O      0.548785    0.937004    1.090040
  C      1.092576    1.636345    2.226143
  C      0.417797    2.984380    2.411900
  S     -0.699879   -0.911820   -0.535094
  P     -2.112533    0.373527    0.398070
  S     -2.202567    2.208436   -0.277401
  O     -3.471333   -0.457359    0.211634
  C     -4.067942   -0.621468   -1.079417
  O     -1.965399    0.291762    1.968379
  C     -1.875955   -0.964932    2.666550
  H      3.130626   -4.493529   -1.698712
  H      4.323019   -4.598096   -0.392957
  H      2.776816   -3.784852   -0.115954
  H      4.964745   -2.823398   -2.037023
  H      4.579511   -2.106850   -0.438552
  H      1.013102   -0.932279   -2.839778
  H      2.027300    0.507816   -2.613443
  H      0.901611    0.974444    3.071138
  H      2.167933    1.751266    2.064529
  H     -0.658447    2.853724    2.502062
  H      0.800490    3.457149    3.309989
  H      0.618175    3.626079    1.556424
  H     -4.155036    0.345548   -1.577277
  H     -5.052497   -1.043449   -0.895014
  H     -3.464123   -1.299135   -1.682600
  H     -0.971316   -1.491496    2.362010
  H     -2.753128   -1.573648    2.455990
  H     -1.832510   -0.702017    3.720293

 Total Charge           Charge          ....    0
 Multiplicity           Mult            ....    1
 Number of Electrons    NEL             ....  174
 Basis Dimension        Dim             ....  316

ORBITAL ENERGIES
----------------

  NO   OCC          E(Eh)            E(eV)
   0   2.0000     -88.037932     -2395.6339
   1   2.0000     -87.982028     -2394.1127
   2   2.0000     -76.424788     -2079.6242
   3   2.0000     -18.810272      -511.8535
   4   2.0000     -18.795662      -511.4560
   5   2.0000     -18.793582      -511.3994
   6   2.0000     -18.790327      -511.3108
   7   2.0000     -18.749531      -510.2007
   8   2.0000     -18.724861      -509.5294
   9   2.0000     -10.018397      -272.6144
  10   2.0000     -10.006333      -272.2862
  11   2.0000      -9.954651      -270.8798
  12   2.0000      -9.949791      -270.7476
  13   2.0000      -9.943628      -270.5799
  14   2.0000      -9.942007      -270.5358
  15   2.0000      -9.936917      -270.3973
  16   2.0000      -9.917465      -269.8680
  17   2.0000      -9.893117      -269.2054
  18   2.0000      -9.869135      -268.5528
  19   2.0000      -7.682483      -209.0510
  20   2.0000      -7.627155      -207.5455
  21   2.0000      -6.421631      -174.7415
  22   2.0000      -5.710154      -155.3812
  23   2.0000      -5.707219      -155.3013
  24   2.0000      -5.699538      -155.0923
  25   2.0000      -5.656307      -153.9159
  26   2.0000      -5.647575      -153.6783
  27   2.0000      -5.647242      -153.6693
  28   2.0000      -4.644327      -126.3786
  29   2.0000      -4.643531      -126.3569
  30   2.0000      -4.641996      -126.3151
  31   2.0000      -1.019803       -27.7502
  32   2.0000      -1.002996       -27.2929
  33   2.0000      -0.986062       -26.8321
  34   2.0000      -0.941741       -25.6261
  35   2.0000      -0.926107       -25.2007
  36   2.0000      -0.906624       -24.6705
  37   2.0000      -0.763951       -20.7882
  38   2.0000      -0.718338       -19.5470
  39   2.0000      -0.697735       -18.9863
  40   2.0000      -0.688857       -18.7448
  41   2.0000      -0.659873       -17.9561
  42   2.0000      -0.636189       -17.3116
  43   2.0000      -0.621323       -16.9071
  44   2.0000      -0.613293       -16.6885
  45   2.0000      -0.596200       -16.2234
  46   2.0000      -0.559770       -15.2321
  47   2.0000      -0.514566       -14.0021
  48   2.0000      -0.505205       -13.7473
  49   2.0000      -0.493529       -13.4296
  50   2.0000      -0.479626       -13.0513
  51   2.0000      -0.472921       -12.8688
  52   2.0000      -0.463030       -12.5997
  53   2.0000      -0.443254       -12.0615
  54   2.0000      -0.435702       -11.8560
  55   2.0000      -0.433238       -11.7890
  56   2.0000      -0.428375       -11.6567
  57   2.0000      -0.418749       -11.3947
  58   2.0000      -0.414351       -11.2751
  59   2.0000      -0.407647       -11.0926
  60   2.0000      -0.401251       -10.9186
  61   2.0000      -0.397714       -10.8223
  62   2.0000      -0.390931       -10.6378
  63   2.0000      -0.381745       -10.3878
  64   2.0000      -0.374688       -10.1958
  65   2.0000      -0.364629        -9.9221
  66   2.0000      -0.363191        -9.8829
  67   2.0000      -0.348401        -9.4805
  68   2.0000      -0.341919        -9.3041
  69   2.0000      -0.337027        -9.1710
  70   2.0000      -0.332253        -9.0411
  71   2.0000      -0.322522        -8.7763
  72   2.0000      -0.318954        -8.6792
  73   2.0000      -0.314079        -8.5465
  74   2.0000      -0.305643        -8.3170
  75   2.0000      -0.301404        -8.2016
  76   2.0000      -0.296820        -8.0769
  77   2.0000      -0.286228        -7.7887
  78   2.0000      -0.270312        -7.3556
  79   2.0000      -0.268090        -7.2951
  80   2.0000      -0.258842        -7.0434
  81   2.0000      -0.248878        -6.7723
  82   2.0000      -0.238558        -6.4915
  83   2.0000      -0.231522        -6.3000
  84   2.0000      -0.205753        -5.5988
  85   2.0000      -0.200857        -5.4656
  86   2.0000      -0.196612        -5.3501
  87   0.0000      -0.040414        -1.0997
  88   0.0000      -0.026544        -0.7223
  89   0.0000      -0.011802        -0.3211
  90   0.0000       0.009005         0.2450
  91   0.0000       0.019267         0.5243

MULLIKEN ATOMIC CHARGES
-----------------------
   0 C :   -0.306782
   1 C :   -0.012167
   2 O :   -0.224743
   3 C :    0.115501
   4 O :   -0.197896
   5 C :   -0.096157
   6 C :   -0.312023
   7 H :    0.152534
   8 C :    0.238546
   9 O :   -0.209879
  10 O :   -0.232291
  11 C :   -0.004380
  12 C :   -0.301180
  13 S :   -0.101928
  14 P :    0.623507
  15 S :   -0.316638
  16 O :   -0.390487
  17 C :   -0.098251
  18 O :   -0.360526
  19 C :   -0.112376
  20 H :    0.115723
  21 H :    0.115923
  22 H :    0.128426
  23 H :    0.106795
  24 H :    0.113606
  25 H :    0.126694
  26 H :    0.145717
  27 H :    0.093769
  28 H :    0.109778
  29 H :    0.126259
  30 H :    0.102218
  31 H :    0.124103
  32 H :    0.117719
  33 H :    0.124290
  34 H :    0.111743
  35 H :    0.130402
  36 H :    0.124187
  37 H :    0.130266
Sum of atomic charges:   -0.0000000

LOEWDIN ATOMIC CHARGES
----------------------
   0 C :   -0.355798
   1 C :   -0.108678
   2 O :   -0.053999
   3 C :    0.037956
   4 O :   -0.151979
   5 C :   -0.248894
   6 C :   -0.268559
   7 H :    0.141844
   8 C :    0.018072
   9 O :   -0.170430
  10 O :   -0.055047
  11 C :   -0.104497
  12 C :   -0.358268
  13 S :    0.087796
  14 P :    0.579650
  15 S :   -0.308076
  16 O :   -0.262853
  17 C :   -0.217205
  18 O :   -0.234861
  19 C :   -0.211818
  20 H :    0.125679
  21 H :    0.132057
  22 H :    0.131064
  23 H :    0.119859
  24 H :    0.122289
  25 H :    0.141928
  26 H :    0.161260
  27 H :    0.113327
  28 H :    0.121050
  29 H :    0.125957
  30 H :    0.125144
  31 H :    0.130353
  32 H :    0.111698
  33 H :    0.121876
  34 H :    0.106686
  35 H :    0.114861
  36 H :    0.115307
  37 H :    0.125249

  Mayer bond orders larger than 0.100000
B(  0-C ,  1-C ) :   1.1739 B(  0-C , 20-H ) :   0.9486 B(  0-C , 21-H ) :   0.9439
B(  0-C , 22-H ) :   0.9461 B(  1-C ,  2-O ) :   0.9097 B(  1-C , 23-H ) :   0.9369
B(  1-C , 24-H ) :   0.9150 B(  2-O ,  3-C ) :   1.2517 B(  3-C ,  4-O ) :   1.9987
B(  3-C ,  5-C ) :   0.9952 B(  5-C ,  6-C ) :   1.0635 B(  5-C , 25-H ) :   0.9025
B(  5-C , 26-H ) :   0.8702 B(  6-C ,  7-H ) :   0.8487 B(  6-C ,  8-C ) :   0.8646
B(  6-C , 13-S ) :   1.0203 B(  8-C ,  9-O ) :   2.0464 B(  8-C , 10-O ) :   1.2389
B( 10-O , 11-C ) :   0.9055 B( 11-C , 12-C ) :   1.1795 B( 11-C , 27-H ) :   0.9354
B( 11-C , 28-H ) :   0.9158 B( 12-C , 29-H ) :   0.9405 B( 12-C , 30-H ) :   0.9428
B( 12-C , 31-H ) :   0.9442 B( 13-S , 14-P ) :   0.9601 B( 13-S , 15-S ) :   0.1132
B( 14-P , 15-S ) :   1.6340 B( 14-P , 16-O ) :   1.0668 B( 14-P , 18-O ) :   1.1195
B( 16-O , 17-C ) :   0.9337 B( 17-C , 32-H ) :   0.9360 B( 17-C , 33-H ) :   0.9586
B( 17-C , 34-H ) :   0.9453 B( 18-O , 19-C ) :   0.9178 B( 19-C , 35-H ) :   0.9392
B( 19-C , 36-H ) :   0.9456 B( 19-C , 37-H ) :   0.9587

Dispersion correction           -0.053196671
FINAL SINGLE POINT ENERGY     -1979.022659190671

DIPOLE MOMENT
-------------

Method             : SCF
Type of density    : Electron Density
Multiplicity       :   1
Irrep              :   0
Energy             : -1979.1525463074322033 Eh
Relativity type    :
Basis              : AO
                                X                 Y                 Z
Electronic contribution:     -9.525706115       8.033414150      -4.338462226
Nuclear contribution   :      9.721622322      -9.997543086       4.354604644
                        -----------------------------------------
Total Dipole Moment    :      0.195916207      -1.964128937       0.016142418
                        -----------------------------------------
Magnitude (a.u.)       :      1.973941797
Magnitude (Debye)      :      5.017361312

Rotational constants in cm-1:             0.014408             0.006652             0.005803
Rotational constants in MHz :           431.949689           199.407657           173.960967

                             ****ORCA TERMINATED NORMALLY****
TOTAL RUN TIME: 0 days 0 hours 0 minutes 43 seconds 718 msec
