                         Program Version 6.0.1  -  RELEASE   -
|  1> ! pbe def2-sv(p) def2/J RI DEFGRID1 loosescf d4 GCP(DFT/SV(P)) printgap
|  2> %output
|  3>     printlevel normal
|  4> end
|  5> * xyz 0 1
|  6> C 4.6247011238 -3.2656641534 -2.2081430898
|  7> C 3.593342867 -3.6712998413 -1.1671679675
|  8> O 3.2658144283 -2.5634177816 -0.3057786838
|  9> C 2.3222505436 -1.7266412643 -0.6902717715
| 10> O 1.6780047102 -1.8316940292 -1.709364935
| 11> C 2.1499719279 -0.6048462418 0.3179666435
| 12> C 0.8081587356 0.0827003827 0.1234059498
| 13> H 0.6550119133 0.2842766775 -0.9451386266
| 14> C 0.6690267301 1.4002695075 0.8607885658
| 15> O -0.3329296338 1.6912749184 1.4817013101
| 16> O 1.7230792909 2.1583229438 0.7243930563
| 17> C 1.6745314258 3.4989604161 1.2615068944
| 18> C 1.0629712104 4.4519367 0.2482440644
| 19> S -0.5579368177 -1.0009828095 0.6643947626
| 20> P -2.1698359275 0.2773151792 0.131980311
| 21> S -1.844401032 1.6483901421 -1.225816796
| 22> O -3.2512767962 -0.8143597064 -0.3514538747
| 23> C -3.0746927401 -1.5390076762 -1.57003514
| 24> O -2.9120806352 0.8031946413 1.4206596523
| 25> C -3.2651910036 -0.0595689194 2.5192194703
| 26> H 4.2096024271 -2.5102651284 -2.8715094684
| 27> H 5.5095792718 -2.8640796687 -1.7222441021
| 28> H 4.9021707809 -4.1345835152 -2.7956269792
| 29> H 3.9863248581 -4.4323068509 -0.4930959257
| 30> H 2.6756446425 -4.0225224184 -1.6470877892
| 31> H 2.9492996536 0.1222702908 0.1569645044
| 32> H 2.2475101051 -1.0152484437 1.3228492515
| 33> H 1.0900317976 3.4838403441 2.1850216531
| 34> H 2.7159002817 3.7454744293 1.4670647286
| 35> H 1.0528334738 5.4564024917 0.6577188255
| 36> H 1.6390053207 4.4435083593 -0.6727800553
| 37> H 0.0409462186 4.1530731234 0.0199915124
| 38> H -2.2211156927 -2.2128931742 -1.4865228001
| 39> H -2.9154487965 -0.8458788603 -2.3978662544
| 40> H -3.99422798 -2.100079751 -1.7138856647
| 41> H -3.9868969324 -0.8044616238 2.1884679061
| 42> H -3.6988831675 0.6006420206 3.265656139
| 43> H -2.3715419383 -0.5470341855 2.9090511448
| 44> *
| 45>
| 46>                          ****END OF INPUT****

CARTESIAN COORDINATES (ANGSTROEM)
---------------------------------
  C      4.624701   -3.265664   -2.208143
  C      3.593343   -3.671300   -1.167168
  O      3.265814   -2.563418   -0.305779
  C      2.322251   -1.726641   -0.690272
  O      1.678005   -1.831694   -1.709365
  C      2.149972   -0.604846    0.317967
  C      0.808159    0.082700    0.123406
  H      0.655012    0.284277   -0.945139
  C      0.669027    1.400270    0.860789
  O     -0.332930    1.691275    1.481701
  O      1.723079    2.158323    0.724393
  C      1.674531    3.498960    1.261507
  C      1.062971    4.451937    0.248244
  S     -0.557937   -1.000983    0.664395
  P     -2.169836    0.277315    0.131980
  S     -1.844401    1.648390   -1.225817
  O     -3.251277   -0.814360   -0.351454
  C     -3.074693   -1.539008   -1.570035
  O     -2.912081    0.803195    1.420660
  C     -3.265191   -0.059569    2.519219
  H      4.209602   -2.510265   -2.871509
  H      5.509579   -2.864080   -1.722244
  H      4.902171   -4.134584   -2.795627
  H      3.986325   -4.432307   -0.493096
  H      2.675645   -4.022522   -1.647088
  H      2.949300    0.122270    0.156965
  H      2.247510   -1.015248    1.322849
  H      1.090032    3.483840    2.185022
  H      2.715900    3.745474    1.467065
  H      1.052833    5.456402    0.657719
  H      1.639005    4.443508   -0.672780
  H      0.040946    4.153073    0.019992
  H     -2.221116   -2.212893   -1.486523
  H     -2.915449   -0.845879   -2.397866
  H     -3.994228   -2.100080   -1.713886
  H     -3.986897   -0.804462    2.188468
  H     -3.698883    0.600642    3.265656
  H     -2.371542   -0.547034    2.909051

 Total Charge           Charge          ....    0
 Multiplicity           Mult            ....    1
 Number of Electrons    NEL             ....  174
 Basis Dimension        Dim             ....  316

ORBITAL ENERGIES
----------------

  NO   OCC          E(Eh)            E(eV)
   0   2.0000     -88.032929     -2395.4978
   1   2.0000     -87.971722     -2393.8322
   2   2.0000     -76.415881     -2079.3818
   3   2.0000     -18.815543      -511.9970
   4   2.0000     -18.807974      -511.7910
   5   2.0000     -18.779754      -511.0231
   6   2.0000     -18.776801      -510.9427
   7   2.0000     -18.747081      -510.1340
   8   2.0000     -18.742437      -510.0076
   9   2.0000     -10.017725      -272.5962
  10   2.0000     -10.016616      -272.5660
  11   2.0000      -9.953505      -270.8486
  12   2.0000      -9.952695      -270.8266
  13   2.0000      -9.942020      -270.5361
  14   2.0000      -9.940415      -270.4924
  15   2.0000      -9.930511      -270.2229
  16   2.0000      -9.918612      -269.8992
  17   2.0000      -9.892292      -269.1830
  18   2.0000      -9.883951      -268.9560
  19   2.0000      -7.677772      -208.9228
  20   2.0000      -7.616954      -207.2679
  21   2.0000      -6.412232      -174.4857
  22   2.0000      -5.705521      -155.2551
  23   2.0000      -5.702524      -155.1736
  24   2.0000      -5.694688      -154.9603
  25   2.0000      -5.646125      -153.6389
  26   2.0000      -5.637595      -153.4068
  27   2.0000      -5.636767      -153.3842
  28   2.0000      -4.634929      -126.1228
  29   2.0000      -4.634291      -126.1055
  30   2.0000      -4.632574      -126.0587
  31   2.0000      -1.023019       -27.8378
  32   2.0000      -1.016743       -27.6670
  33   2.0000      -0.973502       -26.4903
  34   2.0000      -0.928731       -25.2721
  35   2.0000      -0.924130       -25.1469
  36   2.0000      -0.923328       -25.1250
  37   2.0000      -0.763554       -20.7774
  38   2.0000      -0.715668       -19.4743
  39   2.0000      -0.707422       -19.2499
  40   2.0000      -0.687772       -18.7152
  41   2.0000      -0.657331       -17.8869
  42   2.0000      -0.625512       -17.0210
  43   2.0000      -0.621210       -16.9040
  44   2.0000      -0.610676       -16.6173
  45   2.0000      -0.598606       -16.2889
  46   2.0000      -0.563119       -15.3232
  47   2.0000      -0.508224       -13.8295
  48   2.0000      -0.504587       -13.7305
  49   2.0000      -0.498111       -13.5543
  50   2.0000      -0.479137       -13.0380
  51   2.0000      -0.464959       -12.6522
  52   2.0000      -0.462426       -12.5833
  53   2.0000      -0.452035       -12.3005
  54   2.0000      -0.435758       -11.8576
  55   2.0000      -0.431003       -11.7282
  56   2.0000      -0.420414       -11.4400
  57   2.0000      -0.417176       -11.3519
  58   2.0000      -0.415340       -11.3020
  59   2.0000      -0.403713       -10.9856
  60   2.0000      -0.400637       -10.9019
  61   2.0000      -0.397897       -10.8273
  62   2.0000      -0.391719       -10.6592
  63   2.0000      -0.387240       -10.5373
  64   2.0000      -0.378874       -10.3097
  65   2.0000      -0.368374       -10.0240
  66   2.0000      -0.360411        -9.8073
  67   2.0000      -0.353336        -9.6148
  68   2.0000      -0.347883        -9.4664
  69   2.0000      -0.336982        -9.1697
  70   2.0000      -0.333958        -9.0875
  71   2.0000      -0.330592        -8.9959
  72   2.0000      -0.325721        -8.8633
  73   2.0000      -0.309758        -8.4289
  74   2.0000      -0.302054        -8.2193
  75   2.0000      -0.300412        -8.1746
  76   2.0000      -0.290000        -7.8913
  77   2.0000      -0.285440        -7.7672
  78   2.0000      -0.269092        -7.3224
  79   2.0000      -0.267121        -7.2687
  80   2.0000      -0.260086        -7.0773
  81   2.0000      -0.248154        -6.7526
  82   2.0000      -0.233889        -6.3644
  83   2.0000      -0.230539        -6.2733
  84   2.0000      -0.213242        -5.8026
  85   2.0000      -0.193292        -5.2598
  86   2.0000      -0.186381        -5.0717
  87   0.0000      -0.039343        -1.0706
  88   0.0000      -0.030767        -0.8372
  89   0.0000      -0.020951        -0.5701
  90   0.0000       0.012288         0.3344
  91   0.0000       0.029642         0.8066

MULLIKEN ATOMIC CHARGES
-----------------------
   0 C :   -0.306014
   1 C :   -0.012789
   2 O :   -0.230834
   3 C :    0.136495
   4 O :   -0.195018
   5 C :   -0.129480
   6 C :   -0.300611
   7 H :    0.164397
   8 C :    0.223635
   9 O :   -0.181591
  10 O :   -0.228239
  11 C :   -0.011658
  12 C :   -0.309008
  13 S :   -0.107410
  14 P :    0.626485
  15 S :   -0.328745
  16 O :   -0.395264
  17 C :   -0.101083
  18 O :   -0.352840
  19 C :   -0.101987
  20 H :    0.128269
  21 H :    0.114801
  22 H :    0.115731
  23 H :    0.105135
  24 H :    0.112595
  25 H :    0.140632
  26 H :    0.117227
  27 H :    0.113538
  28 H :    0.103235
  29 H :    0.112645
  30 H :    0.114455
  31 H :    0.144589
  32 H :    0.116104
  33 H :    0.116576
  34 H :    0.117978
  35 H :    0.120566
  36 H :    0.129600
  37 H :    0.117883
Sum of atomic charges:    0.0000000

LOEWDIN ATOMIC CHARGES
----------------------
   0 C :   -0.356042
   1 C :   -0.110089
   2 O :   -0.060355
   3 C :    0.031217
   4 O :   -0.158135
   5 C :   -0.254676
   6 C :   -0.269298
   7 H :    0.149117
   8 C :    0.014598
   9 O :   -0.158245
  10 O :   -0.043963
  11 C :   -0.106833
  12 C :   -0.356975
  13 S :    0.093622
  14 P :    0.590102
  15 S :   -0.320551
  16 O :   -0.268136
  17 C :   -0.220521
  18 O :   -0.230899
  19 C :   -0.207979
  20 H :    0.131150
  21 H :    0.125150
  22 H :    0.132068
  23 H :    0.118997
  24 H :    0.121799
  25 H :    0.155421
  26 H :    0.139921
  27 H :    0.122860
  28 H :    0.117706
  29 H :    0.130970
  30 H :    0.125727
  31 H :    0.136097
  32 H :    0.107651
  33 H :    0.110549
  34 H :    0.118571
  35 H :    0.113978
  36 H :    0.125703
  37 H :    0.109724

  Mayer bond orders larger than 0.100000
B(  0-C ,  1-C ) :   1.1745 B(  0-C , 20-H ) :   0.9460 B(  0-C , 21-H ) :   0.9488
B(  0-C , 22-H ) :   0.9440 B(  1-C ,  2-O ) :   0.9129 B(  1-C , 23-H ) :   0.9370
B(  1-C , 24-H ) :   0.9144 B(  2-O ,  3-C ) :   1.2410 B(  3-C ,  4-O ) :   2.0407
B(  3-C ,  5-C ) :   0.9948 B(  5-C ,  6-C ) :   1.0869 B(  5-C , 25-H ) :   0.8712
B(  5-C , 26-H ) :   0.9002 B(  6-C ,  7-H ) :   0.8307 B(  6-C ,  8-C ) :   0.8944
B(  6-C , 13-S ) :   1.0229 B(  8-C ,  9-O ) :   2.0134 B(  8-C , 10-O ) :   1.2607
B( 10-O , 11-C ) :   0.8992 B( 11-C , 12-C ) :   1.1800 B( 11-C , 27-H ) :   0.9124
B( 11-C , 28-H ) :   0.9366 B( 12-C , 29-H ) :   0.9421 B( 12-C , 30-H ) :   0.9485
B( 12-C , 31-H ) :   0.9354 B( 13-S , 14-P ) :   0.9440 B( 13-S , 15-S ) :   0.1120
B( 14-P , 15-S ) :   1.6153 B( 14-P , 16-O ) :   1.0537 B( 14-P , 18-O ) :   1.1374
B( 16-O , 17-C ) :   0.9391 B( 17-C , 32-H ) :   0.9428 B( 17-C , 33-H ) :   0.9367
B( 17-C , 34-H ) :   0.9587 B( 18-O , 19-C ) :   0.9226 B( 19-C , 35-H ) :   0.9470
B( 19-C , 36-H ) :   0.9603 B( 19-C , 37-H ) :   0.9393

Dispersion correction           -0.049865032
FINAL SINGLE POINT ENERGY     -1979.018217334041

DIPOLE MOMENT
-------------

Method             : SCF
Type of density    : Electron Density
Multiplicity       :   1
Irrep              :   0
Energy             : -1979.1493426566944436 Eh
Relativity type    :
Basis              : AO
                                X                 Y                 Z
Electronic contribution:    -14.133351960       2.424446070       3.246496998
Nuclear contribution   :     15.600945562      -3.276791394      -2.496898195
                        -----------------------------------------
Total Dipole Moment    :      1.467593602      -0.852345324       0.749598802
                        -----------------------------------------
Magnitude (a.u.)       :      1.855322586
Magnitude (Debye)      :      4.715855238

Rotational constants in cm-1:             0.011614             0.006561             0.005008
Rotational constants in MHz :           348.168041           196.703936           150.145359

                             ****ORCA TERMINATED NORMALLY****
TOTAL RUN TIME: 0 days 0 hours 0 minutes 39 seconds 324 msec
