                         Program Version 6.0.0  -   RELEASE  -
|  1> ! pbe def2-sv(p) def2/J RI DEFGRID1 loosescf d4 GCP(DFT/SV(P)) printgap
|  2> %output
|  3>     printlevel normal
|  4> end
|  5> * xyz 0 1
|  6> C 5.4336847631 -0.0022044862 -0.9973713589
|  7> C 4.5152438422 -0.8453265575 -0.1336107798
|  8> O 3.52046477 -0.0307829338 0.5155052095
|  9> P 2.0807142012 0.2276905689 -0.1105587146
| 10> S 2.0376582594 0.9700513584 -1.927884044
| 11> O 1.4377418388 1.0957356003 1.0472153185
| 12> C 1.4690691535 2.5386048289 1.0147677175
| 13> C 2.8810886925 3.0722827137 1.1138249975
| 14> S 1.1666076568 -1.6621348426 0.1455360518
| 15> C 0.1412062536 -1.7519798 -1.3624589599
| 16> S -1.5910110231 -2.1445041097 -1.0143294769
| 17> P -2.0888854892 -0.42947476 0.0974753611
| 18> S -1.3617582476 1.2799234755 -0.5498228272
| 19> O -1.6881674175 -0.8847000122 1.5557435967
| 20> C -1.4689698836 0.0343284943 2.6456269216
| 21> C -2.7151021921 0.8279557172 2.9739424249
| 22> O -3.6726860689 -0.4876495466 0.158907227
| 23> C -4.4929347224 -0.0829431953 -0.9559630818
| 24> C -5.8934561272 0.1700614123 -0.4357465276
| 25> H 4.870202097 0.466790301 -1.8009832257
| 26> H 5.9029979854 0.7730662611 -0.3982215274
| 27> H 6.2011567317 -0.6371944756 -1.427822079
| 28> H 5.0612572669 -1.3142006351 0.6871462596
| 29> H 4.0175876896 -1.6179447831 -0.7271703606
| 30> H 0.9825097154 2.8727990817 0.0921658513
| 31> H 0.8606807061 2.8340537333 1.8709413364
| 32> H 3.445573968 2.7844467114 0.2276174281
| 33> H 2.8516614656 4.1554305341 1.1780687547
| 34> H 3.373847199 2.6660125915 1.9932959882
| 35> H 0.5093950005 -2.5671765328 -1.9800252971
| 36> H 0.2143464042 -0.7960977167 -1.8897244293
| 37> H -1.1674867748 -0.6145078301 3.4692209981
| 38> H -0.6397791883 0.6955800866 2.376103733
| 39> H -3.5465727939 0.1548697222 3.1660621776
| 40> H -2.5332637402 1.4413355951 3.8509575933
| 41> H -2.971429226 1.4742426557 2.1346592478
| 42> H -4.0585444133 0.8193807624 -1.3998531242
| 43> H -4.4806803091 -0.8868844788 -1.6966292639
| 44> H -6.2769376703 -0.7272028245 0.0409653968
| 45> H -5.8850094962 0.9788928474 0.2893320129
| 46> H -6.5373504662 0.4403938027 -1.2661128502
| 47> *
| 48>
| 49>                          ****END OF INPUT****

CARTESIAN COORDINATES (ANGSTROEM)
---------------------------------
  C      5.433685   -0.002204   -0.997371
  C      4.515244   -0.845327   -0.133611
  O      3.520465   -0.030783    0.515505
  P      2.080714    0.227691   -0.110559
  S      2.037658    0.970051   -1.927884
  O      1.437742    1.095736    1.047215
  C      1.469069    2.538605    1.014768
  C      2.881089    3.072283    1.113825
  S      1.166608   -1.662135    0.145536
  C      0.141206   -1.751980   -1.362459
  S     -1.591011   -2.144504   -1.014329
  P     -2.088885   -0.429475    0.097475
  S     -1.361758    1.279923   -0.549823
  O     -1.688167   -0.884700    1.555744
  C     -1.468970    0.034328    2.645627
  C     -2.715102    0.827956    2.973942
  O     -3.672686   -0.487650    0.158907
  C     -4.492935   -0.082943   -0.955963
  C     -5.893456    0.170061   -0.435747
  H      4.870202    0.466790   -1.800983
  H      5.902998    0.773066   -0.398222
  H      6.201157   -0.637194   -1.427822
  H      5.061257   -1.314201    0.687146
  H      4.017588   -1.617945   -0.727170
  H      0.982510    2.872799    0.092166
  H      0.860681    2.834054    1.870941
  H      3.445574    2.784447    0.227617
  H      2.851661    4.155431    1.178069
  H      3.373847    2.666013    1.993296
  H      0.509395   -2.567177   -1.980025
  H      0.214346   -0.796098   -1.889724
  H     -1.167487   -0.614508    3.469221
  H     -0.639779    0.695580    2.376104
  H     -3.546573    0.154870    3.166062
  H     -2.533264    1.441336    3.850958
  H     -2.971429    1.474243    2.134659
  H     -4.058544    0.819381   -1.399853
  H     -4.480680   -0.886884   -1.696629
  H     -6.276938   -0.727203    0.040965
  H     -5.885009    0.978893    0.289332
  H     -6.537350    0.440394   -1.266113

 Total Charge           Charge          ....    0
 Multiplicity           Mult            ....    1
 Number of Electrons    NEL             ....  202
 Basis Dimension        Dim             ....  334

ORBITAL ENERGIES
----------------

  NO   OCC          E(Eh)            E(eV)
   0   2.0000     -88.041094     -2395.7200
   1   2.0000     -88.040771     -2395.7112
   2   2.0000     -87.985121     -2394.1969
   3   2.0000     -87.982639     -2394.1293
   4   2.0000     -76.424459     -2079.6152
   5   2.0000     -76.423544     -2079.5904
   6   2.0000     -18.792565      -511.3717
   7   2.0000     -18.790056      -511.3034
   8   2.0000     -18.787099      -511.2230
   9   2.0000     -18.786303      -511.2013
  10   2.0000      -9.952486      -270.8209
  11   2.0000      -9.952206      -270.8133
  12   2.0000      -9.952064      -270.8094
  13   2.0000      -9.947320      -270.6803
  14   2.0000      -9.946603      -270.6608
  15   2.0000      -9.888240      -269.0727
  16   2.0000      -9.881300      -268.8838
  17   2.0000      -9.879792      -268.8428
  18   2.0000      -9.879492      -268.8347
  19   2.0000      -7.686580      -209.1625
  20   2.0000      -7.685978      -209.1461
  21   2.0000      -7.630059      -207.6245
  22   2.0000      -7.627266      -207.5485
  23   2.0000      -6.421874      -174.7481
  24   2.0000      -6.421103      -174.7271
  25   2.0000      -5.714521      -155.5000
  26   2.0000      -5.713820      -155.4809
  27   2.0000      -5.710973      -155.4035
  28   2.0000      -5.710503      -155.3907
  29   2.0000      -5.703496      -155.2000
  30   2.0000      -5.702973      -155.1858
  31   2.0000      -5.658925      -153.9872
  32   2.0000      -5.656051      -153.9090
  33   2.0000      -5.650822      -153.7667
  34   2.0000      -5.650107      -153.7472
  35   2.0000      -5.647983      -153.6894
  36   2.0000      -5.647491      -153.6760
  37   2.0000      -4.644185      -126.3747
  38   2.0000      -4.643568      -126.3579
  39   2.0000      -4.643487      -126.3557
  40   2.0000      -4.642929      -126.3405
  41   2.0000      -4.642661      -126.3332
  42   2.0000      -4.641664      -126.3061
  43   2.0000      -0.985182       -26.8082
  44   2.0000      -0.984417       -26.7873
  45   2.0000      -0.943744       -25.6806
  46   2.0000      -0.941809       -25.6279
  47   2.0000      -0.760686       -20.6993
  48   2.0000      -0.720188       -19.5973
  49   2.0000      -0.706950       -19.2371
  50   2.0000      -0.687156       -18.6985
  51   2.0000      -0.683464       -18.5980
  52   2.0000      -0.672343       -18.2954
  53   2.0000      -0.649571       -17.6757
  54   2.0000      -0.633801       -17.2466
  55   2.0000      -0.599272       -16.3070
  56   2.0000      -0.592118       -16.1123
  57   2.0000      -0.567801       -15.4507
  58   2.0000      -0.564551       -15.3622
  59   2.0000      -0.560361       -15.2482
  60   2.0000      -0.503562       -13.7026
  61   2.0000      -0.495755       -13.4902
  62   2.0000      -0.472807       -12.8657
  63   2.0000      -0.470545       -12.8042
  64   2.0000      -0.446742       -12.1565
  65   2.0000      -0.445616       -12.1258
  66   2.0000      -0.436567       -11.8796
  67   2.0000      -0.434449       -11.8220
  68   2.0000      -0.427545       -11.6341
  69   2.0000      -0.413225       -11.2444
  70   2.0000      -0.404653       -11.0112
  71   2.0000      -0.398953       -10.8561
  72   2.0000      -0.394790       -10.7428
  73   2.0000      -0.386053       -10.5050
  74   2.0000      -0.377595       -10.2749
  75   2.0000      -0.371992       -10.1224
  76   2.0000      -0.369406       -10.0520
  77   2.0000      -0.356462        -9.6998
  78   2.0000      -0.353276        -9.6131
  79   2.0000      -0.347404        -9.4533
  80   2.0000      -0.343991        -9.3605
  81   2.0000      -0.341819        -9.3014
  82   2.0000      -0.336556        -9.1582
  83   2.0000      -0.334520        -9.1027
  84   2.0000      -0.331026        -9.0077
  85   2.0000      -0.314483        -8.5575
  86   2.0000      -0.311082        -8.4650
  87   2.0000      -0.299555        -8.1513
  88   2.0000      -0.294152        -8.0043
  89   2.0000      -0.284945        -7.7537
  90   2.0000      -0.281558        -7.6616
  91   2.0000      -0.272587        -7.4175
  92   2.0000      -0.269937        -7.3454
  93   2.0000      -0.262451        -7.1417
  94   2.0000      -0.259002        -7.0478
  95   2.0000      -0.232506        -6.3268
  96   2.0000      -0.222592        -6.0570
  97   2.0000      -0.213102        -5.7988
  98   2.0000      -0.202727        -5.5165
  99   2.0000      -0.195475        -5.3191
 100   2.0000      -0.187706        -5.1077
 101   0.0000      -0.038216        -1.0399
 102   0.0000      -0.031090        -0.8460
 103   0.0000      -0.003696        -0.1006
 104   0.0000       0.017537         0.4772
 105   0.0000       0.020848         0.5673

MULLIKEN ATOMIC CHARGES
-----------------------
   0 C :   -0.294846
   1 C :   -0.005198
   2 O :   -0.372501
   3 P :    0.612854
   4 S :   -0.316902
   5 O :   -0.360973
   6 C :   -0.009520
   7 C :   -0.299941
   8 S :   -0.089391
   9 C :   -0.359966
  10 S :   -0.091038
  11 P :    0.611862
  12 S :   -0.328997
  13 O :   -0.358047
  14 C :   -0.018705
  15 C :   -0.313502
  16 O :   -0.376212
  17 C :   -0.011674
  18 C :   -0.281389
  19 H :    0.128936
  20 H :    0.113274
  21 H :    0.106464
  22 H :    0.105998
  23 H :    0.095498
  24 H :    0.124688
  25 H :    0.100741
  26 H :    0.125835
  27 H :    0.110003
  28 H :    0.114026
  29 H :    0.179641
  30 H :    0.212428
  31 H :    0.104439
  32 H :    0.136177
  33 H :    0.116443
  34 H :    0.109021
  35 H :    0.122089
  36 H :    0.106559
  37 H :    0.103103
  38 H :    0.117309
  39 H :    0.119018
  40 H :    0.112397
Sum of atomic charges:   -0.0000000

LOEWDIN ATOMIC CHARGES
----------------------
   0 C :   -0.364750
   1 C :   -0.117155
   2 O :   -0.246114
   3 P :    0.572492
   4 S :   -0.303225
   5 O :   -0.235696
   6 C :   -0.118298
   7 C :   -0.366442
   8 S :    0.082711
   9 C :   -0.479246
  10 S :    0.080445
  11 P :    0.564502
  12 S :   -0.310484
  13 O :   -0.235043
  14 C :   -0.115275
  15 C :   -0.368302
  16 O :   -0.247219
  17 C :   -0.120486
  18 C :   -0.350204
  19 H :    0.123582
  20 H :    0.124698
  21 H :    0.128127
  22 H :    0.118292
  23 H :    0.103986
  24 H :    0.110909
  25 H :    0.114351
  26 H :    0.122048
  27 H :    0.130043
  28 H :    0.125063
  29 H :    0.135308
  30 H :    0.125086
  31 H :    0.120070
  32 H :    0.116401
  33 H :    0.125709
  34 H :    0.128853
  35 H :    0.120286
  36 H :    0.108453
  37 H :    0.110423
  38 H :    0.127250
  39 H :    0.127793
  40 H :    0.131060

  Mayer bond orders larger than 0.100000
B(  0-C ,  1-C ) :   1.1664 B(  0-C , 19-H ) :   0.9302 B(  0-C , 20-H ) :   0.9461
B(  0-C , 21-H ) :   0.9397 B(  1-C ,  2-O ) :   0.9096 B(  1-C , 22-H ) :   0.9365
B(  1-C , 23-H ) :   0.9127 B(  2-O ,  3-P ) :   1.0995 B(  3-P ,  4-S ) :   1.5974
B(  3-P ,  5-O ) :   1.1281 B(  3-P ,  8-S ) :   0.9669 B(  4-S ,  8-S ) :   0.1211
B(  5-O ,  6-C ) :   0.8969 B(  6-C ,  7-C ) :   1.1638 B(  6-C , 24-H ) :   0.9146
B(  6-C , 25-H ) :   0.9313 B(  7-C , 26-H ) :   0.9323 B(  7-C , 27-H ) :   0.9378
B(  7-C , 28-H ) :   0.9446 B(  8-S ,  9-C ) :   0.9933 B(  9-C , 10-S ) :   1.0034
B(  9-C , 29-H ) :   0.9122 B(  9-C , 30-H ) :   0.8475 B( 10-S , 11-P ) :   0.9622
B( 10-S , 12-S ) :   0.1094 B( 11-P , 12-S ) :   1.6119 B( 11-P , 13-O ) :   1.1422
B( 11-P , 16-O ) :   1.1035 B( 13-O , 14-C ) :   0.8984 B( 14-C , 15-C ) :   1.1623
B( 14-C , 31-H ) :   0.9345 B( 14-C , 32-H ) :   0.9105 B( 15-C , 33-H ) :   0.9443
B( 15-C , 34-H ) :   0.9384 B( 15-C , 35-H ) :   0.9320 B( 16-O , 17-C ) :   0.9039
B( 17-C , 18-C ) :   1.1605 B( 17-C , 36-H ) :   0.9083 B( 17-C , 37-H ) :   0.9297
B( 18-C , 38-H ) :   0.9504 B( 18-C , 39-H ) :   0.9517 B( 18-C , 40-H ) :   0.9419

Dispersion correction           -0.066431678
FINAL SINGLE POINT ENERGY     -2929.523546443047

DIPOLE MOMENT
-------------

Method             : SCF
Type of density    : Electron Density
Multiplicity       :   1
Irrep              :   0
Energy             : -2929.6421749358096349 Eh
Relativity type    :
Basis              : AO
                                X                 Y                 Z
Electronic contribution:     -0.258530881     -12.861455557      -7.714137049
Nuclear contribution   :      0.176215112      12.788633296       8.403625561
                        -----------------------------------------
Total Dipole Moment    :     -0.082315769      -0.072822261       0.689488512
                        -----------------------------------------
Magnitude (a.u.)       :      0.698192936
Magnitude (Debye)      :      1.774665408

Rotational constants in cm-1:             0.013969             0.004934             0.004512
Rotational constants in MHz :           418.789927           147.921984           135.266089

                             ****ORCA TERMINATED NORMALLY****
TOTAL RUN TIME: 0 days 0 hours 0 minutes 21 seconds 258 msec
