                         Program Version 6.0.0  -   RELEASE  -
|  1> ! pbe def2-sv(p) def2/J RI DEFGRID1 loosescf d4 GCP(DFT/SV(P)) printgap
|  2> %output
|  3>     printlevel normal
|  4> end
|  5> * xyz 0 1
|  6> C 2.5669617745 2.6297759352 -1.0171930632
|  7> C 3.7335262454 2.1893500693 -0.1579248303
|  8> O 3.7019990398 0.7756550773 0.1130667357
|  9> P 2.5011507892 0.0840359919 0.8923082063
| 10> S 1.7188268176 1.1025625324 2.3641460427
| 11> O 3.1548758786 -1.2555830967 1.4131892014
| 12> C 3.9784301565 -2.1294736564 0.5955014008
| 13> C 3.2356541242 -3.4114734043 0.2748662773
| 14> S 1.1936470762 -0.5354329791 -0.6833632325
| 15> C 0.0061188926 -1.3715745505 0.4032225017
| 16> S -1.2816467214 -0.2710093276 1.032480842
| 17> P -2.3548950695 -0.1309493608 -0.8116878425
| 18> S -2.3847566836 -1.7526488196 -1.9028592711
| 19> O -1.6963974997 1.0337863304 -1.6443284052
| 20> C -1.5136027387 2.3863427683 -1.1629938232
| 21> C -2.6549980711 3.2782026207 -1.6067243246
| 22> O -3.7369392667 0.5121006791 -0.363575821
| 23> C -4.5742949019 0.0255126166 0.7019470849
| 24> C -4.9017325487 -1.4465734189 0.5679064204
| 25> H 2.6842512482 3.6769037609 -1.2770172174
| 26> H 2.5156612722 2.0325941773 -1.9249868673
| 27> H 1.6397969046 2.5052468716 -0.4581189821
| 28> H 3.7274221329 2.722143623 0.7974754263
| 29> H 4.68952473 2.3357796138 -0.6624825321
| 30> H 4.2715678712 -1.5991352796 -0.3119037802
| 31> H 4.8599550145 -2.3269191863 1.2073568443
| 32> H 2.3882508446 -3.2159525873 -0.3782572095
| 33> H 3.9137672404 -4.094010771 -0.2277051025
| 34> H 2.8781891591 -3.8758875014 1.1900532042
| 35> H 0.5247599897 -1.7788561244 1.2693600919
| 36> H -0.4669031436 -2.1565280454 -0.1896294402
| 37> H -1.4208553744 2.3698302618 -0.0724314262
| 38> H -0.5689837705 2.704625265 -1.6088297069
| 39> H -2.4530075853 4.2963145202 -1.2889400785
| 40> H -2.7462884764 3.249798135 -2.6889888526
| 41> H -3.5908495449 2.9432701833 -1.1680108486
| 42> H -4.0678713786 0.2249807813 1.6505461569
| 43> H -5.4722962019 0.6411917884 0.6246697277
| 44> H -5.3372762239 -1.651215178 -0.4072930737
| 45> H -3.9971549261 -2.0441675799 0.6716941623
| 46> H -5.6050139068 -1.7313460017 1.3438522129
| 47> *
| 48>
| 49>                          ****END OF INPUT****

CARTESIAN COORDINATES (ANGSTROEM)
---------------------------------
  C      2.566962    2.629776   -1.017193
  C      3.733526    2.189350   -0.157925
  O      3.701999    0.775655    0.113067
  P      2.501151    0.084036    0.892308
  S      1.718827    1.102563    2.364146
  O      3.154876   -1.255583    1.413189
  C      3.978430   -2.129474    0.595501
  C      3.235654   -3.411473    0.274866
  S      1.193647   -0.535433   -0.683363
  C      0.006119   -1.371575    0.403223
  S     -1.281647   -0.271009    1.032481
  P     -2.354895   -0.130949   -0.811688
  S     -2.384757   -1.752649   -1.902859
  O     -1.696397    1.033786   -1.644328
  C     -1.513603    2.386343   -1.162994
  C     -2.654998    3.278203   -1.606724
  O     -3.736939    0.512101   -0.363576
  C     -4.574295    0.025513    0.701947
  C     -4.901733   -1.446573    0.567906
  H      2.684251    3.676904   -1.277017
  H      2.515661    2.032594   -1.924987
  H      1.639797    2.505247   -0.458119
  H      3.727422    2.722144    0.797475
  H      4.689525    2.335780   -0.662483
  H      4.271568   -1.599135   -0.311904
  H      4.859955   -2.326919    1.207357
  H      2.388251   -3.215953   -0.378257
  H      3.913767   -4.094011   -0.227705
  H      2.878189   -3.875888    1.190053
  H      0.524760   -1.778856    1.269360
  H     -0.466903   -2.156528   -0.189629
  H     -1.420855    2.369830   -0.072431
  H     -0.568984    2.704625   -1.608830
  H     -2.453008    4.296315   -1.288940
  H     -2.746288    3.249798   -2.688989
  H     -3.590850    2.943270   -1.168011
  H     -4.067871    0.224981    1.650546
  H     -5.472296    0.641192    0.624670
  H     -5.337276   -1.651215   -0.407293
  H     -3.997155   -2.044168    0.671694
  H     -5.605014   -1.731346    1.343852

 Total Charge           Charge          ....    0
 Multiplicity           Mult            ....    1
 Number of Electrons    NEL             ....  202
 Basis Dimension        Dim             ....  334

ORBITAL ENERGIES
----------------

  NO   OCC          E(Eh)            E(eV)
   0   2.0000     -88.042116     -2395.7478
   1   2.0000     -88.041122     -2395.7207
   2   2.0000     -87.986197     -2394.2261
   3   2.0000     -87.980727     -2394.0773
   4   2.0000     -76.428254     -2079.7185
   5   2.0000     -76.423776     -2079.5967
   6   2.0000     -18.797880      -511.5163
   7   2.0000     -18.795242      -511.4445
   8   2.0000     -18.793977      -511.4101
   9   2.0000     -18.787332      -511.2293
  10   2.0000      -9.959184      -271.0032
  11   2.0000      -9.958836      -270.9937
  12   2.0000      -9.958751      -270.9914
  13   2.0000      -9.954761      -270.8828
  14   2.0000      -9.951794      -270.8021
  15   2.0000      -9.889678      -269.1118
  16   2.0000      -9.889645      -269.1109
  17   2.0000      -9.883825      -268.9526
  18   2.0000      -9.882946      -268.9286
  19   2.0000      -7.686782      -209.1680
  20   2.0000      -7.685723      -209.1392
  21   2.0000      -7.631406      -207.6611
  22   2.0000      -7.626116      -207.5172
  23   2.0000      -6.425597      -174.8494
  24   2.0000      -6.421144      -174.7282
  25   2.0000      -5.714372      -155.4960
  26   2.0000      -5.713328      -155.4676
  27   2.0000      -5.711545      -155.4190
  28   2.0000      -5.710322      -155.3858
  29   2.0000      -5.703864      -155.2100
  30   2.0000      -5.702975      -155.1858
  31   2.0000      -5.660433      -154.0282
  32   2.0000      -5.655108      -153.8833
  33   2.0000      -5.652069      -153.8006
  34   2.0000      -5.651423      -153.7830
  35   2.0000      -5.646692      -153.6543
  36   2.0000      -5.646180      -153.6404
  37   2.0000      -4.648709      -126.4978
  38   2.0000      -4.647241      -126.4578
  39   2.0000      -4.645707      -126.4161
  40   2.0000      -4.644057      -126.3712
  41   2.0000      -4.643067      -126.3443
  42   2.0000      -4.641150      -126.2921
  43   2.0000      -0.991414       -26.9778
  44   2.0000      -0.987370       -26.8677
  45   2.0000      -0.948453       -25.8087
  46   2.0000      -0.944082       -25.6898
  47   2.0000      -0.763238       -20.7688
  48   2.0000      -0.722082       -19.6489
  49   2.0000      -0.712532       -19.3890
  50   2.0000      -0.694246       -18.8914
  51   2.0000      -0.690514       -18.7898
  52   2.0000      -0.677053       -18.4236
  53   2.0000      -0.650663       -17.7054
  54   2.0000      -0.638301       -17.3691
  55   2.0000      -0.597194       -16.2505
  56   2.0000      -0.589431       -16.0392
  57   2.0000      -0.579912       -15.7802
  58   2.0000      -0.573587       -15.6081
  59   2.0000      -0.563289       -15.3279
  60   2.0000      -0.507195       -13.8015
  61   2.0000      -0.498983       -13.5780
  62   2.0000      -0.475531       -12.9399
  63   2.0000      -0.472947       -12.8696
  64   2.0000      -0.462091       -12.5741
  65   2.0000      -0.448176       -12.1955
  66   2.0000      -0.446782       -12.1576
  67   2.0000      -0.436887       -11.8883
  68   2.0000      -0.434931       -11.8351
  69   2.0000      -0.422407       -11.4943
  70   2.0000      -0.411531       -11.1983
  71   2.0000      -0.402798       -10.9607
  72   2.0000      -0.391298       -10.6478
  73   2.0000      -0.384846       -10.4722
  74   2.0000      -0.378321       -10.2946
  75   2.0000      -0.372417       -10.1340
  76   2.0000      -0.365467        -9.9449
  77   2.0000      -0.360769        -9.8170
  78   2.0000      -0.355023        -9.6607
  79   2.0000      -0.354572        -9.6484
  80   2.0000      -0.351092        -9.5537
  81   2.0000      -0.346805        -9.4371
  82   2.0000      -0.343789        -9.3550
  83   2.0000      -0.339162        -9.2291
  84   2.0000      -0.337320        -9.1790
  85   2.0000      -0.321021        -8.7354
  86   2.0000      -0.316625        -8.6158
  87   2.0000      -0.305540        -8.3142
  88   2.0000      -0.298003        -8.1091
  89   2.0000      -0.296516        -8.0686
  90   2.0000      -0.285397        -7.7661
  91   2.0000      -0.276614        -7.5271
  92   2.0000      -0.272420        -7.4129
  93   2.0000      -0.264968        -7.2102
  94   2.0000      -0.258721        -7.0401
  95   2.0000      -0.238354        -6.4859
  96   2.0000      -0.216902        -5.9022
  97   2.0000      -0.210291        -5.7223
  98   2.0000      -0.200964        -5.4685
  99   2.0000      -0.197600        -5.3770
 100   2.0000      -0.192700        -5.2436
 101   0.0000      -0.040725        -1.1082
 102   0.0000      -0.028503        -0.7756
 103   0.0000      -0.007187        -0.1956
 104   0.0000       0.002663         0.0725
 105   0.0000       0.013260         0.3608

MULLIKEN ATOMIC CHARGES
-----------------------
   0 C :   -0.358645
   1 C :    0.014723
   2 O :   -0.383089
   3 P :    0.582679
   4 S :   -0.310373
   5 O :   -0.363971
   6 C :   -0.010551
   7 C :   -0.300110
   8 S :   -0.079028
   9 C :   -0.373863
  10 S :   -0.076003
  11 P :    0.594125
  12 S :   -0.316845
  13 O :   -0.347227
  14 C :   -0.033005
  15 C :   -0.283312
  16 O :   -0.382081
  17 C :   -0.010712
  18 C :   -0.309171
  19 H :    0.116110
  20 H :    0.125927
  21 H :    0.146383
  22 H :    0.113643
  23 H :    0.106458
  24 H :    0.111324
  25 H :    0.112131
  26 H :    0.127964
  27 H :    0.113182
  28 H :    0.120087
  29 H :    0.191799
  30 H :    0.196009
  31 H :    0.110321
  32 H :    0.120410
  33 H :    0.107980
  34 H :    0.117813
  35 H :    0.120308
  36 H :    0.115369
  37 H :    0.108865
  38 H :    0.127791
  39 H :    0.124895
  40 H :    0.111691
Sum of atomic charges:   -0.0000000

LOEWDIN ATOMIC CHARGES
----------------------
   0 C :   -0.376851
   1 C :   -0.113198
   2 O :   -0.248641
   3 P :    0.568552
   4 S :   -0.315783
   5 O :   -0.243668
   6 C :   -0.111494
   7 C :   -0.361270
   8 S :    0.077462
   9 C :   -0.486993
  10 S :    0.080539
  11 P :    0.565869
  12 S :   -0.311068
  13 O :   -0.231488
  14 C :   -0.117591
  15 C :   -0.359423
  16 O :   -0.245097
  17 C :   -0.114729
  18 C :   -0.369494
  19 H :    0.132410
  20 H :    0.125500
  21 H :    0.122693
  22 H :    0.114837
  23 H :    0.119668
  24 H :    0.112318
  25 H :    0.122469
  26 H :    0.122717
  27 H :    0.131837
  28 H :    0.127957
  29 H :    0.132804
  30 H :    0.127199
  31 H :    0.106637
  32 H :    0.120624
  33 H :    0.128619
  34 H :    0.128176
  35 H :    0.125426
  36 H :    0.109619
  37 H :    0.120793
  38 H :    0.130691
  39 H :    0.121045
  40 H :    0.130329

  Mayer bond orders larger than 0.100000
B(  0-C ,  1-C ) :   1.1630 B(  0-C , 19-H ) :   0.9365 B(  0-C , 20-H ) :   0.9422
B(  0-C , 21-H ) :   0.9216 B(  1-C ,  2-O ) :   0.9029 B(  1-C , 22-H ) :   0.9200
B(  1-C , 23-H ) :   0.9334 B(  2-O ,  3-P ) :   1.0868 B(  3-P ,  4-S ) :   1.6462
B(  3-P ,  5-O ) :   1.1203 B(  3-P ,  8-S ) :   0.9521 B(  4-S ,  8-S ) :   0.1121
B(  5-O ,  6-C ) :   0.8909 B(  6-C ,  7-C ) :   1.1657 B(  6-C , 24-H ) :   0.9177
B(  6-C , 25-H ) :   0.9346 B(  7-C , 26-H ) :   0.9354 B(  7-C , 27-H ) :   0.9394
B(  7-C , 28-H ) :   0.9454 B(  8-S ,  9-C ) :   0.9829 B(  9-C , 10-S ) :   1.0161
B(  9-C , 29-H ) :   0.8869 B(  9-C , 30-H ) :   0.8624 B( 10-S , 11-P ) :   0.9454
B( 10-S , 12-S ) :   0.1105 B( 11-P , 12-S ) :   1.6340 B( 11-P , 13-O ) :   1.1429
B( 11-P , 16-O ) :   1.0822 B( 13-O , 14-C ) :   0.8945 B( 14-C , 15-C ) :   1.1592
B( 14-C , 31-H ) :   0.9130 B( 14-C , 32-H ) :   0.9278 B( 15-C , 33-H ) :   0.9405
B( 15-C , 34-H ) :   0.9463 B( 15-C , 35-H ) :   0.9415 B( 16-O , 17-C ) :   0.9102
B( 17-C , 18-C ) :   1.1679 B( 17-C , 36-H ) :   0.9267 B( 17-C , 37-H ) :   0.9331
B( 18-C , 38-H ) :   0.9426 B( 18-C , 39-H ) :   0.9320 B( 18-C , 40-H ) :   0.9347

Dispersion correction           -0.064501236
FINAL SINGLE POINT ENERGY     -2929.516665188654

DIPOLE MOMENT
-------------

Method             : SCF
Type of density    : Electron Density
Multiplicity       :   1
Irrep              :   0
Energy             : -2929.6369379662946812 Eh
Relativity type    :
Basis              : AO
                                X                 Y                 Z
Electronic contribution:      2.100915524      -4.449829933       3.783297037
Nuclear contribution   :     -1.620139965       5.005249039      -3.770491495
                        -----------------------------------------
Total Dipole Moment    :      0.480775559       0.555419105       0.012805541
                        -----------------------------------------
Magnitude (a.u.)       :      0.734710489
Magnitude (Debye)      :      1.867485651

Rotational constants in cm-1:             0.011856             0.004893             0.004292
Rotational constants in MHz :           355.440102           146.702486           128.657148

                             ****ORCA TERMINATED NORMALLY****
TOTAL RUN TIME: 0 days 0 hours 0 minutes 20 seconds 820 msec
