                         Program Version 6.0.0  -   RELEASE  -
|  1> ! pbe def2-sv(p) def2/J RI DEFGRID1 loosescf d4 GCP(DFT/SV(P)) printgap
|  2> %output
|  3>     printlevel normal
|  4> end
|  5> * xyz 0 1
|  6> C -2.5097091743 -0.7651061884 0.0017580215
|  7> C -1.2164891041 -0.0041878901 -0.0007768359
|  8> C -1.2174305315 1.3830941044 -0.0006213727
|  9> C -0.0337852006 2.0963936278 -0.0001993861
| 10> C 1.1719859165 1.418852597 0.0003221814
| 11> C 1.2141466212 0.0328574384 0.0001949137
| 12> C 0.0083628365 -0.6762944975 -0.0004953135
| 13> O -0.0156333865 -2.0442899761 -0.001070264
| 14> C 2.5304492011 -0.6943061183 0.0008304787
| 15> H -3.1247043568 -0.465636852 -0.8448775098
| 16> H -2.3206154506 -1.8326841456 -0.0571515465
| 17> H -3.0662243315 -0.5561524997 0.9140357397
| 18> H -2.1642392651 1.9027733945 -0.001217864
| 19> H -0.0492416351 3.1756277361 -0.0003838389
| 20> H 2.0993127051 1.9728757595 0.0009230558
| 21> H 0.8876650758 -2.3910855968 -0.0093877482
| 22> H 2.6272823042 -1.3278937563 0.8827359536
| 23> H 2.6368064388 -1.3118865326 -0.89134803
| 24> H 3.3473935696 0.0215531478 0.0115931074
| 25> *
| 26>
| 27>                          ****END OF INPUT****

CARTESIAN COORDINATES (ANGSTROEM)
---------------------------------
  C     -2.509709   -0.765106    0.001758
  C     -1.216489   -0.004188   -0.000777
  C     -1.217431    1.383094   -0.000621
  C     -0.033785    2.096394   -0.000199
  C      1.171986    1.418853    0.000322
  C      1.214147    0.032857    0.000195
  C      0.008363   -0.676294   -0.000495
  O     -0.015633   -2.044290   -0.001070
  C      2.530449   -0.694306    0.000830
  H     -3.124704   -0.465637   -0.844878
  H     -2.320615   -1.832684   -0.057152
  H     -3.066224   -0.556152    0.914036
  H     -2.164239    1.902773   -0.001218
  H     -0.049242    3.175628   -0.000384
  H      2.099313    1.972876    0.000923
  H      0.887665   -2.391086   -0.009388
  H      2.627282   -1.327894    0.882736
  H      2.636806   -1.311887   -0.891348
  H      3.347394    0.021553    0.011593

 Total Charge           Charge          ....    0
 Multiplicity           Mult            ....    1
 Number of Electrons    NEL             ....   66
 Basis Dimension        Dim             ....  146

ORBITAL ENERGIES
----------------

  NO   OCC          E(Eh)            E(eV)
   0   2.0000     -18.778618      -510.9922
   1   2.0000      -9.941819      -270.5306
   2   2.0000      -9.895748      -269.2770
   3   2.0000      -9.895721      -269.2763
   4   2.0000      -9.890488      -269.1339
   5   2.0000      -9.883678      -268.9486
   6   2.0000      -9.881223      -268.8817
   7   2.0000      -9.878411      -268.8052
   8   2.0000      -9.872419      -268.6422
   9   2.0000      -0.959046       -26.0970
  10   2.0000      -0.769503       -20.9392
  11   2.0000      -0.706592       -19.2274
  12   2.0000      -0.671992       -18.2858
  13   2.0000      -0.624366       -16.9899
  14   2.0000      -0.603030       -16.4093
  15   2.0000      -0.545397       -14.8410
  16   2.0000      -0.515335       -14.0230
  17   2.0000      -0.483243       -13.1497
  18   2.0000      -0.434801       -11.8315
  19   2.0000      -0.413099       -11.2410
  20   2.0000      -0.395010       -10.7488
  21   2.0000      -0.372840       -10.1455
  22   2.0000      -0.370023       -10.0688
  23   2.0000      -0.363348        -9.8872
  24   2.0000      -0.355188        -9.6652
  25   2.0000      -0.334381        -9.0990
  26   2.0000      -0.332296        -9.0422
  27   2.0000      -0.328931        -8.9507
  28   2.0000      -0.298018        -8.1095
  29   2.0000      -0.289104        -7.8669
  30   2.0000      -0.284275        -7.7355
  31   2.0000      -0.210318        -5.7230
  32   2.0000      -0.186664        -5.0794
  33   0.0000      -0.026211        -0.7133
  34   0.0000      -0.011632        -0.3165
  35   0.0000       0.018102         0.4926
  36   0.0000       0.054620         1.4863
  37   0.0000       0.070159         1.9091

MULLIKEN ATOMIC CHARGES
-----------------------
   0 C :   -0.215884
   1 C :   -0.029400
   2 C :   -0.135690
   3 C :   -0.034479
   4 C :   -0.149803
   5 C :    0.019746
   6 C :    0.079994
   7 O :   -0.339778
   8 C :   -0.291924
   9 H :    0.108519
  10 H :    0.114978
  11 H :    0.110886
  12 H :    0.030390
  13 H :    0.040938
  14 H :    0.029430
  15 H :    0.311843
  16 H :    0.118813
  17 H :    0.119155
  18 H :    0.112265
Sum of atomic charges:    0.0000000

LOEWDIN ATOMIC CHARGES
----------------------
   0 C :   -0.326208
   1 C :   -0.071116
   2 C :   -0.121268
   3 C :   -0.145249
   4 C :   -0.128231
   5 C :   -0.092553
   6 C :    0.025915
   7 O :   -0.237116
   8 C :   -0.336191
   9 H :    0.129665
  10 H :    0.129474
  11 H :    0.130802
  12 H :    0.120381
  13 H :    0.120561
  14 H :    0.119052
  15 H :    0.294958
  16 H :    0.126357
  17 H :    0.126586
  18 H :    0.134180

  Mayer bond orders larger than 0.100000
B(  0-C ,  1-C ) :   1.1144 B(  0-C ,  9-H ) :   0.9367 B(  0-C , 10-H ) :   0.9344
B(  0-C , 11-H ) :   0.9359 B(  1-C ,  2-C ) :   1.3977 B(  1-C ,  6-C ) :   1.3971
B(  2-C ,  3-C ) :   1.3477 B(  2-C , 12-H ) :   0.9712 B(  3-C ,  4-C ) :   1.3418
B(  3-C , 13-H ) :   0.9663 B(  4-C ,  5-C ) :   1.4071 B(  4-C , 14-H ) :   0.9599
B(  5-C ,  6-C ) :   1.3102 B(  5-C ,  8-C ) :   1.0779 B(  6-C ,  7-O ) :   1.2298
B(  7-O , 15-H ) :   0.8290 B(  8-C , 16-H ) :   0.9307 B(  8-C , 17-H ) :   0.9306
B(  8-C , 18-H ) :   0.9321

Dispersion correction           -0.019277049
FINAL SINGLE POINT ENERGY      -385.239532184944

DIPOLE MOMENT
-------------

Method             : SCF
Type of density    : Electron Density
Multiplicity       :   1
Irrep              :   0
Energy             :  -385.2990698286405973 Eh
Relativity type    :
Basis              : AO
                                X                 Y                 Z
Electronic contribution:     -0.278020259       0.556475907      -0.006303933
Nuclear contribution   :      0.819197763      -0.792567365       0.004601166
                        -----------------------------------------
Total Dipole Moment    :      0.541177504      -0.236091457      -0.001702767
                        -----------------------------------------
Magnitude (a.u.)       :      0.590436420
Magnitude (Debye)      :      1.500770112

Rotational constants in cm-1:             0.076900             0.059050             0.033824
Rotational constants in MHz :          2305.417701          1770.277461          1014.021968

                             ****ORCA TERMINATED NORMALLY****
TOTAL RUN TIME: 0 days 0 hours 0 minutes 10 seconds 31 msec
