                         Program Version 6.0.0  -   RELEASE  -
|  1> ! pbe def2-sv(p) def2/J RI DEFGRID1 loosescf d4 GCP(DFT/SV(P)) printgap
|  2> %output
|  3>     printlevel normal
|  4> end
|  5> * xyz 0 1
|  6> C 5.1122115909 -2.2656222943 -1.426648383
|  7> C 4.1344873559 -1.1114547094 -1.5154723367
|  8> O 3.1155479456 -1.3164231491 -0.5149518258
|  9> P 2.1477746929 -0.1414207886 -0.0657702378
| 10> S 3.0389563444 1.5432304043 0.4040612868
| 11> O 1.3098559075 -0.8533791064 1.0681640904
| 12> C 1.5642005954 -0.6293688907 2.4695390344
| 13> C 2.8355452218 -1.322218676 2.9115020399
| 14> S 0.7529910931 -0.0454931821 -1.6520413386
| 15> C 0.0822624603 1.5900078742 -1.2414524317
| 16> S -0.6987682566 1.6543086528 0.3936735948
| 17> P -2.2316914207 0.2576020013 -0.0158053195
| 18> S -3.0025531896 0.2739397474 -1.8209972396
| 19> O -3.2722273133 0.4621966553 1.1668564205
| 20> C -4.3780364416 1.3778943251 1.0742701811
| 21> C -3.9235906693 2.822998908 1.0511014474
| 22> O -1.507297381 -1.0756107043 0.4358391206
| 23> C -1.8742106538 -2.3691964088 -0.0818289825
| 24> C -3.2197390776 -2.8191009699 0.4472382782
| 25> H 5.5867792091 -2.2810059921 -0.4497234695
| 26> H 4.589350526 -3.2052134415 -1.5793507143
| 27> H 5.8719255236 -2.1474414418 -2.1922071871
| 28> H 3.6494143472 -1.0722473385 -2.4947665278
| 29> H 4.6247517074 -0.151607175 -1.3207580823
| 30> H 1.6257476333 0.4497974281 2.6456855458
| 31> H 0.6800920132 -1.0328191797 2.965140552
| 32> H 2.9623927716 -1.1975403574 3.982246531
| 33> H 2.7903513021 -2.3807598091 2.6700324095
| 34> H 3.6890420957 -0.8800211651 2.3985564524
| 35> H -0.6536351631 1.8209331671 -2.0108733693
| 36> H 0.8887873042 2.322285401 -1.2261230439
| 37> H -4.9475297649 1.140426002 0.1700074606
| 38> H -4.97523672 1.1567015012 1.9598416053
| 39> H -3.3833192735 3.0294521633 0.1280483374
| 40> H -4.7907600646 3.4734287504 1.1040891344
| 41> H -3.2660507609 3.0267018892 1.892617998
| 42> H -1.883281943 -2.3156591262 -1.1757222342
| 43> H -1.0639202534 -3.0217235761 0.2468886375
| 44> H -4.0015589385 -2.1593372604 0.07237659
| 45> H -3.4199123044 -3.831257681 0.1100351304
| 46> H -3.2258359596 -2.7890897205 1.5336139611
| 47> *
| 48>
| 49>                          ****END OF INPUT****

CARTESIAN COORDINATES (ANGSTROEM)
---------------------------------
  C      5.112212   -2.265622   -1.426648
  C      4.134487   -1.111455   -1.515472
  O      3.115548   -1.316423   -0.514952
  P      2.147775   -0.141421   -0.065770
  S      3.038956    1.543230    0.404061
  O      1.309856   -0.853379    1.068164
  C      1.564201   -0.629369    2.469539
  C      2.835545   -1.322219    2.911502
  S      0.752991   -0.045493   -1.652041
  C      0.082262    1.590008   -1.241452
  S     -0.698768    1.654309    0.393674
  P     -2.231691    0.257602   -0.015805
  S     -3.002553    0.273940   -1.820997
  O     -3.272227    0.462197    1.166856
  C     -4.378036    1.377894    1.074270
  C     -3.923591    2.822999    1.051101
  O     -1.507297   -1.075611    0.435839
  C     -1.874211   -2.369196   -0.081829
  C     -3.219739   -2.819101    0.447238
  H      5.586779   -2.281006   -0.449723
  H      4.589351   -3.205213   -1.579351
  H      5.871926   -2.147441   -2.192207
  H      3.649414   -1.072247   -2.494767
  H      4.624752   -0.151607   -1.320758
  H      1.625748    0.449797    2.645686
  H      0.680092   -1.032819    2.965141
  H      2.962393   -1.197540    3.982247
  H      2.790351   -2.380760    2.670032
  H      3.689042   -0.880021    2.398556
  H     -0.653635    1.820933   -2.010873
  H      0.888787    2.322285   -1.226123
  H     -4.947530    1.140426    0.170007
  H     -4.975237    1.156702    1.959842
  H     -3.383319    3.029452    0.128048
  H     -4.790760    3.473429    1.104089
  H     -3.266051    3.026702    1.892618
  H     -1.883282   -2.315659   -1.175722
  H     -1.063920   -3.021724    0.246889
  H     -4.001559   -2.159337    0.072377
  H     -3.419912   -3.831258    0.110035
  H     -3.225836   -2.789090    1.533614

 Total Charge           Charge          ....    0
 Multiplicity           Mult            ....    1
 Number of Electrons    NEL             ....  202
 Basis Dimension        Dim             ....  334

ORBITAL ENERGIES
----------------

  NO   OCC          E(Eh)            E(eV)
   0   2.0000     -88.041485     -2395.7306
   1   2.0000     -88.039935     -2395.6884
   2   2.0000     -87.989338     -2394.3116
   3   2.0000     -87.987421     -2394.2594
   4   2.0000     -76.425558     -2079.6452
   5   2.0000     -76.424598     -2079.6190
   6   2.0000     -18.794636      -511.4280
   7   2.0000     -18.794134      -511.4144
   8   2.0000     -18.787012      -511.2206
   9   2.0000     -18.785250      -511.1726
  10   2.0000      -9.953320      -270.8436
  11   2.0000      -9.953213      -270.8407
  12   2.0000      -9.953189      -270.8400
  13   2.0000      -9.947497      -270.6852
  14   2.0000      -9.946891      -270.6687
  15   2.0000      -9.889170      -269.0980
  16   2.0000      -9.884346      -268.9667
  17   2.0000      -9.881819      -268.8980
  18   2.0000      -9.881666      -268.8938
  19   2.0000      -7.686393      -209.1574
  20   2.0000      -7.685067      -209.1213
  21   2.0000      -7.634263      -207.7388
  22   2.0000      -7.632392      -207.6880
  23   2.0000      -6.423117      -174.7819
  24   2.0000      -6.422305      -174.7598
  25   2.0000      -5.714243      -155.4925
  26   2.0000      -5.712896      -155.4558
  27   2.0000      -5.711050      -155.4056
  28   2.0000      -5.709674      -155.3681
  29   2.0000      -5.703232      -155.1928
  30   2.0000      -5.701966      -155.1584
  31   2.0000      -5.663018      -154.0985
  32   2.0000      -5.661129      -154.0471
  33   2.0000      -5.654928      -153.8784
  34   2.0000      -5.654578      -153.8689
  35   2.0000      -5.653015      -153.8264
  36   2.0000      -5.652752      -153.8192
  37   2.0000      -4.645454      -126.4092
  38   2.0000      -4.644865      -126.3932
  39   2.0000      -4.644616      -126.3864
  40   2.0000      -4.644113      -126.3727
  41   2.0000      -4.643804      -126.3643
  42   2.0000      -4.642914      -126.3401
  43   2.0000      -0.986769       -26.8514
  44   2.0000      -0.985494       -26.8167
  45   2.0000      -0.945431       -25.7265
  46   2.0000      -0.943813       -25.6825
  47   2.0000      -0.764160       -20.7939
  48   2.0000      -0.720909       -19.6169
  49   2.0000      -0.707660       -19.2564
  50   2.0000      -0.687239       -18.7007
  51   2.0000      -0.685584       -18.6557
  52   2.0000      -0.672344       -18.2954
  53   2.0000      -0.650521       -17.7016
  54   2.0000      -0.638417       -17.3722
  55   2.0000      -0.602193       -16.3865
  56   2.0000      -0.594652       -16.1813
  57   2.0000      -0.570634       -15.5277
  58   2.0000      -0.565417       -15.3858
  59   2.0000      -0.559993       -15.2382
  60   2.0000      -0.503895       -13.7117
  61   2.0000      -0.491750       -13.3812
  62   2.0000      -0.476317       -12.9612
  63   2.0000      -0.471512       -12.8305
  64   2.0000      -0.454414       -12.3652
  65   2.0000      -0.443160       -12.0590
  66   2.0000      -0.439327       -11.9547
  67   2.0000      -0.435427       -11.8486
  68   2.0000      -0.427209       -11.6250
  69   2.0000      -0.413424       -11.2498
  70   2.0000      -0.406367       -11.0578
  71   2.0000      -0.393788       -10.7155
  72   2.0000      -0.389045       -10.5865
  73   2.0000      -0.386398       -10.5144
  74   2.0000      -0.381241       -10.3741
  75   2.0000      -0.373368       -10.1599
  76   2.0000      -0.372207       -10.1283
  77   2.0000      -0.358111        -9.7447
  78   2.0000      -0.356591        -9.7033
  79   2.0000      -0.350506        -9.5377
  80   2.0000      -0.347672        -9.4606
  81   2.0000      -0.346573        -9.4307
  82   2.0000      -0.342045        -9.3075
  83   2.0000      -0.339854        -9.2479
  84   2.0000      -0.331080        -9.0091
  85   2.0000      -0.320267        -8.7149
  86   2.0000      -0.308092        -8.3836
  87   2.0000      -0.301150        -8.1947
  88   2.0000      -0.295926        -8.0526
  89   2.0000      -0.286238        -7.7889
  90   2.0000      -0.280323        -7.6280
  91   2.0000      -0.276159        -7.5147
  92   2.0000      -0.265419        -7.2224
  93   2.0000      -0.264043        -7.1850
  94   2.0000      -0.258752        -7.0410
  95   2.0000      -0.231845        -6.3088
  96   2.0000      -0.217141        -5.9087
  97   2.0000      -0.214615        -5.8400
  98   2.0000      -0.208747        -5.6803
  99   2.0000      -0.200899        -5.4668
 100   2.0000      -0.199760        -5.4358
 101   0.0000      -0.043687        -1.1888
 102   0.0000      -0.022043        -0.5998
 103   0.0000       0.002328         0.0633
 104   0.0000       0.005275         0.1435
 105   0.0000       0.012263         0.3337

MULLIKEN ATOMIC CHARGES
-----------------------
   0 C :   -0.279784
   1 C :   -0.013092
   2 O :   -0.374794
   3 P :    0.615606
   4 S :   -0.342033
   5 O :   -0.349677
   6 C :   -0.002277
   7 C :   -0.303025
   8 S :   -0.083600
   9 C :   -0.361244
  10 S :   -0.073824
  11 P :    0.613211
  12 S :   -0.340213
  13 O :   -0.370592
  14 C :   -0.004491
  15 C :   -0.315047
  16 O :   -0.351167
  17 C :   -0.000667
  18 C :   -0.304388
  19 H :    0.118952
  20 H :    0.117005
  21 H :    0.112761
  22 H :    0.103862
  23 H :    0.106424
  24 H :    0.113048
  25 H :    0.104480
  26 H :    0.110806
  27 H :    0.113547
  28 H :    0.120789
  29 H :    0.190173
  30 H :    0.192479
  31 H :    0.111127
  32 H :    0.105761
  33 H :    0.126726
  34 H :    0.113544
  35 H :    0.119117
  36 H :    0.111604
  37 H :    0.104178
  38 H :    0.120004
  39 H :    0.110686
  40 H :    0.114027
Sum of atomic charges:    0.0000000

LOEWDIN ATOMIC CHARGES
----------------------
   0 C :   -0.350108
   1 C :   -0.120672
   2 O :   -0.248145
   3 P :    0.570498
   4 S :   -0.327361
   5 O :   -0.228339
   6 C :   -0.116739
   7 C :   -0.364051
   8 S :    0.084147
   9 C :   -0.480379
  10 S :    0.098269
  11 P :    0.573170
  12 S :   -0.326529
  13 O :   -0.244266
  14 C :   -0.118860
  15 C :   -0.369290
  16 O :   -0.231576
  17 C :   -0.117060
  18 C :   -0.364270
  19 H :    0.127954
  20 H :    0.127218
  21 H :    0.131275
  22 H :    0.110004
  23 H :    0.108794
  24 H :    0.109752
  25 H :    0.118312
  26 H :    0.129694
  27 H :    0.124866
  28 H :    0.121673
  29 H :    0.129993
  30 H :    0.130832
  31 H :    0.110624
  32 H :    0.118935
  33 H :    0.121237
  34 H :    0.131291
  35 H :    0.124923
  36 H :    0.109798
  37 H :    0.118232
  38 H :    0.121542
  39 H :    0.129522
  40 H :    0.125090

  Mayer bond orders larger than 0.100000
B(  0-C ,  1-C ) :   1.1608 B(  0-C , 19-H ) :   0.9514 B(  0-C , 20-H ) :   0.9505
B(  0-C , 21-H ) :   0.9419 B(  1-C ,  2-O ) :   0.9038 B(  1-C , 22-H ) :   0.9282
B(  1-C , 23-H ) :   0.9108 B(  2-O ,  3-P ) :   1.1126 B(  3-P ,  4-S ) :   1.5921
B(  3-P ,  5-O ) :   1.1433 B(  3-P ,  8-S ) :   0.9581 B(  4-S ,  8-S ) :   0.1085
B(  5-O ,  6-C ) :   0.9015 B(  6-C ,  7-C ) :   1.1626 B(  6-C , 24-H ) :   0.9146
B(  6-C , 25-H ) :   0.9333 B(  7-C , 26-H ) :   0.9402 B(  7-C , 27-H ) :   0.9467
B(  7-C , 28-H ) :   0.9363 B(  8-S ,  9-C ) :   1.0040 B(  9-C , 10-S ) :   1.0045
B(  9-C , 29-H ) :   0.8849 B(  9-C , 30-H ) :   0.8840 B( 10-S , 11-P ) :   0.9538
B( 10-S , 12-S ) :   0.1082 B( 11-P , 12-S ) :   1.5824 B( 11-P , 13-O ) :   1.1128
B( 11-P , 16-O ) :   1.1368 B( 13-O , 14-C ) :   0.9078 B( 14-C , 15-C ) :   1.1662
B( 14-C , 31-H ) :   0.9164 B( 14-C , 32-H ) :   0.9341 B( 15-C , 33-H ) :   0.9355
B( 15-C , 34-H ) :   0.9377 B( 15-C , 35-H ) :   0.9446 B( 16-O , 17-C ) :   0.9063
B( 17-C , 18-C ) :   1.1620 B( 17-C , 36-H ) :   0.9165 B( 17-C , 37-H ) :   0.9336
B( 18-C , 38-H ) :   0.9375 B( 18-C , 39-H ) :   0.9401 B( 18-C , 40-H ) :   0.9465

Dispersion correction           -0.065903043
FINAL SINGLE POINT ENERGY     -2929.528177660935

DIPOLE MOMENT
-------------

Method             : SCF
Type of density    : Electron Density
Multiplicity       :   1
Irrep              :   0
Energy             : -2929.6463442614031010 Eh
Relativity type    :
Basis              : AO
                                X                 Y                 Z
Electronic contribution:     -1.406030931      10.787073563      -8.474857153
Nuclear contribution   :      1.331386039     -11.545415937       9.028897319
                        -----------------------------------------
Total Dipole Moment    :     -0.074644892      -0.758342373       0.554040167
                        -----------------------------------------
Magnitude (a.u.)       :      0.942133494
Magnitude (Debye)      :      2.394713032

Rotational constants in cm-1:             0.013042             0.004820             0.004687
Rotational constants in MHz :           391.000103           144.487276           140.504928

                             ****ORCA TERMINATED NORMALLY****
TOTAL RUN TIME: 0 days 0 hours 0 minutes 20 seconds 697 msec
