                         Program Version 6.0.0  -   RELEASE  -
|  1> ! r2scan-3c def2/J RI DEFGRID2 scfconv6 printgap
|  2> %output
|  3>     printlevel normal
|  4> end
|  5> * xyz 0 1
|  6> C 3.1322093597 1.5136668522 2.9475914475
|  7> C 1.7534106491 0.9922407446 2.6034825358
|  8> O 1.5711829221 0.8747684064 1.175877693
|  9> P 2.3199534529 -0.2268209917 0.3175714599
| 10> S 2.7143071101 -1.9145464394 1.2403783141
| 11> O 3.5830487761 0.5770578951 -0.2108150629
| 12> C 4.7284488106 -0.0757490578 -0.7848192374
| 13> C 4.4099875579 -0.7169065047 -2.1201088797
| 14> S 1.0158499026 -0.3284250127 -1.3467566219
| 15> C -0.1375016322 -1.5119896227 -0.5972086056
| 16> S -1.1969605274 -0.7646426191 0.6600706328
| 17> P -2.4650945688 0.2892031114 -0.69934278
| 18> S -2.8194112682 -0.6146559398 -2.3976627471
| 19> O -1.8075655771 1.6992722628 -0.9461409846
| 20> C -1.1506355397 2.5672774039 0.008202579
| 21> C -1.9512625679 2.7746995227 1.2753399036
| 22> O -3.7577010909 0.6393756971 0.155501998
| 23> C -4.8879562372 -0.2456760955 0.2429137767
| 24> C -4.5647230498 -1.5225071177 0.9917846286
| 25> H 3.1975714652 1.6805447981 4.0181252687
| 26> H 3.8866707524 0.7835729007 2.6568964082
| 27> H 3.3243753547 2.4451654705 2.4217968856
| 28> H 0.9674150744 1.6821121149 2.9127835999
| 29> H 1.5834534711 0.0098734511 3.0550381502
| 30> H 5.4627648919 0.7243989336 -0.8866592488
| 31> H 5.0900424758 -0.8272583528 -0.0755270086
| 32> H 3.9517337266 0.0079404488 -2.7885801697
| 33> H 5.3247374239 -1.0924946931 -2.5673630849
| 34> H 3.7189474897 -1.5475370719 -1.9802432783
| 35> H 0.4268606189 -2.3076678396 -0.1102175122
| 36> H -0.7583632483 -1.8983943403 -1.40652128
| 37> H -0.1671316789 2.1438917154 0.2288200219
| 38> H -1.028757448 3.4974528852 -0.5493541099
| 39> H -1.4455062272 3.5082963208 1.8960913044
| 40> H -2.9487004568 3.1337813383 1.0356259112
| 41> H -2.0372226189 1.8393504446 1.8256003036
| 42> H -5.6410798769 0.3468545439 0.7641886933
| 43> H -5.2289353068 -0.4720909261 -0.7721667088
| 44> H -3.8680360496 -2.1278340689 0.4139927111
| 45> H -4.1166923279 -1.2950498626 1.9556852285
| 46> H -5.4779108061 -2.0890061039 1.1433110559
| 47> *
| 48>
| 49>                          ****END OF INPUT****

CARTESIAN COORDINATES (ANGSTROEM)
---------------------------------
  C      3.132209    1.513667    2.947591
  C      1.753411    0.992241    2.603483
  O      1.571183    0.874768    1.175878
  P      2.319953   -0.226821    0.317571
  S      2.714307   -1.914546    1.240378
  O      3.583049    0.577058   -0.210815
  C      4.728449   -0.075749   -0.784819
  C      4.409988   -0.716907   -2.120109
  S      1.015850   -0.328425   -1.346757
  C     -0.137502   -1.511990   -0.597209
  S     -1.196961   -0.764643    0.660071
  P     -2.465095    0.289203   -0.699343
  S     -2.819411   -0.614656   -2.397663
  O     -1.807566    1.699272   -0.946141
  C     -1.150636    2.567277    0.008203
  C     -1.951263    2.774700    1.275340
  O     -3.757701    0.639376    0.155502
  C     -4.887956   -0.245676    0.242914
  C     -4.564723   -1.522507    0.991785
  H      3.197571    1.680545    4.018125
  H      3.886671    0.783573    2.656896
  H      3.324375    2.445165    2.421797
  H      0.967415    1.682112    2.912784
  H      1.583453    0.009873    3.055038
  H      5.462765    0.724399   -0.886659
  H      5.090042   -0.827258   -0.075527
  H      3.951734    0.007940   -2.788580
  H      5.324737   -1.092495   -2.567363
  H      3.718947   -1.547537   -1.980243
  H      0.426861   -2.307668   -0.110218
  H     -0.758363   -1.898394   -1.406521
  H     -0.167132    2.143892    0.228820
  H     -1.028757    3.497453   -0.549354
  H     -1.445506    3.508296    1.896091
  H     -2.948700    3.133781    1.035626
  H     -2.037223    1.839350    1.825600
  H     -5.641080    0.346855    0.764189
  H     -5.228935   -0.472091   -0.772167
  H     -3.868036   -2.127834    0.413993
  H     -4.116692   -1.295050    1.955685
  H     -5.477911   -2.089006    1.143311

 Total Charge           Charge          ....    0
 Multiplicity           Mult            ....    1
 Number of Electrons    NEL             ....  202
 Basis Dimension        Dim             ....  539

ORBITAL ENERGIES
----------------

  NO   OCC          E(Eh)            E(eV)
   0   2.0000     -88.576279     -2410.2831
   1   2.0000     -88.573776     -2410.2150
   2   2.0000     -88.526547     -2408.9298
   3   2.0000     -88.516121     -2408.6461
   4   2.0000     -76.917999     -2093.0452
   5   2.0000     -76.912875     -2092.9057
   6   2.0000     -18.998417      -516.9732
   7   2.0000     -18.995213      -516.8860
   8   2.0000     -18.992648      -516.8162
   9   2.0000     -18.986689      -516.6541
  10   2.0000     -10.102844      -274.9124
  11   2.0000     -10.102831      -274.9120
  12   2.0000     -10.102303      -274.8976
  13   2.0000     -10.098375      -274.7908
  14   2.0000     -10.096761      -274.7468
  15   2.0000     -10.033950      -273.0377
  16   2.0000     -10.032546      -272.9995
  17   2.0000     -10.031077      -272.9595
  18   2.0000     -10.027864      -272.8721
  19   2.0000      -7.870405      -214.1646
  20   2.0000      -7.868149      -214.1032
  21   2.0000      -7.821293      -212.8282
  22   2.0000      -7.811023      -212.5487
  23   2.0000      -6.596686      -179.5049
  24   2.0000      -6.591121      -179.3535
  25   2.0000      -5.817258      -158.2956
  26   2.0000      -5.814937      -158.2325
  27   2.0000      -5.814350      -158.2165
  28   2.0000      -5.812021      -158.1531
  29   2.0000      -5.807500      -158.0301
  30   2.0000      -5.805338      -157.9713
  31   2.0000      -5.768827      -156.9778
  32   2.0000      -5.761609      -156.7813
  33   2.0000      -5.761379      -156.7751
  34   2.0000      -5.758679      -156.7016
  35   2.0000      -5.751263      -156.4998
  36   2.0000      -5.751026      -156.4934
  37   2.0000      -4.742099      -129.0391
  38   2.0000      -4.741559      -129.0244
  39   2.0000      -4.740511      -128.9959
  40   2.0000      -4.736851      -128.8963
  41   2.0000      -4.736113      -128.8762
  42   2.0000      -4.734625      -128.8357
  43   2.0000      -1.055586       -28.7240
  44   2.0000      -1.048036       -28.5185
  45   2.0000      -1.017133       -27.6776
  46   2.0000      -1.008604       -27.4455
  47   2.0000      -0.801898       -21.8208
  48   2.0000      -0.759855       -20.6767
  49   2.0000      -0.750664       -20.4266
  50   2.0000      -0.735711       -20.0197
  51   2.0000      -0.733912       -19.9708
  52   2.0000      -0.714626       -19.4460
  53   2.0000      -0.688026       -18.7221
  54   2.0000      -0.668858       -18.2006
  55   2.0000      -0.637280       -17.3413
  56   2.0000      -0.627299       -17.0697
  57   2.0000      -0.610229       -16.6052
  58   2.0000      -0.608473       -16.5574
  59   2.0000      -0.590386       -16.0652
  60   2.0000      -0.525016       -14.2864
  61   2.0000      -0.514464       -13.9993
  62   2.0000      -0.497936       -13.5495
  63   2.0000      -0.488646       -13.2967
  64   2.0000      -0.479332       -13.0433
  65   2.0000      -0.463667       -12.6170
  66   2.0000      -0.461736       -12.5645
  67   2.0000      -0.459797       -12.5117
  68   2.0000      -0.447867       -12.1871
  69   2.0000      -0.439856       -11.9691
  70   2.0000      -0.427031       -11.6201
  71   2.0000      -0.416718       -11.3395
  72   2.0000      -0.414365       -11.2754
  73   2.0000      -0.408286       -11.1100
  74   2.0000      -0.395162       -10.7529
  75   2.0000      -0.390519       -10.6266
  76   2.0000      -0.383042       -10.4231
  77   2.0000      -0.379202       -10.3186
  78   2.0000      -0.375116       -10.2074
  79   2.0000      -0.367580       -10.0024
  80   2.0000      -0.366266        -9.9666
  81   2.0000      -0.363432        -9.8895
  82   2.0000      -0.359267        -9.7761
  83   2.0000      -0.355720        -9.6796
  84   2.0000      -0.349660        -9.5147
  85   2.0000      -0.335473        -9.1287
  86   2.0000      -0.324471        -8.8293
  87   2.0000      -0.313620        -8.5340
  88   2.0000      -0.308155        -8.3853
  89   2.0000      -0.306025        -8.3274
  90   2.0000      -0.303851        -8.2682
  91   2.0000      -0.293818        -7.9952
  92   2.0000      -0.284986        -7.7549
  93   2.0000      -0.279372        -7.6021
  94   2.0000      -0.274875        -7.4797
  95   2.0000      -0.247892        -6.7455
  96   2.0000      -0.231453        -6.2982
  97   2.0000      -0.228926        -6.2294
  98   2.0000      -0.219275        -5.9668
  99   2.0000      -0.215411        -5.8616
 100   2.0000      -0.212238        -5.7753
 101   0.0000      -0.046214        -1.2575
 102   0.0000      -0.026841        -0.7304
 103   0.0000      -0.004053        -0.1103
 104   0.0000       0.000307         0.0084
 105   0.0000       0.015679         0.4266

MULLIKEN ATOMIC CHARGES
-----------------------
   0 C :   -0.438896
   1 C :   -0.153963
   2 O :   -0.270794
   3 P :    0.671614
   4 S :   -0.484568
   5 O :   -0.309366
   6 C :   -0.147887
   7 C :   -0.454780
   8 S :   -0.099736
   9 C :   -0.248911
  10 S :   -0.157994
  11 P :    0.654517
  12 S :   -0.463533
  13 O :   -0.256651
  14 C :   -0.148012
  15 C :   -0.455858
  16 O :   -0.269189
  17 C :   -0.168603
  18 C :   -0.444339
  19 H :    0.148166
  20 H :    0.167161
  21 H :    0.155598
  22 H :    0.150778
  23 H :    0.174988
  24 H :    0.149171
  25 H :    0.170395
  26 H :    0.158312
  27 H :    0.148947
  28 H :    0.178496
  29 H :    0.213828
  30 H :    0.221493
  31 H :    0.185413
  32 H :    0.150363
  33 H :    0.148492
  34 H :    0.162346
  35 H :    0.160663
  36 H :    0.147910
  37 H :    0.175941
  38 H :    0.178893
  39 H :    0.152169
  40 H :    0.147424
Sum of atomic charges:    0.0000000

LOEWDIN ATOMIC CHARGES
----------------------
   0 C :   -0.397776
   1 C :    0.017857
   2 O :   -0.698195
   3 P :    0.378063
   4 S :   -0.134174
   5 O :   -0.659184
   6 C :    0.020904
   7 C :   -0.405684
   8 S :    0.179274
   9 C :   -0.425191
  10 S :    0.146803
  11 P :    0.385974
  12 S :   -0.111566
  13 O :   -0.651230
  14 C :    0.024061
  15 C :   -0.403718
  16 O :   -0.670468
  17 C :    0.021412
  18 C :   -0.408397
  19 H :    0.160031
  20 H :    0.165105
  21 H :    0.160880
  22 H :    0.179131
  23 H :    0.181985
  24 H :    0.180084
  25 H :    0.179374
  26 H :    0.161298
  27 H :    0.160149
  28 H :    0.166424
  29 H :    0.192450
  30 H :    0.194910
  31 H :    0.196094
  32 H :    0.182147
  33 H :    0.158825
  34 H :    0.165124
  35 H :    0.162419
  36 H :    0.179032
  37 H :    0.181217
  38 H :    0.166293
  39 H :    0.159035
  40 H :    0.159229

  Mayer bond orders larger than 0.100000
B(  0-C ,  1-C ) :   0.9267 B(  0-C , 19-H ) :   0.9623 B(  0-C , 20-H ) :   0.9587
B(  0-C , 21-H ) :   0.9722 B(  1-C ,  2-O ) :   0.7868 B(  1-C , 22-H ) :   0.9628
B(  1-C , 23-H ) :   0.9607 B(  2-O ,  3-P ) :   1.1273 B(  3-P ,  4-S ) :   1.7486
B(  3-P ,  5-O ) :   1.0735 B(  3-P ,  8-S ) :   1.1029 B(  5-O ,  6-C ) :   0.8110
B(  6-C ,  7-C ) :   0.9238 B(  6-C , 24-H ) :   0.9578 B(  6-C , 25-H ) :   0.9657
B(  7-C , 26-H ) :   0.9685 B(  7-C , 27-H ) :   0.9581 B(  7-C , 28-H ) :   0.9610
B(  8-S ,  9-C ) :   0.9129 B(  9-C , 10-S ) :   0.9101 B(  9-C , 29-H ) :   0.9040
B(  9-C , 30-H ) :   0.8998 B( 10-S , 11-P ) :   0.9991 B( 11-P , 12-S ) :   1.8082
B( 11-P , 13-O ) :   1.1827 B( 11-P , 16-O ) :   1.0414 B( 13-O , 14-C ) :   0.8149
B( 14-C , 15-C ) :   0.9012 B( 14-C , 31-H ) :   0.9501 B( 14-C , 32-H ) :   0.9611
B( 15-C , 33-H ) :   0.9595 B( 15-C , 34-H ) :   0.9659 B( 15-C , 35-H ) :   0.9664
B( 16-O , 17-C ) :   0.8095 B( 17-C , 18-C ) :   0.9133 B( 17-C , 36-H ) :   0.9618
B( 17-C , 37-H ) :   0.9679 B( 18-C , 38-H ) :   0.9636 B( 18-C , 39-H ) :   0.9689
B( 18-C , 40-H ) :   0.9571

Dispersion correction           -0.021787112
FINAL SINGLE POINT ENERGY     -2932.462219309426

DIPOLE MOMENT
-------------

Method             : SCF
Type of density    : Electron Density
Multiplicity       :   1
Irrep              :   0
Energy             : -2932.4870855436683996 Eh
Relativity type    :
Basis              : AO
                                X                 Y                 Z
Electronic contribution:     -3.613092978      -6.786314118     -11.518469950
Nuclear contribution   :      4.087436373       7.747509278      12.772803188
                        -----------------------------------------
Total Dipole Moment    :      0.474343395       0.961195161       1.254333238
                        -----------------------------------------
Magnitude (a.u.)       :      1.649924139
Magnitude (Debye)      :      4.193773877

Rotational constants in cm-1:             0.013220             0.004792             0.004415
Rotational constants in MHz :           396.324101           143.650604           132.371853

                             ****ORCA TERMINATED NORMALLY****
TOTAL RUN TIME: 0 days 0 hours 1 minutes 20 seconds 76 msec
