                         Program Version 6.0.0  -   RELEASE  -
|  1> ! r2scan-3c def2/J RI DEFGRID2 scfconv6 printgap
|  2> %output
|  3>     printlevel normal
|  4> end
|  5> %cpcm
|  6>     smd true
|  7>     smdsolvent "water"
|  8> end
|  9> * xyz 0 1
| 10> C 3.1322093597 1.5136668522 2.9475914475
| 11> C 1.7534106491 0.9922407446 2.6034825358
| 12> O 1.5711829221 0.8747684064 1.175877693
| 13> P 2.3199534529 -0.2268209917 0.3175714599
| 14> S 2.7143071101 -1.9145464394 1.2403783141
| 15> O 3.5830487761 0.5770578951 -0.2108150629
| 16> C 4.7284488106 -0.0757490578 -0.7848192374
| 17> C 4.4099875579 -0.7169065047 -2.1201088797
| 18> S 1.0158499026 -0.3284250127 -1.3467566219
| 19> C -0.1375016322 -1.5119896227 -0.5972086056
| 20> S -1.1969605274 -0.7646426191 0.6600706328
| 21> P -2.4650945688 0.2892031114 -0.69934278
| 22> S -2.8194112682 -0.6146559398 -2.3976627471
| 23> O -1.8075655771 1.6992722628 -0.9461409846
| 24> C -1.1506355397 2.5672774039 0.008202579
| 25> C -1.9512625679 2.7746995227 1.2753399036
| 26> O -3.7577010909 0.6393756971 0.155501998
| 27> C -4.8879562372 -0.2456760955 0.2429137767
| 28> C -4.5647230498 -1.5225071177 0.9917846286
| 29> H 3.1975714652 1.6805447981 4.0181252687
| 30> H 3.8866707524 0.7835729007 2.6568964082
| 31> H 3.3243753547 2.4451654705 2.4217968856
| 32> H 0.9674150744 1.6821121149 2.9127835999
| 33> H 1.5834534711 0.0098734511 3.0550381502
| 34> H 5.4627648919 0.7243989336 -0.8866592488
| 35> H 5.0900424758 -0.8272583528 -0.0755270086
| 36> H 3.9517337266 0.0079404488 -2.7885801697
| 37> H 5.3247374239 -1.0924946931 -2.5673630849
| 38> H 3.7189474897 -1.5475370719 -1.9802432783
| 39> H 0.4268606189 -2.3076678396 -0.1102175122
| 40> H -0.7583632483 -1.8983943403 -1.40652128
| 41> H -0.1671316789 2.1438917154 0.2288200219
| 42> H -1.028757448 3.4974528852 -0.5493541099
| 43> H -1.4455062272 3.5082963208 1.8960913044
| 44> H -2.9487004568 3.1337813383 1.0356259112
| 45> H -2.0372226189 1.8393504446 1.8256003036
| 46> H -5.6410798769 0.3468545439 0.7641886933
| 47> H -5.2289353068 -0.4720909261 -0.7721667088
| 48> H -3.8680360496 -2.1278340689 0.4139927111
| 49> H -4.1166923279 -1.2950498626 1.9556852285
| 50> H -5.4779108061 -2.0890061039 1.1433110559
| 51> *
| 52>
| 53>                          ****END OF INPUT****

CARTESIAN COORDINATES (ANGSTROEM)
---------------------------------
  C      3.132209    1.513667    2.947591
  C      1.753411    0.992241    2.603483
  O      1.571183    0.874768    1.175878
  P      2.319953   -0.226821    0.317571
  S      2.714307   -1.914546    1.240378
  O      3.583049    0.577058   -0.210815
  C      4.728449   -0.075749   -0.784819
  C      4.409988   -0.716907   -2.120109
  S      1.015850   -0.328425   -1.346757
  C     -0.137502   -1.511990   -0.597209
  S     -1.196961   -0.764643    0.660071
  P     -2.465095    0.289203   -0.699343
  S     -2.819411   -0.614656   -2.397663
  O     -1.807566    1.699272   -0.946141
  C     -1.150636    2.567277    0.008203
  C     -1.951263    2.774700    1.275340
  O     -3.757701    0.639376    0.155502
  C     -4.887956   -0.245676    0.242914
  C     -4.564723   -1.522507    0.991785
  H      3.197571    1.680545    4.018125
  H      3.886671    0.783573    2.656896
  H      3.324375    2.445165    2.421797
  H      0.967415    1.682112    2.912784
  H      1.583453    0.009873    3.055038
  H      5.462765    0.724399   -0.886659
  H      5.090042   -0.827258   -0.075527
  H      3.951734    0.007940   -2.788580
  H      5.324737   -1.092495   -2.567363
  H      3.718947   -1.547537   -1.980243
  H      0.426861   -2.307668   -0.110218
  H     -0.758363   -1.898394   -1.406521
  H     -0.167132    2.143892    0.228820
  H     -1.028757    3.497453   -0.549354
  H     -1.445506    3.508296    1.896091
  H     -2.948700    3.133781    1.035626
  H     -2.037223    1.839350    1.825600
  H     -5.641080    0.346855    0.764189
  H     -5.228935   -0.472091   -0.772167
  H     -3.868036   -2.127834    0.413993
  H     -4.116692   -1.295050    1.955685
  H     -5.477911   -2.089006    1.143311

 Total Charge           Charge          ....    0
 Multiplicity           Mult            ....    1
 Number of Electrons    NEL             ....  202
 Basis Dimension        Dim             ....  539

ORBITAL ENERGIES
----------------

  NO   OCC          E(Eh)            E(eV)
   0   2.0000     -88.579696     -2410.3761
   1   2.0000     -88.577672     -2410.3210
   2   2.0000     -88.530407     -2409.0348
   3   2.0000     -88.528217     -2408.9753
   4   2.0000     -76.920797     -2093.1213
   5   2.0000     -76.919922     -2093.0975
   6   2.0000     -18.997638      -516.9520
   7   2.0000     -18.995830      -516.9028
   8   2.0000     -18.993528      -516.8402
   9   2.0000     -18.992832      -516.8212
  10   2.0000     -10.103353      -274.9262
  11   2.0000     -10.090648      -274.5805
  12   2.0000     -10.090155      -274.5671
  13   2.0000     -10.090018      -274.5633
  14   2.0000     -10.089432      -274.5474
  15   2.0000     -10.020154      -272.6622
  16   2.0000     -10.019156      -272.6351
  17   2.0000     -10.018934      -272.6291
  18   2.0000     -10.018208      -272.6093
  19   2.0000      -7.873948      -214.2610
  20   2.0000      -7.871985      -214.2076
  21   2.0000      -7.825426      -212.9407
  22   2.0000      -7.823483      -212.8878
  23   2.0000      -6.599110      -179.5709
  24   2.0000      -6.598620      -179.5576
  25   2.0000      -5.820759      -158.3909
  26   2.0000      -5.818816      -158.3380
  27   2.0000      -5.817885      -158.3127
  28   2.0000      -5.815877      -158.2580
  29   2.0000      -5.811088      -158.1277
  30   2.0000      -5.809122      -158.0743
  31   2.0000      -5.772914      -157.0890
  32   2.0000      -5.771017      -157.0374
  33   2.0000      -5.765741      -156.8938
  34   2.0000      -5.765508      -156.8874
  35   2.0000      -5.763737      -156.8393
  36   2.0000      -5.763523      -156.8334
  37   2.0000      -4.744803      -129.1127
  38   2.0000      -4.744041      -129.0919
  39   2.0000      -4.743953      -129.0895
  40   2.0000      -4.743493      -129.0770
  41   2.0000      -4.742741      -129.0565
  42   2.0000      -4.742560      -129.0516
  43   2.0000      -1.053719       -28.6732
  44   2.0000      -1.052550       -28.6413
  45   2.0000      -1.014352       -27.6019
  46   2.0000      -1.012906       -27.5626
  47   2.0000      -0.804367       -21.8879
  48   2.0000      -0.756154       -20.5760
  49   2.0000      -0.744684       -20.2639
  50   2.0000      -0.726214       -19.7613
  51   2.0000      -0.724099       -19.7037
  52   2.0000      -0.712579       -19.3903
  53   2.0000      -0.690340       -18.7851
  54   2.0000      -0.674491       -18.3538
  55   2.0000      -0.634278       -17.2596
  56   2.0000      -0.625130       -17.0106
  57   2.0000      -0.603591       -16.4245
  58   2.0000      -0.599837       -16.3224
  59   2.0000      -0.589434       -16.0393
  60   2.0000      -0.519627       -14.1398
  61   2.0000      -0.510951       -13.9037
  62   2.0000      -0.491953       -13.3867
  63   2.0000      -0.486192       -13.2300
  64   2.0000      -0.477817       -13.0021
  65   2.0000      -0.459000       -12.4900
  66   2.0000      -0.456218       -12.4143
  67   2.0000      -0.455153       -12.3853
  68   2.0000      -0.442761       -12.0481
  69   2.0000      -0.435856       -11.8602
  70   2.0000      -0.422702       -11.5023
  71   2.0000      -0.411072       -11.1858
  72   2.0000      -0.407117       -11.0782
  73   2.0000      -0.404202       -10.9989
  74   2.0000      -0.393807       -10.7160
  75   2.0000      -0.390630       -10.6296
  76   2.0000      -0.382040       -10.3958
  77   2.0000      -0.375709       -10.2236
  78   2.0000      -0.366119        -9.9626
  79   2.0000      -0.359505        -9.7826
  80   2.0000      -0.356867        -9.7109
  81   2.0000      -0.353047        -9.6069
  82   2.0000      -0.351798        -9.5729
  83   2.0000      -0.348165        -9.4741
  84   2.0000      -0.344601        -9.3771
  85   2.0000      -0.331139        -9.0108
  86   2.0000      -0.319271        -8.6878
  87   2.0000      -0.307654        -8.3717
  88   2.0000      -0.305543        -8.3142
  89   2.0000      -0.303712        -8.2644
  90   2.0000      -0.298661        -8.1270
  91   2.0000      -0.289676        -7.8825
  92   2.0000      -0.283747        -7.7211
  93   2.0000      -0.278818        -7.5870
  94   2.0000      -0.277601        -7.5539
  95   2.0000      -0.251060        -6.8317
  96   2.0000      -0.237689        -6.4679
  97   2.0000      -0.234989        -6.3944
  98   2.0000      -0.227363        -6.1869
  99   2.0000      -0.225590        -6.1386
 100   2.0000      -0.220606        -6.0030
 101   0.0000      -0.051478        -1.4008
 102   0.0000      -0.032948        -0.8966
 103   0.0000      -0.007073        -0.1925
 104   0.0000      -0.003823        -0.1040
 105   0.0000       0.015281         0.4158

MULLIKEN ATOMIC CHARGES
-----------------------
   0 C :   -0.482458
   1 C :   -0.148283
   2 O :   -0.290059
   3 P :    0.712222
   4 S :   -0.528387
   5 O :   -0.332745
   6 C :   -0.148718
   7 C :   -0.490734
   8 S :   -0.125497
   9 C :   -0.255810
  10 S :   -0.150464
  11 P :    0.666822
  12 S :   -0.519509
  13 O :   -0.292921
  14 C :   -0.144173
  15 C :   -0.483045
  16 O :   -0.288562
  17 C :   -0.160725
  18 C :   -0.482315
  19 H :    0.172351
  20 H :    0.167393
  21 H :    0.169843
  22 H :    0.179903
  23 H :    0.177175
  24 H :    0.176308
  25 H :    0.177849
  26 H :    0.170678
  27 H :    0.173487
  28 H :    0.172909
  29 H :    0.232624
  30 H :    0.234074
  31 H :    0.184572
  32 H :    0.175147
  33 H :    0.176566
  34 H :    0.170312
  35 H :    0.165532
  36 H :    0.175896
  37 H :    0.178715
  38 H :    0.173100
  39 H :    0.168893
  40 H :    0.172038
Sum of atomic charges:    0.0000000

LOEWDIN ATOMIC CHARGES
----------------------
   0 C :   -0.401444
   1 C :    0.023573
   2 O :   -0.702929
   3 P :    0.384187
   4 S :   -0.160298
   5 O :   -0.669254
   6 C :    0.026623
   7 C :   -0.409413
   8 S :    0.163242
   9 C :   -0.421040
  10 S :    0.154916
  11 P :    0.387836
  12 S :   -0.154511
  13 O :   -0.674771
  14 C :    0.029163
  15 C :   -0.402689
  16 O :   -0.677331
  17 C :    0.026983
  18 C :   -0.411006
  19 H :    0.168991
  20 H :    0.162578
  21 H :    0.164349
  22 H :    0.191043
  23 H :    0.182385
  24 H :    0.191560
  25 H :    0.181822
  26 H :    0.163884
  27 H :    0.168962
  28 H :    0.161768
  29 H :    0.197812
  30 H :    0.198248
  31 H :    0.196525
  32 H :    0.192205
  33 H :    0.170610
  34 H :    0.166204
  35 H :    0.163031
  36 H :    0.191089
  37 H :    0.181713
  38 H :    0.161634
  39 H :    0.163560
  40 H :    0.168191

  Mayer bond orders larger than 0.100000
B(  0-C ,  1-C ) :   0.9157 B(  0-C , 19-H ) :   0.9564 B(  0-C , 20-H ) :   0.9585
B(  0-C , 21-H ) :   0.9713 B(  1-C ,  2-O ) :   0.7744 B(  1-C , 22-H ) :   0.9522
B(  1-C , 23-H ) :   0.9578 B(  2-O ,  3-P ) :   1.1422 B(  3-P ,  4-S ) :   1.7109
B(  3-P ,  5-O ) :   1.0828 B(  3-P ,  8-S ) :   1.1044 B(  5-O ,  6-C ) :   0.7996
B(  6-C ,  7-C ) :   0.9094 B(  6-C , 24-H ) :   0.9482 B(  6-C , 25-H ) :   0.9648
B(  7-C , 26-H ) :   0.9659 B(  7-C , 27-H ) :   0.9529 B(  7-C , 28-H ) :   0.9628
B(  8-S ,  9-C ) :   0.9007 B(  9-C , 10-S ) :   0.8997 B(  9-C , 29-H ) :   0.9009
B(  9-C , 30-H ) :   0.8972 B( 10-S , 11-P ) :   1.0158 B( 11-P , 12-S ) :   1.7869
B( 11-P , 13-O ) :   1.1842 B( 11-P , 16-O ) :   1.0525 B( 13-O , 14-C ) :   0.8052
B( 14-C , 15-C ) :   0.8999 B( 14-C , 31-H ) :   0.9435 B( 14-C , 32-H ) :   0.9502
B( 15-C , 33-H ) :   0.9505 B( 15-C , 34-H ) :   0.9666 B( 15-C , 35-H ) :   0.9617
B( 16-O , 17-C ) :   0.7977 B( 17-C , 18-C ) :   0.9030 B( 17-C , 36-H ) :   0.9508
B( 17-C , 37-H ) :   0.9662 B( 18-C , 38-H ) :   0.9650 B( 18-C , 39-H ) :   0.9659
B( 18-C , 40-H ) :   0.9520

Dispersion correction           -0.021787112
FINAL SINGLE POINT ENERGY     -2932.470707768082

DIPOLE MOMENT
-------------

Method             : SCF
Type of density    : Electron Density
Multiplicity       :   1
Irrep              :   0
Energy             : -2932.4955740023242470 Eh
Relativity type    :
Basis              : AO
                                X                 Y                 Z
Electronic contribution:     -3.489814034      -6.506736920     -10.871817748
Nuclear contribution   :      4.087436373       7.747509278      12.772803188
                        -----------------------------------------
Total Dipole Moment    :      0.597622338       1.240772358       1.900985440
                        -----------------------------------------
Magnitude (a.u.)       :      2.347427133
Magnitude (Debye)      :      5.966685593

Rotational constants in cm-1:             0.013220             0.004792             0.004415
Rotational constants in MHz :           396.324101           143.650604           132.371853

                             ****ORCA TERMINATED NORMALLY****
TOTAL RUN TIME: 0 days 0 hours 1 minutes 49 seconds 416 msec
