                         Program Version 6.0.0  -   RELEASE  -
|  1> ! pbe def2-sv(p) def2/J RI DEFGRID1 loosescf d4 GCP(DFT/SV(P)) printgap
|  2> %output
|  3>     printlevel normal
|  4> end
|  5> * xyz 0 1
|  6> C 0.9816849783 0.8041823528 0.0874601052
|  7> C -0.3437135404 0.0447744917 0.0006778101
|  8> F -1.3995144105 0.8645631252 0.1534434567
|  9> F -0.4565812646 -0.8969532678 0.9570517333
| 10> F -0.5182086834 -0.5882071781 -1.1689062528
| 11> O 2.0768579306 -0.0426326493 -0.0609326217
| 12> H 1.0071680768 1.5147939792 -0.7424386326
| 13> H 0.9824504506 1.3474661438 1.0395490251
| 14> H 2.1941531675 -0.6043311057 0.7208079572
| 15> *
| 16>
| 17>                          ****END OF INPUT****

CARTESIAN COORDINATES (ANGSTROEM)
---------------------------------
  C      0.981685    0.804182    0.087460
  C     -0.343714    0.044774    0.000678
  F     -1.399514    0.864563    0.153443
  F     -0.456581   -0.896953    0.957052
  F     -0.518209   -0.588207   -1.168906
  O      2.076858   -0.042633   -0.060933
  H      1.007168    1.514794   -0.742439
  H      0.982450    1.347466    1.039549
  H      2.194153   -0.604331    0.720808

 Total Charge           Charge          ....    0
 Multiplicity           Mult            ....    1
 Number of Electrons    NEL             ....   50
 Basis Dimension        Dim             ....   90

ORBITAL ENERGIES
----------------

  NO   OCC          E(Eh)            E(eV)
   0   2.0000     -24.291804      -661.0136
   1   2.0000     -24.289066      -660.9391
   2   2.0000     -24.287200      -660.8883
   3   2.0000     -18.772671      -510.8303
   4   2.0000     -10.118731      -275.3447
   5   2.0000      -9.962386      -271.0903
   6   2.0000      -1.190868       -32.4052
   7   2.0000      -1.098920       -29.9031
   8   2.0000      -1.096618       -29.8405
   9   2.0000      -0.952338       -25.9144
  10   2.0000      -0.688711       -18.7408
  11   2.0000      -0.595961       -16.2169
  12   2.0000      -0.530678       -14.4405
  13   2.0000      -0.526866       -14.3368
  14   2.0000      -0.516712       -14.0605
  15   2.0000      -0.462701       -12.5907
  16   2.0000      -0.416406       -11.3310
  17   2.0000      -0.398714       -10.8496
  18   2.0000      -0.396031       -10.7766
  19   2.0000      -0.363449        -9.8899
  20   2.0000      -0.355699        -9.6791
  21   2.0000      -0.349566        -9.5122
  22   2.0000      -0.337871        -9.1939
  23   2.0000      -0.302397        -8.2287
  24   2.0000      -0.246422        -6.7055
  25   0.0000       0.013171         0.3584
  26   0.0000       0.065190         1.7739
  27   0.0000       0.070967         1.9311
  28   0.0000       0.094332         2.5669
  29   0.0000       0.143089         3.8936

MULLIKEN ATOMIC CHARGES
-----------------------
   0 C :   -0.021715
   1 C :    0.351427
   2 F :   -0.145544
   3 F :   -0.154535
   4 F :   -0.138345
   5 O :   -0.422390
   6 H :    0.118643
   7 H :    0.103843
   8 H :    0.308616
Sum of atomic charges:    0.0000000

LOEWDIN ATOMIC CHARGES
----------------------
   0 C :   -0.160543
   1 C :    0.088016
   2 F :   -0.052527
   3 F :   -0.058906
   4 F :   -0.045200
   5 O :   -0.316267
   6 H :    0.135755
   7 H :    0.117257
   8 H :    0.292414

  Mayer bond orders larger than 0.100000
B(  0-C ,  1-C ) :   1.0073 B(  0-C ,  5-O ) :   1.0785 B(  0-C ,  6-H ) :   0.9058
B(  0-C ,  7-H ) :   0.9038 B(  1-C ,  2-F ) :   1.1456 B(  1-C ,  3-F ) :   1.1455
B(  1-C ,  4-F ) :   1.1705 B(  5-O ,  8-H ) :   0.8443

Dispersion correction           -0.005122193
FINAL SINGLE POINT ENERGY      -451.897715404975

DIPOLE MOMENT
-------------

Method             : SCF
Type of density    : Electron Density
Multiplicity       :   1
Irrep              :   0
Energy             :  -451.9572704173759234 Eh
Relativity type    :
Basis              : AO
                                X                 Y                 Z
Electronic contribution:     -5.739865151      -2.410059946      -0.452848716
Nuclear contribution   :      6.155704128       2.692709316       1.008205596
                        -----------------------------------------
Total Dipole Moment    :      0.415838977       0.282649370       0.555356880
                        -----------------------------------------
Magnitude (a.u.)       :      0.749155515
Magnitude (Debye)      :      1.904201989

Rotational constants in cm-1:             0.178357             0.093008             0.091860
Rotational constants in MHz :          5347.018985          2788.300465          2753.905107

                             ****ORCA TERMINATED NORMALLY****
TOTAL RUN TIME: 0 days 0 hours 0 minutes 4 seconds 448 msec
