                         Program Version 6.0.0  -   RELEASE  -
|  1> ! r2scan-3c def2/J RI DEFGRID2 scfconv6 printgap
|  2> %output
|  3>     printlevel normal
|  4> end
|  5> * xyz 0 1
|  6> C 4.9707252801 1.1342146133 0.132612184
|  7> C 3.7052795324 1.4330017178 -0.6426007758
|  8> O 2.911878671 0.2436759741 -0.8418088198
|  9> P 2.1401179684 -0.4512222021 0.3515316044
| 10> S 1.561687578 0.7173007164 1.8209588554
| 11> O 3.1699209867 -1.5715726414 0.8191552734
| 12> C 3.0102984338 -2.2821636899 2.0562079063
| 13> C 1.818660725 -3.2171882605 2.0113632842
| 14> S 0.7272624458 -1.5637669098 -0.7826190633
| 15> C 0.298546884 -0.3390975408 -2.0524070363
| 16> S -0.2515191872 1.2465992881 -1.3679830762
| 17> P -2.0069426218 0.5122198152 -0.4460578839
| 18> S -2.9540996131 -0.8931239405 -1.4372469081
| 19> O -2.808720066 1.8420445156 -0.1180070545
| 20> C -3.4365447468 2.6462584028 -1.1379438603
| 21> C -4.8769839595 2.2250826303 -1.3561789412
| 22> O -1.4780564818 0.1113889574 0.9858727636
| 23> C -2.1220707969 -0.8865775553 1.8016960735
| 24> C -3.4811722066 -0.419377509 2.2754398492
| 25> H 5.586109854 2.0273157228 0.1753957513
| 26> H 4.7179859106 0.8286324135 1.1470817963
| 27> H 5.5250146817 0.3326092346 -0.348171336
| 28> H 3.9189589428 1.7780445181 -1.6549916817
| 29> H 3.0935440882 2.1747075246 -0.1187849099
| 30> H 3.9482754806 -2.825713963 2.1750406962
| 31> H 2.8961001379 -1.5506224104 2.8636024725
| 32> H 0.9027445269 -2.6377167386 1.8875028388
| 33> H 1.9069152985 -3.9042129862 1.1737048752
| 34> H 1.7596343902 -3.7788886861 2.9379452477
| 35> H -0.5125999198 -0.7863947847 -2.6288891867
| 36> H 1.1648098195 -0.1342640996 -2.6753290096
| 37> H -3.373838135 3.6664656818 -0.7545664758
| 38> H -2.8589214639 2.56963498 -2.0638928406
| 39> H -4.9203715426 1.2035877918 -1.7275122192
| 40> H -5.4286287537 2.283004388 -0.4219932045
| 41> H -5.3348250081 2.8859940278 -2.0850095457
| 42> H -2.2054812787 -1.8102254537 1.2188576876
| 43> H -1.4274884345 -1.0292866228 2.6315375866
| 44> H -4.142755247 -0.2930112495 1.4187642145
| 45> H -3.9050688373 -1.1600796595 2.9460498733
| 46> H -3.3891470198 0.5321617463 2.7926464576
| 47> *
| 48>
| 49>                          ****END OF INPUT****

CARTESIAN COORDINATES (ANGSTROEM)
---------------------------------
  C      4.970725    1.134215    0.132612
  C      3.705280    1.433002   -0.642601
  O      2.911879    0.243676   -0.841809
  P      2.140118   -0.451222    0.351532
  S      1.561688    0.717301    1.820959
  O      3.169921   -1.571573    0.819155
  C      3.010298   -2.282164    2.056208
  C      1.818661   -3.217188    2.011363
  S      0.727262   -1.563767   -0.782619
  C      0.298547   -0.339098   -2.052407
  S     -0.251519    1.246599   -1.367983
  P     -2.006943    0.512220   -0.446058
  S     -2.954100   -0.893124   -1.437247
  O     -2.808720    1.842045   -0.118007
  C     -3.436545    2.646258   -1.137944
  C     -4.876984    2.225083   -1.356179
  O     -1.478056    0.111389    0.985873
  C     -2.122071   -0.886578    1.801696
  C     -3.481172   -0.419378    2.275440
  H      5.586110    2.027316    0.175396
  H      4.717986    0.828632    1.147082
  H      5.525015    0.332609   -0.348171
  H      3.918959    1.778045   -1.654992
  H      3.093544    2.174708   -0.118785
  H      3.948275   -2.825714    2.175041
  H      2.896100   -1.550622    2.863602
  H      0.902745   -2.637717    1.887503
  H      1.906915   -3.904213    1.173705
  H      1.759634   -3.778889    2.937945
  H     -0.512600   -0.786395   -2.628889
  H      1.164810   -0.134264   -2.675329
  H     -3.373838    3.666466   -0.754566
  H     -2.858921    2.569635   -2.063893
  H     -4.920372    1.203588   -1.727512
  H     -5.428629    2.283004   -0.421993
  H     -5.334825    2.885994   -2.085010
  H     -2.205481   -1.810225    1.218858
  H     -1.427488   -1.029287    2.631538
  H     -4.142755   -0.293011    1.418764
  H     -3.905069   -1.160080    2.946050
  H     -3.389147    0.532162    2.792646

 Total Charge           Charge          ....    0
 Multiplicity           Mult            ....    1
 Number of Electrons    NEL             ....  202
 Basis Dimension        Dim             ....  539

ORBITAL ENERGIES
----------------

  NO   OCC          E(Eh)            E(eV)
   0   2.0000     -88.573420     -2410.2053
   1   2.0000     -88.570346     -2410.1216
   2   2.0000     -88.518038     -2408.6983
   3   2.0000     -88.513198     -2408.5666
   4   2.0000     -76.911437     -2092.8666
   5   2.0000     -76.910945     -2092.8532
   6   2.0000     -18.992254      -516.8055
   7   2.0000     -18.991011      -516.7717
   8   2.0000     -18.988073      -516.6917
   9   2.0000     -18.981682      -516.5178
  10   2.0000     -10.105350      -274.9805
  11   2.0000     -10.100083      -274.8372
  12   2.0000     -10.097992      -274.7803
  13   2.0000     -10.096857      -274.7495
  14   2.0000     -10.090538      -274.5775
  15   2.0000     -10.031353      -272.9670
  16   2.0000     -10.027986      -272.8754
  17   2.0000     -10.024959      -272.7930
  18   2.0000     -10.022848      -272.7356
  19   2.0000      -7.867804      -214.0938
  20   2.0000      -7.864660      -214.0083
  21   2.0000      -7.812996      -212.6024
  22   2.0000      -7.807882      -212.4633
  23   2.0000      -6.589847      -179.3189
  24   2.0000      -6.589349      -179.3053
  25   2.0000      -5.814677      -158.2254
  26   2.0000      -5.811889      -158.1496
  27   2.0000      -5.811644      -158.1429
  28   2.0000      -5.808396      -158.0545
  29   2.0000      -5.804926      -157.9601
  30   2.0000      -5.801529      -157.8676
  31   2.0000      -5.760563      -156.7529
  32   2.0000      -5.755571      -156.6170
  33   2.0000      -5.753317      -156.5557
  34   2.0000      -5.753008      -156.5473
  35   2.0000      -5.748358      -156.4208
  36   2.0000      -5.747683      -156.4024
  37   2.0000      -4.735236      -128.8523
  38   2.0000      -4.734970      -128.8451
  39   2.0000      -4.734803      -128.8406
  40   2.0000      -4.734391      -128.8293
  41   2.0000      -4.733688      -128.8102
  42   2.0000      -4.732829      -128.7868
  43   2.0000      -1.049211       -28.5505
  44   2.0000      -1.046338       -28.4723
  45   2.0000      -1.011552       -27.5257
  46   2.0000      -1.006649       -27.3923
  47   2.0000      -0.799431       -21.7536
  48   2.0000      -0.755447       -20.5568
  49   2.0000      -0.745813       -20.2946
  50   2.0000      -0.731626       -19.9086
  51   2.0000      -0.726963       -19.7817
  52   2.0000      -0.706546       -19.2261
  53   2.0000      -0.684787       -18.6340
  54   2.0000      -0.667270       -18.1573
  55   2.0000      -0.629648       -17.1336
  56   2.0000      -0.623507       -16.9665
  57   2.0000      -0.605891       -16.4871
  58   2.0000      -0.600793       -16.3484
  59   2.0000      -0.590580       -16.0705
  60   2.0000      -0.523705       -14.2507
  61   2.0000      -0.515595       -14.0300
  62   2.0000      -0.492802       -13.4098
  63   2.0000      -0.490091       -13.3360
  64   2.0000      -0.475029       -12.9262
  65   2.0000      -0.457507       -12.4494
  66   2.0000      -0.455730       -12.4011
  67   2.0000      -0.454605       -12.3704
  68   2.0000      -0.440008       -11.9732
  69   2.0000      -0.431657       -11.7460
  70   2.0000      -0.419875       -11.4254
  71   2.0000      -0.412069       -11.2130
  72   2.0000      -0.408045       -11.1035
  73   2.0000      -0.405009       -11.0208
  74   2.0000      -0.401723       -10.9314
  75   2.0000      -0.388887       -10.5822
  76   2.0000      -0.383799       -10.4437
  77   2.0000      -0.373073       -10.1518
  78   2.0000      -0.367202        -9.9921
  79   2.0000      -0.363827        -9.9002
  80   2.0000      -0.362244        -9.8572
  81   2.0000      -0.359417        -9.7802
  82   2.0000      -0.355572        -9.6756
  83   2.0000      -0.347192        -9.4476
  84   2.0000      -0.344311        -9.3692
  85   2.0000      -0.334219        -9.0946
  86   2.0000      -0.318929        -8.6785
  87   2.0000      -0.309991        -8.4353
  88   2.0000      -0.308634        -8.3983
  89   2.0000      -0.299933        -8.1616
  90   2.0000      -0.296636        -8.0719
  91   2.0000      -0.287926        -7.8349
  92   2.0000      -0.284558        -7.7432
  93   2.0000      -0.276677        -7.5288
  94   2.0000      -0.274545        -7.4708
  95   2.0000      -0.246874        -6.7178
  96   2.0000      -0.228693        -6.2230
  97   2.0000      -0.219790        -5.9808
  98   2.0000      -0.215319        -5.8591
  99   2.0000      -0.207575        -5.6484
 100   2.0000      -0.202358        -5.5064
 101   0.0000      -0.047665        -1.2970
 102   0.0000      -0.021591        -0.5875
 103   0.0000      -0.014922        -0.4060
 104   0.0000       0.005854         0.1593
 105   0.0000       0.020417         0.5556

MULLIKEN ATOMIC CHARGES
-----------------------
   0 C :   -0.445357
   1 C :   -0.150963
   2 O :   -0.337200
   3 P :    0.729686
   4 S :   -0.460029
   5 O :   -0.290454
   6 C :   -0.146034
   7 C :   -0.470274
   8 S :   -0.150737
   9 C :   -0.184959
  10 S :   -0.154464
  11 P :    0.699174
  12 S :   -0.490575
  13 O :   -0.295110
  14 C :   -0.135837
  15 C :   -0.455293
  16 O :   -0.238882
  17 C :   -0.162881
  18 C :   -0.453816
  19 H :    0.146773
  20 H :    0.171489
  21 H :    0.155465
  22 H :    0.146927
  23 H :    0.177222
  24 H :    0.148060
  25 H :    0.175737
  26 H :    0.167570
  27 H :    0.164764
  28 H :    0.151166
  29 H :    0.209623
  30 H :    0.187811
  31 H :    0.151687
  32 H :    0.152693
  33 H :    0.182656
  34 H :    0.152441
  35 H :    0.144600
  36 H :    0.174068
  37 H :    0.160231
  38 H :    0.167731
  39 H :    0.145669
  40 H :    0.159620
Sum of atomic charges:   -0.0000000

LOEWDIN ATOMIC CHARGES
----------------------
   0 C :   -0.399006
   1 C :    0.020821
   2 O :   -0.683617
   3 P :    0.389212
   4 S :   -0.099212
   5 O :   -0.667105
   6 C :    0.016228
   7 C :   -0.405153
   8 S :    0.168474
   9 C :   -0.413246
  10 S :    0.165861
  11 P :    0.379350
  12 S :   -0.135247
  13 O :   -0.655531
  14 C :    0.022514
  15 C :   -0.402499
  16 O :   -0.673825
  17 C :    0.014614
  18 C :   -0.400031
  19 H :    0.159566
  20 H :    0.166509
  21 H :    0.160853
  22 H :    0.178176
  23 H :    0.182330
  24 H :    0.179503
  25 H :    0.180050
  26 H :    0.163711
  27 H :    0.161781
  28 H :    0.160299
  29 H :    0.192340
  30 H :    0.183748
  31 H :    0.179539
  32 H :    0.175246
  33 H :    0.169184
  34 H :    0.158398
  35 H :    0.157815
  36 H :    0.179992
  37 H :    0.183324
  38 H :    0.164750
  39 H :    0.158789
  40 H :    0.161495

  Mayer bond orders larger than 0.100000
B(  0-C ,  1-C ) :   0.9319 B(  0-C , 19-H ) :   0.9625 B(  0-C , 20-H ) :   0.9592
B(  0-C , 21-H ) :   0.9708 B(  1-C ,  2-O ) :   0.7997 B(  1-C , 22-H ) :   0.9599
B(  1-C , 23-H ) :   0.9614 B(  2-O ,  3-P ) :   1.1581 B(  3-P ,  4-S ) :   1.7611
B(  3-P ,  5-O ) :   1.0695 B(  3-P ,  8-S ) :   1.0498 B(  5-O ,  6-C ) :   0.8177
B(  6-C ,  7-C ) :   0.9101 B(  6-C , 24-H ) :   0.9555 B(  6-C , 25-H ) :   0.9657
B(  7-C , 26-H ) :   0.9649 B(  7-C , 27-H ) :   0.9680 B(  7-C , 28-H ) :   0.9590
B(  8-S ,  9-C ) :   0.8900 B(  9-C , 10-S ) :   0.9073 B(  9-C , 29-H ) :   0.9094
B(  9-C , 30-H ) :   0.9165 B( 10-S , 11-P ) :   1.0830 B( 11-P , 12-S ) :   1.7297
B( 11-P , 13-O ) :   1.0717 B( 11-P , 16-O ) :   1.1764 B( 13-O , 14-C ) :   0.7811
B( 14-C , 15-C ) :   0.9529 B( 14-C , 31-H ) :   0.9636 B( 14-C , 32-H ) :   0.9645
B( 15-C , 33-H ) :   0.9566 B( 15-C , 34-H ) :   0.9743 B( 15-C , 35-H ) :   0.9644
B( 16-O , 17-C ) :   0.7790 B( 17-C , 18-C ) :   0.9235 B( 17-C , 36-H ) :   0.9643
B( 17-C , 37-H ) :   0.9578 B( 18-C , 38-H ) :   0.9599 B( 18-C , 39-H ) :   0.9629
B( 18-C , 40-H ) :   0.9728

Dispersion correction           -0.021915758
FINAL SINGLE POINT ENERGY     -2932.457724744544

DIPOLE MOMENT
-------------

Method             : SCF
Type of density    : Electron Density
Multiplicity       :   1
Irrep              :   0
Energy             : -2932.4822659181936615 Eh
Relativity type    :
Basis              : AO
                                X                 Y                 Z
Electronic contribution:      2.497020707      -0.065884334      -8.408545143
Nuclear contribution   :     -2.016362900       0.317790671       8.487523022
                        -----------------------------------------
Total Dipole Moment    :      0.480657807       0.251906337       0.078977879
                        -----------------------------------------
Magnitude (a.u.)       :      0.548385116
Magnitude (Debye)      :      1.393884191

Rotational constants in cm-1:             0.013132             0.005184             0.004649
Rotational constants in MHz :           393.684299           155.422082           139.383203

                             ****ORCA TERMINATED NORMALLY****
TOTAL RUN TIME: 0 days 0 hours 1 minutes 20 seconds 959 msec
