                         Program Version 6.0.0  -   RELEASE  -
|  1> ! r2scan-3c def2/J RI DEFGRID2 scfconv6 printgap
|  2> %output
|  3>     printlevel normal
|  4> end
|  5> %cpcm
|  6>     smd true
|  7>     smdsolvent "water"
|  8> end
|  9> * xyz 0 1
| 10> C 4.9707252801 1.1342146133 0.132612184
| 11> C 3.7052795324 1.4330017178 -0.6426007758
| 12> O 2.911878671 0.2436759741 -0.8418088198
| 13> P 2.1401179684 -0.4512222021 0.3515316044
| 14> S 1.561687578 0.7173007164 1.8209588554
| 15> O 3.1699209867 -1.5715726414 0.8191552734
| 16> C 3.0102984338 -2.2821636899 2.0562079063
| 17> C 1.818660725 -3.2171882605 2.0113632842
| 18> S 0.7272624458 -1.5637669098 -0.7826190633
| 19> C 0.298546884 -0.3390975408 -2.0524070363
| 20> S -0.2515191872 1.2465992881 -1.3679830762
| 21> P -2.0069426218 0.5122198152 -0.4460578839
| 22> S -2.9540996131 -0.8931239405 -1.4372469081
| 23> O -2.808720066 1.8420445156 -0.1180070545
| 24> C -3.4365447468 2.6462584028 -1.1379438603
| 25> C -4.8769839595 2.2250826303 -1.3561789412
| 26> O -1.4780564818 0.1113889574 0.9858727636
| 27> C -2.1220707969 -0.8865775553 1.8016960735
| 28> C -3.4811722066 -0.419377509 2.2754398492
| 29> H 5.586109854 2.0273157228 0.1753957513
| 30> H 4.7179859106 0.8286324135 1.1470817963
| 31> H 5.5250146817 0.3326092346 -0.348171336
| 32> H 3.9189589428 1.7780445181 -1.6549916817
| 33> H 3.0935440882 2.1747075246 -0.1187849099
| 34> H 3.9482754806 -2.825713963 2.1750406962
| 35> H 2.8961001379 -1.5506224104 2.8636024725
| 36> H 0.9027445269 -2.6377167386 1.8875028388
| 37> H 1.9069152985 -3.9042129862 1.1737048752
| 38> H 1.7596343902 -3.7788886861 2.9379452477
| 39> H -0.5125999198 -0.7863947847 -2.6288891867
| 40> H 1.1648098195 -0.1342640996 -2.6753290096
| 41> H -3.373838135 3.6664656818 -0.7545664758
| 42> H -2.8589214639 2.56963498 -2.0638928406
| 43> H -4.9203715426 1.2035877918 -1.7275122192
| 44> H -5.4286287537 2.283004388 -0.4219932045
| 45> H -5.3348250081 2.8859940278 -2.0850095457
| 46> H -2.2054812787 -1.8102254537 1.2188576876
| 47> H -1.4274884345 -1.0292866228 2.6315375866
| 48> H -4.142755247 -0.2930112495 1.4187642145
| 49> H -3.9050688373 -1.1600796595 2.9460498733
| 50> H -3.3891470198 0.5321617463 2.7926464576
| 51> *
| 52>
| 53>                          ****END OF INPUT****

CARTESIAN COORDINATES (ANGSTROEM)
---------------------------------
  C      4.970725    1.134215    0.132612
  C      3.705280    1.433002   -0.642601
  O      2.911879    0.243676   -0.841809
  P      2.140118   -0.451222    0.351532
  S      1.561688    0.717301    1.820959
  O      3.169921   -1.571573    0.819155
  C      3.010298   -2.282164    2.056208
  C      1.818661   -3.217188    2.011363
  S      0.727262   -1.563767   -0.782619
  C      0.298547   -0.339098   -2.052407
  S     -0.251519    1.246599   -1.367983
  P     -2.006943    0.512220   -0.446058
  S     -2.954100   -0.893124   -1.437247
  O     -2.808720    1.842045   -0.118007
  C     -3.436545    2.646258   -1.137944
  C     -4.876984    2.225083   -1.356179
  O     -1.478056    0.111389    0.985873
  C     -2.122071   -0.886578    1.801696
  C     -3.481172   -0.419378    2.275440
  H      5.586110    2.027316    0.175396
  H      4.717986    0.828632    1.147082
  H      5.525015    0.332609   -0.348171
  H      3.918959    1.778045   -1.654992
  H      3.093544    2.174708   -0.118785
  H      3.948275   -2.825714    2.175041
  H      2.896100   -1.550622    2.863602
  H      0.902745   -2.637717    1.887503
  H      1.906915   -3.904213    1.173705
  H      1.759634   -3.778889    2.937945
  H     -0.512600   -0.786395   -2.628889
  H      1.164810   -0.134264   -2.675329
  H     -3.373838    3.666466   -0.754566
  H     -2.858921    2.569635   -2.063893
  H     -4.920372    1.203588   -1.727512
  H     -5.428629    2.283004   -0.421993
  H     -5.334825    2.885994   -2.085010
  H     -2.205481   -1.810225    1.218858
  H     -1.427488   -1.029287    2.631538
  H     -4.142755   -0.293011    1.418764
  H     -3.905069   -1.160080    2.946050
  H     -3.389147    0.532162    2.792646

 Total Charge           Charge          ....    0
 Multiplicity           Mult            ....    1
 Number of Electrons    NEL             ....  202
 Basis Dimension        Dim             ....  539

ORBITAL ENERGIES
----------------

  NO   OCC          E(Eh)            E(eV)
   0   2.0000     -88.578014     -2410.3303
   1   2.0000     -88.575141     -2410.2521
   2   2.0000     -88.526170     -2408.9195
   3   2.0000     -88.521179     -2408.7838
   4   2.0000     -76.917829     -2093.0405
   5   2.0000     -76.916787     -2093.0122
   6   2.0000     -18.995419      -516.8916
   7   2.0000     -18.994513      -516.8670
   8   2.0000     -18.992145      -516.8025
   9   2.0000     -18.987859      -516.6859
  10   2.0000     -10.104029      -274.9446
  11   2.0000     -10.091715      -274.6095
  12   2.0000     -10.089343      -274.5450
  13   2.0000     -10.088629      -274.5255
  14   2.0000     -10.087783      -274.5025
  15   2.0000     -10.020706      -272.6773
  16   2.0000     -10.018396      -272.6144
  17   2.0000     -10.017862      -272.5999
  18   2.0000     -10.016595      -272.5654
  19   2.0000      -7.872382      -214.2184
  20   2.0000      -7.869475      -214.1393
  21   2.0000      -7.821381      -212.8306
  22   2.0000      -7.816173      -212.6889
  23   2.0000      -6.596329      -179.4952
  24   2.0000      -6.595237      -179.4655
  25   2.0000      -5.819234      -158.3494
  26   2.0000      -5.816664      -158.2795
  27   2.0000      -5.816215      -158.2672
  28   2.0000      -5.813162      -158.1842
  29   2.0000      -5.809544      -158.0857
  30   2.0000      -5.806443      -158.0013
  31   2.0000      -5.768902      -156.9798
  32   2.0000      -5.763805      -156.8411
  33   2.0000      -5.761686      -156.7834
  34   2.0000      -5.761409      -156.7759
  35   2.0000      -5.756606      -156.6452
  36   2.0000      -5.756017      -156.6292
  37   2.0000      -4.741695      -129.0281
  38   2.0000      -4.741284      -129.0169
  39   2.0000      -4.740802      -129.0038
  40   2.0000      -4.740268      -128.9892
  41   2.0000      -4.740207      -128.9876
  42   2.0000      -4.738815      -128.9497
  43   2.0000      -1.052057       -28.6279
  44   2.0000      -1.051350       -28.6087
  45   2.0000      -1.013728       -27.5849
  46   2.0000      -1.011248       -27.5175
  47   2.0000      -0.801704       -21.8155
  48   2.0000      -0.753743       -20.5104
  49   2.0000      -0.741707       -20.1829
  50   2.0000      -0.723790       -19.6953
  51   2.0000      -0.722247       -19.6533
  52   2.0000      -0.707263       -19.2456
  53   2.0000      -0.688876       -18.7453
  54   2.0000      -0.673748       -18.3336
  55   2.0000      -0.629849       -17.1391
  56   2.0000      -0.622309       -16.9339
  57   2.0000      -0.599793       -16.3212
  58   2.0000      -0.597199       -16.2506
  59   2.0000      -0.589897       -16.0519
  60   2.0000      -0.522331       -14.2133
  61   2.0000      -0.512607       -13.9488
  62   2.0000      -0.491004       -13.3609
  63   2.0000      -0.489626       -13.3234
  64   2.0000      -0.474397       -12.9090
  65   2.0000      -0.455398       -12.3920
  66   2.0000      -0.453223       -12.3328
  67   2.0000      -0.452926       -12.3247
  68   2.0000      -0.437503       -11.9050
  69   2.0000      -0.428893       -11.6708
  70   2.0000      -0.418870       -11.3980
  71   2.0000      -0.409827       -11.1520
  72   2.0000      -0.406127       -11.0513
  73   2.0000      -0.403630       -10.9833
  74   2.0000      -0.401039       -10.9128
  75   2.0000      -0.387531       -10.5453
  76   2.0000      -0.382969       -10.4211
  77   2.0000      -0.368832       -10.0364
  78   2.0000      -0.364543        -9.9197
  79   2.0000      -0.360403        -9.8071
  80   2.0000      -0.354171        -9.6375
  81   2.0000      -0.352624        -9.5954
  82   2.0000      -0.349858        -9.5201
  83   2.0000      -0.344730        -9.3806
  84   2.0000      -0.342164        -9.3108
  85   2.0000      -0.332927        -9.0594
  86   2.0000      -0.317709        -8.6453
  87   2.0000      -0.306396        -8.3374
  88   2.0000      -0.304464        -8.2849
  89   2.0000      -0.299727        -8.1560
  90   2.0000      -0.297487        -8.0950
  91   2.0000      -0.287522        -7.8239
  92   2.0000      -0.287028        -7.8104
  93   2.0000      -0.279965        -7.6182
  94   2.0000      -0.277142        -7.5414
  95   2.0000      -0.251977        -6.8566
  96   2.0000      -0.235030        -6.3955
  97   2.0000      -0.228237        -6.2107
  98   2.0000      -0.223892        -6.0924
  99   2.0000      -0.214815        -5.8454
 100   2.0000      -0.211019        -5.7421
 101   0.0000      -0.052626        -1.4320
 102   0.0000      -0.028160        -0.7663
 103   0.0000      -0.018896        -0.5142
 104   0.0000       0.000866         0.0236
 105   0.0000       0.017039         0.4637

MULLIKEN ATOMIC CHARGES
-----------------------
   0 C :   -0.487153
   1 C :   -0.143712
   2 O :   -0.357833
   3 P :    0.767276
   4 S :   -0.514757
   5 O :   -0.321316
   6 C :   -0.146487
   7 C :   -0.499464
   8 S :   -0.173044
   9 C :   -0.193100
  10 S :   -0.161500
  11 P :    0.718926
  12 S :   -0.533678
  13 O :   -0.323930
  14 C :   -0.129797
  15 C :   -0.491775
  16 O :   -0.263979
  17 C :   -0.158327
  18 C :   -0.489531
  19 H :    0.172507
  20 H :    0.168800
  21 H :    0.169132
  22 H :    0.176416
  23 H :    0.177194
  24 H :    0.174754
  25 H :    0.178187
  26 H :    0.167563
  27 H :    0.175487
  28 H :    0.176984
  29 H :    0.225786
  30 H :    0.223294
  31 H :    0.177163
  32 H :    0.164344
  33 H :    0.171819
  34 H :    0.167533
  35 H :    0.169751
  36 H :    0.177561
  37 H :    0.178707
  38 H :    0.167505
  39 H :    0.172176
  40 H :    0.170516
Sum of atomic charges:   -0.0000000

LOEWDIN ATOMIC CHARGES
----------------------
   0 C :   -0.402978
   1 C :    0.026375
   2 O :   -0.690953
   3 P :    0.394338
   4 S :   -0.133195
   5 O :   -0.682356
   6 C :    0.021432
   7 C :   -0.406519
   8 S :    0.158300
   9 C :   -0.404968
  10 S :    0.163660
  11 P :    0.381570
  12 S :   -0.161950
  13 O :   -0.671524
  14 C :    0.028181
  15 C :   -0.406168
  16 O :   -0.689663
  17 C :    0.018304
  18 C :   -0.403459
  19 H :    0.169074
  20 H :    0.162809
  21 H :    0.164028
  22 H :    0.190378
  23 H :    0.182427
  24 H :    0.190673
  25 H :    0.181133
  26 H :    0.161747
  27 H :    0.164196
  28 H :    0.170179
  29 H :    0.197688
  30 H :    0.196691
  31 H :    0.190535
  32 H :    0.180042
  33 H :    0.163023
  34 H :    0.162414
  35 H :    0.167359
  36 H :    0.181703
  37 H :    0.190466
  38 H :    0.162574
  39 H :    0.168518
  40 H :    0.163914

  Mayer bond orders larger than 0.100000
B(  0-C ,  1-C ) :   0.9183 B(  0-C , 19-H ) :   0.9564 B(  0-C , 20-H ) :   0.9598
B(  0-C , 21-H ) :   0.9700 B(  1-C ,  2-O ) :   0.7883 B(  1-C , 22-H ) :   0.9503
B(  1-C , 23-H ) :   0.9586 B(  2-O ,  3-P ) :   1.1691 B(  3-P ,  4-S ) :   1.7110
B(  3-P ,  5-O ) :   1.0756 B(  3-P ,  8-S ) :   1.0670 B(  5-O ,  6-C ) :   0.8064
B(  6-C ,  7-C ) :   0.9010 B(  6-C , 24-H ) :   0.9463 B(  6-C , 25-H ) :   0.9633
B(  7-C , 26-H ) :   0.9617 B(  7-C , 27-H ) :   0.9657 B(  7-C , 28-H ) :   0.9526
B(  8-S ,  9-C ) :   0.8798 B(  9-C , 10-S ) :   0.9062 B(  9-C , 29-H ) :   0.9060
B(  9-C , 30-H ) :   0.9064 B( 10-S , 11-P ) :   1.1000 B( 11-P , 12-S ) :   1.6948
B( 11-P , 13-O ) :   1.0751 B( 11-P , 16-O ) :   1.1800 B( 13-O , 14-C ) :   0.7692
B( 14-C , 15-C ) :   0.9433 B( 14-C , 31-H ) :   0.9535 B( 14-C , 32-H ) :   0.9570
B( 15-C , 33-H ) :   0.9609 B( 15-C , 34-H ) :   0.9717 B( 15-C , 35-H ) :   0.9591
B( 16-O , 17-C ) :   0.7720 B( 17-C , 18-C ) :   0.9120 B( 17-C , 36-H ) :   0.9599
B( 17-C , 37-H ) :   0.9513 B( 18-C , 38-H ) :   0.9594 B( 18-C , 39-H ) :   0.9569
B( 18-C , 40-H ) :   0.9714

Dispersion correction           -0.021915758
FINAL SINGLE POINT ENERGY     -2932.465910984622

DIPOLE MOMENT
-------------

Method             : SCF
Type of density    : Electron Density
Multiplicity       :   1
Irrep              :   0
Energy             : -2932.4904521582711823 Eh
Relativity type    :
Basis              : AO
                                X                 Y                 Z
Electronic contribution:      2.702119359      -0.003791547      -8.543925137
Nuclear contribution   :     -2.016362900       0.317790671       8.487523022
                        -----------------------------------------
Total Dipole Moment    :      0.685756458       0.313999124      -0.056402115
                        -----------------------------------------
Magnitude (a.u.)       :      0.756332314
Magnitude (Debye)      :      1.922443962

Rotational constants in cm-1:             0.013132             0.005184             0.004649
Rotational constants in MHz :           393.684299           155.422082           139.383203

                             ****ORCA TERMINATED NORMALLY****
TOTAL RUN TIME: 0 days 0 hours 1 minutes 47 seconds 672 msec
