                         Program Version 6.0.1  -  RELEASE   -
|  1> ! pbe def2-sv(p) def2/J RI DEFGRID1 loosescf d4 GCP(DFT/SV(P)) printgap
|  2> %output
|  3>     printlevel normal
|  4> end
|  5> * xyz 0 1
|  6> C 3.0700772743 -3.7296559594 1.336720335
|  7> C 2.988681858 -3.17494413 -0.0763014752
|  8> O 2.916587312 -1.7352218476 -0.0603366965
|  9> C 1.7407621162 -1.1636298653 0.0712485426
| 10> O 0.691041824 -1.7732949094 0.150529326
| 11> C 1.8541231684 0.3440852992 0.1110650039
| 12> C 0.5291399086 0.9856646799 -0.2597473028
| 13> H 0.1611122501 0.5950594525 -1.2196022919
| 14> C 0.5398760545 2.5033247956 -0.3455157003
| 15> O -0.4046298086 3.134897074 -0.765648407
| 16> O 1.6610644747 3.0250471158 0.0877007815
| 17> C 1.7955848346 4.462969959 0.0746992656
| 18> C 3.2736484213 4.8010544913 0.0677049248
| 19> S -0.7800061986 0.5787745755 0.958841427
| 20> P -1.821407126 -0.9135566888 -0.1546018063
| 21> S -1.3610440036 -1.1667879742 -2.0404612635
| 22> O -1.9078063631 -2.2392149034 0.6913980894
| 23> C -2.3091049213 -2.2421034051 2.0753566774
| 24> O -3.3416208969 -0.4018547786 0.0245145146
| 25> C -3.7944590615 0.7792104506 -0.6367068028
| 26> H 2.1549451941 -3.5057008368 1.8800386095
| 27> H 3.1966080271 -4.8062187921 1.2911913316
| 28> H 3.9133346757 -3.2907197591 1.8626031023
| 29> H 2.1086674059 -3.5624650969 -0.5981317936
| 30> H 3.8933904619 -3.3935028843 -0.6435064756
| 31> H 2.6385711478 0.656393055 -0.5784040619
| 32> H 2.1496246651 0.6404357237 1.1201454796
| 33> H 1.2785504462 4.8512491293 -0.8077073345
| 34> H 1.2994072596 4.8495235749 0.9692305476
| 35> H 3.3916559366 5.8792848361 0.0873286539
| 36> H 3.7573138907 4.3721102275 0.9396584802
| 37> H 3.7468021136 4.4079511496 -0.827167428
| 38> H -2.1890019489 -3.272405226 2.4001454715
| 39> H -3.3468344723 -1.9244532475 2.1611669118
| 40> H -1.6643622473 -1.5772244821 2.6503239224
| 41> H -3.6561169193 0.6811152452 -1.714775722
| 42> H -3.2434145714 1.6510688985 -0.2791616572
| 43> H -4.8497499821 0.8672963887 -0.3929481342
| 44> *
| 45>
| 46>                          ****END OF INPUT****

CARTESIAN COORDINATES (ANGSTROEM)
---------------------------------
  C      3.070077   -3.729656    1.336720
  C      2.988682   -3.174944   -0.076301
  O      2.916587   -1.735222   -0.060337
  C      1.740762   -1.163630    0.071249
  O      0.691042   -1.773295    0.150529
  C      1.854123    0.344085    0.111065
  C      0.529140    0.985665   -0.259747
  H      0.161112    0.595059   -1.219602
  C      0.539876    2.503325   -0.345516
  O     -0.404630    3.134897   -0.765648
  O      1.661064    3.025047    0.087701
  C      1.795585    4.462970    0.074699
  C      3.273648    4.801054    0.067705
  S     -0.780006    0.578775    0.958841
  P     -1.821407   -0.913557   -0.154602
  S     -1.361044   -1.166788   -2.040461
  O     -1.907806   -2.239215    0.691398
  C     -2.309105   -2.242103    2.075357
  O     -3.341621   -0.401855    0.024515
  C     -3.794459    0.779210   -0.636707
  H      2.154945   -3.505701    1.880039
  H      3.196608   -4.806219    1.291191
  H      3.913335   -3.290720    1.862603
  H      2.108667   -3.562465   -0.598132
  H      3.893390   -3.393503   -0.643506
  H      2.638571    0.656393   -0.578404
  H      2.149625    0.640436    1.120145
  H      1.278550    4.851249   -0.807707
  H      1.299407    4.849524    0.969231
  H      3.391656    5.879285    0.087329
  H      3.757314    4.372110    0.939658
  H      3.746802    4.407951   -0.827167
  H     -2.189002   -3.272405    2.400145
  H     -3.346834   -1.924453    2.161167
  H     -1.664362   -1.577224    2.650324
  H     -3.656117    0.681115   -1.714776
  H     -3.243415    1.651069   -0.279162
  H     -4.849750    0.867296   -0.392948

 Total Charge           Charge          ....    0
 Multiplicity           Mult            ....    1
 Number of Electrons    NEL             ....  174
 Basis Dimension        Dim             ....  316

ORBITAL ENERGIES
----------------

  NO   OCC          E(Eh)            E(eV)
   0   2.0000     -88.032549     -2395.4874
   1   2.0000     -87.971917     -2393.8376
   2   2.0000     -76.414836     -2079.3534
   3   2.0000     -18.813689      -511.9465
   4   2.0000     -18.808066      -511.7935
   5   2.0000     -18.782759      -511.1049
   6   2.0000     -18.773596      -510.8555
   7   2.0000     -18.742795      -510.0174
   8   2.0000     -18.738190      -509.8921
   9   2.0000     -10.015181      -272.5269
  10   2.0000     -10.014370      -272.5049
  11   2.0000      -9.955706      -270.9085
  12   2.0000      -9.950497      -270.7668
  13   2.0000      -9.944023      -270.5906
  14   2.0000      -9.938566      -270.4421
  15   2.0000      -9.925361      -270.0828
  16   2.0000      -9.911281      -269.6997
  17   2.0000      -9.896215      -269.2897
  18   2.0000      -9.890461      -269.1331
  19   2.0000      -7.676827      -208.8971
  20   2.0000      -7.617236      -207.2755
  21   2.0000      -6.411341      -174.4615
  22   2.0000      -5.704802      -155.2356
  23   2.0000      -5.701682      -155.1507
  24   2.0000      -5.693498      -154.9280
  25   2.0000      -5.646417      -153.6468
  26   2.0000      -5.638150      -153.4219
  27   2.0000      -5.636750      -153.3838
  28   2.0000      -4.634099      -126.1002
  29   2.0000      -4.633203      -126.0759
  30   2.0000      -4.631753      -126.0364
  31   2.0000      -1.020250       -27.7624
  32   2.0000      -1.016123       -27.6501
  33   2.0000      -0.974435       -26.5157
  34   2.0000      -0.927453       -25.2373
  35   2.0000      -0.920151       -25.0386
  36   2.0000      -0.918525       -24.9943
  37   2.0000      -0.760628       -20.6977
  38   2.0000      -0.715834       -19.4788
  39   2.0000      -0.711238       -19.3538
  40   2.0000      -0.686692       -18.6858
  41   2.0000      -0.655650       -17.8411
  42   2.0000      -0.625369       -17.0172
  43   2.0000      -0.617842       -16.8123
  44   2.0000      -0.610304       -16.6072
  45   2.0000      -0.596039       -16.2190
  46   2.0000      -0.564088       -15.3496
  47   2.0000      -0.517476       -14.0812
  48   2.0000      -0.503193       -13.6926
  49   2.0000      -0.500308       -13.6141
  50   2.0000      -0.474956       -12.9242
  51   2.0000      -0.463523       -12.6131
  52   2.0000      -0.458648       -12.4805
  53   2.0000      -0.450965       -12.2714
  54   2.0000      -0.442940       -12.0530
  55   2.0000      -0.429621       -11.6906
  56   2.0000      -0.423808       -11.5324
  57   2.0000      -0.410901       -11.1812
  58   2.0000      -0.409115       -11.1326
  59   2.0000      -0.408274       -11.1097
  60   2.0000      -0.396393       -10.7864
  61   2.0000      -0.393312       -10.7026
  62   2.0000      -0.388764       -10.5788
  63   2.0000      -0.385255       -10.4833
  64   2.0000      -0.375147       -10.2083
  65   2.0000      -0.369555       -10.0561
  66   2.0000      -0.362805        -9.8724
  67   2.0000      -0.359114        -9.7720
  68   2.0000      -0.348164        -9.4740
  69   2.0000      -0.342106        -9.3092
  70   2.0000      -0.336769        -9.1640
  71   2.0000      -0.328233        -8.9317
  72   2.0000      -0.324885        -8.8406
  73   2.0000      -0.308371        -8.3912
  74   2.0000      -0.303584        -8.2609
  75   2.0000      -0.299896        -8.1606
  76   2.0000      -0.286384        -7.7929
  77   2.0000      -0.284583        -7.7439
  78   2.0000      -0.268267        -7.2999
  79   2.0000      -0.265775        -7.2321
  80   2.0000      -0.259514        -7.0617
  81   2.0000      -0.247606        -6.7377
  82   2.0000      -0.237837        -6.4719
  83   2.0000      -0.224264        -6.1025
  84   2.0000      -0.204112        -5.5542
  85   2.0000      -0.194068        -5.2809
  86   2.0000      -0.183800        -5.0014
  87   0.0000      -0.044990        -1.2242
  88   0.0000      -0.031678        -0.8620
  89   0.0000      -0.025213        -0.6861
  90   0.0000       0.026736         0.7275
  91   0.0000       0.032620         0.8876

MULLIKEN ATOMIC CHARGES
-----------------------
   0 C :   -0.305942
   1 C :   -0.014230
   2 O :   -0.226021
   3 C :    0.145468
   4 O :   -0.199156
   5 C :   -0.037608
   6 C :   -0.390771
   7 H :    0.159409
   8 C :    0.223799
   9 O :   -0.186270
  10 O :   -0.229198
  11 C :   -0.030072
  12 C :   -0.278553
  13 S :   -0.108199
  14 P :    0.633494
  15 S :   -0.309048
  16 O :   -0.356388
  17 C :   -0.104441
  18 O :   -0.395461
  19 C :   -0.103820
  20 H :    0.125065
  21 H :    0.115615
  22 H :    0.113502
  23 H :    0.121704
  24 H :    0.104544
  25 H :    0.114464
  26 H :    0.119040
  27 H :    0.118760
  28 H :    0.110451
  29 H :    0.115296
  30 H :    0.116078
  31 H :    0.117676
  32 H :    0.129001
  33 H :    0.124968
  34 H :    0.116939
  35 H :    0.114948
  36 H :    0.119963
  37 H :    0.114995
Sum of atomic charges:   -0.0000000

LOEWDIN ATOMIC CHARGES
----------------------
   0 C :   -0.355847
   1 C :   -0.109918
   2 O :   -0.054662
   3 C :    0.041269
   4 O :   -0.164889
   5 C :   -0.256725
   6 C :   -0.271026
   7 H :    0.136267
   8 C :    0.009933
   9 O :   -0.157619
  10 O :   -0.053118
  11 C :   -0.105962
  12 C :   -0.350693
  13 S :    0.096325
  14 P :    0.596785
  15 S :   -0.302296
  16 O :   -0.230477
  17 C :   -0.208066
  18 O :   -0.269781
  19 C :   -0.223207
  20 H :    0.129676
  21 H :    0.132028
  22 H :    0.124432
  23 H :    0.125868
  24 H :    0.118900
  25 H :    0.142755
  26 H :    0.144957
  27 H :    0.122476
  28 H :    0.119953
  29 H :    0.132588
  30 H :    0.127006
  31 H :    0.127696
  32 H :    0.125082
  33 H :    0.116168
  34 H :    0.108561
  35 H :    0.109768
  36 H :    0.108608
  37 H :    0.117185

  Mayer bond orders larger than 0.100000
B(  0-C ,  1-C ) :   1.1740 B(  0-C , 20-H ) :   0.9464 B(  0-C , 21-H ) :   0.9442
B(  0-C , 22-H ) :   0.9488 B(  1-C ,  2-O ) :   0.9106 B(  1-C , 23-H ) :   0.9141
B(  1-C , 24-H ) :   0.9372 B(  2-O ,  3-C ) :   1.2533 B(  3-C ,  4-O ) :   1.9596
B(  3-C ,  5-C ) :   1.0015 B(  5-C ,  6-C ) :   1.0063 B(  5-C , 25-H ) :   0.8911
B(  5-C , 26-H ) :   0.8756 B(  6-C ,  7-H ) :   0.8218 B(  6-C ,  8-C ) :   0.9078
B(  6-C , 13-S ) :   1.0283 B(  7-H , 15-S ) :   0.1338 B(  8-C ,  9-O ) :   2.0785
B(  8-C , 10-O ) :   1.2544 B(  9-O , 10-O ) :   0.1006 B( 10-O , 11-C ) :   0.8950
B( 11-C , 12-C ) :   1.1579 B( 11-C , 27-H ) :   0.9199 B( 11-C , 28-H ) :   0.9353
B( 12-C , 29-H ) :   0.9435 B( 12-C , 30-H ) :   0.9482 B( 12-C , 31-H ) :   0.9517
B( 13-S , 14-P ) :   0.9279 B( 13-S , 15-S ) :   0.1148 B( 14-P , 15-S ) :   1.6084
B( 14-P , 16-O ) :   1.1356 B( 14-P , 18-O ) :   1.0498 B( 16-O , 17-C ) :   0.9232
B( 17-C , 32-H ) :   0.9600 B( 17-C , 33-H ) :   0.9465 B( 17-C , 34-H ) :   0.9397
B( 18-O , 19-C ) :   0.9387 B( 19-C , 35-H ) :   0.9386 B( 19-C , 36-H ) :   0.9371
B( 19-C , 37-H ) :   0.9582

Dispersion correction           -0.049996434
FINAL SINGLE POINT ENERGY     -1979.013227693624

DIPOLE MOMENT
-------------

Method             : SCF
Type of density    : Electron Density
Multiplicity       :   1
Irrep              :   0
Energy             : -1979.1446283363970906 Eh
Relativity type    :
Basis              : AO
                                X                 Y                 Z
Electronic contribution:    -14.064444504      -4.319311081      -6.598211290
Nuclear contribution   :     15.512830084       4.697581894       7.958570571
                        -----------------------------------------
Total Dipole Moment    :      1.448385580       0.378270813       1.360359281
                        -----------------------------------------
Magnitude (a.u.)       :      2.022742438
Magnitude (Debye)      :      5.141402684

Rotational constants in cm-1:             0.010140             0.007796             0.005163
Rotational constants in MHz :           303.980345           233.722411           154.777705

                             ****ORCA TERMINATED NORMALLY****
TOTAL RUN TIME: 0 days 0 hours 0 minutes 32 seconds 358 msec
