                         Program Version 6.0.0  -   RELEASE  -
|  1> ! pbe def2-sv(p) def2/J RI DEFGRID1 loosescf d4 GCP(DFT/SV(P)) printgap
|  2> %output
|  3>     printlevel normal
|  4> end
|  5> * xyz 0 1
|  6> C 3.4565688898 -1.3379793488 -2.8506861593
|  7> C 4.2036457809 -0.2978809115 -2.0391300477
|  8> O 3.8145359489 -0.3116843792 -0.6563933379
|  9> P 2.4022675742 0.2031374492 -0.1546548484
| 10> S 1.6600285678 1.6574367658 -1.2464297559
| 11> O 2.9052653693 0.5158278892 1.3104667307
| 12> C 2.1036922855 0.8402590076 2.4559767621
| 13> C 1.3965910418 2.1722038939 2.3075325627
| 14> S 1.1795223809 -1.5271925498 0.0540180632
| 15> C -0.0022435748 -1.2282391018 -1.3097220245
| 16> S -1.7260160489 -1.538921907 -0.8777078586
| 17> P -2.055476049 0.0012394654 0.5681039536
| 18> S -1.2665332513 -0.2780035906 2.3407337204
| 19> O -3.6318454294 0.1829656401 0.5196449551
| 20> C -4.5872256738 -0.8941465905 0.5444711514
| 21> C -4.3848586208 -1.8335444599 1.714322101
| 22> O -1.5369591162 1.3693768228 -0.0233291754
| 23> C -2.2111445861 2.1879242828 -1.0123515504
| 24> C -1.9764645411 1.7027034027 -2.4280137016
| 25> H 3.5216998724 -2.3092917672 -2.3668214652
| 26> H 2.4097999018 -1.0526008161 -2.9418538653
| 27> H 3.8918740274 -1.3999444928 -3.8429111291
| 28> H 4.0298538813 0.7047205729 -2.4434955759
| 29> H 5.2744968512 -0.5034411069 -2.009213669
| 30> H 1.379738474 0.0396964541 2.6350709766
| 31> H 2.8267101262 0.8650501687 3.2733260305
| 32> H 0.9119757873 2.4215937525 3.2461771556
| 33> H 2.1064621754 2.9520303933 2.0425344925
| 34> H 0.6327550827 2.1109756555 1.5329746423
| 35> H 0.2100696281 -1.9306648978 -2.1123983041
| 36> H 0.1181975777 -0.1918147085 -1.6370926217
| 37> H -5.548764414 -0.3813274283 0.6065873352
| 38> H -4.512990184 -1.4364751396 -0.4020686535
| 39> H -5.1760053829 -2.5762666285 1.7213232113
| 40> H -3.4241073708 -2.3397660316 1.6273047847
| 41> H -4.3980908644 -1.2826788877 2.6520190143
| 42> H -3.2745349363 2.2098590364 -0.7706157081
| 43> H -1.7725123098 3.1753233649 -0.8597185764
| 44> H -2.4717573962 2.3836571775 -3.1131415211
| 45> H -0.9117888578 1.6989318632 -2.65094985
| 46> H -2.383300217 0.7038605058 -2.5683202278
| 47> *
| 48>
| 49>                          ****END OF INPUT****

CARTESIAN COORDINATES (ANGSTROEM)
---------------------------------
  C      3.456569   -1.337979   -2.850686
  C      4.203646   -0.297881   -2.039130
  O      3.814536   -0.311684   -0.656393
  P      2.402268    0.203137   -0.154655
  S      1.660029    1.657437   -1.246430
  O      2.905265    0.515828    1.310467
  C      2.103692    0.840259    2.455977
  C      1.396591    2.172204    2.307533
  S      1.179522   -1.527193    0.054018
  C     -0.002244   -1.228239   -1.309722
  S     -1.726016   -1.538922   -0.877708
  P     -2.055476    0.001239    0.568104
  S     -1.266533   -0.278004    2.340734
  O     -3.631845    0.182966    0.519645
  C     -4.587226   -0.894147    0.544471
  C     -4.384859   -1.833544    1.714322
  O     -1.536959    1.369377   -0.023329
  C     -2.211145    2.187924   -1.012352
  C     -1.976465    1.702703   -2.428014
  H      3.521700   -2.309292   -2.366821
  H      2.409800   -1.052601   -2.941854
  H      3.891874   -1.399944   -3.842911
  H      4.029854    0.704721   -2.443496
  H      5.274497   -0.503441   -2.009214
  H      1.379738    0.039696    2.635071
  H      2.826710    0.865050    3.273326
  H      0.911976    2.421594    3.246177
  H      2.106462    2.952030    2.042534
  H      0.632755    2.110976    1.532975
  H      0.210070   -1.930665   -2.112398
  H      0.118198   -0.191815   -1.637093
  H     -5.548764   -0.381327    0.606587
  H     -4.512990   -1.436475   -0.402069
  H     -5.176005   -2.576267    1.721323
  H     -3.424107   -2.339766    1.627305
  H     -4.398091   -1.282679    2.652019
  H     -3.274535    2.209859   -0.770616
  H     -1.772512    3.175323   -0.859719
  H     -2.471757    2.383657   -3.113142
  H     -0.911789    1.698932   -2.650950
  H     -2.383300    0.703861   -2.568320

 Total Charge           Charge          ....    0
 Multiplicity           Mult            ....    1
 Number of Electrons    NEL             ....  202
 Basis Dimension        Dim             ....  334

ORBITAL ENERGIES
----------------

  NO   OCC          E(Eh)            E(eV)
   0   2.0000     -88.047874     -2395.9045
   1   2.0000     -88.040737     -2395.7102
   2   2.0000     -87.989107     -2394.3053
   3   2.0000     -87.978967     -2394.0294
   4   2.0000     -76.428729     -2079.7314
   5   2.0000     -76.424884     -2079.6268
   6   2.0000     -18.798343      -511.5289
   7   2.0000     -18.792944      -511.3820
   8   2.0000     -18.784682      -511.1572
   9   2.0000     -18.782124      -511.0876
  10   2.0000      -9.964190      -271.1394
  11   2.0000      -9.959366      -271.0081
  12   2.0000      -9.954253      -270.8690
  13   2.0000      -9.949465      -270.7387
  14   2.0000      -9.939039      -270.4550
  15   2.0000      -9.886484      -269.0249
  16   2.0000      -9.886380      -269.0221
  17   2.0000      -9.884810      -268.9794
  18   2.0000      -9.864714      -268.4325
  19   2.0000      -7.692756      -209.3305
  20   2.0000      -7.685522      -209.1337
  21   2.0000      -7.633888      -207.7286
  22   2.0000      -7.624057      -207.4611
  23   2.0000      -6.425751      -174.8536
  24   2.0000      -6.422004      -174.7516
  25   2.0000      -5.720593      -155.6652
  26   2.0000      -5.717201      -155.5730
  27   2.0000      -5.713405      -155.4696
  28   2.0000      -5.710099      -155.3797
  29   2.0000      -5.709871      -155.3735
  30   2.0000      -5.702479      -155.1723
  31   2.0000      -5.662555      -154.0860
  32   2.0000      -5.654634      -153.8704
  33   2.0000      -5.654140      -153.8570
  34   2.0000      -5.653141      -153.8298
  35   2.0000      -5.644683      -153.5996
  36   2.0000      -5.644010      -153.5813
  37   2.0000      -4.648996      -126.5056
  38   2.0000      -4.647826      -126.4738
  39   2.0000      -4.645378      -126.4072
  40   2.0000      -4.644229      -126.3759
  41   2.0000      -4.643999      -126.3696
  42   2.0000      -4.642631      -126.3324
  43   2.0000      -0.991434       -26.9783
  44   2.0000      -0.983116       -26.7520
  45   2.0000      -0.947233       -25.7755
  46   2.0000      -0.937562       -25.5124
  47   2.0000      -0.762237       -20.7415
  48   2.0000      -0.720729       -19.6120
  49   2.0000      -0.710683       -19.3387
  50   2.0000      -0.693907       -18.8822
  51   2.0000      -0.681192       -18.5362
  52   2.0000      -0.672531       -18.3005
  53   2.0000      -0.652385       -17.7523
  54   2.0000      -0.637362       -17.3435
  55   2.0000      -0.595666       -16.2089
  56   2.0000      -0.589859       -16.0509
  57   2.0000      -0.581194       -15.8151
  58   2.0000      -0.568267       -15.4633
  59   2.0000      -0.562288       -15.3006
  60   2.0000      -0.502497       -13.6736
  61   2.0000      -0.490219       -13.3395
  62   2.0000      -0.474886       -12.9223
  63   2.0000      -0.462022       -12.5723
  64   2.0000      -0.455889       -12.4054
  65   2.0000      -0.446990       -12.1632
  66   2.0000      -0.439342       -11.9551
  67   2.0000      -0.436825       -11.8866
  68   2.0000      -0.426969       -11.6184
  69   2.0000      -0.415701       -11.3118
  70   2.0000      -0.411406       -11.1949
  71   2.0000      -0.403706       -10.9854
  72   2.0000      -0.401720       -10.9314
  73   2.0000      -0.389426       -10.5968
  74   2.0000      -0.386449       -10.5158
  75   2.0000      -0.367179        -9.9914
  76   2.0000      -0.358066        -9.7435
  77   2.0000      -0.355933        -9.6854
  78   2.0000      -0.352660        -9.5964
  79   2.0000      -0.347964        -9.4686
  80   2.0000      -0.345666        -9.4061
  81   2.0000      -0.344641        -9.3782
  82   2.0000      -0.338145        -9.2014
  83   2.0000      -0.331621        -9.0239
  84   2.0000      -0.326295        -8.8789
  85   2.0000      -0.323051        -8.7907
  86   2.0000      -0.308711        -8.4005
  87   2.0000      -0.302399        -8.2287
  88   2.0000      -0.294327        -8.0090
  89   2.0000      -0.292246        -7.9524
  90   2.0000      -0.280634        -7.6365
  91   2.0000      -0.278098        -7.5674
  92   2.0000      -0.265252        -7.2179
  93   2.0000      -0.260595        -7.0912
  94   2.0000      -0.256572        -6.9817
  95   2.0000      -0.242669        -6.6033
  96   2.0000      -0.220574        -6.0021
  97   2.0000      -0.206972        -5.6320
  98   2.0000      -0.204435        -5.5630
  99   2.0000      -0.193723        -5.2715
 100   2.0000      -0.185771        -5.0551
 101   0.0000      -0.045464        -1.2371
 102   0.0000      -0.035030        -0.9532
 103   0.0000      -0.021455        -0.5838
 104   0.0000      -0.001037        -0.0282
 105   0.0000       0.014735         0.4010

MULLIKEN ATOMIC CHARGES
-----------------------
   0 C :   -0.325359
   1 C :    0.003081
   2 O :   -0.357074
   3 P :    0.610862
   4 S :   -0.339293
   5 O :   -0.355022
   6 C :   -0.017537
   7 C :   -0.316325
   8 S :   -0.079187
   9 C :   -0.381603
  10 S :   -0.124571
  11 P :    0.617604
  12 S :   -0.306233
  13 O :   -0.382688
  14 C :   -0.016039
  15 C :   -0.312137
  16 O :   -0.352718
  17 C :    0.003065
  18 C :   -0.335304
  19 H :    0.121965
  20 H :    0.119222
  21 H :    0.112162
  22 H :    0.111328
  23 H :    0.106530
  24 H :    0.131065
  25 H :    0.100194
  26 H :    0.106307
  27 H :    0.108968
  28 H :    0.143404
  29 H :    0.189497
  30 H :    0.214868
  31 H :    0.112053
  32 H :    0.116114
  33 H :    0.113010
  34 H :    0.130770
  35 H :    0.130204
  36 H :    0.109477
  37 H :    0.113698
  38 H :    0.110881
  39 H :    0.147373
  40 H :    0.117389
Sum of atomic charges:   -0.0000000

LOEWDIN ATOMIC CHARGES
----------------------
   0 C :   -0.368288
   1 C :   -0.118543
   2 O :   -0.237534
   3 P :    0.571125
   4 S :   -0.304294
   5 O :   -0.225740
   6 C :   -0.119157
   7 C :   -0.370906
   8 S :    0.080647
   9 C :   -0.483627
  10 S :    0.066116
  11 P :    0.569476
  12 S :   -0.298617
  13 O :   -0.244288
  14 C :   -0.115444
  15 C :   -0.370125
  16 O :   -0.229822
  17 C :   -0.108831
  18 C :   -0.372993
  19 H :    0.126942
  20 H :    0.118036
  21 H :    0.130518
  22 H :    0.108888
  23 H :    0.119862
  24 H :    0.105034
  25 H :    0.117146
  26 H :    0.129134
  27 H :    0.122096
  28 H :    0.122068
  29 H :    0.135029
  30 H :    0.119330
  31 H :    0.122634
  32 H :    0.108128
  33 H :    0.130960
  34 H :    0.122942
  35 H :    0.131984
  36 H :    0.112541
  37 H :    0.124467
  38 H :    0.131298
  39 H :    0.125873
  40 H :    0.115932

  Mayer bond orders larger than 0.100000
B(  0-C ,  1-C ) :   1.1596 B(  0-C , 19-H ) :   0.9447 B(  0-C , 20-H ) :   0.9343
B(  0-C , 21-H ) :   0.9384 B(  1-C ,  2-O ) :   0.9254 B(  1-C , 22-H ) :   0.9140
B(  1-C , 23-H ) :   0.9340 B(  2-O ,  3-P ) :   1.1120 B(  3-P ,  4-S ) :   1.5769
B(  3-P ,  5-O ) :   1.1567 B(  3-P ,  8-S ) :   0.9591 B(  4-S ,  8-S ) :   0.1249
B(  4-S , 30-H ) :   0.1065 B(  5-O ,  6-C ) :   0.9035 B(  6-C ,  7-C ) :   1.1707
B(  6-C , 24-H ) :   0.9102 B(  6-C , 25-H ) :   0.9335 B(  7-C , 26-H ) :   0.9364
B(  7-C , 27-H ) :   0.9436 B(  7-C , 28-H ) :   0.9262 B(  8-S ,  9-C ) :   1.0055
B(  9-C , 10-S ) :   1.0079 B(  9-C , 29-H ) :   0.9021 B(  9-C , 30-H ) :   0.8338
B( 10-S , 11-P ) :   0.9261 B( 10-S , 12-S ) :   0.1106 B( 11-P , 12-S ) :   1.6739
B( 11-P , 13-O ) :   1.0753 B( 11-P , 16-O ) :   1.1289 B( 13-O , 14-C ) :   0.9126
B( 14-C , 15-C ) :   1.1668 B( 14-C , 31-H ) :   0.9331 B( 14-C , 32-H ) :   0.9242
B( 15-C , 33-H ) :   0.9341 B( 15-C , 34-H ) :   0.9320 B( 15-C , 35-H ) :   0.9417
B( 16-O , 17-C ) :   0.8918 B( 17-C , 18-C ) :   1.1738 B( 17-C , 36-H ) :   0.9242
B( 17-C , 37-H ) :   0.9311 B( 18-C , 38-H ) :   0.9354 B( 18-C , 39-H ) :   0.9254
B( 18-C , 40-H ) :   0.9339

Dispersion correction           -0.068073040
FINAL SINGLE POINT ENERGY     -2929.511493222453

DIPOLE MOMENT
-------------

Method             : SCF
Type of density    : Electron Density
Multiplicity       :   1
Irrep              :   0
Energy             : -2929.6296410788863795 Eh
Relativity type    :
Basis              : AO
                                X                 Y                 Z
Electronic contribution:      5.507761205      -3.762785992       7.081780031
Nuclear contribution   :     -6.437072747       3.514908714      -8.223298787
                        -----------------------------------------
Total Dipole Moment    :     -0.929311542      -0.247877279      -1.141518756
                        -----------------------------------------
Magnitude (a.u.)       :      1.492691582
Magnitude (Debye)      :      3.794120477

Rotational constants in cm-1:             0.012407             0.005393             0.005071
Rotational constants in MHz :           371.965987           161.687168           152.021143

                             ****ORCA TERMINATED NORMALLY****
TOTAL RUN TIME: 0 days 0 hours 0 minutes 21 seconds 822 msec
