                         Program Version 6.0.0  -   RELEASE  -
|  1> ! pbe def2-sv(p) def2/J RI DEFGRID1 loosescf d4 GCP(DFT/SV(P)) printgap
|  2> %output
|  3>     printlevel normal
|  4> end
|  5> * xyz 0 1
|  6> C 4.4527130961 -0.9012066732 -2.2716032326
|  7> C 3.1402057732 -1.6213101093 -2.0466874967
|  8> O 2.6632907953 -1.4463285323 -0.6959360022
|  9> P 2.1015172529 -0.0618714863 -0.1753617449
| 10> S 1.2733749253 1.0750448879 -1.5485585034
| 11> O 3.3758073428 0.6100672867 0.4988379476
| 12> C 3.4140475747 2.0004396165 0.8555716713
| 13> C 2.4777341933 2.3122936402 2.0053999297
| 14> S 1.0491118986 -0.7981118909 1.5097598521
| 15> C 0.0732999528 -2.109495138 0.7151620178
| 16> S -0.907291131 -1.5503811067 -0.7064670259
| 17> P -2.0943946474 -0.0707409644 0.2352105711
| 18> S -1.3762429092 1.6517658766 0.8524388948
| 19> O -2.6982726402 -0.9893767498 1.3742898616
| 20> C -3.3256237549 -0.4397740502 2.5515611041
| 21> C -4.6623392175 0.1929903908 2.2275544281
| 22> O -3.3072672722 0.0806738991 -0.7811998277
| 23> C -3.3275265867 1.061152057 -1.8299406851
| 24> C -2.3713859315 0.7043962381 -2.9498518615
| 25> H 4.8269391101 -1.1350227101 -3.2632676123
| 26> H 4.3003747694 0.1746616998 -2.1949916187
| 27> H 5.1816511975 -1.2062849661 -1.5255403838
| 28> H 3.2466369552 -2.7018686063 -2.1491553138
| 29> H 2.3727375117 -1.2536326691 -2.735397043
| 30> H 4.4566939014 2.1754272065 1.1240444317
| 31> H 3.1492302882 2.5942730184 -0.0259123293
| 32> H 2.6098344683 3.3447666474 2.3122936301
| 33> H 1.4412673776 2.1729501828 1.693777982
| 34> H 2.6792453974 1.6541350781 2.8470490309
| 35> H -0.5874030775 -2.5026707844 1.4845085562
| 36> H 0.740416638 -2.8801917412 0.3359302553
| 37> H -3.4338578545 -1.2981358662 3.2157893394
| 38> H -2.6460545217 0.2948740419 2.9955029393
| 39> H -5.2942504926 -0.5149141524 1.6977697981
| 40> H -5.1497982223 0.4974241947 3.1483440958
| 41> H -4.5129812272 1.0698715417 1.5989855032
| 42> H -4.3641298177 1.0626746127 -2.1698319411
| 43> H -3.0720806515 2.0367580121 -1.4022379612
| 44> H -2.5585650168 -0.3082843583 -3.2980618949
| 45> H -2.4999953241 1.4006337259 -3.7722091432
| 46> H -1.3407533244 0.7695160757 -2.5993725944
| 47> *
| 48>
| 49>                          ****END OF INPUT****

CARTESIAN COORDINATES (ANGSTROEM)
---------------------------------
  C      4.452713   -0.901207   -2.271603
  C      3.140206   -1.621310   -2.046687
  O      2.663291   -1.446329   -0.695936
  P      2.101517   -0.061871   -0.175362
  S      1.273375    1.075045   -1.548559
  O      3.375807    0.610067    0.498838
  C      3.414048    2.000440    0.855572
  C      2.477734    2.312294    2.005400
  S      1.049112   -0.798112    1.509760
  C      0.073300   -2.109495    0.715162
  S     -0.907291   -1.550381   -0.706467
  P     -2.094395   -0.070741    0.235211
  S     -1.376243    1.651766    0.852439
  O     -2.698273   -0.989377    1.374290
  C     -3.325624   -0.439774    2.551561
  C     -4.662339    0.192990    2.227554
  O     -3.307267    0.080674   -0.781200
  C     -3.327527    1.061152   -1.829941
  C     -2.371386    0.704396   -2.949852
  H      4.826939   -1.135023   -3.263268
  H      4.300375    0.174662   -2.194992
  H      5.181651   -1.206285   -1.525540
  H      3.246637   -2.701869   -2.149155
  H      2.372738   -1.253633   -2.735397
  H      4.456694    2.175427    1.124044
  H      3.149230    2.594273   -0.025912
  H      2.609834    3.344767    2.312294
  H      1.441267    2.172950    1.693778
  H      2.679245    1.654135    2.847049
  H     -0.587403   -2.502671    1.484509
  H      0.740417   -2.880192    0.335930
  H     -3.433858   -1.298136    3.215789
  H     -2.646055    0.294874    2.995503
  H     -5.294250   -0.514914    1.697770
  H     -5.149798    0.497424    3.148344
  H     -4.512981    1.069872    1.598986
  H     -4.364130    1.062675   -2.169832
  H     -3.072081    2.036758   -1.402238
  H     -2.558565   -0.308284   -3.298062
  H     -2.499995    1.400634   -3.772209
  H     -1.340753    0.769516   -2.599373

 Total Charge           Charge          ....    0
 Multiplicity           Mult            ....    1
 Number of Electrons    NEL             ....  202
 Basis Dimension        Dim             ....  334

ORBITAL ENERGIES
----------------

  NO   OCC          E(Eh)            E(eV)
   0   2.0000     -88.038071     -2395.6377
   1   2.0000     -88.036519     -2395.5955
   2   2.0000     -87.980202     -2394.0630
   3   2.0000     -87.980111     -2394.0605
   4   2.0000     -76.422391     -2079.5590
   5   2.0000     -76.422326     -2079.5572
   6   2.0000     -18.790410      -511.3130
   7   2.0000     -18.789913      -511.2995
   8   2.0000     -18.788729      -511.2673
   9   2.0000     -18.788051      -511.2489
  10   2.0000      -9.956611      -270.9332
  11   2.0000      -9.949670      -270.7443
  12   2.0000      -9.949589      -270.7421
  13   2.0000      -9.946515      -270.6584
  14   2.0000      -9.946417      -270.6558
  15   2.0000      -9.881786      -268.8971
  16   2.0000      -9.881574      -268.8913
  17   2.0000      -9.877146      -268.7708
  18   2.0000      -9.876240      -268.7461
  19   2.0000      -7.683127      -209.0685
  20   2.0000      -7.681669      -209.0288
  21   2.0000      -7.624765      -207.4804
  22   2.0000      -7.624703      -207.4787
  23   2.0000      -6.419800      -174.6916
  24   2.0000      -6.419766      -174.6907
  25   2.0000      -5.711206      -155.4098
  26   2.0000      -5.709799      -155.3715
  27   2.0000      -5.707725      -155.3151
  28   2.0000      -5.706263      -155.2753
  29   2.0000      -5.699768      -155.0986
  30   2.0000      -5.698256      -155.0574
  31   2.0000      -5.653562      -153.8412
  32   2.0000      -5.653555      -153.8411
  33   2.0000      -5.645350      -153.6178
  34   2.0000      -5.645245      -153.6149
  35   2.0000      -5.645091      -153.6107
  36   2.0000      -5.645081      -153.6105
  37   2.0000      -4.642429      -126.3269
  38   2.0000      -4.642413      -126.3265
  39   2.0000      -4.641613      -126.3047
  40   2.0000      -4.641595      -126.3042
  41   2.0000      -4.640151      -126.2649
  42   2.0000      -4.640108      -126.2638
  43   2.0000      -0.984196       -26.7813
  44   2.0000      -0.983968       -26.7751
  45   2.0000      -0.944555       -25.7026
  46   2.0000      -0.944523       -25.7018
  47   2.0000      -0.760784       -20.7020
  48   2.0000      -0.716522       -19.4975
  49   2.0000      -0.703407       -19.1407
  50   2.0000      -0.683179       -18.5902
  51   2.0000      -0.682750       -18.5786
  52   2.0000      -0.666110       -18.1258
  53   2.0000      -0.650550       -17.7024
  54   2.0000      -0.634085       -17.2543
  55   2.0000      -0.598209       -16.2781
  56   2.0000      -0.590079       -16.0569
  57   2.0000      -0.569544       -15.4981
  58   2.0000      -0.569226       -15.4894
  59   2.0000      -0.559129       -15.2147
  60   2.0000      -0.492857       -13.4113
  61   2.0000      -0.488465       -13.2918
  62   2.0000      -0.472269       -12.8511
  63   2.0000      -0.469148       -12.7662
  64   2.0000      -0.456296       -12.4164
  65   2.0000      -0.441576       -12.0159
  66   2.0000      -0.435625       -11.8540
  67   2.0000      -0.432876       -11.7792
  68   2.0000      -0.420686       -11.4474
  69   2.0000      -0.412254       -11.2180
  70   2.0000      -0.407542       -11.0898
  71   2.0000      -0.391778       -10.6608
  72   2.0000      -0.390508       -10.6263
  73   2.0000      -0.387977       -10.5574
  74   2.0000      -0.383690       -10.4407
  75   2.0000      -0.370993       -10.0952
  76   2.0000      -0.365803        -9.9540
  77   2.0000      -0.354354        -9.6425
  78   2.0000      -0.351125        -9.5546
  79   2.0000      -0.349090        -9.4992
  80   2.0000      -0.344373        -9.3709
  81   2.0000      -0.344025        -9.3614
  82   2.0000      -0.338892        -9.2217
  83   2.0000      -0.335052        -9.1172
  84   2.0000      -0.327979        -8.9248
  85   2.0000      -0.317137        -8.6297
  86   2.0000      -0.303199        -8.2505
  87   2.0000      -0.291860        -7.9419
  88   2.0000      -0.290254        -7.8982
  89   2.0000      -0.282867        -7.6972
  90   2.0000      -0.277569        -7.5530
  91   2.0000      -0.273141        -7.4325
  92   2.0000      -0.268427        -7.3043
  93   2.0000      -0.258683        -7.0391
  94   2.0000      -0.257672        -7.0116
  95   2.0000      -0.247078        -6.7233
  96   2.0000      -0.218711        -5.9514
  97   2.0000      -0.209200        -5.6926
  98   2.0000      -0.188466        -5.1284
  99   2.0000      -0.185966        -5.0604
 100   2.0000      -0.183297        -4.9878
 101   0.0000      -0.049062        -1.3351
 102   0.0000      -0.026692        -0.7263
 103   0.0000      -0.006342        -0.1726
 104   0.0000      -0.003079        -0.0838
 105   0.0000       0.026721         0.7271

MULLIKEN ATOMIC CHARGES
-----------------------
   0 C :   -0.303439
   1 C :   -0.004954
   2 O :   -0.375378
   3 P :    0.618925
   4 S :   -0.307243
   5 O :   -0.370780
   6 C :   -0.001773
   7 C :   -0.343563
   8 S :   -0.093721
   9 C :   -0.333411
  10 S :   -0.095313
  11 P :    0.620567
  12 S :   -0.304273
  13 O :   -0.375627
  14 C :   -0.005428
  15 C :   -0.302998
  16 O :   -0.371409
  17 C :   -0.002331
  18 C :   -0.343738
  19 H :    0.110869
  20 H :    0.122764
  21 H :    0.116475
  22 H :    0.100772
  23 H :    0.112437
  24 H :    0.102625
  25 H :    0.109869
  26 H :    0.112764
  27 H :    0.155867
  28 H :    0.117497
  29 H :    0.186633
  30 H :    0.187675
  31 H :    0.100868
  32 H :    0.111707
  33 H :    0.116679
  34 H :    0.110893
  35 H :    0.122385
  36 H :    0.102261
  37 H :    0.109884
  38 H :    0.115313
  39 H :    0.111574
  40 H :    0.158078
Sum of atomic charges:    0.0000000

LOEWDIN ATOMIC CHARGES
----------------------
   0 C :   -0.363969
   1 C :   -0.119370
   2 O :   -0.243019
   3 P :    0.572286
   4 S :   -0.301857
   5 O :   -0.243764
   6 C :   -0.121098
   7 C :   -0.374147
   8 S :    0.086191
   9 C :   -0.472436
  10 S :    0.087761
  11 P :    0.571100
  12 S :   -0.303290
  13 O :   -0.243823
  14 C :   -0.119732
  15 C :   -0.363644
  16 O :   -0.242686
  17 C :   -0.120488
  18 C :   -0.374445
  19 H :    0.129859
  20 H :    0.123320
  21 H :    0.126497
  22 H :    0.116216
  23 H :    0.110703
  24 H :    0.117329
  25 H :    0.109245
  26 H :    0.131793
  27 H :    0.124358
  28 H :    0.123632
  29 H :    0.133587
  30 H :    0.134104
  31 H :    0.116231
  32 H :    0.110499
  33 H :    0.126577
  34 H :    0.129813
  35 H :    0.123419
  36 H :    0.117007
  37 H :    0.109358
  38 H :    0.123478
  39 H :    0.131424
  40 H :    0.121980

  Mayer bond orders larger than 0.100000
B(  0-C ,  1-C ) :   1.1662 B(  0-C , 19-H ) :   0.9393 B(  0-C , 20-H ) :   0.9359
B(  0-C , 21-H ) :   0.9462 B(  1-C ,  2-O ) :   0.9033 B(  1-C , 22-H ) :   0.9339
B(  1-C , 23-H ) :   0.9130 B(  2-O ,  3-P ) :   1.1096 B(  3-P ,  4-S ) :   1.6109
B(  3-P ,  5-O ) :   1.1061 B(  3-P ,  8-S ) :   0.9563 B(  4-S ,  8-S ) :   0.1147
B(  5-O ,  6-C ) :   0.9087 B(  6-C ,  7-C ) :   1.1644 B(  6-C , 24-H ) :   0.9327
B(  6-C , 25-H ) :   0.9126 B(  7-C , 26-H ) :   0.9379 B(  7-C , 27-H ) :   0.9230
B(  7-C , 28-H ) :   0.9436 B(  8-S ,  9-C ) :   1.0003 B(  9-C , 10-S ) :   1.0036
B(  9-C , 29-H ) :   0.9028 B(  9-C , 30-H ) :   0.9038 B( 10-S , 11-P ) :   0.9512
B( 10-S , 12-S ) :   0.1160 B( 11-P , 12-S ) :   1.6243 B( 11-P , 13-O ) :   1.1066
B( 11-P , 16-O ) :   1.1073 B( 13-O , 14-C ) :   0.9049 B( 14-C , 15-C ) :   1.1664
B( 14-C , 31-H ) :   0.9340 B( 14-C , 32-H ) :   0.9127 B( 15-C , 33-H ) :   0.9463
B( 15-C , 34-H ) :   0.9393 B( 15-C , 35-H ) :   0.9368 B( 16-O , 17-C ) :   0.9076
B( 17-C , 18-C ) :   1.1653 B( 17-C , 36-H ) :   0.9331 B( 17-C , 37-H ) :   0.9112
B( 18-C , 38-H ) :   0.9442 B( 18-C , 39-H ) :   0.9380 B( 18-C , 40-H ) :   0.9203

Dispersion correction           -0.068381747
FINAL SINGLE POINT ENERGY     -2929.516580131854

DIPOLE MOMENT
-------------

Method             : SCF
Type of density    : Electron Density
Multiplicity       :   1
Irrep              :   0
Energy             : -2929.6328546188678956 Eh
Relativity type    :
Basis              : AO
                                X                 Y                 Z
Electronic contribution:      0.426008841      -5.748765002       2.675278987
Nuclear contribution   :     -0.433714518       5.191879981      -2.566873065
                        -----------------------------------------
Total Dipole Moment    :     -0.007705677      -0.556885021       0.108405922
                        -----------------------------------------
Magnitude (a.u.)       :      0.567390648
Magnitude (Debye)      :      1.442192415

Rotational constants in cm-1:             0.012490             0.005479             0.005086
Rotational constants in MHz :           374.450204           164.263607           152.481462

                             ****ORCA TERMINATED NORMALLY****
TOTAL RUN TIME: 0 days 0 hours 0 minutes 21 seconds 637 msec
