                         Program Version 6.0.0  -   RELEASE  -
|  1> ! pbe def2-sv(p) def2/J RI DEFGRID1 loosescf d4 GCP(DFT/SV(P)) printgap
|  2> %output
|  3>     printlevel normal
|  4> end
|  5> * xyz 0 1
|  6> C 1.8564126391 0.1053852136 0.2415806603
|  7> C 0.7076209235 0.1190698168 -0.4072949015
|  8> C -0.5423758394 -0.5587947593 0.0708279551
|  9> O -1.6651028874 0.3031536801 0.1072886653
| 10> H 2.733350284 0.594644006 -0.1453480096
| 11> H 1.9663276245 -0.4038287315 1.1841367451
| 12> H 0.615705643 0.6393755935 -1.352035477
| 13> H -0.4170631709 -0.9211876938 1.0931508977
| 14> H -0.758734274 -1.4208139533 -0.5801418223
| 15> H -1.7991128835 0.6837737191 -0.7721180782
| 16> *
| 17>
| 18>                          ****END OF INPUT****

CARTESIAN COORDINATES (ANGSTROEM)
---------------------------------
  C      1.856413    0.105385    0.241581
  C      0.707621    0.119070   -0.407295
  C     -0.542376   -0.558795    0.070828
  O     -1.665103    0.303154    0.107289
  H      2.733350    0.594644   -0.145348
  H      1.966328   -0.403829    1.184137
  H      0.615706    0.639376   -1.352035
  H     -0.417063   -0.921188    1.093151
  H     -0.758734   -1.420814   -0.580142
  H     -1.799113    0.683774   -0.772118

 Total Charge           Charge          ....    0
 Multiplicity           Mult            ....    1
 Number of Electrons    NEL             ....   32
 Basis Dimension        Dim             ....   68

ORBITAL ENERGIES
----------------

  NO   OCC          E(Eh)            E(eV)
   0   2.0000     -18.744327      -510.0591
   1   2.0000      -9.932786      -270.2849
   2   2.0000      -9.894239      -269.2359
   3   2.0000      -9.886658      -269.0296
   4   2.0000      -0.918908       -25.0048
   5   2.0000      -0.705233       -19.1904
   6   2.0000      -0.604396       -16.4464
   7   2.0000      -0.515914       -14.0387
   8   2.0000      -0.449764       -12.2387
   9   2.0000      -0.425967       -11.5912
  10   2.0000      -0.393021       -10.6946
  11   2.0000      -0.355690        -9.6788
  12   2.0000      -0.326838        -8.8937
  13   2.0000      -0.287177        -7.8145
  14   2.0000      -0.236384        -6.4323
  15   2.0000      -0.215065        -5.8522
  16   0.0000      -0.026473        -0.7204
  17   0.0000       0.034451         0.9375
  18   0.0000       0.066764         1.8167
  19   0.0000       0.070250         1.9116
  20   0.0000       0.098533         2.6812

MULLIKEN ATOMIC CHARGES
-----------------------
   0 C :   -0.201863
   1 C :   -0.154444
   2 C :    0.065641
   3 O :   -0.444090
   4 H :    0.101442
   5 H :    0.099024
   6 H :    0.069034
   7 H :    0.088922
   8 H :    0.084031
   9 H :    0.292305
Sum of atomic charges:    0.0000000

LOEWDIN ATOMIC CHARGES
----------------------
   0 C :   -0.244608
   1 C :   -0.158547
   2 C :   -0.117303
   3 O :   -0.341570
   4 H :    0.123013
   5 H :    0.122286
   6 H :    0.116169
   7 H :    0.117946
   8 H :    0.102630
   9 H :    0.279983

  Mayer bond orders larger than 0.100000
B(  0-C ,  1-C ) :   2.0734 B(  0-C ,  4-H ) :   0.9234 B(  0-C ,  5-H ) :   0.9214
B(  1-C ,  2-C ) :   1.0592 B(  1-C ,  6-H ) :   0.9255 B(  2-C ,  3-O ) :   1.0258
B(  2-C ,  7-H ) :   0.9278 B(  2-C ,  8-H ) :   0.9088 B(  3-O ,  9-H ) :   0.8562

Dispersion correction           -0.005239286
FINAL SINGLE POINT ENERGY      -192.660810710375

DIPOLE MOMENT
-------------

Method             : SCF
Type of density    : Electron Density
Multiplicity       :   1
Irrep              :   0
Energy             :  -192.7001722913466324 Eh
Relativity type    :
Basis              : AO
                                X                 Y                 Z
Electronic contribution:     -1.907044028       0.706567692      -0.015073182
Nuclear contribution   :      2.171020202      -0.772336135      -0.535373985
                        -----------------------------------------
Total Dipole Moment    :      0.263976174      -0.065768444      -0.550447166
                        -----------------------------------------
Magnitude (a.u.)       :      0.614004065
Magnitude (Debye)      :      1.560674304

Rotational constants in cm-1:             0.927990             0.143200             0.137359
Rotational constants in MHz :         27820.436521          4293.034577          4117.929722

                             ****ORCA TERMINATED NORMALLY****
TOTAL RUN TIME: 0 days 0 hours 0 minutes 3 seconds 645 msec
