                         Program Version 6.0.1  -  RELEASE   -
|  1> ! r2scan-3c def2/J RI DEFGRID2 scfconv6 printgap
|  2> %output
|  3>     printlevel normal
|  4> end
|  5> * xyz 0 1
|  6> C 5.2997174977 -0.7388395763 -1.8284702708
|  7> C 4.5226199912 -1.3841749746 -0.6978622217
|  8> O 3.1201450647 -1.310340856 -1.0167055109
|  9> C 2.2807005472 -1.9370804904 -0.211283102
| 10> O 2.6233798928 -2.6229485959 0.7251137424
| 11> C 0.8370966166 -1.7588878274 -0.6461413167
| 12> C 0.5487561226 -0.298261996 -0.9730865567
| 13> H 1.1633455797 0.0136566012 -1.8249144751
| 14> C 0.9180521047 0.6070417704 0.1875470972
| 15> O 1.843621476 0.3611625438 0.9262770528
| 16> O 0.1716880443 1.6925785311 0.2405612007
| 17> C 0.4754168991 2.6786703764 1.2477116751
| 18> C 1.5049330855 3.6688572133 0.7315145897
| 19> S -1.1626897715 -0.0394855452 -1.5333347347
| 20> P -2.1892448237 0.16824483 0.3158820095
| 21> S -1.3632039737 -0.5897445707 1.9276268677
| 22> O -2.5926516357 1.6838592135 0.4938951368
| 23> C -3.274232029 2.421660364 -0.54314128
| 24> O -3.6156319751 -0.4621312313 -0.0467358944
| 25> C -3.7793617152 -1.8689681778 -0.2555867299
| 26> H 6.3606961151 -0.7969114424 -1.609959358
| 27> H 5.0964431789 -1.2551133261 -2.7617985289
| 28> H 5.0124793769 0.3031039327 -1.9313082643
| 29> H 4.6765002946 -0.8670973972 0.2548692454
| 30> H 4.7907618317 -2.4370023121 -0.5643065664
| 31> H 0.2026599174 -2.1129607671 0.1689786825
| 32> H 0.6638318073 -2.3710198404 -1.5325075906
| 33> H -0.4817191757 3.1573084827 1.4570612825
| 34> H 0.8349872712 2.1574660928 2.1398802776
| 35> H 2.4488650685 3.1622796597 0.543540012
| 36> H 1.1550620786 4.1274669558 -0.1891262085
| 37> H 1.6618077324 4.4384010985 1.4797944186
| 38> H -2.681990994 2.4069347571 -1.4577934931
| 39> H -3.3663643049 3.4335620536 -0.1576778694
| 40> H -4.2544872913 1.9858110584 -0.7238489727
| 41> H -3.3535064162 -2.1518824567 -1.217957608
| 42> H -4.8521244972 -2.0440205801 -0.2444515393
| 43> H -3.2959661539 -2.4277047726 0.5474533769
| 44> *
| 45>
| 46>                          ****END OF INPUT****

CARTESIAN COORDINATES (ANGSTROEM)
---------------------------------
  C      5.299717   -0.738840   -1.828470
  C      4.522620   -1.384175   -0.697862
  O      3.120145   -1.310341   -1.016706
  C      2.280701   -1.937080   -0.211283
  O      2.623380   -2.622949    0.725114
  C      0.837097   -1.758888   -0.646141
  C      0.548756   -0.298262   -0.973087
  H      1.163346    0.013657   -1.824914
  C      0.918052    0.607042    0.187547
  O      1.843621    0.361163    0.926277
  O      0.171688    1.692579    0.240561
  C      0.475417    2.678670    1.247712
  C      1.504933    3.668857    0.731515
  S     -1.162690   -0.039486   -1.533335
  P     -2.189245    0.168245    0.315882
  S     -1.363204   -0.589745    1.927627
  O     -2.592652    1.683859    0.493895
  C     -3.274232    2.421660   -0.543141
  O     -3.615632   -0.462131   -0.046736
  C     -3.779362   -1.868968   -0.255587
  H      6.360696   -0.796911   -1.609959
  H      5.096443   -1.255113   -2.761799
  H      5.012479    0.303104   -1.931308
  H      4.676500   -0.867097    0.254869
  H      4.790762   -2.437002   -0.564307
  H      0.202660   -2.112961    0.168979
  H      0.663832   -2.371020   -1.532508
  H     -0.481719    3.157308    1.457061
  H      0.834987    2.157466    2.139880
  H      2.448865    3.162280    0.543540
  H      1.155062    4.127467   -0.189126
  H      1.661808    4.438401    1.479794
  H     -2.681991    2.406935   -1.457793
  H     -3.366364    3.433562   -0.157678
  H     -4.254487    1.985811   -0.723849
  H     -3.353506   -2.151882   -1.217958
  H     -4.852124   -2.044021   -0.244452
  H     -3.295966   -2.427705    0.547453

 Total Charge           Charge          ....    0
 Multiplicity           Mult            ....    1
 Number of Electrons    NEL             ....  174
 Basis Dimension        Dim             ....  510

ORBITAL ENERGIES
----------------

  NO   OCC          E(Eh)            E(eV)
   0   2.0000     -88.579656     -2410.3750
   1   2.0000     -88.521532     -2408.7934
   2   2.0000     -76.918310     -2093.0536
   3   2.0000     -19.005727      -517.1721
   4   2.0000     -18.998841      -516.9847
   5   2.0000     -18.995600      -516.8965
   6   2.0000     -18.990251      -516.7510
   7   2.0000     -18.939900      -515.3809
   8   2.0000     -18.916456      -514.7429
   9   2.0000     -10.167985      -276.6849
  10   2.0000     -10.146682      -276.1053
  11   2.0000     -10.102384      -274.8999
  12   2.0000     -10.101445      -274.8743
  13   2.0000     -10.095094      -274.7015
  14   2.0000     -10.092969      -274.6437
  15   2.0000     -10.085404      -274.4378
  16   2.0000     -10.049656      -273.4650
  17   2.0000     -10.032891      -273.0088
  18   2.0000     -10.029096      -272.9056
  19   2.0000      -7.874104      -214.2653
  20   2.0000      -7.815987      -212.6838
  21   2.0000      -6.596459      -179.4988
  22   2.0000      -5.821072      -158.3994
  23   2.0000      -5.817800      -158.3104
  24   2.0000      -5.811254      -158.1323
  25   2.0000      -5.763966      -156.8455
  26   2.0000      -5.756116      -156.6319
  27   2.0000      -5.755876      -156.6253
  28   2.0000      -4.742223      -129.0424
  29   2.0000      -4.741542      -129.0239
  30   2.0000      -4.739880      -128.9787
  31   2.0000      -1.084964       -29.5234
  32   2.0000      -1.065926       -29.0053
  33   2.0000      -1.055395       -28.7188
  34   2.0000      -1.013302       -27.5733
  35   2.0000      -0.990269       -26.9466
  36   2.0000      -0.966444       -26.2983
  37   2.0000      -0.813169       -22.1274
  38   2.0000      -0.752689       -20.4817
  39   2.0000      -0.743327       -20.2269
  40   2.0000      -0.733090       -19.9484
  41   2.0000      -0.697884       -18.9904
  42   2.0000      -0.680640       -18.5212
  43   2.0000      -0.662923       -18.0391
  44   2.0000      -0.651777       -17.7358
  45   2.0000      -0.618384       -16.8271
  46   2.0000      -0.599157       -16.3039
  47   2.0000      -0.545739       -14.8503
  48   2.0000      -0.531369       -14.4593
  49   2.0000      -0.529180       -14.3997
  50   2.0000      -0.506813       -13.7911
  51   2.0000      -0.499169       -13.5831
  52   2.0000      -0.469644       -12.7797
  53   2.0000      -0.460473       -12.5301
  54   2.0000      -0.460026       -12.5180
  55   2.0000      -0.457477       -12.4486
  56   2.0000      -0.450032       -12.2460
  57   2.0000      -0.437920       -11.9164
  58   2.0000      -0.436326       -11.8730
  59   2.0000      -0.429907       -11.6984
  60   2.0000      -0.423498       -11.5240
  61   2.0000      -0.421692       -11.4748
  62   2.0000      -0.407781       -11.0963
  63   2.0000      -0.399169       -10.8619
  64   2.0000      -0.390018       -10.6129
  65   2.0000      -0.376098       -10.2341
  66   2.0000      -0.373591       -10.1659
  67   2.0000      -0.364038        -9.9060
  68   2.0000      -0.360912        -9.8209
  69   2.0000      -0.356097        -9.6899
  70   2.0000      -0.351670        -9.5694
  71   2.0000      -0.344556        -9.3758
  72   2.0000      -0.336566        -9.1584
  73   2.0000      -0.328050        -8.9267
  74   2.0000      -0.324487        -8.8297
  75   2.0000      -0.316208        -8.6044
  76   2.0000      -0.313734        -8.5371
  77   2.0000      -0.312025        -8.4906
  78   2.0000      -0.293291        -7.9809
  79   2.0000      -0.283272        -7.7082
  80   2.0000      -0.280109        -7.6221
  81   2.0000      -0.262809        -7.1514
  82   2.0000      -0.258297        -7.0286
  83   2.0000      -0.237122        -6.4524
  84   2.0000      -0.224049        -6.0967
  85   2.0000      -0.218691        -5.9509
  86   2.0000      -0.215361        -5.8603
  87   0.0000      -0.044969        -1.2237
  88   0.0000      -0.031363        -0.8534
  89   0.0000      -0.002471        -0.0672
  90   0.0000       0.003717         0.1011
  91   0.0000       0.010000         0.2721

MULLIKEN ATOMIC CHARGES
-----------------------
   0 C :   -0.454320
   1 C :   -0.146735
   2 O :   -0.129103
   3 C :    0.332570
   4 O :   -0.378306
   5 C :   -0.477848
   6 C :    0.051929
   7 H :    0.204387
   8 C :    0.261160
   9 O :   -0.374887
  10 O :   -0.141775
  11 C :   -0.159809
  12 C :   -0.470065
  13 S :   -0.189065
  14 P :    0.755007
  15 S :   -0.408727
  16 O :   -0.310002
  17 C :   -0.292146
  18 O :   -0.357479
  19 C :   -0.298600
  20 H :    0.147996
  21 H :    0.151187
  22 H :    0.151044
  23 H :    0.166657
  24 H :    0.161638
  25 H :    0.216509
  26 H :    0.183960
  27 H :    0.163726
  28 H :    0.184955
  29 H :    0.168329
  30 H :    0.151638
  31 H :    0.151691
  32 H :    0.170515
  33 H :    0.155749
  34 H :    0.170285
  35 H :    0.158180
  36 H :    0.153185
  37 H :    0.176570
Sum of atomic charges:    0.0000000

LOEWDIN ATOMIC CHARGES
----------------------
   0 C :   -0.388245
   1 C :    0.036247
   2 O :   -0.605198
   3 C :    0.353712
   4 O :   -0.404122
   5 C :   -0.212123
   6 C :   -0.198950
   7 H :    0.212369
   8 C :    0.346540
   9 O :   -0.401685
  10 O :   -0.627326
  11 C :    0.032283
  12 C :   -0.387162
  13 S :    0.195042
  14 P :    0.401746
  15 S :   -0.047770
  16 O :   -0.652271
  17 C :   -0.051706
  18 O :   -0.684518
  19 C :   -0.059254
  20 H :    0.159779
  21 H :    0.158160
  22 H :    0.157681
  23 H :    0.183697
  24 H :    0.182374
  25 H :    0.200628
  26 H :    0.184125
  27 H :    0.185114
  28 H :    0.196368
  29 H :    0.163958
  30 H :    0.156862
  31 H :    0.160772
  32 H :    0.174028
  33 H :    0.179509
  34 H :    0.175073
  35 H :    0.168948
  36 H :    0.177940
  37 H :    0.177373

  Mayer bond orders larger than 0.100000
B(  0-C ,  1-C ) :   0.9382 B(  0-C , 20-H ) :   0.9685 B(  0-C , 21-H ) :   0.9745
B(  0-C , 22-H ) :   0.9739 B(  1-C ,  2-O ) :   0.7885 B(  1-C , 23-H ) :   0.9505
B(  1-C , 24-H ) :   0.9552 B(  2-O ,  3-C ) :   1.1014 B(  2-O ,  6-C ) :   0.1246
B(  3-C ,  4-O ) :   1.8846 B(  3-C ,  5-C ) :   0.8768 B(  5-C ,  6-C ) :   0.8729
B(  5-C , 25-H ) :   0.9893 B(  5-C , 26-H ) :   0.9521 B(  6-C ,  7-H ) :   0.8841
B(  6-C ,  8-C ) :   0.9860 B(  6-C , 13-S ) :   0.8322 B(  8-C ,  9-O ) :   1.7884
B(  8-C , 10-O ) :   1.0971 B( 10-O , 11-C ) :   0.7884 B( 11-C , 12-C ) :   0.9235
B( 11-C , 27-H ) :   0.9564 B( 11-C , 28-H ) :   0.9639 B( 12-C , 29-H ) :   0.9734
B( 12-C , 30-H ) :   0.9766 B( 12-C , 31-H ) :   0.9658 B( 13-S , 14-P ) :   1.0165
B( 14-P , 15-S ) :   1.7934 B( 14-P , 16-O ) :   1.1402 B( 14-P , 18-O ) :   1.0220
B( 16-O , 17-C ) :   0.7978 B( 17-C , 32-H ) :   0.9556 B( 17-C , 33-H ) :   0.9649
B( 17-C , 34-H ) :   0.9607 B( 18-O , 19-C ) :   0.8313 B( 19-C , 35-H ) :   0.9563
B( 19-C , 36-H ) :   0.9673 B( 19-C , 37-H ) :   0.9587

Dispersion correction           -0.017695614
FINAL SINGLE POINT ENERGY     -1981.452342325668

DIPOLE MOMENT
-------------

Method             : SCF
Type of density    : Electron Density
Multiplicity       :   1
Irrep              :   0
Energy             : -1981.4720141849766151 Eh
Relativity type    :
Basis              : AO
                                X                 Y                 Z
Electronic contribution:    -13.757173272      -6.685781461       5.594526810
Nuclear contribution   :     13.105049838       8.041136280      -7.426758887
                        -----------------------------------------
Total Dipole Moment    :     -0.652123434       1.355354819      -1.832232077
                        -----------------------------------------
Magnitude (a.u.)       :      2.370511768
Magnitude (Debye)      :      6.025362070

Rotational constants in cm-1:             0.015183             0.006612             0.005621
Rotational constants in MHz :           455.169767           198.226097           168.506225

                             ****ORCA TERMINATED NORMALLY****
TOTAL RUN TIME: 0 days 0 hours 1 minutes 38 seconds 433 msec
