                         Program Version 6.0.1  -  RELEASE   -
|  1> ! r2scan-3c def2/J RI DEFGRID2 scfconv6 printgap
|  2> %output
|  3>     printlevel normal
|  4> end
|  5> %cpcm
|  6>     smd true
|  7>     smdsolvent "water"
|  8> end
|  9> * xyz 0 1
| 10> C 5.2997174977 -0.7388395763 -1.8284702708
| 11> C 4.5226199912 -1.3841749746 -0.6978622217
| 12> O 3.1201450647 -1.310340856 -1.0167055109
| 13> C 2.2807005472 -1.9370804904 -0.211283102
| 14> O 2.6233798928 -2.6229485959 0.7251137424
| 15> C 0.8370966166 -1.7588878274 -0.6461413167
| 16> C 0.5487561226 -0.298261996 -0.9730865567
| 17> H 1.1633455797 0.0136566012 -1.8249144751
| 18> C 0.9180521047 0.6070417704 0.1875470972
| 19> O 1.843621476 0.3611625438 0.9262770528
| 20> O 0.1716880443 1.6925785311 0.2405612007
| 21> C 0.4754168991 2.6786703764 1.2477116751
| 22> C 1.5049330855 3.6688572133 0.7315145897
| 23> S -1.1626897715 -0.0394855452 -1.5333347347
| 24> P -2.1892448237 0.16824483 0.3158820095
| 25> S -1.3632039737 -0.5897445707 1.9276268677
| 26> O -2.5926516357 1.6838592135 0.4938951368
| 27> C -3.274232029 2.421660364 -0.54314128
| 28> O -3.6156319751 -0.4621312313 -0.0467358944
| 29> C -3.7793617152 -1.8689681778 -0.2555867299
| 30> H 6.3606961151 -0.7969114424 -1.609959358
| 31> H 5.0964431789 -1.2551133261 -2.7617985289
| 32> H 5.0124793769 0.3031039327 -1.9313082643
| 33> H 4.6765002946 -0.8670973972 0.2548692454
| 34> H 4.7907618317 -2.4370023121 -0.5643065664
| 35> H 0.2026599174 -2.1129607671 0.1689786825
| 36> H 0.6638318073 -2.3710198404 -1.5325075906
| 37> H -0.4817191757 3.1573084827 1.4570612825
| 38> H 0.8349872712 2.1574660928 2.1398802776
| 39> H 2.4488650685 3.1622796597 0.543540012
| 40> H 1.1550620786 4.1274669558 -0.1891262085
| 41> H 1.6618077324 4.4384010985 1.4797944186
| 42> H -2.681990994 2.4069347571 -1.4577934931
| 43> H -3.3663643049 3.4335620536 -0.1576778694
| 44> H -4.2544872913 1.9858110584 -0.7238489727
| 45> H -3.3535064162 -2.1518824567 -1.217957608
| 46> H -4.8521244972 -2.0440205801 -0.2444515393
| 47> H -3.2959661539 -2.4277047726 0.5474533769
| 48> *
| 49>
| 50>                          ****END OF INPUT****

CARTESIAN COORDINATES (ANGSTROEM)
---------------------------------
  C      5.299717   -0.738840   -1.828470
  C      4.522620   -1.384175   -0.697862
  O      3.120145   -1.310341   -1.016706
  C      2.280701   -1.937080   -0.211283
  O      2.623380   -2.622949    0.725114
  C      0.837097   -1.758888   -0.646141
  C      0.548756   -0.298262   -0.973087
  H      1.163346    0.013657   -1.824914
  C      0.918052    0.607042    0.187547
  O      1.843621    0.361163    0.926277
  O      0.171688    1.692579    0.240561
  C      0.475417    2.678670    1.247712
  C      1.504933    3.668857    0.731515
  S     -1.162690   -0.039486   -1.533335
  P     -2.189245    0.168245    0.315882
  S     -1.363204   -0.589745    1.927627
  O     -2.592652    1.683859    0.493895
  C     -3.274232    2.421660   -0.543141
  O     -3.615632   -0.462131   -0.046736
  C     -3.779362   -1.868968   -0.255587
  H      6.360696   -0.796911   -1.609959
  H      5.096443   -1.255113   -2.761799
  H      5.012479    0.303104   -1.931308
  H      4.676500   -0.867097    0.254869
  H      4.790762   -2.437002   -0.564307
  H      0.202660   -2.112961    0.168979
  H      0.663832   -2.371020   -1.532508
  H     -0.481719    3.157308    1.457061
  H      0.834987    2.157466    2.139880
  H      2.448865    3.162280    0.543540
  H      1.155062    4.127467   -0.189126
  H      1.661808    4.438401    1.479794
  H     -2.681991    2.406935   -1.457793
  H     -3.366364    3.433562   -0.157678
  H     -4.254487    1.985811   -0.723849
  H     -3.353506   -2.151882   -1.217958
  H     -4.852124   -2.044021   -0.244452
  H     -3.295966   -2.427705    0.547453

 Total Charge           Charge          ....    0
 Multiplicity           Mult            ....    1
 Number of Electrons    NEL             ....  174
 Basis Dimension        Dim             ....  510

ORBITAL ENERGIES
----------------

  NO   OCC          E(Eh)            E(eV)
   0   2.0000     -88.581590     -2410.4276
   1   2.0000     -88.531934     -2409.0764
   2   2.0000     -76.923223     -2093.1873
   3   2.0000     -19.011770      -517.3366
   4   2.0000     -19.003684      -517.1165
   5   2.0000     -18.998654      -516.9797
   6   2.0000     -18.995917      -516.9052
   7   2.0000     -18.955351      -515.8013
   8   2.0000     -18.944839      -515.5153
   9   2.0000     -10.179921      -277.0097
  10   2.0000     -10.168622      -276.7023
  11   2.0000     -10.101803      -274.8840
  12   2.0000     -10.087352      -274.4908
  13   2.0000     -10.085351      -274.4364
  14   2.0000     -10.085258      -274.4338
  15   2.0000     -10.082398      -274.3560
  16   2.0000     -10.053389      -273.5666
  17   2.0000     -10.020245      -272.6647
  18   2.0000     -10.019276      -272.6384
  19   2.0000      -7.875898      -214.3141
  20   2.0000      -7.826847      -212.9793
  21   2.0000      -6.601432      -179.6341
  22   2.0000      -5.822955      -158.4506
  23   2.0000      -5.819657      -158.3609
  24   2.0000      -5.812913      -158.1774
  25   2.0000      -5.774662      -157.1365
  26   2.0000      -5.767057      -156.9296
  27   2.0000      -5.766730      -156.9207
  28   2.0000      -4.747123      -129.1758
  29   2.0000      -4.746462      -129.1578
  30   2.0000      -4.745028      -129.1188
  31   2.0000      -1.093215       -29.7479
  32   2.0000      -1.082470       -29.4555
  33   2.0000      -1.055234       -28.7144
  34   2.0000      -1.012416       -27.5492
  35   2.0000      -1.003687       -27.3117
  36   2.0000      -0.992048       -26.9950
  37   2.0000      -0.815674       -22.1956
  38   2.0000      -0.753263       -20.4973
  39   2.0000      -0.739608       -20.1257
  40   2.0000      -0.730924       -19.8894
  41   2.0000      -0.697661       -18.9843
  42   2.0000      -0.671604       -18.2753
  43   2.0000      -0.662433       -18.0257
  44   2.0000      -0.651991       -17.7416
  45   2.0000      -0.617531       -16.8039
  46   2.0000      -0.598568       -16.2879
  47   2.0000      -0.543388       -14.7863
  48   2.0000      -0.536242       -14.5919
  49   2.0000      -0.528671       -14.3859
  50   2.0000      -0.509337       -13.8598
  51   2.0000      -0.493920       -13.4402
  52   2.0000      -0.476529       -12.9670
  53   2.0000      -0.469676       -12.7805
  54   2.0000      -0.464010       -12.6263
  55   2.0000      -0.459898       -12.5145
  56   2.0000      -0.449913       -12.2428
  57   2.0000      -0.444244       -12.0885
  58   2.0000      -0.438786       -11.9400
  59   2.0000      -0.429048       -11.6750
  60   2.0000      -0.428535       -11.6610
  61   2.0000      -0.411661       -11.2019
  62   2.0000      -0.407416       -11.0864
  63   2.0000      -0.400246       -10.8912
  64   2.0000      -0.389457       -10.5977
  65   2.0000      -0.374961       -10.2032
  66   2.0000      -0.370973       -10.0947
  67   2.0000      -0.363136        -9.8814
  68   2.0000      -0.361628        -9.8404
  69   2.0000      -0.356914        -9.7121
  70   2.0000      -0.349758        -9.5174
  71   2.0000      -0.342795        -9.3279
  72   2.0000      -0.337871        -9.1939
  73   2.0000      -0.326811        -8.8930
  74   2.0000      -0.322928        -8.7873
  75   2.0000      -0.319071        -8.6824
  76   2.0000      -0.318496        -8.6667
  77   2.0000      -0.310149        -8.4396
  78   2.0000      -0.293323        -7.9817
  79   2.0000      -0.284894        -7.7524
  80   2.0000      -0.284430        -7.7397
  81   2.0000      -0.277619        -7.5544
  82   2.0000      -0.268736        -7.3127
  83   2.0000      -0.255600        -6.9552
  84   2.0000      -0.240498        -6.5443
  85   2.0000      -0.230559        -6.2738
  86   2.0000      -0.226355        -6.1594
  87   0.0000      -0.050590        -1.3766
  88   0.0000      -0.039496        -1.0747
  89   0.0000      -0.018886        -0.5139
  90   0.0000       0.000719         0.0196
  91   0.0000       0.006699         0.1823

MULLIKEN ATOMIC CHARGES
-----------------------
   0 C :   -0.494939
   1 C :   -0.145047
   2 O :   -0.145088
   3 C :    0.362714
   4 O :   -0.473523
   5 C :   -0.493039
   6 C :    0.066715
   7 H :    0.248857
   8 C :    0.277025
   9 O :   -0.442523
  10 O :   -0.151024
  11 C :   -0.154142
  12 C :   -0.499291
  13 S :   -0.178518
  14 P :    0.786719
  15 S :   -0.483714
  16 O :   -0.344239
  17 C :   -0.297866
  18 O :   -0.383349
  19 C :   -0.307851
  20 H :    0.170035
  21 H :    0.166180
  22 H :    0.165795
  23 H :    0.175804
  24 H :    0.173214
  25 H :    0.214508
  26 H :    0.225017
  27 H :    0.183272
  28 H :    0.180612
  29 H :    0.170121
  30 H :    0.168879
  31 H :    0.173931
  32 H :    0.180941
  33 H :    0.184171
  34 H :    0.185923
  35 H :    0.175925
  36 H :    0.180574
  37 H :    0.177221
Sum of atomic charges:    0.0000000

LOEWDIN ATOMIC CHARGES
----------------------
   0 C :   -0.388631
   1 C :    0.038747
   2 O :   -0.599382
   3 C :    0.359671
   4 O :   -0.475412
   5 C :   -0.208316
   6 C :   -0.193590
   7 H :    0.229854
   8 C :    0.353269
   9 O :   -0.452598
  10 O :   -0.625679
  11 C :    0.035630
  12 C :   -0.387132
  13 S :    0.216705
  14 P :    0.406883
  15 S :   -0.101741
  16 O :   -0.669096
  17 C :   -0.042258
  18 O :   -0.692602
  19 C :   -0.054019
  20 H :    0.168757
  21 H :    0.163279
  22 H :    0.162705
  23 H :    0.185681
  24 H :    0.186678
  25 H :    0.197533
  26 H :    0.203114
  27 H :    0.193320
  28 H :    0.194059
  29 H :    0.163797
  30 H :    0.163719
  31 H :    0.169226
  32 H :    0.179848
  33 H :    0.191817
  34 H :    0.182279
  35 H :    0.176621
  36 H :    0.189414
  37 H :    0.177848

  Mayer bond orders larger than 0.100000
B(  0-C ,  1-C ) :   0.9464 B(  0-C , 20-H ) :   0.9615 B(  0-C , 21-H ) :   0.9715
B(  0-C , 22-H ) :   0.9692 B(  1-C ,  2-O ) :   0.7737 B(  1-C , 23-H ) :   0.9404
B(  1-C , 24-H ) :   0.9485 B(  2-O ,  3-C ) :   1.1257 B(  2-O ,  6-C ) :   0.1077
B(  3-C ,  4-O ) :   1.8126 B(  3-C ,  5-C ) :   0.8911 B(  5-C ,  6-C ) :   0.8418
B(  5-C , 25-H ) :   0.9966 B(  5-C , 26-H ) :   0.9236 B(  6-C ,  7-H ) :   0.8751
B(  6-C ,  8-C ) :   0.9876 B(  6-C , 13-S ) :   0.8183 B(  8-C ,  9-O ) :   1.7412
B(  8-C , 10-O ) :   1.1180 B( 10-O , 11-C ) :   0.7691 B( 11-C , 12-C ) :   0.9321
B( 11-C , 27-H ) :   0.9471 B( 11-C , 28-H ) :   0.9556 B( 12-C , 29-H ) :   0.9695
B( 12-C , 30-H ) :   0.9722 B( 12-C , 31-H ) :   0.9598 B( 13-S , 14-P ) :   1.0345
B( 14-P , 15-S ) :   1.7479 B( 14-P , 16-O ) :   1.1499 B( 14-P , 18-O ) :   1.0334
B( 16-O , 17-C ) :   0.7888 B( 17-C , 32-H ) :   0.9473 B( 17-C , 33-H ) :   0.9539
B( 17-C , 34-H ) :   0.9520 B( 18-O , 19-C ) :   0.8235 B( 19-C , 35-H ) :   0.9497
B( 19-C , 36-H ) :   0.9574 B( 19-C , 37-H ) :   0.9549

Dispersion correction           -0.017695614
FINAL SINGLE POINT ENERGY     -1981.470014910230

DIPOLE MOMENT
-------------

Method             : SCF
Type of density    : Electron Density
Multiplicity       :   1
Irrep              :   0
Energy             : -1981.4896867695383662 Eh
Relativity type    :
Basis              : AO
                                X                 Y                 Z
Electronic contribution:    -14.063905364      -6.179207636       4.400927262
Nuclear contribution   :     13.105049838       8.041136280      -7.426758887
                        -----------------------------------------
Total Dipole Moment    :     -0.958855526       1.861928644      -3.025831624
                        -----------------------------------------
Magnitude (a.u.)       :      3.679923806
Magnitude (Debye)      :      9.353622970

Rotational constants in cm-1:             0.015183             0.006612             0.005621
Rotational constants in MHz :           455.169767           198.226097           168.506225

                             ****ORCA TERMINATED NORMALLY****
TOTAL RUN TIME: 0 days 0 hours 2 minutes 2 seconds 305 msec
