                         Program Version 6.0.0  -   RELEASE  -
|  1> ! pbe def2-sv(p) def2/J RI DEFGRID1 loosescf d4 GCP(DFT/SV(P)) printgap
|  2> %output
|  3>     printlevel normal
|  4> end
|  5> * xyz 0 1
|  6> C 2.8385661226 1.9630517284 -1.7668139241
|  7> C 3.3726784526 2.0036418949 -0.3486121068
|  8> O 3.3635391704 0.7012812477 0.2601150033
|  9> P 2.0630587216 0.0871313265 0.9379621943
| 10> S 1.0637273887 1.3327135822 2.061116591
| 11> O 2.6191594544 -1.1335152996 1.7666982133
| 12> C 3.5236092222 -2.133382983 1.2307899104
| 13> C 4.9643263636 -1.7702691942 1.5251501168
| 14> S 1.0551728305 -0.8229929951 -0.7201929219
| 15> C -0.1257806153 -1.8298579525 0.2134762858
| 16> S -1.4828495584 -0.8841269362 0.9558514522
| 17> P -2.2363965983 -0.0706122009 -0.8697589693
| 18> S -2.0074162507 -1.1820196585 -2.4611973664
| 19> O -1.5433404327 1.3294710158 -1.0824646815
| 20> C -1.6886750908 2.4386302727 -0.1568342199
| 21> C -0.7399738904 3.5323939981 -0.5966942807
| 22> O -3.7091158736 0.376383518 -0.4707669664
| 23> C -4.6908674914 -0.4525279324 0.1796505795
| 24> C -4.9176217547 -1.7686110949 -0.533786802
| 25> H 3.3996176047 1.2453666797 -2.3593186561
| 26> H 1.7896582978 1.669518087 -1.7759230852
| 27> H 2.9319022967 2.9480491633 -2.2130909252
| 28> H 2.7876044434 2.6848765829 0.2787748594
| 29> H 4.4222448031 2.3015177871 -0.3299130443
| 30> H 3.2381560489 -3.056802319 1.738563248
| 31> H 3.3513841313 -2.2295258527 0.1554063963
| 32> H 5.0994564099 -1.6206109396 2.5928765663
| 33> H 5.6076458905 -2.5788822121 1.1921576951
| 34> H 5.2380691415 -0.8566457343 1.0050184708
| 35> H 0.3753903247 -2.3396426437 1.0333131698
| 36> H -0.536916906 -2.5366085919 -0.5071418513
| 37> H -2.7281612054 2.7687053142 -0.1889255219
| 38> H -1.4470028313 2.0899629039 0.8522351241
| 39> H -0.8965711355 4.4057002693 0.0278035667
| 40> H 0.2885636386 3.2008968201 -0.4850712927
| 41> H -0.9210635991 3.7880825573 -1.63664912
| 42> H -4.3640489444 -0.6204907326 1.2097856979
| 43> H -5.590623984 0.1653439225 0.1730918171
| 44> H -4.0150263436 -2.37678375 -0.4969699457
| 45> H -5.7270305512 -2.3053248085 -0.0495395519
| 46> H -5.1711580813 -1.5958380997 -1.5770058796
| 47> *
| 48>
| 49>                          ****END OF INPUT****

CARTESIAN COORDINATES (ANGSTROEM)
---------------------------------
  C      2.838566    1.963052   -1.766814
  C      3.372678    2.003642   -0.348612
  O      3.363539    0.701281    0.260115
  P      2.063059    0.087131    0.937962
  S      1.063727    1.332714    2.061117
  O      2.619159   -1.133515    1.766698
  C      3.523609   -2.133383    1.230790
  C      4.964326   -1.770269    1.525150
  S      1.055173   -0.822993   -0.720193
  C     -0.125781   -1.829858    0.213476
  S     -1.482850   -0.884127    0.955851
  P     -2.236397   -0.070612   -0.869759
  S     -2.007416   -1.182020   -2.461197
  O     -1.543340    1.329471   -1.082465
  C     -1.688675    2.438630   -0.156834
  C     -0.739974    3.532394   -0.596694
  O     -3.709116    0.376384   -0.470767
  C     -4.690867   -0.452528    0.179651
  C     -4.917622   -1.768611   -0.533787
  H      3.399618    1.245367   -2.359319
  H      1.789658    1.669518   -1.775923
  H      2.931902    2.948049   -2.213091
  H      2.787604    2.684877    0.278775
  H      4.422245    2.301518   -0.329913
  H      3.238156   -3.056802    1.738563
  H      3.351384   -2.229526    0.155406
  H      5.099456   -1.620611    2.592877
  H      5.607646   -2.578882    1.192158
  H      5.238069   -0.856646    1.005018
  H      0.375390   -2.339643    1.033313
  H     -0.536917   -2.536609   -0.507142
  H     -2.728161    2.768705   -0.188926
  H     -1.447003    2.089963    0.852235
  H     -0.896571    4.405700    0.027804
  H      0.288564    3.200897   -0.485071
  H     -0.921064    3.788083   -1.636649
  H     -4.364049   -0.620491    1.209786
  H     -5.590624    0.165344    0.173092
  H     -4.015026   -2.376784   -0.496970
  H     -5.727031   -2.305325   -0.049540
  H     -5.171158   -1.595838   -1.577006

 Total Charge           Charge          ....    0
 Multiplicity           Mult            ....    1
 Number of Electrons    NEL             ....  202
 Basis Dimension        Dim             ....  334

ORBITAL ENERGIES
----------------

  NO   OCC          E(Eh)            E(eV)
   0   2.0000     -88.042699     -2395.7636
   1   2.0000     -88.038760     -2395.6565
   2   2.0000     -87.985518     -2394.2077
   3   2.0000     -87.980149     -2394.0616
   4   2.0000     -76.427423     -2079.6959
   5   2.0000     -76.422532     -2079.5628
   6   2.0000     -18.797733      -511.5123
   7   2.0000     -18.797370      -511.5024
   8   2.0000     -18.791641      -511.3465
   9   2.0000     -18.783327      -511.1203
  10   2.0000      -9.960364      -271.0353
  11   2.0000      -9.957712      -270.9631
  12   2.0000      -9.956902      -270.9411
  13   2.0000      -9.956113      -270.9196
  14   2.0000      -9.942585      -270.5515
  15   2.0000      -9.889208      -269.0990
  16   2.0000      -9.886916      -269.0367
  17   2.0000      -9.881829      -268.8982
  18   2.0000      -9.879361      -268.8311
  19   2.0000      -7.686832      -209.1693
  20   2.0000      -7.683692      -209.0839
  21   2.0000      -7.630662      -207.6409
  22   2.0000      -7.625489      -207.5001
  23   2.0000      -6.425127      -174.8366
  24   2.0000      -6.419512      -174.6838
  25   2.0000      -5.714619      -155.5027
  26   2.0000      -5.711430      -155.4159
  27   2.0000      -5.711423      -155.4157
  28   2.0000      -5.708220      -155.3286
  29   2.0000      -5.703951      -155.2124
  30   2.0000      -5.700804      -155.1268
  31   2.0000      -5.659591      -154.0053
  32   2.0000      -5.654558      -153.8683
  33   2.0000      -5.651327      -153.7804
  34   2.0000      -5.650714      -153.7637
  35   2.0000      -5.646002      -153.6355
  36   2.0000      -5.645569      -153.6238
  37   2.0000      -4.648268      -126.4858
  38   2.0000      -4.646901      -126.4486
  39   2.0000      -4.645025      -126.3976
  40   2.0000      -4.642377      -126.3255
  41   2.0000      -4.641490      -126.3014
  42   2.0000      -4.639620      -126.2505
  43   2.0000      -0.992712       -27.0131
  44   2.0000      -0.983699       -26.7678
  45   2.0000      -0.951061       -25.8797
  46   2.0000      -0.938269       -25.5316
  47   2.0000      -0.762482       -20.7482
  48   2.0000      -0.721231       -19.6257
  49   2.0000      -0.710303       -19.3283
  50   2.0000      -0.694195       -18.8900
  51   2.0000      -0.686440       -18.6790
  52   2.0000      -0.672519       -18.3002
  53   2.0000      -0.650442       -17.6994
  54   2.0000      -0.637928       -17.3589
  55   2.0000      -0.595987       -16.2176
  56   2.0000      -0.586640       -15.9633
  57   2.0000      -0.579898       -15.7798
  58   2.0000      -0.566053       -15.4031
  59   2.0000      -0.561517       -15.2796
  60   2.0000      -0.507492       -13.8096
  61   2.0000      -0.500231       -13.6120
  62   2.0000      -0.482463       -13.1285
  63   2.0000      -0.469963       -12.7884
  64   2.0000      -0.461584       -12.5604
  65   2.0000      -0.450881       -12.2691
  66   2.0000      -0.440723       -11.9927
  67   2.0000      -0.433030       -11.7833
  68   2.0000      -0.426051       -11.5934
  69   2.0000      -0.415935       -11.3182
  70   2.0000      -0.412389       -11.2217
  71   2.0000      -0.400606       -10.9010
  72   2.0000      -0.391057       -10.6412
  73   2.0000      -0.384033       -10.4501
  74   2.0000      -0.379952       -10.3390
  75   2.0000      -0.373724       -10.1696
  76   2.0000      -0.364765        -9.9258
  77   2.0000      -0.357974        -9.7410
  78   2.0000      -0.354264        -9.6400
  79   2.0000      -0.351751        -9.5716
  80   2.0000      -0.347813        -9.4645
  81   2.0000      -0.344742        -9.3809
  82   2.0000      -0.341618        -9.2959
  83   2.0000      -0.332912        -9.0590
  84   2.0000      -0.332476        -9.0471
  85   2.0000      -0.322466        -8.7747
  86   2.0000      -0.314895        -8.5687
  87   2.0000      -0.300650        -8.1811
  88   2.0000      -0.294846        -8.0232
  89   2.0000      -0.294196        -8.0055
  90   2.0000      -0.290899        -7.9158
  91   2.0000      -0.275453        -7.4955
  92   2.0000      -0.269181        -7.3248
  93   2.0000      -0.265471        -7.2238
  94   2.0000      -0.254879        -6.9356
  95   2.0000      -0.240905        -6.5554
  96   2.0000      -0.218380        -5.9424
  97   2.0000      -0.207119        -5.6360
  98   2.0000      -0.200113        -5.4453
  99   2.0000      -0.196072        -5.3354
 100   2.0000      -0.188866        -5.1393
 101   0.0000      -0.042754        -1.1634
 102   0.0000      -0.024591        -0.6692
 103   0.0000      -0.007964        -0.2167
 104   0.0000       0.000620         0.0169
 105   0.0000       0.014800         0.4027

MULLIKEN ATOMIC CHARGES
-----------------------
   0 C :   -0.331387
   1 C :   -0.018618
   2 O :   -0.380391
   3 P :    0.600140
   4 S :   -0.303888
   5 O :   -0.365014
   6 C :   -0.018850
   7 C :   -0.287814
   8 S :   -0.080430
   9 C :   -0.349697
  10 S :   -0.096322
  11 P :    0.607913
  12 S :   -0.316568
  13 O :   -0.355892
  14 C :   -0.021838
  15 C :   -0.293416
  16 O :   -0.384746
  17 C :   -0.007470
  18 C :   -0.308698
  19 H :    0.117807
  20 H :    0.157340
  21 H :    0.115499
  22 H :    0.118958
  23 H :    0.105948
  24 H :    0.108485
  25 H :    0.105069
  26 H :    0.120815
  27 H :    0.110617
  28 H :    0.124760
  29 H :    0.181442
  30 H :    0.194156
  31 H :    0.102001
  32 H :    0.121616
  33 H :    0.106612
  34 H :    0.126014
  35 H :    0.115145
  36 H :    0.112571
  37 H :    0.107917
  38 H :    0.122725
  39 H :    0.110248
  40 H :    0.127240
Sum of atomic charges:    0.0000000

LOEWDIN ATOMIC CHARGES
----------------------
   0 C :   -0.369944
   1 C :   -0.120514
   2 O :   -0.245362
   3 P :    0.563431
   4 S :   -0.300360
   5 O :   -0.239792
   6 C :   -0.117255
   7 C :   -0.358663
   8 S :    0.090604
   9 C :   -0.480818
  10 S :    0.069003
  11 P :    0.568218
  12 S :   -0.313387
  13 O :   -0.235149
  14 C :   -0.118915
  15 C :   -0.352676
  16 O :   -0.245917
  17 C :   -0.114145
  18 C :   -0.369382
  19 H :    0.126946
  20 H :    0.125393
  21 H :    0.132937
  22 H :    0.108536
  23 H :    0.119112
  24 H :    0.119212
  25 H :    0.105454
  26 H :    0.129261
  27 H :    0.130299
  28 H :    0.127232
  29 H :    0.131095
  30 H :    0.132004
  31 H :    0.109975
  32 H :    0.106387
  33 H :    0.130003
  34 H :    0.121541
  35 H :    0.126504
  36 H :    0.108619
  37 H :    0.120636
  38 H :    0.120003
  39 H :    0.129482
  40 H :    0.130394

  Mayer bond orders larger than 0.100000
B(  0-C ,  1-C ) :   1.1672 B(  0-C , 19-H ) :   0.9445 B(  0-C , 20-H ) :   0.9226
B(  0-C , 21-H ) :   0.9390 B(  1-C ,  2-O ) :   0.9070 B(  1-C , 22-H ) :   0.9079
B(  1-C , 23-H ) :   0.9315 B(  2-O ,  3-P ) :   1.0756 B(  3-P ,  4-S ) :   1.6722
B(  3-P ,  5-O ) :   1.1173 B(  3-P ,  8-S ) :   0.9529 B(  4-S ,  8-S ) :   0.1107
B(  5-O ,  6-C ) :   0.8897 B(  6-C ,  7-C ) :   1.1704 B(  6-C , 24-H ) :   0.9343
B(  6-C , 25-H ) :   0.9077 B(  7-C , 26-H ) :   0.9471 B(  7-C , 27-H ) :   0.9392
B(  7-C , 28-H ) :   0.9412 B(  8-S ,  9-C ) :   0.9981 B(  9-C , 10-S ) :   1.0067
B(  9-C , 29-H ) :   0.8985 B(  9-C , 30-H ) :   0.8843 B( 10-S , 11-P ) :   0.9462
B( 10-S , 12-S ) :   0.1114 B( 11-P , 12-S ) :   1.6323 B( 11-P , 13-O ) :   1.1389
B( 11-P , 16-O ) :   1.0838 B( 13-O , 14-C ) :   0.8889 B( 14-C , 15-C ) :   1.1700
B( 14-C , 31-H ) :   0.9283 B( 14-C , 32-H ) :   0.9059 B( 15-C , 33-H ) :   0.9397
B( 15-C , 34-H ) :   0.9322 B( 15-C , 35-H ) :   0.9488 B( 16-O , 17-C ) :   0.9142
B( 17-C , 18-C ) :   1.1665 B( 17-C , 36-H ) :   0.9267 B( 17-C , 37-H ) :   0.9335
B( 18-C , 38-H ) :   0.9328 B( 18-C , 39-H ) :   0.9349 B( 18-C , 40-H ) :   0.9428

Dispersion correction           -0.066105663
FINAL SINGLE POINT ENERGY     -2929.519375775777

DIPOLE MOMENT
-------------

Method             : SCF
Type of density    : Electron Density
Multiplicity       :   1
Irrep              :   0
Energy             : -2929.6381742293183379 Eh
Relativity type    :
Basis              : AO
                                X                 Y                 Z
Electronic contribution:     -6.376746642      -5.013079375       1.729804145
Nuclear contribution   :      6.896515690       4.881552640      -1.325570108
                        -----------------------------------------
Total Dipole Moment    :      0.519769048      -0.131526735       0.404234037
                        -----------------------------------------
Magnitude (a.u.)       :      0.671464297
Magnitude (Debye)      :      1.706726606

Rotational constants in cm-1:             0.012742             0.005110             0.004614
Rotational constants in MHz :           382.005624           153.201427           138.310191

                             ****ORCA TERMINATED NORMALLY****
TOTAL RUN TIME: 0 days 0 hours 0 minutes 21 seconds 519 msec
