                         Program Version 6.0.1  -  RELEASE   -
|  1> ! r2scan-3c def2/J RI DEFGRID2 scfconv6 printgap
|  2> %output
|  3>     printlevel normal
|  4> end
|  5> * xyz 0 1
|  6> C 5.4212774203 -1.2724825907 -0.4635731193
|  7> C 4.7176261972 -1.8764528013 -1.6682101271
|  8> O 3.3642733452 -2.2297541169 -1.323900207
|  9> C 2.3983077601 -1.3772937187 -1.5952401184
| 10> O 2.5387729991 -0.3338553361 -2.1961327345
| 11> C 1.0556245578 -1.8940050813 -1.1071109755
| 12> C 0.278225833 -0.7306100946 -0.5101558493
| 13> H 0.1575165058 0.0632734399 -1.2622841676
| 14> C 1.0356152968 -0.1011687942 0.6433967371
| 15> O 2.235443004 -0.1857347169 0.7679499206
| 16> O 0.2320732928 0.5472304434 1.4604083333
| 17> C 0.811694834 1.2992815519 2.5464273586
| 18> C 1.1813376641 2.7001428736 2.0911241813
| 19> S -1.3886998639 -1.2409496201 0.0102844663
| 20> P -2.268198194 0.694185551 0.1832921871
| 21> S -1.4329970069 2.1409812222 -0.8377579123
| 22> O -3.785207301 0.3905693436 -0.2346823273
| 23> C -4.1352272662 0.0723645656 -1.5852856517
| 24> O -2.4692323917 1.0311687332 1.7119121206
| 25> C -3.1589908679 0.135004891 2.6064460112
| 26> H 4.8793234823 -0.3913037616 -0.1262914566
| 27> H 5.4525252125 -1.9910505967 0.3502703308
| 28> H 6.4322304057 -0.9895153707 -0.7370996087
| 29> H 5.1841237627 -2.8126280161 -1.9769160046
| 30> H 4.6910102105 -1.1685787109 -2.5015936314
| 31> H 1.2216339512 -2.6810647571 -0.3728485985
| 32> H 0.5075888117 -2.3016162328 -1.957677758
| 33> H 0.0314712409 1.3222214653 3.3070419658
| 34> H 1.6906222883 0.7565580124 2.9049044491
| 35> H 0.3110373616 3.1949499415 1.6656892446
| 36> H 1.5420185294 3.2720232539 2.9393062154
| 37> H 1.959992699 2.6568180543 1.3322541894
| 38> H -3.7917081083 -0.9325893215 -1.8301150391
| 39> H -3.6901937501 0.7961642589 -2.2700321
| 40> H -5.2199353587 0.1279781786 -1.6280620351
| 41> H -3.0875023993 0.5999494293 3.5862560507
| 42> H -2.6729847455 -0.8406603256 2.6031269329
| 43> H -4.1988563034 0.0343405805 2.3024991779
| 44> *
| 45>
| 46>                          ****END OF INPUT****

CARTESIAN COORDINATES (ANGSTROEM)
---------------------------------
  C      5.421277   -1.272483   -0.463573
  C      4.717626   -1.876453   -1.668210
  O      3.364273   -2.229754   -1.323900
  C      2.398308   -1.377294   -1.595240
  O      2.538773   -0.333855   -2.196133
  C      1.055625   -1.894005   -1.107111
  C      0.278226   -0.730610   -0.510156
  H      0.157517    0.063273   -1.262284
  C      1.035615   -0.101169    0.643397
  O      2.235443   -0.185735    0.767950
  O      0.232073    0.547230    1.460408
  C      0.811695    1.299282    2.546427
  C      1.181338    2.700143    2.091124
  S     -1.388700   -1.240950    0.010284
  P     -2.268198    0.694186    0.183292
  S     -1.432997    2.140981   -0.837758
  O     -3.785207    0.390569   -0.234682
  C     -4.135227    0.072365   -1.585286
  O     -2.469232    1.031169    1.711912
  C     -3.158991    0.135005    2.606446
  H      4.879323   -0.391304   -0.126291
  H      5.452525   -1.991051    0.350270
  H      6.432230   -0.989515   -0.737100
  H      5.184124   -2.812628   -1.976916
  H      4.691010   -1.168579   -2.501594
  H      1.221634   -2.681065   -0.372849
  H      0.507589   -2.301616   -1.957678
  H      0.031471    1.322221    3.307042
  H      1.690622    0.756558    2.904904
  H      0.311037    3.194950    1.665689
  H      1.542019    3.272023    2.939306
  H      1.959993    2.656818    1.332254
  H     -3.791708   -0.932589   -1.830115
  H     -3.690194    0.796164   -2.270032
  H     -5.219935    0.127978   -1.628062
  H     -3.087502    0.599949    3.586256
  H     -2.672985   -0.840660    2.603127
  H     -4.198856    0.034341    2.302499

 Total Charge           Charge          ....    0
 Multiplicity           Mult            ....    1
 Number of Electrons    NEL             ....  174
 Basis Dimension        Dim             ....  510

ORBITAL ENERGIES
----------------

  NO   OCC          E(Eh)            E(eV)
   0   2.0000     -88.579232     -2410.3634
   1   2.0000     -88.520285     -2408.7594
   2   2.0000     -76.916787     -2093.0122
   3   2.0000     -19.005521      -517.1665
   4   2.0000     -18.998306      -516.9702
   5   2.0000     -18.994010      -516.8533
   6   2.0000     -18.993928      -516.8511
   7   2.0000     -18.942620      -515.4549
   8   2.0000     -18.923774      -514.9421
   9   2.0000     -10.165441      -276.6157
  10   2.0000     -10.154698      -276.3234
  11   2.0000     -10.102411      -274.9006
  12   2.0000     -10.094852      -274.6949
  13   2.0000     -10.093461      -274.6570
  14   2.0000     -10.093421      -274.6559
  15   2.0000     -10.085470      -274.4396
  16   2.0000     -10.058950      -273.7179
  17   2.0000     -10.023292      -272.7476
  18   2.0000     -10.019854      -272.6541
  19   2.0000      -7.873421      -214.2467
  20   2.0000      -7.814908      -212.6545
  21   2.0000      -6.595020      -179.4596
  22   2.0000      -5.820196      -158.3756
  23   2.0000      -5.817355      -158.2983
  24   2.0000      -5.810593      -158.1143
  25   2.0000      -5.762846      -156.8150
  26   2.0000      -5.755166      -156.6060
  27   2.0000      -5.754672      -156.5926
  28   2.0000      -4.740774      -129.0030
  29   2.0000      -4.740063      -128.9837
  30   2.0000      -4.738462      -128.9401
  31   2.0000      -1.085352       -29.5339
  32   2.0000      -1.070085       -29.1185
  33   2.0000      -1.054743       -28.7010
  34   2.0000      -1.012205       -27.5435
  35   2.0000      -0.992300       -27.0019
  36   2.0000      -0.973982       -26.5034
  37   2.0000      -0.811284       -22.0762
  38   2.0000      -0.751523       -20.4500
  39   2.0000      -0.741627       -20.1807
  40   2.0000      -0.731749       -19.9119
  41   2.0000      -0.697926       -18.9915
  42   2.0000      -0.679644       -18.4940
  43   2.0000      -0.660203       -17.9650
  44   2.0000      -0.650754       -17.7079
  45   2.0000      -0.624842       -17.0028
  46   2.0000      -0.593331       -16.1453
  47   2.0000      -0.544686       -14.8217
  48   2.0000      -0.528340       -14.3769
  49   2.0000      -0.521314       -14.1857
  50   2.0000      -0.499342       -13.5878
  51   2.0000      -0.494290       -13.4503
  52   2.0000      -0.487924       -13.2771
  53   2.0000      -0.461077       -12.5465
  54   2.0000      -0.458342       -12.4721
  55   2.0000      -0.452667       -12.3177
  56   2.0000      -0.449668       -12.2361
  57   2.0000      -0.440582       -11.9888
  58   2.0000      -0.437702       -11.9105
  59   2.0000      -0.434588       -11.8257
  60   2.0000      -0.422025       -11.4839
  61   2.0000      -0.417341       -11.3564
  62   2.0000      -0.412510       -11.2250
  63   2.0000      -0.398526       -10.8445
  64   2.0000      -0.387417       -10.5421
  65   2.0000      -0.379114       -10.3162
  66   2.0000      -0.368107       -10.0167
  67   2.0000      -0.366478        -9.9724
  68   2.0000      -0.362227        -9.8567
  69   2.0000      -0.353552        -9.6206
  70   2.0000      -0.344332        -9.3697
  71   2.0000      -0.340604        -9.2683
  72   2.0000      -0.334672        -9.1069
  73   2.0000      -0.331039        -9.0080
  74   2.0000      -0.324538        -8.8311
  75   2.0000      -0.317375        -8.6362
  76   2.0000      -0.310093        -8.4381
  77   2.0000      -0.301373        -8.2008
  78   2.0000      -0.290606        -7.9078
  79   2.0000      -0.283855        -7.7241
  80   2.0000      -0.278666        -7.5829
  81   2.0000      -0.267335        -7.2746
  82   2.0000      -0.264495        -7.1973
  83   2.0000      -0.236353        -6.4315
  84   2.0000      -0.229751        -6.2518
  85   2.0000      -0.219808        -5.9813
  86   2.0000      -0.214805        -5.8451
  87   0.0000      -0.048024        -1.3068
  88   0.0000      -0.028237        -0.7684
  89   0.0000      -0.008258        -0.2247
  90   0.0000       0.004832         0.1315
  91   0.0000       0.016929         0.4607

MULLIKEN ATOMIC CHARGES
-----------------------
   0 C :   -0.457793
   1 C :   -0.151901
   2 O :   -0.150464
   3 C :    0.345996
   4 O :   -0.404423
   5 C :   -0.425010
   6 C :    0.044623
   7 H :    0.265041
   8 C :    0.240993
   9 O :   -0.392135
  10 O :   -0.117900
  11 C :   -0.143057
  12 C :   -0.469994
  13 S :   -0.221186
  14 P :    0.775264
  15 S :   -0.443202
  16 O :   -0.350111
  17 C :   -0.294788
  18 O :   -0.312980
  19 C :   -0.290911
  20 H :    0.180960
  21 H :    0.147499
  22 H :    0.143220
  23 H :    0.144762
  24 H :    0.175595
  25 H :    0.189357
  26 H :    0.185474
  27 H :    0.149000
  28 H :    0.166695
  29 H :    0.175942
  30 H :    0.145794
  31 H :    0.169216
  32 H :    0.157945
  33 H :    0.176158
  34 H :    0.151882
  35 H :    0.155706
  36 H :    0.168178
  37 H :    0.170553
Sum of atomic charges:    0.0000000

LOEWDIN ATOMIC CHARGES
----------------------
   0 C :   -0.387366
   1 C :    0.030925
   2 O :   -0.579505
   3 C :    0.360807
   4 O :   -0.431840
   5 C :   -0.204403
   6 C :   -0.203673
   7 H :    0.225055
   8 C :    0.367207
   9 O :   -0.412241
  10 O :   -0.619750
  11 C :    0.035902
  12 C :   -0.387991
  13 S :    0.192463
  14 P :    0.399256
  15 S :   -0.084290
  16 O :   -0.687294
  17 C :   -0.059378
  18 O :   -0.648850
  19 C :   -0.051212
  20 H :    0.172226
  21 H :    0.157101
  22 H :    0.156519
  23 H :    0.176022
  24 H :    0.191311
  25 H :    0.190850
  26 H :    0.188994
  27 H :    0.180341
  28 H :    0.189531
  29 H :    0.168039
  30 H :    0.157504
  31 H :    0.166285
  32 H :    0.168900
  33 H :    0.177414
  34 H :    0.177135
  35 H :    0.179377
  36 H :    0.173067
  37 H :    0.175562

  Mayer bond orders larger than 0.100000
B(  0-C ,  1-C ) :   0.9462 B(  0-C , 20-H ) :   0.9652 B(  0-C , 21-H ) :   0.9709
B(  0-C , 22-H ) :   0.9686 B(  1-C ,  2-O ) :   0.7969 B(  1-C , 23-H ) :   0.9618
B(  1-C , 24-H ) :   0.9692 B(  2-O ,  3-C ) :   1.0957 B(  3-C ,  4-O ) :   1.8740
B(  3-C ,  5-C ) :   0.8808 B(  5-C ,  6-C ) :   0.8982 B(  5-C , 25-H ) :   1.0044
B(  5-C , 26-H ) :   0.9413 B(  6-C ,  7-H ) :   0.8726 B(  6-C ,  8-C ) :   0.9551
B(  6-C , 13-S ) :   0.8115 B(  8-C ,  9-O ) :   1.8082 B(  8-C , 10-O ) :   1.1765
B( 10-O , 11-C ) :   0.7704 B( 11-C , 12-C ) :   0.9309 B( 11-C , 27-H ) :   0.9628
B( 11-C , 28-H ) :   0.9598 B( 12-C , 29-H ) :   0.9667 B( 12-C , 30-H ) :   0.9675
B( 12-C , 31-H ) :   0.9693 B( 13-S , 14-P ) :   0.9837 B( 14-P , 15-S ) :   1.8122
B( 14-P , 16-O ) :   1.0335 B( 14-P , 18-O ) :   1.1419 B( 16-O , 17-C ) :   0.8313
B( 17-C , 32-H ) :   0.9563 B( 17-C , 33-H ) :   0.9587 B( 17-C , 34-H ) :   0.9673
B( 18-O , 19-C ) :   0.7951 B( 19-C , 35-H ) :   0.9656 B( 19-C , 36-H ) :   0.9560
B( 19-C , 37-H ) :   0.9603

Dispersion correction           -0.017379629
FINAL SINGLE POINT ENERGY     -1981.455007166692

DIPOLE MOMENT
-------------

Method             : SCF
Type of density    : Electron Density
Multiplicity       :   1
Irrep              :   0
Energy             : -1981.4751012455635646 Eh
Relativity type    :
Basis              : AO
                                X                 Y                 Z
Electronic contribution:    -13.537480560       0.728783193      -4.730595866
Nuclear contribution   :     12.834746324      -1.863168808       5.800079641
                        -----------------------------------------
Total Dipole Moment    :     -0.702734237      -1.134385615       1.069483774
                        -----------------------------------------
Magnitude (a.u.)       :      1.710105750
Magnitude (Debye)      :      4.346743374

Rotational constants in cm-1:             0.016561             0.005920             0.005216
Rotational constants in MHz :           496.493269           177.469655           156.361446

                             ****ORCA TERMINATED NORMALLY****
TOTAL RUN TIME: 0 days 0 hours 1 minutes 36 seconds 486 msec
