                         Program Version 6.0.1  -  RELEASE   -
|  1> ! r2scan-3c def2/J RI DEFGRID2 scfconv6 printgap
|  2> %output
|  3>     printlevel normal
|  4> end
|  5> %cpcm
|  6>     smd true
|  7>     smdsolvent "water"
|  8> end
|  9> * xyz 0 1
| 10> C 5.4212774203 -1.2724825907 -0.4635731193
| 11> C 4.7176261972 -1.8764528013 -1.6682101271
| 12> O 3.3642733452 -2.2297541169 -1.323900207
| 13> C 2.3983077601 -1.3772937187 -1.5952401184
| 14> O 2.5387729991 -0.3338553361 -2.1961327345
| 15> C 1.0556245578 -1.8940050813 -1.1071109755
| 16> C 0.278225833 -0.7306100946 -0.5101558493
| 17> H 0.1575165058 0.0632734399 -1.2622841676
| 18> C 1.0356152968 -0.1011687942 0.6433967371
| 19> O 2.235443004 -0.1857347169 0.7679499206
| 20> O 0.2320732928 0.5472304434 1.4604083333
| 21> C 0.811694834 1.2992815519 2.5464273586
| 22> C 1.1813376641 2.7001428736 2.0911241813
| 23> S -1.3886998639 -1.2409496201 0.0102844663
| 24> P -2.268198194 0.694185551 0.1832921871
| 25> S -1.4329970069 2.1409812222 -0.8377579123
| 26> O -3.785207301 0.3905693436 -0.2346823273
| 27> C -4.1352272662 0.0723645656 -1.5852856517
| 28> O -2.4692323917 1.0311687332 1.7119121206
| 29> C -3.1589908679 0.135004891 2.6064460112
| 30> H 4.8793234823 -0.3913037616 -0.1262914566
| 31> H 5.4525252125 -1.9910505967 0.3502703308
| 32> H 6.4322304057 -0.9895153707 -0.7370996087
| 33> H 5.1841237627 -2.8126280161 -1.9769160046
| 34> H 4.6910102105 -1.1685787109 -2.5015936314
| 35> H 1.2216339512 -2.6810647571 -0.3728485985
| 36> H 0.5075888117 -2.3016162328 -1.957677758
| 37> H 0.0314712409 1.3222214653 3.3070419658
| 38> H 1.6906222883 0.7565580124 2.9049044491
| 39> H 0.3110373616 3.1949499415 1.6656892446
| 40> H 1.5420185294 3.2720232539 2.9393062154
| 41> H 1.959992699 2.6568180543 1.3322541894
| 42> H -3.7917081083 -0.9325893215 -1.8301150391
| 43> H -3.6901937501 0.7961642589 -2.2700321
| 44> H -5.2199353587 0.1279781786 -1.6280620351
| 45> H -3.0875023993 0.5999494293 3.5862560507
| 46> H -2.6729847455 -0.8406603256 2.6031269329
| 47> H -4.1988563034 0.0343405805 2.3024991779
| 48> *
| 49>
| 50>                          ****END OF INPUT****

CARTESIAN COORDINATES (ANGSTROEM)
---------------------------------
  C      5.421277   -1.272483   -0.463573
  C      4.717626   -1.876453   -1.668210
  O      3.364273   -2.229754   -1.323900
  C      2.398308   -1.377294   -1.595240
  O      2.538773   -0.333855   -2.196133
  C      1.055625   -1.894005   -1.107111
  C      0.278226   -0.730610   -0.510156
  H      0.157517    0.063273   -1.262284
  C      1.035615   -0.101169    0.643397
  O      2.235443   -0.185735    0.767950
  O      0.232073    0.547230    1.460408
  C      0.811695    1.299282    2.546427
  C      1.181338    2.700143    2.091124
  S     -1.388700   -1.240950    0.010284
  P     -2.268198    0.694186    0.183292
  S     -1.432997    2.140981   -0.837758
  O     -3.785207    0.390569   -0.234682
  C     -4.135227    0.072365   -1.585286
  O     -2.469232    1.031169    1.711912
  C     -3.158991    0.135005    2.606446
  H      4.879323   -0.391304   -0.126291
  H      5.452525   -1.991051    0.350270
  H      6.432230   -0.989515   -0.737100
  H      5.184124   -2.812628   -1.976916
  H      4.691010   -1.168579   -2.501594
  H      1.221634   -2.681065   -0.372849
  H      0.507589   -2.301616   -1.957678
  H      0.031471    1.322221    3.307042
  H      1.690622    0.756558    2.904904
  H      0.311037    3.194950    1.665689
  H      1.542019    3.272023    2.939306
  H      1.959993    2.656818    1.332254
  H     -3.791708   -0.932589   -1.830115
  H     -3.690194    0.796164   -2.270032
  H     -5.219935    0.127978   -1.628062
  H     -3.087502    0.599949    3.586256
  H     -2.672985   -0.840660    2.603127
  H     -4.198856    0.034341    2.302499

 Total Charge           Charge          ....    0
 Multiplicity           Mult            ....    1
 Number of Electrons    NEL             ....  174
 Basis Dimension        Dim             ....  510

ORBITAL ENERGIES
----------------

  NO   OCC          E(Eh)            E(eV)
   0   2.0000     -88.581810     -2410.4336
   1   2.0000     -88.529911     -2409.0214
   2   2.0000     -76.921622     -2093.1437
   3   2.0000     -19.010714      -517.3078
   4   2.0000     -19.006603      -517.1960
   5   2.0000     -18.998447      -516.9740
   6   2.0000     -18.994733      -516.8730
   7   2.0000     -18.955779      -515.8130
   8   2.0000     -18.945467      -515.5324
   9   2.0000     -10.175724      -276.8955
  10   2.0000     -10.171526      -276.7813
  11   2.0000     -10.097418      -274.7647
  12   2.0000     -10.087926      -274.5064
  13   2.0000     -10.085428      -274.4385
  14   2.0000     -10.084569      -274.4151
  15   2.0000     -10.081659      -274.3359
  16   2.0000     -10.057324      -273.6737
  17   2.0000     -10.018887      -272.6278
  18   2.0000     -10.018683      -272.6222
  19   2.0000      -7.875908      -214.3143
  20   2.0000      -7.824913      -212.9267
  21   2.0000      -6.599900      -179.5924
  22   2.0000      -5.822754      -158.4452
  23   2.0000      -5.819916      -158.3680
  24   2.0000      -5.812941      -158.1782
  25   2.0000      -5.772708      -157.0834
  26   2.0000      -5.765244      -156.8803
  27   2.0000      -5.764673      -156.8647
  28   2.0000      -4.745588      -129.1340
  29   2.0000      -4.744904      -129.1154
  30   2.0000      -4.743494      -129.0770
  31   2.0000      -1.092344       -29.7242
  32   2.0000      -1.084087       -29.4995
  33   2.0000      -1.054872       -28.7045
  34   2.0000      -1.011713       -27.5301
  35   2.0000      -1.003682       -27.3116
  36   2.0000      -0.993800       -27.0427
  37   2.0000      -0.814316       -22.1587
  38   2.0000      -0.753403       -20.5011
  39   2.0000      -0.739876       -20.1331
  40   2.0000      -0.731321       -19.9002
  41   2.0000      -0.696751       -18.9596
  42   2.0000      -0.671037       -18.2598
  43   2.0000      -0.660728       -17.9793
  44   2.0000      -0.652932       -17.7672
  45   2.0000      -0.626814       -17.0565
  46   2.0000      -0.593448       -16.1485
  47   2.0000      -0.541949       -14.7472
  48   2.0000      -0.528750       -14.3880
  49   2.0000      -0.524400       -14.2696
  50   2.0000      -0.498335       -13.5604
  51   2.0000      -0.496469       -13.5096
  52   2.0000      -0.489533       -13.3209
  53   2.0000      -0.466861       -12.7039
  54   2.0000      -0.463313       -12.6074
  55   2.0000      -0.459564       -12.5054
  56   2.0000      -0.451578       -12.2881
  57   2.0000      -0.447291       -12.1714
  58   2.0000      -0.439075       -11.9478
  59   2.0000      -0.427834       -11.6420
  60   2.0000      -0.421888       -11.4802
  61   2.0000      -0.412676       -11.2295
  62   2.0000      -0.410857       -11.1800
  63   2.0000      -0.402756       -10.9595
  64   2.0000      -0.387159       -10.5351
  65   2.0000      -0.381035       -10.3685
  66   2.0000      -0.370354       -10.0778
  67   2.0000      -0.368454       -10.0262
  68   2.0000      -0.361817        -9.8455
  69   2.0000      -0.354449        -9.6451
  70   2.0000      -0.346784        -9.4365
  71   2.0000      -0.342673        -9.3246
  72   2.0000      -0.337897        -9.1947
  73   2.0000      -0.332091        -9.0367
  74   2.0000      -0.321570        -8.7504
  75   2.0000      -0.316313        -8.6073
  76   2.0000      -0.308668        -8.3993
  77   2.0000      -0.305535        -8.3140
  78   2.0000      -0.289513        -7.8781
  79   2.0000      -0.288033        -7.8378
  80   2.0000      -0.280874        -7.6430
  81   2.0000      -0.278982        -7.5915
  82   2.0000      -0.275581        -7.4989
  83   2.0000      -0.257750        -7.0137
  84   2.0000      -0.237564        -6.4645
  85   2.0000      -0.230507        -6.2724
  86   2.0000      -0.224018        -6.0958
  87   0.0000      -0.053556        -1.4573
  88   0.0000      -0.036124        -0.9830
  89   0.0000      -0.021501        -0.5851
  90   0.0000       0.002746         0.0747
  91   0.0000       0.013535         0.3683

MULLIKEN ATOMIC CHARGES
-----------------------
   0 C :   -0.499405
   1 C :   -0.139667
   2 O :   -0.175667
   3 C :    0.364966
   4 O :   -0.482729
   5 C :   -0.433281
   6 C :    0.040122
   7 H :    0.266420
   8 C :    0.265133
   9 O :   -0.450610
  10 O :   -0.122038
  11 C :   -0.150983
  12 C :   -0.502926
  13 S :   -0.204920
  14 P :    0.798408
  15 S :   -0.503946
  16 O :   -0.375247
  17 C :   -0.306594
  18 O :   -0.349066
  19 C :   -0.295940
  20 H :    0.169135
  21 H :    0.168344
  22 H :    0.171040
  23 H :    0.174549
  24 H :    0.178183
  25 H :    0.215779
  26 H :    0.224640
  27 H :    0.182211
  28 H :    0.178101
  29 H :    0.170432
  30 H :    0.173585
  31 H :    0.171462
  32 H :    0.175197
  33 H :    0.177105
  34 H :    0.179796
  35 H :    0.183994
  36 H :    0.179443
  37 H :    0.184973
Sum of atomic charges:   -0.0000000

LOEWDIN ATOMIC CHARGES
----------------------
   0 C :   -0.391338
   1 C :    0.037127
   2 O :   -0.583747
   3 C :    0.367840
   4 O :   -0.488980
   5 C :   -0.197496
   6 C :   -0.202845
   7 H :    0.223480
   8 C :    0.372387
   9 O :   -0.453514
  10 O :   -0.618036
  11 C :    0.041992
  12 C :   -0.392384
  13 S :    0.211698
  14 P :    0.402128
  15 S :   -0.130424
  16 O :   -0.695953
  17 C :   -0.055040
  18 O :   -0.666733
  19 C :   -0.041788
  20 H :    0.164763
  21 H :    0.162296
  22 H :    0.167632
  23 H :    0.189345
  24 H :    0.192336
  25 H :    0.201682
  26 H :    0.204853
  27 H :    0.192871
  28 H :    0.194212
  29 H :    0.163945
  30 H :    0.168039
  31 H :    0.163718
  32 H :    0.176156
  33 H :    0.177579
  34 H :    0.188895
  35 H :    0.191760
  36 H :    0.179289
  37 H :    0.182255

  Mayer bond orders larger than 0.100000
B(  0-C ,  1-C ) :   0.9291 B(  0-C , 20-H ) :   0.9679 B(  0-C , 21-H ) :   0.9696
B(  0-C , 22-H ) :   0.9613 B(  1-C ,  2-O ) :   0.7828 B(  1-C , 23-H ) :   0.9513
B(  1-C , 24-H ) :   0.9645 B(  2-O ,  3-C ) :   1.1075 B(  3-C ,  4-O ) :   1.8106
B(  3-C ,  5-C ) :   0.8930 B(  5-C ,  6-C ) :   0.8734 B(  5-C , 25-H ) :   0.9945
B(  5-C , 26-H ) :   0.9281 B(  6-C ,  7-H ) :   0.8807 B(  6-C ,  8-C ) :   0.9503
B(  6-C , 13-S ) :   0.8101 B(  8-C ,  9-O ) :   1.7614 B(  8-C , 10-O ) :   1.1977
B( 10-O , 11-C ) :   0.7569 B( 11-C , 12-C ) :   0.9123 B( 11-C , 27-H ) :   0.9543
B( 11-C , 28-H ) :   0.9545 B( 12-C , 29-H ) :   0.9696 B( 12-C , 30-H ) :   0.9608
B( 12-C , 31-H ) :   0.9712 B( 13-S , 14-P ) :   0.9982 B( 14-P , 15-S ) :   1.7788
B( 14-P , 16-O ) :   1.0425 B( 14-P , 18-O ) :   1.1491 B( 16-O , 17-C ) :   0.8232
B( 17-C , 32-H ) :   0.9499 B( 17-C , 33-H ) :   0.9555 B( 17-C , 34-H ) :   0.9572
B( 18-O , 19-C ) :   0.7869 B( 19-C , 35-H ) :   0.9544 B( 19-C , 36-H ) :   0.9478
B( 19-C , 37-H ) :   0.9519

Dispersion correction           -0.017379629
FINAL SINGLE POINT ENERGY     -1981.468579490763

DIPOLE MOMENT
-------------

Method             : SCF
Type of density    : Electron Density
Multiplicity       :   1
Irrep              :   0
Energy             : -1981.4886735696347841 Eh
Relativity type    :
Basis              : AO
                                X                 Y                 Z
Electronic contribution:    -13.879715921      -0.079664127      -4.347279337
Nuclear contribution   :     12.834746324      -1.863168808       5.800079641
                        -----------------------------------------
Total Dipole Moment    :     -1.044969598      -1.942832935       1.452800304
                        -----------------------------------------
Magnitude (a.u.)       :      2.641437108
Magnitude (Debye)      :      6.713999558

Rotational constants in cm-1:             0.016561             0.005920             0.005216
Rotational constants in MHz :           496.493269           177.469655           156.361446

                             ****ORCA TERMINATED NORMALLY****
TOTAL RUN TIME: 0 days 0 hours 2 minutes 4 seconds 266 msec
