                         Program Version 6.0.0  -   RELEASE  -
|  1> ! pbe def2-sv(p) def2/J RI DEFGRID1 loosescf d4 GCP(DFT/SV(P)) printgap
|  2> %output
|  3>     printlevel normal
|  4> end
|  5> * xyz 0 1
|  6> C 1.4020874144 -2.51611e-05 0.0001051456
|  7> C 0.6945952134 -1.1920018766 -4.567e-05
|  8> C -0.6908505283 -1.1340101879 3.3054e-05
|  9> N -1.374936108 2.71628e-05 6.4302e-06
| 10> C -0.6908030357 1.1340356159 4.184e-06
| 11> C 0.6946402399 1.1919732352 7.9242e-05
| 12> H 2.4818412796 -4.12891e-05 -0.0001637607
| 13> H 1.2021785159 -2.1432574569 -0.0004077663
| 14> H -1.2887690114 -2.0356083414 -0.0002822315
| 15> H -1.2886853786 2.0356621688 -0.0002125542
| 16> H 1.202257095 2.1432055683 -0.0011197508
| 17> *
| 18>
| 19>                          ****END OF INPUT****

CARTESIAN COORDINATES (ANGSTROEM)
---------------------------------
  C      1.402087   -0.000025    0.000105
  C      0.694595   -1.192002   -0.000046
  C     -0.690851   -1.134010    0.000033
  N     -1.374936    0.000027    0.000006
  C     -0.690803    1.134036    0.000004
  C      0.694640    1.191973    0.000079
  H      2.481841   -0.000041   -0.000164
  H      1.202179   -2.143257   -0.000408
  H     -1.288769   -2.035608   -0.000282
  H     -1.288685    2.035662   -0.000213
  H      1.202257    2.143206   -0.001120

 Total Charge           Charge          ....    0
 Multiplicity           Mult            ....    1
 Number of Electrons    NEL             ....   42
 Basis Dimension        Dim             ....   94

ORBITAL ENERGIES
----------------

  NO   OCC          E(Eh)            E(eV)
   0   2.0000     -13.982159      -380.4739
   1   2.0000      -9.923603      -270.0350
   2   2.0000      -9.923598      -270.0348
   3   2.0000      -9.914492      -269.7870
   4   2.0000      -9.905564      -269.5441
   5   2.0000      -9.905542      -269.5435
   6   2.0000      -0.859859       -23.3980
   7   2.0000      -0.728616       -19.8267
   8   2.0000      -0.688013       -18.7218
   9   2.0000      -0.570009       -15.5107
  10   2.0000      -0.564361       -15.3571
  11   2.0000      -0.481088       -13.0911
  12   2.0000      -0.435519       -11.8511
  13   2.0000      -0.419007       -11.4018
  14   2.0000      -0.385381       -10.4867
  15   2.0000      -0.364965        -9.9312
  16   2.0000      -0.359504        -9.7826
  17   2.0000      -0.322691        -8.7809
  18   2.0000      -0.266043        -7.2394
  19   2.0000      -0.243978        -6.6390
  20   2.0000      -0.204774        -5.5722
  21   0.0000      -0.057530        -1.5655
  22   0.0000      -0.047227        -1.2851
  23   0.0000       0.040819         1.1108
  24   0.0000       0.076215         2.0739
  25   0.0000       0.094716         2.5774

MULLIKEN ATOMIC CHARGES
-----------------------
   0 C :   -0.014491
   1 C :   -0.075856
   2 C :   -0.057929
   3 N :   -0.063543
   4 C :   -0.057931
   5 C :   -0.075854
   6 H :    0.070456
   7 H :    0.065765
   8 H :    0.071809
   9 H :    0.071810
  10 H :    0.065763
Sum of atomic charges:   -0.0000000

LOEWDIN ATOMIC CHARGES
----------------------
   0 C :   -0.098588
   1 C :   -0.141630
   2 C :   -0.079034
   3 N :   -0.076092
   4 C :   -0.079034
   5 C :   -0.141631
   6 H :    0.128347
   7 H :    0.128812
   8 H :    0.115020
   9 H :    0.115019
  10 H :    0.128812

  Mayer bond orders larger than 0.100000
B(  0-C ,  1-C ) :   1.4220 B(  0-C ,  5-C ) :   1.4220 B(  0-C ,  6-H ) :   0.9588
B(  1-C ,  2-C ) :   1.3850 B(  1-C ,  7-H ) :   0.9485 B(  2-C ,  3-N ) :   1.5489
B(  2-C ,  8-H ) :   0.9530 B(  3-N ,  4-C ) :   1.5489 B(  4-C ,  5-C ) :   1.3850
B(  4-C ,  9-H ) :   0.9530 B(  5-C , 10-H ) :   0.9485

Dispersion correction           -0.009847869
FINAL SINGLE POINT ENERGY      -247.745468384834

DIPOLE MOMENT
-------------

Method             : SCF
Type of density    : Electron Density
Multiplicity       :   1
Irrep              :   0
Energy             :  -247.7761212729770364 Eh
Relativity type    :
Basis              : AO
                                X                 Y                 Z
Electronic contribution:     -1.349437092       0.000020487       0.001588500
Nuclear contribution   :      2.158505525      -0.000036768      -0.002050873
                        -----------------------------------------
Total Dipole Moment    :      0.809068433      -0.000016281      -0.000462373
                        -----------------------------------------
Magnitude (a.u.)       :      0.809068565
Magnitude (Debye)      :      2.056488861

Rotational constants in cm-1:             0.203994             0.196896             0.100191
Rotational constants in MHz :          6115.577182          5902.800145          3003.652630

                             ****ORCA TERMINATED NORMALLY****
TOTAL RUN TIME: 0 days 0 hours 0 minutes 5 seconds 532 msec
