                         Program Version 6.0.0  -   RELEASE  -
|  1> ! r2scan-3c def2/J RI DEFGRID2 scfconv6 printgap
|  2> %output
|  3>     printlevel normal
|  4> end
|  5> * xyz 0 1
|  6> C 0.5162305752 -2.1953302369 2.3997851887
|  7> C 1.5935982603 -1.1312219092 2.4644663585
|  8> O 1.3718717362 -0.1316023315 1.4416347233
|  9> P 2.2324975671 -0.047427887 0.1199366264
| 10> S 2.9614374503 -1.7226990333 -0.5980146646
| 11> O 3.3403701608 1.0061166936 0.5578832035
| 12> C 4.4680515627 1.3258877141 -0.2824687627
| 13> C 5.5585795058 1.9024342824 0.5977199522
| 14> S 0.9727531613 1.0799675717 -1.140963335
| 15> C 0.2040245978 -0.3181549936 -2.0097659268
| 16> S -0.7182787753 -1.4157186191 -0.9064466942
| 17> P -2.118728204 0.0234337759 -0.226337884
| 18> S -2.7119413817 1.3216811049 -1.5755644543
| 19> O -1.4239488616 0.6274804849 1.0584962504
| 20> C -1.5070472246 2.0202349284 1.4092084214
| 21> C -2.8357405268 2.3295559643 2.0662361187
| 22> O -3.2179290747 -0.881794745 0.4741630445
| 23> C -4.0578528182 -1.8099699581 -0.2407640477
| 24> C -5.3090596537 -1.1332102924 -0.7666733078
| 25> H -0.4666101423 -1.7300737657 2.4218068728
| 26> H 0.6084715879 -2.769888294 1.4802224818
| 27> H 0.6203081397 -2.8627702279 3.2491270317
| 28> H 2.5862175149 -1.570530413 2.3308363807
| 29> H 1.5576224396 -0.5807842088 3.4058373525
| 30> H 4.7993224874 0.4103443338 -0.7842820845
| 31> H 4.1369079072 2.0475185618 -1.033764694
| 32> H 6.4073972555 2.1748647867 -0.0207711136
| 33> H 5.1901258238 2.7842496307 1.1137401675
| 34> H 5.8723443714 1.1682603968 1.3344008977
| 35> H 0.9756784016 -0.9278658856 -2.4780925355
| 36> H -0.4691493151 0.1158733408 -2.7486187454
| 37> H -0.6651112179 2.1774003304 2.0851568684
| 38> H -1.3691371303 2.6233897665 0.5052093196
| 39> H -2.8541517434 3.3699807914 2.3746539118
| 40> H -3.6421162553 2.1542831611 1.3550004593
| 41> H -2.9855458783 1.6896647074 2.931458346
| 42> H -3.4821918161 -2.2625956104 -1.0534438051
| 43> H -4.3019274612 -2.5738226651 0.4999941048
| 44> H -5.9386869302 -1.8732513024 -1.2499977739
| 45> H -5.8577504211 -0.6737773463 0.0508297891
| 46> H -5.0491223336 -0.3628649471 -1.489216171
| 47> *
| 48>
| 49>                          ****END OF INPUT****

CARTESIAN COORDINATES (ANGSTROEM)
---------------------------------
  C      0.516231   -2.195330    2.399785
  C      1.593598   -1.131222    2.464466
  O      1.371872   -0.131602    1.441635
  P      2.232498   -0.047428    0.119937
  S      2.961437   -1.722699   -0.598015
  O      3.340370    1.006117    0.557883
  C      4.468052    1.325888   -0.282469
  C      5.558580    1.902434    0.597720
  S      0.972753    1.079968   -1.140963
  C      0.204025   -0.318155   -2.009766
  S     -0.718279   -1.415719   -0.906447
  P     -2.118728    0.023434   -0.226338
  S     -2.711941    1.321681   -1.575564
  O     -1.423949    0.627480    1.058496
  C     -1.507047    2.020235    1.409208
  C     -2.835741    2.329556    2.066236
  O     -3.217929   -0.881795    0.474163
  C     -4.057853   -1.809970   -0.240764
  C     -5.309060   -1.133210   -0.766673
  H     -0.466610   -1.730074    2.421807
  H      0.608472   -2.769888    1.480222
  H      0.620308   -2.862770    3.249127
  H      2.586218   -1.570530    2.330836
  H      1.557622   -0.580784    3.405837
  H      4.799322    0.410344   -0.784282
  H      4.136908    2.047519   -1.033765
  H      6.407397    2.174865   -0.020771
  H      5.190126    2.784250    1.113740
  H      5.872344    1.168260    1.334401
  H      0.975678   -0.927866   -2.478093
  H     -0.469149    0.115873   -2.748619
  H     -0.665111    2.177400    2.085157
  H     -1.369137    2.623390    0.505209
  H     -2.854152    3.369981    2.374654
  H     -3.642116    2.154283    1.355000
  H     -2.985546    1.689665    2.931458
  H     -3.482192   -2.262596   -1.053444
  H     -4.301927   -2.573823    0.499994
  H     -5.938687   -1.873251   -1.249998
  H     -5.857750   -0.673777    0.050830
  H     -5.049122   -0.362865   -1.489216

 Total Charge           Charge          ....    0
 Multiplicity           Mult            ....    1
 Number of Electrons    NEL             ....  202
 Basis Dimension        Dim             ....  539

ORBITAL ENERGIES
----------------

  NO   OCC          E(Eh)            E(eV)
   0   2.0000     -88.575969     -2410.2746
   1   2.0000     -88.574196     -2410.2264
   2   2.0000     -88.520805     -2408.7736
   3   2.0000     -88.519637     -2408.7418
   4   2.0000     -76.913793     -2092.9307
   5   2.0000     -76.912407     -2092.8930
   6   2.0000     -18.993627      -516.8429
   7   2.0000     -18.989960      -516.7431
   8   2.0000     -18.986241      -516.6419
   9   2.0000     -18.986063      -516.6370
  10   2.0000     -10.105608      -274.9876
  11   2.0000     -10.102036      -274.8904
  12   2.0000     -10.096686      -274.7448
  13   2.0000     -10.096573      -274.7417
  14   2.0000     -10.092557      -274.6324
  15   2.0000     -10.032310      -272.9930
  16   2.0000     -10.026307      -272.8297
  17   2.0000     -10.025246      -272.8008
  18   2.0000     -10.021488      -272.6986
  19   2.0000      -7.870225      -214.1597
  20   2.0000      -7.868566      -214.1146
  21   2.0000      -7.815674      -212.6753
  22   2.0000      -7.814466      -212.6424
  23   2.0000      -6.592177      -179.3823
  24   2.0000      -6.590927      -179.3482
  25   2.0000      -5.817122      -158.2919
  26   2.0000      -5.815431      -158.2459
  27   2.0000      -5.814090      -158.2094
  28   2.0000      -5.812382      -158.1630
  29   2.0000      -5.807331      -158.0255
  30   2.0000      -5.805712      -157.9815
  31   2.0000      -5.763303      -156.8274
  32   2.0000      -5.762081      -156.7942
  33   2.0000      -5.755871      -156.6252
  34   2.0000      -5.755768      -156.6224
  35   2.0000      -5.754831      -156.5969
  36   2.0000      -5.754412      -156.5855
  37   2.0000      -4.737556      -128.9154
  38   2.0000      -4.737166      -128.9048
  39   2.0000      -4.736303      -128.8814
  40   2.0000      -4.735985      -128.8727
  41   2.0000      -4.735849      -128.8690
  42   2.0000      -4.734782      -128.8400
  43   2.0000      -1.050023       -28.5726
  44   2.0000      -1.046832       -28.4858
  45   2.0000      -1.009879       -27.4802
  46   2.0000      -1.006862       -27.3981
  47   2.0000      -0.802573       -21.8391
  48   2.0000      -0.758572       -20.6418
  49   2.0000      -0.748707       -20.3734
  50   2.0000      -0.729368       -19.8471
  51   2.0000      -0.728257       -19.8169
  52   2.0000      -0.708060       -19.2673
  53   2.0000      -0.684350       -18.6221
  54   2.0000      -0.669534       -18.2189
  55   2.0000      -0.629227       -17.1221
  56   2.0000      -0.622614       -16.9422
  57   2.0000      -0.603423       -16.4200
  58   2.0000      -0.600053       -16.3283
  59   2.0000      -0.590692       -16.0736
  60   2.0000      -0.532124       -14.4798
  61   2.0000      -0.522010       -14.2046
  62   2.0000      -0.494865       -13.4660
  63   2.0000      -0.492960       -13.4141
  64   2.0000      -0.472935       -12.8692
  65   2.0000      -0.458974       -12.4893
  66   2.0000      -0.457026       -12.4363
  67   2.0000      -0.451016       -12.2728
  68   2.0000      -0.447581       -12.1793
  69   2.0000      -0.427757       -11.6399
  70   2.0000      -0.422927       -11.5084
  71   2.0000      -0.411553       -11.1989
  72   2.0000      -0.404641       -11.0108
  73   2.0000      -0.400474       -10.8974
  74   2.0000      -0.396581       -10.7915
  75   2.0000      -0.390999       -10.6396
  76   2.0000      -0.385951       -10.5023
  77   2.0000      -0.368529       -10.0282
  78   2.0000      -0.367640       -10.0040
  79   2.0000      -0.363593        -9.8939
  80   2.0000      -0.360870        -9.8198
  81   2.0000      -0.360583        -9.8120
  82   2.0000      -0.352972        -9.6049
  83   2.0000      -0.351037        -9.5522
  84   2.0000      -0.348302        -9.4778
  85   2.0000      -0.334673        -9.1069
  86   2.0000      -0.316570        -8.6143
  87   2.0000      -0.314295        -8.5524
  88   2.0000      -0.311399        -8.4736
  89   2.0000      -0.304150        -8.2763
  90   2.0000      -0.297061        -8.0834
  91   2.0000      -0.293678        -7.9914
  92   2.0000      -0.285111        -7.7583
  93   2.0000      -0.277095        -7.5401
  94   2.0000      -0.271544        -7.3891
  95   2.0000      -0.245594        -6.6829
  96   2.0000      -0.230960        -6.2847
  97   2.0000      -0.226676        -6.1682
  98   2.0000      -0.220127        -5.9899
  99   2.0000      -0.213053        -5.7975
 100   2.0000      -0.210918        -5.7394
 101   0.0000      -0.047651        -1.2966
 102   0.0000      -0.025139        -0.6841
 103   0.0000      -0.001009        -0.0274
 104   0.0000       0.003119         0.0849
 105   0.0000       0.011148         0.3033

MULLIKEN ATOMIC CHARGES
-----------------------
   0 C :   -0.478319
   1 C :   -0.120162
   2 O :   -0.257425
   3 P :    0.695111
   4 S :   -0.484801
   5 O :   -0.282961
   6 C :   -0.150311
   7 C :   -0.443562
   8 S :   -0.142954
   9 C :   -0.231011
  10 S :   -0.138308
  11 P :    0.702820
  12 S :   -0.484441
  13 O :   -0.251731
  14 C :   -0.154769
  15 C :   -0.444796
  16 O :   -0.308826
  17 C :   -0.142793
  18 C :   -0.447284
  19 H :    0.166976
  20 H :    0.177301
  21 H :    0.140981
  22 H :    0.159139
  23 H :    0.147064
  24 H :    0.170283
  25 H :    0.150919
  26 H :    0.146460
  27 H :    0.153129
  28 H :    0.156057
  29 H :    0.208732
  30 H :    0.207417
  31 H :    0.159784
  32 H :    0.174884
  33 H :    0.146345
  34 H :    0.166119
  35 H :    0.152263
  36 H :    0.154264
  37 H :    0.150694
  38 H :    0.145254
  39 H :    0.152422
  40 H :    0.180040
Sum of atomic charges:    0.0000000

LOEWDIN ATOMIC CHARGES
----------------------
   0 C :   -0.402744
   1 C :    0.028396
   2 O :   -0.660717
   3 P :    0.375754
   4 S :   -0.133694
   5 O :   -0.665084
   6 C :    0.018920
   7 C :   -0.386412
   8 S :    0.176717
   9 C :   -0.418800
  10 S :    0.162275
  11 P :    0.381226
  12 S :   -0.130420
  13 O :   -0.664930
  14 C :    0.013173
  15 C :   -0.398100
  16 O :   -0.656169
  17 C :    0.022696
  18 C :   -0.402078
  19 H :    0.165231
  20 H :    0.166500
  21 H :    0.155838
  22 H :    0.177818
  23 H :    0.176476
  24 H :    0.180719
  25 H :    0.171376
  26 H :    0.159764
  27 H :    0.159431
  28 H :    0.160396
  29 H :    0.189795
  30 H :    0.189830
  31 H :    0.181554
  32 H :    0.182217
  33 H :    0.159232
  34 H :    0.164548
  35 H :    0.158472
  36 H :    0.175222
  37 H :    0.179597
  38 H :    0.157860
  39 H :    0.158969
  40 H :    0.169141

  Mayer bond orders larger than 0.100000
B(  0-C ,  1-C ) :   0.9460 B(  0-C , 19-H ) :   0.9681 B(  0-C , 20-H ) :   0.9635
B(  0-C , 21-H ) :   0.9634 B(  1-C ,  2-O ) :   0.7577 B(  1-C , 22-H ) :   0.9643
B(  1-C , 23-H ) :   0.9600 B(  2-O ,  3-P ) :   1.1834 B(  3-P ,  4-S ) :   1.7399
B(  3-P ,  5-O ) :   1.0891 B(  3-P ,  8-S ) :   1.0639 B(  5-O ,  6-C ) :   0.7779
B(  6-C ,  7-C ) :   0.9579 B(  6-C , 24-H ) :   0.9515 B(  6-C , 25-H ) :   0.9448
B(  7-C , 26-H ) :   0.9647 B(  7-C , 27-H ) :   0.9718 B(  7-C , 28-H ) :   0.9725
B(  8-S ,  9-C ) :   0.9016 B(  9-C , 10-S ) :   0.9031 B(  9-C , 29-H ) :   0.9107
B(  9-C , 30-H ) :   0.9095 B( 10-S , 11-P ) :   1.0639 B( 11-P , 12-S ) :   1.7434
B( 11-P , 13-O ) :   1.1404 B( 11-P , 16-O ) :   1.0807 B( 13-O , 14-C ) :   0.7704
B( 14-C , 15-C ) :   0.9281 B( 14-C , 31-H ) :   0.9631 B( 14-C , 32-H ) :   0.9592
B( 15-C , 33-H ) :   0.9652 B( 15-C , 34-H ) :   0.9618 B( 15-C , 35-H ) :   0.9746
B( 16-O , 17-C ) :   0.7887 B( 17-C , 18-C ) :   0.9561 B( 17-C , 36-H ) :   0.9616
B( 17-C , 37-H ) :   0.9622 B( 18-C , 38-H ) :   0.9649 B( 18-C , 39-H ) :   0.9739
B( 18-C , 40-H ) :   0.9550

Dispersion correction           -0.021690504
FINAL SINGLE POINT ENERGY     -2932.464979663341

DIPOLE MOMENT
-------------

Method             : SCF
Type of density    : Electron Density
Multiplicity       :   1
Irrep              :   0
Energy             : -2932.4896104389295033 Eh
Relativity type    :
Basis              : AO
                                X                 Y                 Z
Electronic contribution:      4.145180796      -2.292717367     -12.743039702
Nuclear contribution   :     -4.174767566       2.423279420      13.666743232
                        -----------------------------------------
Total Dipole Moment    :     -0.029586770       0.130562054       0.923703529
                        -----------------------------------------
Magnitude (a.u.)       :      0.933354186
Magnitude (Debye)      :      2.372397804

Rotational constants in cm-1:             0.013520             0.004858             0.004710
Rotational constants in MHz :           405.332046           145.628304           141.207264

                             ****ORCA TERMINATED NORMALLY****
TOTAL RUN TIME: 0 days 0 hours 1 minutes 19 seconds 788 msec
