                         Program Version 6.0.0  -   RELEASE  -
|  1> ! r2scan-3c def2/J RI DEFGRID2 scfconv6 printgap
|  2> %output
|  3>     printlevel normal
|  4> end
|  5> %cpcm
|  6>     smd true
|  7>     smdsolvent "water"
|  8> end
|  9> * xyz 0 1
| 10> C 0.5162305752 -2.1953302369 2.3997851887
| 11> C 1.5935982603 -1.1312219092 2.4644663585
| 12> O 1.3718717362 -0.1316023315 1.4416347233
| 13> P 2.2324975671 -0.047427887 0.1199366264
| 14> S 2.9614374503 -1.7226990333 -0.5980146646
| 15> O 3.3403701608 1.0061166936 0.5578832035
| 16> C 4.4680515627 1.3258877141 -0.2824687627
| 17> C 5.5585795058 1.9024342824 0.5977199522
| 18> S 0.9727531613 1.0799675717 -1.140963335
| 19> C 0.2040245978 -0.3181549936 -2.0097659268
| 20> S -0.7182787753 -1.4157186191 -0.9064466942
| 21> P -2.118728204 0.0234337759 -0.226337884
| 22> S -2.7119413817 1.3216811049 -1.5755644543
| 23> O -1.4239488616 0.6274804849 1.0584962504
| 24> C -1.5070472246 2.0202349284 1.4092084214
| 25> C -2.8357405268 2.3295559643 2.0662361187
| 26> O -3.2179290747 -0.881794745 0.4741630445
| 27> C -4.0578528182 -1.8099699581 -0.2407640477
| 28> C -5.3090596537 -1.1332102924 -0.7666733078
| 29> H -0.4666101423 -1.7300737657 2.4218068728
| 30> H 0.6084715879 -2.769888294 1.4802224818
| 31> H 0.6203081397 -2.8627702279 3.2491270317
| 32> H 2.5862175149 -1.570530413 2.3308363807
| 33> H 1.5576224396 -0.5807842088 3.4058373525
| 34> H 4.7993224874 0.4103443338 -0.7842820845
| 35> H 4.1369079072 2.0475185618 -1.033764694
| 36> H 6.4073972555 2.1748647867 -0.0207711136
| 37> H 5.1901258238 2.7842496307 1.1137401675
| 38> H 5.8723443714 1.1682603968 1.3344008977
| 39> H 0.9756784016 -0.9278658856 -2.4780925355
| 40> H -0.4691493151 0.1158733408 -2.7486187454
| 41> H -0.6651112179 2.1774003304 2.0851568684
| 42> H -1.3691371303 2.6233897665 0.5052093196
| 43> H -2.8541517434 3.3699807914 2.3746539118
| 44> H -3.6421162553 2.1542831611 1.3550004593
| 45> H -2.9855458783 1.6896647074 2.931458346
| 46> H -3.4821918161 -2.2625956104 -1.0534438051
| 47> H -4.3019274612 -2.5738226651 0.4999941048
| 48> H -5.9386869302 -1.8732513024 -1.2499977739
| 49> H -5.8577504211 -0.6737773463 0.0508297891
| 50> H -5.0491223336 -0.3628649471 -1.489216171
| 51> *
| 52>
| 53>                          ****END OF INPUT****

CARTESIAN COORDINATES (ANGSTROEM)
---------------------------------
  C      0.516231   -2.195330    2.399785
  C      1.593598   -1.131222    2.464466
  O      1.371872   -0.131602    1.441635
  P      2.232498   -0.047428    0.119937
  S      2.961437   -1.722699   -0.598015
  O      3.340370    1.006117    0.557883
  C      4.468052    1.325888   -0.282469
  C      5.558580    1.902434    0.597720
  S      0.972753    1.079968   -1.140963
  C      0.204025   -0.318155   -2.009766
  S     -0.718279   -1.415719   -0.906447
  P     -2.118728    0.023434   -0.226338
  S     -2.711941    1.321681   -1.575564
  O     -1.423949    0.627480    1.058496
  C     -1.507047    2.020235    1.409208
  C     -2.835741    2.329556    2.066236
  O     -3.217929   -0.881795    0.474163
  C     -4.057853   -1.809970   -0.240764
  C     -5.309060   -1.133210   -0.766673
  H     -0.466610   -1.730074    2.421807
  H      0.608472   -2.769888    1.480222
  H      0.620308   -2.862770    3.249127
  H      2.586218   -1.570530    2.330836
  H      1.557622   -0.580784    3.405837
  H      4.799322    0.410344   -0.784282
  H      4.136908    2.047519   -1.033765
  H      6.407397    2.174865   -0.020771
  H      5.190126    2.784250    1.113740
  H      5.872344    1.168260    1.334401
  H      0.975678   -0.927866   -2.478093
  H     -0.469149    0.115873   -2.748619
  H     -0.665111    2.177400    2.085157
  H     -1.369137    2.623390    0.505209
  H     -2.854152    3.369981    2.374654
  H     -3.642116    2.154283    1.355000
  H     -2.985546    1.689665    2.931458
  H     -3.482192   -2.262596   -1.053444
  H     -4.301927   -2.573823    0.499994
  H     -5.938687   -1.873251   -1.249998
  H     -5.857750   -0.673777    0.050830
  H     -5.049122   -0.362865   -1.489216

 Total Charge           Charge          ....    0
 Multiplicity           Mult            ....    1
 Number of Electrons    NEL             ....  202
 Basis Dimension        Dim             ....  539

ORBITAL ENERGIES
----------------

  NO   OCC          E(Eh)            E(eV)
   0   2.0000     -88.580468     -2410.3971
   1   2.0000     -88.578045     -2410.3312
   2   2.0000     -88.527907     -2408.9668
   3   2.0000     -88.527490     -2408.9555
   4   2.0000     -76.919332     -2093.0814
   5   2.0000     -76.918553     -2093.0602
   6   2.0000     -18.996266      -516.9147
   7   2.0000     -18.993609      -516.8424
   8   2.0000     -18.991454      -516.7837
   9   2.0000     -18.991164      -516.7758
  10   2.0000     -10.105369      -274.9811
  11   2.0000     -10.091860      -274.6135
  12   2.0000     -10.090029      -274.5636
  13   2.0000     -10.088812      -274.5305
  14   2.0000     -10.088196      -274.5138
  15   2.0000     -10.019247      -272.6376
  16   2.0000     -10.017640      -272.5938
  17   2.0000     -10.016697      -272.5682
  18   2.0000     -10.015914      -272.5469
  19   2.0000      -7.874756      -214.2830
  20   2.0000      -7.872426      -214.2196
  21   2.0000      -7.823037      -212.8757
  22   2.0000      -7.822590      -212.8635
  23   2.0000      -6.597765      -179.5343
  24   2.0000      -6.597105      -179.5164
  25   2.0000      -5.821637      -158.4148
  26   2.0000      -5.819281      -158.3507
  27   2.0000      -5.818604      -158.3323
  28   2.0000      -5.816242      -158.2680
  29   2.0000      -5.811901      -158.1499
  30   2.0000      -5.809589      -158.0869
  31   2.0000      -5.770618      -157.0265
  32   2.0000      -5.770154      -157.0139
  33   2.0000      -5.763231      -156.8255
  34   2.0000      -5.763130      -156.8228
  35   2.0000      -5.762945      -156.8177
  36   2.0000      -5.762544      -156.8068
  37   2.0000      -4.743112      -129.0666
  38   2.0000      -4.742766      -129.0572
  39   2.0000      -4.742443      -129.0484
  40   2.0000      -4.742039      -129.0374
  41   2.0000      -4.741614      -129.0259
  42   2.0000      -4.741012      -129.0095
  43   2.0000      -1.053727       -28.6734
  44   2.0000      -1.050815       -28.5941
  45   2.0000      -1.013093       -27.5677
  46   2.0000      -1.010233       -27.4898
  47   2.0000      -0.805169       -21.9098
  48   2.0000      -0.756796       -20.5935
  49   2.0000      -0.744210       -20.2510
  50   2.0000      -0.722437       -19.6585
  51   2.0000      -0.721755       -19.6400
  52   2.0000      -0.708809       -19.2877
  53   2.0000      -0.688575       -18.7371
  54   2.0000      -0.675644       -18.3852
  55   2.0000      -0.629021       -17.1165
  56   2.0000      -0.620302       -16.8793
  57   2.0000      -0.598408       -16.2835
  58   2.0000      -0.594646       -16.1811
  59   2.0000      -0.589139       -16.0313
  60   2.0000      -0.530126       -14.4255
  61   2.0000      -0.519481       -14.1358
  62   2.0000      -0.494021       -13.4430
  63   2.0000      -0.491592       -13.3769
  64   2.0000      -0.473705       -12.8902
  65   2.0000      -0.457192       -12.4408
  66   2.0000      -0.454252       -12.3608
  67   2.0000      -0.448067       -12.1925
  68   2.0000      -0.444104       -12.0847
  69   2.0000      -0.428672       -11.6647
  70   2.0000      -0.420429       -11.4405
  71   2.0000      -0.410735       -11.1767
  72   2.0000      -0.403144       -10.9701
  73   2.0000      -0.400004       -10.8847
  74   2.0000      -0.394327       -10.7302
  75   2.0000      -0.387902       -10.5554
  76   2.0000      -0.383763       -10.4427
  77   2.0000      -0.367059        -9.9882
  78   2.0000      -0.359812        -9.7910
  79   2.0000      -0.357993        -9.7415
  80   2.0000      -0.355329        -9.6690
  81   2.0000      -0.353152        -9.6097
  82   2.0000      -0.347500        -9.4560
  83   2.0000      -0.346601        -9.4315
  84   2.0000      -0.346321        -9.4239
  85   2.0000      -0.333222        -9.0674
  86   2.0000      -0.315858        -8.5949
  87   2.0000      -0.311921        -8.4878
  88   2.0000      -0.306565        -8.3421
  89   2.0000      -0.303871        -8.2688
  90   2.0000      -0.297357        -8.0915
  91   2.0000      -0.294791        -8.0217
  92   2.0000      -0.286057        -7.7840
  93   2.0000      -0.278217        -7.5707
  94   2.0000      -0.273944        -7.4544
  95   2.0000      -0.249818        -6.7979
  96   2.0000      -0.236962        -6.4481
  97   2.0000      -0.234491        -6.3808
  98   2.0000      -0.227286        -6.1848
  99   2.0000      -0.220709        -6.0058
 100   2.0000      -0.218127        -5.9355
 101   0.0000      -0.052688        -1.4337
 102   0.0000      -0.031488        -0.8568
 103   0.0000      -0.005912        -0.1609
 104   0.0000      -0.001566        -0.0426
 105   0.0000       0.009494         0.2584

MULLIKEN ATOMIC CHARGES
-----------------------
   0 C :   -0.501248
   1 C :   -0.123654
   2 O :   -0.285683
   3 P :    0.723353
   4 S :   -0.527119
   5 O :   -0.311668
   6 C :   -0.143476
   7 C :   -0.484752
   8 S :   -0.153764
   9 C :   -0.243252
  10 S :   -0.146883
  11 P :    0.731461
  12 S :   -0.523361
  13 O :   -0.283879
  14 C :   -0.142447
  15 C :   -0.487394
  16 O :   -0.339782
  17 C :   -0.131113
  18 C :   -0.488889
  19 H :    0.166719
  20 H :    0.171444
  21 H :    0.167255
  22 H :    0.170284
  23 H :    0.174881
  24 H :    0.171156
  25 H :    0.170906
  26 H :    0.169168
  27 H :    0.165524
  28 H :    0.166118
  29 H :    0.231357
  30 H :    0.229232
  31 H :    0.180047
  32 H :    0.175869
  33 H :    0.171340
  34 H :    0.164993
  35 H :    0.168010
  36 H :    0.164147
  37 H :    0.177040
  38 H :    0.170039
  39 H :    0.168085
  40 H :    0.169938
Sum of atomic charges:    0.0000000

LOEWDIN ATOMIC CHARGES
----------------------
   0 C :   -0.404834
   1 C :    0.032896
   2 O :   -0.676324
   3 P :    0.379790
   4 S :   -0.160643
   5 O :   -0.678653
   6 C :    0.023403
   7 C :   -0.390200
   8 S :    0.171093
   9 C :   -0.412345
  10 S :    0.159569
  11 P :    0.385247
  12 S :   -0.155157
  13 O :   -0.682451
  14 C :    0.016671
  15 C :   -0.401347
  16 O :   -0.669607
  17 C :    0.029135
  18 C :   -0.406365
  19 H :    0.164012
  20 H :    0.162523
  21 H :    0.165477
  22 H :    0.181809
  23 H :    0.188101
  24 H :    0.181388
  25 H :    0.179413
  26 H :    0.168703
  27 H :    0.162916
  28 H :    0.162447
  29 H :    0.196916
  30 H :    0.196658
  31 H :    0.189775
  32 H :    0.182607
  33 H :    0.168462
  34 H :    0.162022
  35 H :    0.163136
  36 H :    0.179847
  37 H :    0.191023
  38 H :    0.167372
  39 H :    0.162607
  40 H :    0.162908

  Mayer bond orders larger than 0.100000
B(  0-C ,  1-C ) :   0.9361 B(  0-C , 19-H ) :   0.9665 B(  0-C , 20-H ) :   0.9654
B(  0-C , 21-H ) :   0.9590 B(  1-C ,  2-O ) :   0.7455 B(  1-C , 22-H ) :   0.9612
B(  1-C , 23-H ) :   0.9494 B(  2-O ,  3-P ) :   1.1857 B(  3-P ,  4-S ) :   1.7064
B(  3-P ,  5-O ) :   1.0949 B(  3-P ,  8-S ) :   1.0792 B(  5-O ,  6-C ) :   0.7707
B(  6-C ,  7-C ) :   0.9536 B(  6-C , 24-H ) :   0.9487 B(  6-C , 25-H ) :   0.9361
B(  7-C , 26-H ) :   0.9586 B(  7-C , 27-H ) :   0.9688 B(  7-C , 28-H ) :   0.9702
B(  8-S ,  9-C ) :   0.8927 B(  9-C , 10-S ) :   0.8950 B(  9-C , 29-H ) :   0.9045
B(  9-C , 30-H ) :   0.9036 B( 10-S , 11-P ) :   1.0765 B( 11-P , 12-S ) :   1.7151
B( 11-P , 13-O ) :   1.1405 B( 11-P , 16-O ) :   1.0844 B( 13-O , 14-C ) :   0.7585
B( 14-C , 15-C ) :   0.9226 B( 14-C , 31-H ) :   0.9530 B( 14-C , 32-H ) :   0.9546
B( 15-C , 33-H ) :   0.9592 B( 15-C , 34-H ) :   0.9622 B( 15-C , 35-H ) :   0.9722
B( 16-O , 17-C ) :   0.7787 B( 17-C , 18-C ) :   0.9430 B( 17-C , 36-H ) :   0.9547
B( 17-C , 37-H ) :   0.9525 B( 18-C , 38-H ) :   0.9593 B( 18-C , 39-H ) :   0.9722
B( 18-C , 40-H ) :   0.9596

Dispersion correction           -0.021690504
FINAL SINGLE POINT ENERGY     -2932.472143849971

DIPOLE MOMENT
-------------

Method             : SCF
Type of density    : Electron Density
Multiplicity       :   1
Irrep              :   0
Energy             : -2932.4967746255592829 Eh
Relativity type    :
Basis              : AO
                                X                 Y                 Z
Electronic contribution:      4.187494449      -2.326968289     -12.582019092
Nuclear contribution   :     -4.174767566       2.423279420      13.666743232
                        -----------------------------------------
Total Dipole Moment    :      0.012726883       0.096311132       1.084724140
                        -----------------------------------------
Magnitude (a.u.)       :      1.089065777
Magnitude (Debye)      :      2.768185215

Rotational constants in cm-1:             0.013520             0.004858             0.004710
Rotational constants in MHz :           405.332046           145.628304           141.207264

                             ****ORCA TERMINATED NORMALLY****
TOTAL RUN TIME: 0 days 0 hours 1 minutes 50 seconds 357 msec
