                         Program Version 6.0.0  -   RELEASE  -
|  1> ! r2scan-3c def2/J RI DEFGRID2 scfconv6 printgap
|  2> %output
|  3>     printlevel normal
|  4> end
|  5> * xyz 0 1
|  6> C 5.3586826783 1.3887953461 -1.8574894144
|  7> C 4.0110807243 0.6952460285 -1.8712903588
|  8> O 3.7886754105 0.1263517707 -0.566074891
|  9> P 2.3332408568 -0.101052682 0.0028282642
| 10> S 1.1095064974 1.4139510813 -0.280075892
| 11> O 2.8058432568 -0.4338999393 1.4727068088
| 12> C 1.9974620547 -1.0557959892 2.4878150301
| 13> C 1.1087730586 -0.0492028211 3.1919318988
| 14> S 1.7209052446 -1.9514143749 -0.8547393667
| 15> C -0.0409235412 -1.6453650134 -1.1210709399
| 16> S -0.9843737073 -1.5537448766 0.4427364286
| 17> P -2.1720041784 0.1481850433 0.0663861199
| 18> S -2.1621342659 0.8470181246 -1.7720197561
| 19> O -1.6908145503 1.0410264414 1.2818719721
| 20> C -2.3654971545 2.2322660017 1.7378191163
| 21> C -2.1248661257 3.4071614622 0.8112072514
| 22> O -3.6358718392 -0.2361659145 0.5703833805
| 23> C -4.6257948532 -0.8067015931 -0.2997747178
| 24> C -4.2556787817 -2.2088257345 -0.7388214331
| 25> H 5.5601295796 1.7969319118 -2.8425029786
| 26> H 5.3562425758 2.1939169498 -1.1280641278
| 27> H 6.1359685549 0.6778749032 -1.5935557604
| 28> H 3.9904428338 -0.1188202139 -2.6007265344
| 29> H 3.2024906913 1.4009179993 -2.0953477365
| 30> H 1.4009635136 -1.8576611261 2.0396614929
| 31> H 2.7287762004 -1.4857022835 3.1749029926
| 32> H 0.3828999702 0.3695649781 2.4971580391
| 33> H 0.576346728 -0.5443804148 3.9976082348
| 34> H 1.7087753282 0.7615133305 3.5966820628
| 35> H -0.395938821 -2.4962541274 -1.6968493308
| 36> H -0.1874392281 -0.7083508132 -1.6654408095
| 37> H -3.4318104841 2.0156740691 1.8384278793
| 38> H -1.9283545684 2.4103672176 2.7221182578
| 39> H -2.6099107647 3.243764162 -0.149254125
| 40> H -2.5217509772 4.3113982858 1.2611509978
| 41> H -1.0574728515 3.5272862091 0.6362201016
| 42> H -5.5378929097 -0.7978367211 0.2984117216
| 43> H -4.7408892804 -0.1511108345 -1.1689866639
| 44> H -4.0258148305 -2.8277883419 0.1247351781
| 45> H -5.0848370362 -2.6445166035 -1.2868310746
| 46> H -3.3835783444 -2.1716377634 -1.3906427557
| 47> *
| 48>
| 49>                          ****END OF INPUT****

CARTESIAN COORDINATES (ANGSTROEM)
---------------------------------
  C      5.358683    1.388795   -1.857489
  C      4.011081    0.695246   -1.871290
  O      3.788675    0.126352   -0.566075
  P      2.333241   -0.101053    0.002828
  S      1.109506    1.413951   -0.280076
  O      2.805843   -0.433900    1.472707
  C      1.997462   -1.055796    2.487815
  C      1.108773   -0.049203    3.191932
  S      1.720905   -1.951414   -0.854739
  C     -0.040924   -1.645365   -1.121071
  S     -0.984374   -1.553745    0.442736
  P     -2.172004    0.148185    0.066386
  S     -2.162134    0.847018   -1.772020
  O     -1.690815    1.041026    1.281872
  C     -2.365497    2.232266    1.737819
  C     -2.124866    3.407161    0.811207
  O     -3.635872   -0.236166    0.570383
  C     -4.625795   -0.806702   -0.299775
  C     -4.255679   -2.208826   -0.738821
  H      5.560130    1.796932   -2.842503
  H      5.356243    2.193917   -1.128064
  H      6.135969    0.677875   -1.593556
  H      3.990443   -0.118820   -2.600727
  H      3.202491    1.400918   -2.095348
  H      1.400964   -1.857661    2.039661
  H      2.728776   -1.485702    3.174903
  H      0.382900    0.369565    2.497158
  H      0.576347   -0.544380    3.997608
  H      1.708775    0.761513    3.596682
  H     -0.395939   -2.496254   -1.696849
  H     -0.187439   -0.708351   -1.665441
  H     -3.431810    2.015674    1.838428
  H     -1.928355    2.410367    2.722118
  H     -2.609911    3.243764   -0.149254
  H     -2.521751    4.311398    1.261151
  H     -1.057473    3.527286    0.636220
  H     -5.537893   -0.797837    0.298412
  H     -4.740889   -0.151111   -1.168987
  H     -4.025815   -2.827788    0.124735
  H     -5.084837   -2.644517   -1.286831
  H     -3.383578   -2.171638   -1.390643

 Total Charge           Charge          ....    0
 Multiplicity           Mult            ....    1
 Number of Electrons    NEL             ....  202
 Basis Dimension        Dim             ....  539

ORBITAL ENERGIES
----------------

  NO   OCC          E(Eh)            E(eV)
   0   2.0000     -88.577873     -2410.3265
   1   2.0000     -88.575349     -2410.2578
   2   2.0000     -88.519174     -2408.7292
   3   2.0000     -88.512877     -2408.5578
   4   2.0000     -76.913818     -2092.9314
   5   2.0000     -76.909740     -2092.8204
   6   2.0000     -18.989624      -516.7339
   7   2.0000     -18.987589      -516.6786
   8   2.0000     -18.986484      -516.6485
   9   2.0000     -18.985623      -516.6251
  10   2.0000     -10.105036      -274.9720
  11   2.0000     -10.098125      -274.7839
  12   2.0000     -10.096661      -274.7441
  13   2.0000     -10.094813      -274.6938
  14   2.0000     -10.092485      -274.6305
  15   2.0000     -10.028644      -272.8933
  16   2.0000     -10.027137      -272.8523
  17   2.0000     -10.021494      -272.6987
  18   2.0000     -10.017917      -272.6014
  19   2.0000      -7.871974      -214.2073
  20   2.0000      -7.869821      -214.1487
  21   2.0000      -7.813942      -212.6282
  22   2.0000      -7.807623      -212.4562
  23   2.0000      -6.591968      -179.3766
  24   2.0000      -6.588070      -179.2705
  25   2.0000      -5.818981      -158.3425
  26   2.0000      -5.816600      -158.2777
  27   2.0000      -5.815473      -158.2471
  28   2.0000      -5.813785      -158.2011
  29   2.0000      -5.809356      -158.0806
  30   2.0000      -5.806883      -158.0133
  31   2.0000      -5.761633      -156.7820
  32   2.0000      -5.755341      -156.6108
  33   2.0000      -5.754447      -156.5865
  34   2.0000      -5.753680      -156.5656
  35   2.0000      -5.747833      -156.4065
  36   2.0000      -5.747642      -156.4013
  37   2.0000      -4.737602      -128.9167
  38   2.0000      -4.736750      -128.8935
  39   2.0000      -4.735765      -128.8667
  40   2.0000      -4.733542      -128.8062
  41   2.0000      -4.733333      -128.8005
  42   2.0000      -4.731505      -128.7508
  43   2.0000      -1.048812       -28.5396
  44   2.0000      -1.048271       -28.5249
  45   2.0000      -1.006925       -27.3998
  46   2.0000      -1.005208       -27.3531
  47   2.0000      -0.798181       -21.7196
  48   2.0000      -0.756925       -20.5970
  49   2.0000      -0.748311       -20.3626
  50   2.0000      -0.729694       -19.8560
  51   2.0000      -0.723627       -19.6909
  52   2.0000      -0.710193       -19.3253
  53   2.0000      -0.682931       -18.5835
  54   2.0000      -0.664332       -18.0774
  55   2.0000      -0.627782       -17.0828
  56   2.0000      -0.620807       -16.8930
  57   2.0000      -0.608193       -16.5498
  58   2.0000      -0.594376       -16.1738
  59   2.0000      -0.590027       -16.0554
  60   2.0000      -0.526122       -14.3165
  61   2.0000      -0.520699       -14.1689
  62   2.0000      -0.489945       -13.3321
  63   2.0000      -0.486017       -13.2252
  64   2.0000      -0.471460       -12.8291
  65   2.0000      -0.461908       -12.5692
  66   2.0000      -0.452782       -12.3208
  67   2.0000      -0.450604       -12.2616
  68   2.0000      -0.443031       -12.0555
  69   2.0000      -0.432482       -11.7684
  70   2.0000      -0.423319       -11.5191
  71   2.0000      -0.417725       -11.3669
  72   2.0000      -0.416533       -11.3344
  73   2.0000      -0.402422       -10.9505
  74   2.0000      -0.391812       -10.6617
  75   2.0000      -0.386414       -10.5149
  76   2.0000      -0.376394       -10.2422
  77   2.0000      -0.367567       -10.0020
  78   2.0000      -0.366551        -9.9744
  79   2.0000      -0.361324        -9.8321
  80   2.0000      -0.359303        -9.7771
  81   2.0000      -0.354572        -9.6484
  82   2.0000      -0.349687        -9.5155
  83   2.0000      -0.348502        -9.4832
  84   2.0000      -0.342682        -9.3248
  85   2.0000      -0.326534        -8.8854
  86   2.0000      -0.323274        -8.7967
  87   2.0000      -0.310659        -8.4534
  88   2.0000      -0.310227        -8.4417
  89   2.0000      -0.303777        -8.2662
  90   2.0000      -0.298837        -8.1318
  91   2.0000      -0.288914        -7.8618
  92   2.0000      -0.279029        -7.5928
  93   2.0000      -0.277272        -7.5450
  94   2.0000      -0.269764        -7.3407
  95   2.0000      -0.252212        -6.8630
  96   2.0000      -0.232040        -6.3141
  97   2.0000      -0.226777        -6.1709
  98   2.0000      -0.213711        -5.8154
  99   2.0000      -0.207980        -5.6594
 100   2.0000      -0.199694        -5.4339
 101   0.0000      -0.046741        -1.2719
 102   0.0000      -0.037534        -1.0214
 103   0.0000      -0.008916        -0.2426
 104   0.0000       0.006808         0.1853
 105   0.0000       0.016109         0.4384

MULLIKEN ATOMIC CHARGES
-----------------------
   0 C :   -0.442110
   1 C :   -0.142551
   2 O :   -0.301036
   3 P :    0.691884
   4 S :   -0.431821
   5 O :   -0.282364
   6 C :   -0.138829
   7 C :   -0.436333
   8 S :   -0.154826
   9 C :   -0.216672
  10 S :   -0.137443
  11 P :    0.694921
  12 S :   -0.458975
  13 O :   -0.282465
  14 C :   -0.170105
  15 C :   -0.430387
  16 O :   -0.303503
  17 C :   -0.157579
  18 C :   -0.440317
  19 H :    0.144701
  20 H :    0.158830
  21 H :    0.152738
  22 H :    0.148273
  23 H :    0.170756
  24 H :    0.153407
  25 H :    0.148695
  26 H :    0.184300
  27 H :    0.142901
  28 H :    0.148553
  29 H :    0.188101
  30 H :    0.219549
  31 H :    0.158085
  32 H :    0.150715
  33 H :    0.170650
  34 H :    0.143348
  35 H :    0.167232
  36 H :    0.146226
  37 H :    0.173872
  38 H :    0.157376
  39 H :    0.147173
  40 H :    0.165032
Sum of atomic charges:    0.0000000

LOEWDIN ATOMIC CHARGES
----------------------
   0 C :   -0.386000
   1 C :    0.020237
   2 O :   -0.655625
   3 P :    0.382932
   4 S :   -0.085475
   5 O :   -0.643013
   6 C :    0.022601
   7 C :   -0.407413
   8 S :    0.135454
   9 C :   -0.420356
  10 S :    0.157643
  11 P :    0.382085
  12 S :   -0.124797
  13 O :   -0.687781
  14 C :    0.031115
  15 C :   -0.403367
  16 O :   -0.676729
  17 C :    0.016912
  18 C :   -0.405857
  19 H :    0.158951
  20 H :    0.161596
  21 H :    0.159290
  22 H :    0.170672
  23 H :    0.181439
  24 H :    0.174710
  25 H :    0.178665
  26 H :    0.178713
  27 H :    0.158355
  28 H :    0.159173
  29 H :    0.177808
  30 H :    0.201626
  31 H :    0.175226
  32 H :    0.181184
  33 H :    0.166135
  34 H :    0.156507
  35 H :    0.167609
  36 H :    0.178334
  37 H :    0.179983
  38 H :    0.161282
  39 H :    0.158465
  40 H :    0.161710

  Mayer bond orders larger than 0.100000
B(  0-C ,  1-C ) :   0.9612 B(  0-C , 19-H ) :   0.9651 B(  0-C , 20-H ) :   0.9719
B(  0-C , 21-H ) :   0.9720 B(  1-C ,  2-O ) :   0.7776 B(  1-C , 22-H ) :   0.9474
B(  1-C , 23-H ) :   0.9514 B(  2-O ,  3-P ) :   1.1318 B(  3-P ,  4-S ) :   1.7502
B(  3-P ,  5-O ) :   1.1608 B(  3-P ,  8-S ) :   1.0301 B(  5-O ,  6-C ) :   0.7949
B(  6-C ,  7-C ) :   0.9449 B(  6-C , 24-H ) :   0.9592 B(  6-C , 25-H ) :   0.9649
B(  7-C , 26-H ) :   0.9472 B(  7-C , 27-H ) :   0.9672 B(  7-C , 28-H ) :   0.9693
B(  8-S ,  9-C ) :   0.9251 B(  9-C , 10-S ) :   0.8805 B(  9-C , 29-H ) :   0.9138
B(  9-C , 30-H ) :   0.9006 B( 10-S , 11-P ) :   1.1091 B( 11-P , 12-S ) :   1.7415
B( 11-P , 13-O ) :   1.1522 B( 11-P , 16-O ) :   1.0492 B( 13-O , 14-C ) :   0.7830
B( 14-C , 15-C ) :   0.9330 B( 14-C , 31-H ) :   0.9685 B( 14-C , 32-H ) :   0.9624
B( 15-C , 33-H ) :   0.9552 B( 15-C , 34-H ) :   0.9644 B( 15-C , 35-H ) :   0.9677
B( 16-O , 17-C ) :   0.8252 B( 17-C , 18-C ) :   0.9197 B( 17-C , 36-H ) :   0.9579
B( 17-C , 37-H ) :   0.9661 B( 18-C , 38-H ) :   0.9670 B( 18-C , 39-H ) :   0.9608
B( 18-C , 40-H ) :   0.9672

Dispersion correction           -0.021798930
FINAL SINGLE POINT ENERGY     -2932.457146984193

DIPOLE MOMENT
-------------

Method             : SCF
Type of density    : Electron Density
Multiplicity       :   1
Irrep              :   0
Energy             : -2932.4820829487171068 Eh
Relativity type    :
Basis              : AO
                                X                 Y                 Z
Electronic contribution:      3.203389102      -6.943898127      -3.865389695
Nuclear contribution   :     -3.739972093       6.479485831       4.336734854
                        -----------------------------------------
Total Dipole Moment    :     -0.536582991      -0.464412296       0.471345159
                        -----------------------------------------
Magnitude (a.u.)       :      0.851919213
Magnitude (Debye)      :      2.165406551

Rotational constants in cm-1:             0.012173             0.005028             0.004843
Rotational constants in MHz :           364.934938           150.739176           145.191628

                             ****ORCA TERMINATED NORMALLY****
TOTAL RUN TIME: 0 days 0 hours 1 minutes 22 seconds 493 msec
