                         Program Version 6.0.0  -   RELEASE  -
|  1> ! r2scan-3c def2/J RI DEFGRID2 scfconv6 printgap
|  2> %output
|  3>     printlevel normal
|  4> end
|  5> %cpcm
|  6>     smd true
|  7>     smdsolvent "water"
|  8> end
|  9> * xyz 0 1
| 10> C 5.3586826783 1.3887953461 -1.8574894144
| 11> C 4.0110807243 0.6952460285 -1.8712903588
| 12> O 3.7886754105 0.1263517707 -0.566074891
| 13> P 2.3332408568 -0.101052682 0.0028282642
| 14> S 1.1095064974 1.4139510813 -0.280075892
| 15> O 2.8058432568 -0.4338999393 1.4727068088
| 16> C 1.9974620547 -1.0557959892 2.4878150301
| 17> C 1.1087730586 -0.0492028211 3.1919318988
| 18> S 1.7209052446 -1.9514143749 -0.8547393667
| 19> C -0.0409235412 -1.6453650134 -1.1210709399
| 20> S -0.9843737073 -1.5537448766 0.4427364286
| 21> P -2.1720041784 0.1481850433 0.0663861199
| 22> S -2.1621342659 0.8470181246 -1.7720197561
| 23> O -1.6908145503 1.0410264414 1.2818719721
| 24> C -2.3654971545 2.2322660017 1.7378191163
| 25> C -2.1248661257 3.4071614622 0.8112072514
| 26> O -3.6358718392 -0.2361659145 0.5703833805
| 27> C -4.6257948532 -0.8067015931 -0.2997747178
| 28> C -4.2556787817 -2.2088257345 -0.7388214331
| 29> H 5.5601295796 1.7969319118 -2.8425029786
| 30> H 5.3562425758 2.1939169498 -1.1280641278
| 31> H 6.1359685549 0.6778749032 -1.5935557604
| 32> H 3.9904428338 -0.1188202139 -2.6007265344
| 33> H 3.2024906913 1.4009179993 -2.0953477365
| 34> H 1.4009635136 -1.8576611261 2.0396614929
| 35> H 2.7287762004 -1.4857022835 3.1749029926
| 36> H 0.3828999702 0.3695649781 2.4971580391
| 37> H 0.576346728 -0.5443804148 3.9976082348
| 38> H 1.7087753282 0.7615133305 3.5966820628
| 39> H -0.395938821 -2.4962541274 -1.6968493308
| 40> H -0.1874392281 -0.7083508132 -1.6654408095
| 41> H -3.4318104841 2.0156740691 1.8384278793
| 42> H -1.9283545684 2.4103672176 2.7221182578
| 43> H -2.6099107647 3.243764162 -0.149254125
| 44> H -2.5217509772 4.3113982858 1.2611509978
| 45> H -1.0574728515 3.5272862091 0.6362201016
| 46> H -5.5378929097 -0.7978367211 0.2984117216
| 47> H -4.7408892804 -0.1511108345 -1.1689866639
| 48> H -4.0258148305 -2.8277883419 0.1247351781
| 49> H -5.0848370362 -2.6445166035 -1.2868310746
| 50> H -3.3835783444 -2.1716377634 -1.3906427557
| 51> *
| 52>
| 53>                          ****END OF INPUT****

CARTESIAN COORDINATES (ANGSTROEM)
---------------------------------
  C      5.358683    1.388795   -1.857489
  C      4.011081    0.695246   -1.871290
  O      3.788675    0.126352   -0.566075
  P      2.333241   -0.101053    0.002828
  S      1.109506    1.413951   -0.280076
  O      2.805843   -0.433900    1.472707
  C      1.997462   -1.055796    2.487815
  C      1.108773   -0.049203    3.191932
  S      1.720905   -1.951414   -0.854739
  C     -0.040924   -1.645365   -1.121071
  S     -0.984374   -1.553745    0.442736
  P     -2.172004    0.148185    0.066386
  S     -2.162134    0.847018   -1.772020
  O     -1.690815    1.041026    1.281872
  C     -2.365497    2.232266    1.737819
  C     -2.124866    3.407161    0.811207
  O     -3.635872   -0.236166    0.570383
  C     -4.625795   -0.806702   -0.299775
  C     -4.255679   -2.208826   -0.738821
  H      5.560130    1.796932   -2.842503
  H      5.356243    2.193917   -1.128064
  H      6.135969    0.677875   -1.593556
  H      3.990443   -0.118820   -2.600727
  H      3.202491    1.400918   -2.095348
  H      1.400964   -1.857661    2.039661
  H      2.728776   -1.485702    3.174903
  H      0.382900    0.369565    2.497158
  H      0.576347   -0.544380    3.997608
  H      1.708775    0.761513    3.596682
  H     -0.395939   -2.496254   -1.696849
  H     -0.187439   -0.708351   -1.665441
  H     -3.431810    2.015674    1.838428
  H     -1.928355    2.410367    2.722118
  H     -2.609911    3.243764   -0.149254
  H     -2.521751    4.311398    1.261151
  H     -1.057473    3.527286    0.636220
  H     -5.537893   -0.797837    0.298412
  H     -4.740889   -0.151111   -1.168987
  H     -4.025815   -2.827788    0.124735
  H     -5.084837   -2.644517   -1.286831
  H     -3.383578   -2.171638   -1.390643

 Total Charge           Charge          ....    0
 Multiplicity           Mult            ....    1
 Number of Electrons    NEL             ....  202
 Basis Dimension        Dim             ....  539

ORBITAL ENERGIES
----------------

  NO   OCC          E(Eh)            E(eV)
   0   2.0000     -88.582636     -2410.4561
   1   2.0000     -88.577231     -2410.3090
   2   2.0000     -88.525414     -2408.8990
   3   2.0000     -88.523419     -2408.8447
   4   2.0000     -76.918011     -2093.0455
   5   2.0000     -76.917465     -2093.0306
   6   2.0000     -18.994893      -516.8773
   7   2.0000     -18.993436      -516.8377
   8   2.0000     -18.990625      -516.7612
   9   2.0000     -18.988845      -516.7127
  10   2.0000     -10.103851      -274.9398
  11   2.0000     -10.091105      -274.5929
  12   2.0000     -10.089272      -274.5431
  13   2.0000     -10.088768      -274.5293
  14   2.0000     -10.086863      -274.4775
  15   2.0000     -10.018948      -272.6294
  16   2.0000     -10.017252      -272.5833
  17   2.0000     -10.015998      -272.5492
  18   2.0000     -10.014759      -272.5154
  19   2.0000      -7.876683      -214.3354
  20   2.0000      -7.871702      -214.1999
  21   2.0000      -7.820499      -212.8066
  22   2.0000      -7.818366      -212.7486
  23   2.0000      -6.596500      -179.4999
  24   2.0000      -6.595654      -179.4769
  25   2.0000      -5.823701      -158.4710
  26   2.0000      -5.820200      -158.3757
  27   2.0000      -5.818501      -158.3295
  28   2.0000      -5.815680      -158.2527
  29   2.0000      -5.814058      -158.2086
  30   2.0000      -5.808734      -158.0637
  31   2.0000      -5.768118      -156.9585
  32   2.0000      -5.766014      -156.9012
  33   2.0000      -5.760972      -156.7640
  34   2.0000      -5.760284      -156.7453
  35   2.0000      -5.758568      -156.6986
  36   2.0000      -5.758422      -156.6946
  37   2.0000      -4.741932      -129.0345
  38   2.0000      -4.741791      -129.0307
  39   2.0000      -4.741243      -129.0158
  40   2.0000      -4.740409      -128.9931
  41   2.0000      -4.739947      -128.9805
  42   2.0000      -4.739556      -128.9699
  43   2.0000      -1.056405       -28.7462
  44   2.0000      -1.049589       -28.5608
  45   2.0000      -1.012406       -27.5490
  46   2.0000      -1.007132       -27.4055
  47   2.0000      -0.799699       -21.7609
  48   2.0000      -0.756454       -20.5842
  49   2.0000      -0.745185       -20.2775
  50   2.0000      -0.721707       -19.6387
  51   2.0000      -0.720150       -19.5963
  52   2.0000      -0.710164       -19.3246
  53   2.0000      -0.688226       -18.7276
  54   2.0000      -0.670373       -18.2418
  55   2.0000      -0.627612       -17.0782
  56   2.0000      -0.621155       -16.9025
  57   2.0000      -0.602440       -16.3932
  58   2.0000      -0.593348       -16.1458
  59   2.0000      -0.587798       -15.9948
  60   2.0000      -0.526266       -14.3204
  61   2.0000      -0.516499       -14.0547
  62   2.0000      -0.492502       -13.4016
  63   2.0000      -0.481965       -13.1149
  64   2.0000      -0.470425       -12.8009
  65   2.0000      -0.463771       -12.6198
  66   2.0000      -0.453667       -12.3449
  67   2.0000      -0.445607       -12.1256
  68   2.0000      -0.441200       -12.0057
  69   2.0000      -0.428915       -11.6714
  70   2.0000      -0.422369       -11.4932
  71   2.0000      -0.418454       -11.3867
  72   2.0000      -0.415945       -11.3184
  73   2.0000      -0.398617       -10.8469
  74   2.0000      -0.391869       -10.6633
  75   2.0000      -0.384841       -10.4721
  76   2.0000      -0.377091       -10.2612
  77   2.0000      -0.363219        -9.8837
  78   2.0000      -0.361603        -9.8397
  79   2.0000      -0.357639        -9.7319
  80   2.0000      -0.355528        -9.6744
  81   2.0000      -0.350563        -9.5393
  82   2.0000      -0.346562        -9.4304
  83   2.0000      -0.344562        -9.3760
  84   2.0000      -0.341362        -9.2889
  85   2.0000      -0.327042        -8.8993
  86   2.0000      -0.322072        -8.7640
  87   2.0000      -0.312155        -8.4942
  88   2.0000      -0.307827        -8.3764
  89   2.0000      -0.301010        -8.1909
  90   2.0000      -0.297569        -8.0973
  91   2.0000      -0.287858        -7.8330
  92   2.0000      -0.281999        -7.6736
  93   2.0000      -0.278916        -7.5897
  94   2.0000      -0.274465        -7.4686
  95   2.0000      -0.255642        -6.9564
  96   2.0000      -0.238604        -6.4927
  97   2.0000      -0.233407        -6.3513
  98   2.0000      -0.219658        -5.9772
  99   2.0000      -0.216983        -5.9044
 100   2.0000      -0.209532        -5.7017
 101   0.0000      -0.051889        -1.4120
 102   0.0000      -0.041716        -1.1351
 103   0.0000      -0.012838        -0.3493
 104   0.0000       0.001558         0.0424
 105   0.0000       0.011578         0.3150

MULLIKEN ATOMIC CHARGES
-----------------------
   0 C :   -0.482967
   1 C :   -0.137834
   2 O :   -0.330883
   3 P :    0.707149
   4 S :   -0.474694
   5 O :   -0.315625
   6 C :   -0.125650
   7 C :   -0.486715
   8 S :   -0.159148
   9 C :   -0.214801
  10 S :   -0.139124
  11 P :    0.737437
  12 S :   -0.517033
  13 O :   -0.304777
  14 C :   -0.163937
  15 C :   -0.472107
  16 O :   -0.329711
  17 C :   -0.157203
  18 C :   -0.475474
  19 H :    0.168980
  20 H :    0.165959
  21 H :    0.165470
  22 H :    0.170871
  23 H :    0.171405
  24 H :    0.161482
  25 H :    0.175499
  26 H :    0.174273
  27 H :    0.171008
  28 H :    0.164014
  29 H :    0.230856
  30 H :    0.214531
  31 H :    0.173881
  32 H :    0.175819
  33 H :    0.168921
  34 H :    0.169274
  35 H :    0.165706
  36 H :    0.172595
  37 H :    0.176327
  38 H :    0.166586
  39 H :    0.170988
  40 H :    0.168652
Sum of atomic charges:    0.0000000

LOEWDIN ATOMIC CHARGES
----------------------
   0 C :   -0.390197
   1 C :    0.023824
   2 O :   -0.675703
   3 P :    0.382511
   4 S :   -0.113523
   5 O :   -0.662830
   6 C :    0.027560
   7 C :   -0.411928
   8 S :    0.139095
   9 C :   -0.412776
  10 S :    0.160235
  11 P :    0.388639
  12 S :   -0.160024
  13 O :   -0.698037
  14 C :    0.036034
  15 C :   -0.407574
  16 O :   -0.685818
  17 C :    0.021655
  18 C :   -0.408918
  19 H :    0.168567
  20 H :    0.162254
  21 H :    0.162741
  22 H :    0.179890
  23 H :    0.181807
  24 H :    0.178449
  25 H :    0.190125
  26 H :    0.172486
  27 H :    0.168666
  28 H :    0.162206
  29 H :    0.194632
  30 H :    0.199565
  31 H :    0.182355
  32 H :    0.190700
  33 H :    0.162513
  34 H :    0.166110
  35 H :    0.163662
  36 H :    0.189291
  37 H :    0.180704
  38 H :    0.163361
  39 H :    0.167047
  40 H :    0.160641

  Mayer bond orders larger than 0.100000
B(  0-C ,  1-C ) :   0.9556 B(  0-C , 19-H ) :   0.9589 B(  0-C , 20-H ) :   0.9701
B(  0-C , 21-H ) :   0.9693 B(  1-C ,  2-O ) :   0.7706 B(  1-C , 22-H ) :   0.9380
B(  1-C , 23-H ) :   0.9486 B(  2-O ,  3-P ) :   1.1277 B(  3-P ,  4-S ) :   1.7315
B(  3-P ,  5-O ) :   1.1564 B(  3-P ,  8-S ) :   1.0502 B(  5-O ,  6-C ) :   0.7856
B(  6-C ,  7-C ) :   0.9239 B(  6-C , 24-H ) :   0.9540 B(  6-C , 25-H ) :   0.9547
B(  7-C , 26-H ) :   0.9536 B(  7-C , 27-H ) :   0.9616 B(  7-C , 28-H ) :   0.9695
B(  8-S ,  9-C ) :   0.9188 B(  9-C , 10-S ) :   0.8778 B(  9-C , 29-H ) :   0.8983
B(  9-C , 30-H ) :   0.9042 B( 10-S , 11-P ) :   1.1240 B( 11-P , 12-S ) :   1.6835
B( 11-P , 13-O ) :   1.1639 B( 11-P , 16-O ) :   1.0588 B( 13-O , 14-C ) :   0.7766
B( 14-C , 15-C ) :   0.9172 B( 14-C , 31-H ) :   0.9600 B( 14-C , 32-H ) :   0.9552
B( 15-C , 33-H ) :   0.9601 B( 15-C , 34-H ) :   0.9587 B( 15-C , 35-H ) :   0.9706
B( 16-O , 17-C ) :   0.8135 B( 17-C , 18-C ) :   0.9084 B( 17-C , 36-H ) :   0.9488
B( 17-C , 37-H ) :   0.9645 B( 18-C , 38-H ) :   0.9656 B( 18-C , 39-H ) :   0.9557
B( 18-C , 40-H ) :   0.9657

Dispersion correction           -0.021798930
FINAL SINGLE POINT ENERGY     -2932.464016745095

DIPOLE MOMENT
-------------

Method             : SCF
Type of density    : Electron Density
Multiplicity       :   1
Irrep              :   0
Energy             : -2932.4889527096188431 Eh
Relativity type    :
Basis              : AO
                                X                 Y                 Z
Electronic contribution:      2.862495527      -7.391277966      -3.739898120
Nuclear contribution   :     -3.739972093       6.479485831       4.336734854
                        -----------------------------------------
Total Dipole Moment    :     -0.877476566      -0.911792135       0.596836734
                        -----------------------------------------
Magnitude (a.u.)       :      1.399122621
Magnitude (Debye)      :      3.556287080

Rotational constants in cm-1:             0.012173             0.005028             0.004843
Rotational constants in MHz :           364.934938           150.739176           145.191628

                             ****ORCA TERMINATED NORMALLY****
TOTAL RUN TIME: 0 days 0 hours 1 minutes 43 seconds 244 msec
