                         Program Version 6.0.0  -   RELEASE  -
|  1> ! r2scan-3c def2/J RI DEFGRID2 scfconv6 printgap
|  2> %output
|  3>     printlevel normal
|  4> end
|  5> * xyz 0 1
|  6> C 4.3124452508 -2.4833533504 0.0890395577
|  7> C 4.7357331668 -1.0291938418 0.1339970878
|  8> O 3.6826131458 -0.172827282 0.6087136949
|  9> P 2.3585249267 0.0954840658 -0.2284893406
| 10> S 2.6161075851 0.2801201081 -2.1677622394
| 11> O 1.7558998607 1.3532433756 0.5246258769
| 12> C 1.9985582854 2.703918659 0.0870428923
| 13> C 3.4430105412 3.1086834992 0.2930257304
| 14> S 1.0063205641 -1.38488539 0.4260459005
| 15> C -0.1913821637 -1.1618691487 -0.9161048717
| 16> S -1.0315574775 0.4511536043 -0.8916912591
| 17> P -2.6720145893 -0.1134357659 0.3459172155
| 18> S -3.9887820671 1.2791753881 0.7405867159
| 19> O -1.9985448671 -0.8380753637 1.5870355406
| 20> C -1.8244978952 -0.1748846975 2.8515651182
| 21> C -0.832813064 0.96854317 2.7728023464
| 22> O -3.2390535663 -1.4305615068 -0.3423034695
| 23> C -4.3147454516 -1.3767999414 -1.296144763
| 24> C -3.8835891726 -0.762473859 -2.6134441549
| 25> H 5.1712336041 -3.1002335015 -0.1556095119
| 26> H 3.9089011117 -2.7894732755 1.0509387938
| 27> H 3.5474585261 -2.6252337377 -0.6732517882
| 28> H 5.0378571794 -0.6867356635 -0.8610252709
| 29> H 5.5464925605 -0.8666297677 0.8453738839
| 30> H 1.7171940071 2.7814283027 -0.9682534966
| 31> H 1.3172867846 3.3029716612 0.692752346
| 32> H 3.7348747116 2.9440552978 1.3269075816
| 33> H 4.0888282513 2.5164343749 -0.354426347
| 34> H 3.5621597653 4.1585925972 0.0446344479
| 35> H -0.9261446364 -1.9569618547 -0.8170380368
| 36> H 0.3336630595 -1.2140969699 -1.8696626662
| 37> H -2.7997732241 0.1922117108 3.1863755719
| 38> H -1.4746745114 -0.9669857029 3.514799415
| 39> H -0.7138085686 1.4088591798 3.7576210778
| 40> H 0.1339025438 0.6187645793 2.4183660431
| 41> H -1.2041230436 1.7312884144 2.0874645933
| 42> H -4.6119808575 -2.4197103009 -1.4150467988
| 43> H -5.1380798605 -0.803537337 -0.8584190064
| 44> H -3.0259681311 -1.291460591 -3.0216003364
| 45> H -4.7063652181 -0.8173122179 -3.3191262269
| 46> H -3.6150404079 0.2833822733 -2.466553181
| 47> *
| 48>
| 49>                          ****END OF INPUT****

CARTESIAN COORDINATES (ANGSTROEM)
---------------------------------
  C      4.312445   -2.483353    0.089040
  C      4.735733   -1.029194    0.133997
  O      3.682613   -0.172827    0.608714
  P      2.358525    0.095484   -0.228489
  S      2.616108    0.280120   -2.167762
  O      1.755900    1.353243    0.524626
  C      1.998558    2.703919    0.087043
  C      3.443011    3.108683    0.293026
  S      1.006321   -1.384885    0.426046
  C     -0.191382   -1.161869   -0.916105
  S     -1.031557    0.451154   -0.891691
  P     -2.672015   -0.113436    0.345917
  S     -3.988782    1.279175    0.740587
  O     -1.998545   -0.838075    1.587036
  C     -1.824498   -0.174885    2.851565
  C     -0.832813    0.968543    2.772802
  O     -3.239054   -1.430562   -0.342303
  C     -4.314745   -1.376800   -1.296145
  C     -3.883589   -0.762474   -2.613444
  H      5.171234   -3.100234   -0.155610
  H      3.908901   -2.789473    1.050939
  H      3.547459   -2.625234   -0.673252
  H      5.037857   -0.686736   -0.861025
  H      5.546493   -0.866630    0.845374
  H      1.717194    2.781428   -0.968253
  H      1.317287    3.302972    0.692752
  H      3.734875    2.944055    1.326908
  H      4.088828    2.516434   -0.354426
  H      3.562160    4.158593    0.044634
  H     -0.926145   -1.956962   -0.817038
  H      0.333663   -1.214097   -1.869663
  H     -2.799773    0.192212    3.186376
  H     -1.474675   -0.966986    3.514799
  H     -0.713809    1.408859    3.757621
  H      0.133903    0.618765    2.418366
  H     -1.204123    1.731288    2.087465
  H     -4.611981   -2.419710   -1.415047
  H     -5.138080   -0.803537   -0.858419
  H     -3.025968   -1.291461   -3.021600
  H     -4.706365   -0.817312   -3.319126
  H     -3.615040    0.283382   -2.466553

 Total Charge           Charge          ....    0
 Multiplicity           Mult            ....    1
 Number of Electrons    NEL             ....  202
 Basis Dimension        Dim             ....  539

ORBITAL ENERGIES
----------------

  NO   OCC          E(Eh)            E(eV)
   0   2.0000     -88.578001     -2410.3300
   1   2.0000     -88.573124     -2410.1972
   2   2.0000     -88.527108     -2408.9451
   3   2.0000     -88.522635     -2408.8234
   4   2.0000     -76.917950     -2093.0438
   5   2.0000     -76.913538     -2092.9238
   6   2.0000     -18.997819      -516.9569
   7   2.0000     -18.991456      -516.7838
   8   2.0000     -18.990206      -516.7498
   9   2.0000     -18.987744      -516.6828
  10   2.0000     -10.108290      -275.0605
  11   2.0000     -10.103038      -274.9176
  12   2.0000     -10.098136      -274.7842
  13   2.0000     -10.097763      -274.7741
  14   2.0000     -10.094423      -274.6832
  15   2.0000     -10.032571      -273.0001
  16   2.0000     -10.029813      -272.9251
  17   2.0000     -10.027904      -272.8731
  18   2.0000     -10.018731      -272.6235
  19   2.0000      -7.872494      -214.2215
  20   2.0000      -7.867055      -214.0735
  21   2.0000      -7.821764      -212.8410
  22   2.0000      -7.817248      -212.7181
  23   2.0000      -6.596574      -179.5019
  24   2.0000      -6.591968      -179.3766
  25   2.0000      -5.819319      -158.3517
  26   2.0000      -5.816422      -158.2729
  27   2.0000      -5.814297      -158.2151
  28   2.0000      -5.810757      -158.1187
  29   2.0000      -5.809557      -158.0861
  30   2.0000      -5.804041      -157.9360
  31   2.0000      -5.769316      -156.9911
  32   2.0000      -5.764899      -156.8709
  33   2.0000      -5.762072      -156.7939
  34   2.0000      -5.761861      -156.7882
  35   2.0000      -5.757469      -156.6687
  36   2.0000      -5.757337      -156.6651
  37   2.0000      -4.741936      -129.0346
  38   2.0000      -4.741430      -129.0209
  39   2.0000      -4.740488      -128.9952
  40   2.0000      -4.737260      -128.9074
  41   2.0000      -4.737173      -128.9050
  42   2.0000      -4.735627      -128.8630
  43   2.0000      -1.053704       -28.6727
  44   2.0000      -1.050243       -28.5786
  45   2.0000      -1.014815       -27.6145
  46   2.0000      -1.009074       -27.4583
  47   2.0000      -0.802220       -21.8295
  48   2.0000      -0.758582       -20.6421
  49   2.0000      -0.748533       -20.3686
  50   2.0000      -0.733908       -19.9706
  51   2.0000      -0.724379       -19.7113
  52   2.0000      -0.713945       -19.4274
  53   2.0000      -0.692329       -18.8392
  54   2.0000      -0.671201       -18.2643
  55   2.0000      -0.636303       -17.3147
  56   2.0000      -0.627192       -17.0668
  57   2.0000      -0.608318       -16.5532
  58   2.0000      -0.601049       -16.3554
  59   2.0000      -0.591833       -16.1046
  60   2.0000      -0.521603       -14.1935
  61   2.0000      -0.518195       -14.1008
  62   2.0000      -0.496302       -13.5051
  63   2.0000      -0.484121       -13.1736
  64   2.0000      -0.479219       -13.0402
  65   2.0000      -0.463184       -12.6039
  66   2.0000      -0.461747       -12.5648
  67   2.0000      -0.459446       -12.5021
  68   2.0000      -0.439554       -11.9609
  69   2.0000      -0.437606       -11.9079
  70   2.0000      -0.426560       -11.6073
  71   2.0000      -0.414507       -11.2793
  72   2.0000      -0.413294       -11.2463
  73   2.0000      -0.409071       -11.1314
  74   2.0000      -0.404147       -10.9974
  75   2.0000      -0.393468       -10.7068
  76   2.0000      -0.384388       -10.4597
  77   2.0000      -0.375474       -10.2172
  78   2.0000      -0.368496       -10.0273
  79   2.0000      -0.365407        -9.9432
  80   2.0000      -0.361555        -9.8384
  81   2.0000      -0.361026        -9.8240
  82   2.0000      -0.356543        -9.7020
  83   2.0000      -0.348673        -9.4879
  84   2.0000      -0.345248        -9.3947
  85   2.0000      -0.334051        -9.0900
  86   2.0000      -0.329140        -8.9564
  87   2.0000      -0.314933        -8.5698
  88   2.0000      -0.313143        -8.5211
  89   2.0000      -0.302430        -8.2295
  90   2.0000      -0.300015        -8.1638
  91   2.0000      -0.291847        -7.9416
  92   2.0000      -0.284430        -7.7397
  93   2.0000      -0.280637        -7.6365
  94   2.0000      -0.271326        -7.3832
  95   2.0000      -0.243969        -6.6387
  96   2.0000      -0.230547        -6.2735
  97   2.0000      -0.227409        -6.1881
  98   2.0000      -0.222440        -6.0529
  99   2.0000      -0.220389        -5.9971
 100   2.0000      -0.217454        -5.9172
 101   0.0000      -0.045083        -1.2268
 102   0.0000      -0.027018        -0.7352
 103   0.0000      -0.013668        -0.3719
 104   0.0000       0.005190         0.1412
 105   0.0000       0.006651         0.1810

MULLIKEN ATOMIC CHARGES
-----------------------
   0 C :   -0.454108
   1 C :   -0.148841
   2 O :   -0.303667
   3 P :    0.665521
   4 S :   -0.478534
   5 O :   -0.272855
   6 C :   -0.149574
   7 C :   -0.442169
   8 S :   -0.098593
   9 C :   -0.244841
  10 S :   -0.128659
  11 P :    0.668191
  12 S :   -0.452756
  13 O :   -0.293125
  14 C :   -0.139941
  15 C :   -0.456703
  16 O :   -0.313980
  17 C :   -0.156897
  18 C :   -0.428636
  19 H :    0.148985
  20 H :    0.156305
  21 H :    0.176729
  22 H :    0.171538
  23 H :    0.149519
  24 H :    0.173337
  25 H :    0.155797
  26 H :    0.156510
  27 H :    0.165897
  28 H :    0.148246
  29 H :    0.207629
  30 H :    0.218713
  31 H :    0.165607
  32 H :    0.148104
  33 H :    0.144108
  34 H :    0.179459
  35 H :    0.170011
  36 H :    0.148778
  37 H :    0.173099
  38 H :    0.148922
  39 H :    0.147362
  40 H :    0.175514
Sum of atomic charges:    0.0000000

LOEWDIN ATOMIC CHARGES
----------------------
   0 C :   -0.406466
   1 C :    0.020416
   2 O :   -0.659801
   3 P :    0.375147
   4 S :   -0.129405
   5 O :   -0.682062
   6 C :    0.020319
   7 C :   -0.398808
   8 S :    0.176112
   9 C :   -0.414542
  10 S :    0.167997
  11 P :    0.374863
  12 S :   -0.108984
  13 O :   -0.665553
  14 C :    0.021540
  15 C :   -0.410197
  16 O :   -0.677984
  17 C :    0.021102
  18 C :   -0.403942
  19 H :    0.159840
  20 H :    0.160560
  21 H :    0.165386
  22 H :    0.179521
  23 H :    0.180121
  24 H :    0.181193
  25 H :    0.182190
  26 H :    0.160937
  27 H :    0.164019
  28 H :    0.159999
  29 H :    0.196129
  30 H :    0.192436
  31 H :    0.178865
  32 H :    0.180939
  33 H :    0.157454
  34 H :    0.171504
  35 H :    0.165843
  36 H :    0.179473
  37 H :    0.180572
  38 H :    0.157551
  39 H :    0.159177
  40 H :    0.166537

  Mayer bond orders larger than 0.100000
B(  0-C ,  1-C ) :   0.9220 B(  0-C , 19-H ) :   0.9584 B(  0-C , 20-H ) :   0.9684
B(  0-C , 21-H ) :   0.9626 B(  1-C ,  2-O ) :   0.8132 B(  1-C , 22-H ) :   0.9669
B(  1-C , 23-H ) :   0.9579 B(  2-O ,  3-P ) :   1.0650 B(  3-P ,  4-S ) :   1.7497
B(  3-P ,  5-O ) :   1.1410 B(  3-P ,  8-S ) :   1.1026 B(  5-O ,  6-C ) :   0.7928
B(  6-C ,  7-C ) :   0.9215 B(  6-C , 24-H ) :   0.9640 B(  6-C , 25-H ) :   0.9611
B(  7-C , 26-H ) :   0.9721 B(  7-C , 27-H ) :   0.9604 B(  7-C , 28-H ) :   0.9618
B(  8-S ,  9-C ) :   0.9172 B(  9-C , 10-S ) :   0.8924 B(  9-C , 29-H ) :   0.9122
B(  9-C , 30-H ) :   0.9117 B( 10-S , 11-P ) :   1.0670 B( 11-P , 12-S ) :   1.8251
B( 11-P , 13-O ) :   1.0943 B( 11-P , 16-O ) :   1.0713 B( 13-O , 14-C ) :   0.7995
B( 14-C , 15-C ) :   0.9243 B( 14-C , 31-H ) :   0.9632 B( 14-C , 32-H ) :   0.9613
B( 15-C , 33-H ) :   0.9615 B( 15-C , 34-H ) :   0.9577 B( 15-C , 35-H ) :   0.9604
B( 16-O , 17-C ) :   0.8170 B( 17-C , 18-C ) :   0.9258 B( 17-C , 36-H ) :   0.9600
B( 17-C , 37-H ) :   0.9664 B( 18-C , 38-H ) :   0.9680 B( 18-C , 39-H ) :   0.9605
B( 18-C , 40-H ) :   0.9619

Dispersion correction           -0.021702781
FINAL SINGLE POINT ENERGY     -2932.463699586240

DIPOLE MOMENT
-------------

Method             : SCF
Type of density    : Electron Density
Multiplicity       :   1
Irrep              :   0
Energy             : -2932.4886493837275339 Eh
Relativity type    :
Basis              : AO
                                X                 Y                 Z
Electronic contribution:     -8.677550012      -0.986537098      -1.655838707
Nuclear contribution   :      9.596336184       0.356724766       1.997675168
                        -----------------------------------------
Total Dipole Moment    :      0.918786172      -0.629812332       0.341836461
                        -----------------------------------------
Magnitude (a.u.)       :      1.165196880
Magnitude (Debye)      :      2.961695099

Rotational constants in cm-1:             0.013119             0.004625             0.004398
Rotational constants in MHz :           393.287575           138.647816           131.837555

                             ****ORCA TERMINATED NORMALLY****
TOTAL RUN TIME: 0 days 0 hours 1 minutes 22 seconds 906 msec
