                         Program Version 6.0.0  -   RELEASE  -
|  1> ! r2scan-3c def2/J RI DEFGRID2 scfconv6 printgap
|  2> %output
|  3>     printlevel normal
|  4> end
|  5> %cpcm
|  6>     smd true
|  7>     smdsolvent "water"
|  8> end
|  9> * xyz 0 1
| 10> C 4.3124452508 -2.4833533504 0.0890395577
| 11> C 4.7357331668 -1.0291938418 0.1339970878
| 12> O 3.6826131458 -0.172827282 0.6087136949
| 13> P 2.3585249267 0.0954840658 -0.2284893406
| 14> S 2.6161075851 0.2801201081 -2.1677622394
| 15> O 1.7558998607 1.3532433756 0.5246258769
| 16> C 1.9985582854 2.703918659 0.0870428923
| 17> C 3.4430105412 3.1086834992 0.2930257304
| 18> S 1.0063205641 -1.38488539 0.4260459005
| 19> C -0.1913821637 -1.1618691487 -0.9161048717
| 20> S -1.0315574775 0.4511536043 -0.8916912591
| 21> P -2.6720145893 -0.1134357659 0.3459172155
| 22> S -3.9887820671 1.2791753881 0.7405867159
| 23> O -1.9985448671 -0.8380753637 1.5870355406
| 24> C -1.8244978952 -0.1748846975 2.8515651182
| 25> C -0.832813064 0.96854317 2.7728023464
| 26> O -3.2390535663 -1.4305615068 -0.3423034695
| 27> C -4.3147454516 -1.3767999414 -1.296144763
| 28> C -3.8835891726 -0.762473859 -2.6134441549
| 29> H 5.1712336041 -3.1002335015 -0.1556095119
| 30> H 3.9089011117 -2.7894732755 1.0509387938
| 31> H 3.5474585261 -2.6252337377 -0.6732517882
| 32> H 5.0378571794 -0.6867356635 -0.8610252709
| 33> H 5.5464925605 -0.8666297677 0.8453738839
| 34> H 1.7171940071 2.7814283027 -0.9682534966
| 35> H 1.3172867846 3.3029716612 0.692752346
| 36> H 3.7348747116 2.9440552978 1.3269075816
| 37> H 4.0888282513 2.5164343749 -0.354426347
| 38> H 3.5621597653 4.1585925972 0.0446344479
| 39> H -0.9261446364 -1.9569618547 -0.8170380368
| 40> H 0.3336630595 -1.2140969699 -1.8696626662
| 41> H -2.7997732241 0.1922117108 3.1863755719
| 42> H -1.4746745114 -0.9669857029 3.514799415
| 43> H -0.7138085686 1.4088591798 3.7576210778
| 44> H 0.1339025438 0.6187645793 2.4183660431
| 45> H -1.2041230436 1.7312884144 2.0874645933
| 46> H -4.6119808575 -2.4197103009 -1.4150467988
| 47> H -5.1380798605 -0.803537337 -0.8584190064
| 48> H -3.0259681311 -1.291460591 -3.0216003364
| 49> H -4.7063652181 -0.8173122179 -3.3191262269
| 50> H -3.6150404079 0.2833822733 -2.466553181
| 51> *
| 52>
| 53>                          ****END OF INPUT****

CARTESIAN COORDINATES (ANGSTROEM)
---------------------------------
  C      4.312445   -2.483353    0.089040
  C      4.735733   -1.029194    0.133997
  O      3.682613   -0.172827    0.608714
  P      2.358525    0.095484   -0.228489
  S      2.616108    0.280120   -2.167762
  O      1.755900    1.353243    0.524626
  C      1.998558    2.703919    0.087043
  C      3.443011    3.108683    0.293026
  S      1.006321   -1.384885    0.426046
  C     -0.191382   -1.161869   -0.916105
  S     -1.031557    0.451154   -0.891691
  P     -2.672015   -0.113436    0.345917
  S     -3.988782    1.279175    0.740587
  O     -1.998545   -0.838075    1.587036
  C     -1.824498   -0.174885    2.851565
  C     -0.832813    0.968543    2.772802
  O     -3.239054   -1.430562   -0.342303
  C     -4.314745   -1.376800   -1.296145
  C     -3.883589   -0.762474   -2.613444
  H      5.171234   -3.100234   -0.155610
  H      3.908901   -2.789473    1.050939
  H      3.547459   -2.625234   -0.673252
  H      5.037857   -0.686736   -0.861025
  H      5.546493   -0.866630    0.845374
  H      1.717194    2.781428   -0.968253
  H      1.317287    3.302972    0.692752
  H      3.734875    2.944055    1.326908
  H      4.088828    2.516434   -0.354426
  H      3.562160    4.158593    0.044634
  H     -0.926145   -1.956962   -0.817038
  H      0.333663   -1.214097   -1.869663
  H     -2.799773    0.192212    3.186376
  H     -1.474675   -0.966986    3.514799
  H     -0.713809    1.408859    3.757621
  H      0.133903    0.618765    2.418366
  H     -1.204123    1.731288    2.087465
  H     -4.611981   -2.419710   -1.415047
  H     -5.138080   -0.803537   -0.858419
  H     -3.025968   -1.291461   -3.021600
  H     -4.706365   -0.817312   -3.319126
  H     -3.615040    0.283382   -2.466553

 Total Charge           Charge          ....    0
 Multiplicity           Mult            ....    1
 Number of Electrons    NEL             ....  202
 Basis Dimension        Dim             ....  539

ORBITAL ENERGIES
----------------

  NO   OCC          E(Eh)            E(eV)
   0   2.0000     -88.578497     -2410.3434
   1   2.0000     -88.576426     -2410.2871
   2   2.0000     -88.531791     -2409.0725
   3   2.0000     -88.530545     -2409.0386
   4   2.0000     -76.919571     -2093.0879
   5   2.0000     -76.919496     -2093.0859
   6   2.0000     -18.996688      -516.9262
   7   2.0000     -18.992708      -516.8179
   8   2.0000     -18.992539      -516.8133
   9   2.0000     -18.992055      -516.8001
  10   2.0000     -10.105293      -274.9790
  11   2.0000     -10.090225      -274.5690
  12   2.0000     -10.089680      -274.5541
  13   2.0000     -10.089579      -274.5514
  14   2.0000     -10.089028      -274.5364
  15   2.0000     -10.018868      -272.6273
  16   2.0000     -10.018618      -272.6205
  17   2.0000     -10.018009      -272.6039
  18   2.0000     -10.015527      -272.5363
  19   2.0000      -7.872967      -214.2343
  20   2.0000      -7.870438      -214.1655
  21   2.0000      -7.826747      -212.9766
  22   2.0000      -7.825480      -212.9421
  23   2.0000      -6.598175      -179.5455
  24   2.0000      -6.598077      -179.5428
  25   2.0000      -5.819794      -158.3647
  26   2.0000      -5.817660      -158.3066
  27   2.0000      -5.816895      -158.2858
  28   2.0000      -5.814109      -158.2100
  29   2.0000      -5.810041      -158.0993
  30   2.0000      -5.807468      -158.0292
  31   2.0000      -5.774304      -157.1268
  32   2.0000      -5.772979      -157.0907
  33   2.0000      -5.766994      -156.9279
  34   2.0000      -5.766839      -156.9237
  35   2.0000      -5.765763      -156.8944
  36   2.0000      -5.765601      -156.8900
  37   2.0000      -4.743505      -129.0773
  38   2.0000      -4.743338      -129.0728
  39   2.0000      -4.743285      -129.0713
  40   2.0000      -4.743036      -129.0646
  41   2.0000      -4.742139      -129.0402
  42   2.0000      -4.741791      -129.0307
  43   2.0000      -1.053649       -28.6712
  44   2.0000      -1.053042       -28.6547
  45   2.0000      -1.013725       -27.5849
  46   2.0000      -1.011702       -27.5298
  47   2.0000      -0.801854       -21.8196
  48   2.0000      -0.755277       -20.5521
  49   2.0000      -0.742884       -20.2149
  50   2.0000      -0.723609       -19.6904
  51   2.0000      -0.718651       -19.5555
  52   2.0000      -0.713086       -19.4041
  53   2.0000      -0.695087       -18.9143
  54   2.0000      -0.675479       -18.3807
  55   2.0000      -0.633133       -17.2284
  56   2.0000      -0.624770       -17.0009
  57   2.0000      -0.599628       -16.3167
  58   2.0000      -0.596784       -16.2393
  59   2.0000      -0.589542       -16.0423
  60   2.0000      -0.517111       -14.0713
  61   2.0000      -0.514298       -13.9947
  62   2.0000      -0.491183       -13.3658
  63   2.0000      -0.482853       -13.1391
  64   2.0000      -0.477699       -12.9988
  65   2.0000      -0.462774       -12.5927
  66   2.0000      -0.455380       -12.3915
  67   2.0000      -0.454476       -12.3669
  68   2.0000      -0.434609       -11.8263
  69   2.0000      -0.433333       -11.7916
  70   2.0000      -0.421795       -11.4776
  71   2.0000      -0.411662       -11.2019
  72   2.0000      -0.408213       -11.1080
  73   2.0000      -0.406663       -11.0659
  74   2.0000      -0.402318       -10.9476
  75   2.0000      -0.389894       -10.6096
  76   2.0000      -0.382511       -10.4087
  77   2.0000      -0.367629       -10.0037
  78   2.0000      -0.363639        -9.8951
  79   2.0000      -0.359798        -9.7906
  80   2.0000      -0.354146        -9.6368
  81   2.0000      -0.353194        -9.6109
  82   2.0000      -0.347955        -9.4683
  83   2.0000      -0.343889        -9.3577
  84   2.0000      -0.342986        -9.3331
  85   2.0000      -0.334101        -9.0914
  86   2.0000      -0.325188        -8.8488
  87   2.0000      -0.310584        -8.4514
  88   2.0000      -0.305496        -8.3130
  89   2.0000      -0.300896        -8.1878
  90   2.0000      -0.298093        -8.1115
  91   2.0000      -0.289380        -7.8744
  92   2.0000      -0.282063        -7.6753
  93   2.0000      -0.279123        -7.5953
  94   2.0000      -0.273367        -7.4387
  95   2.0000      -0.246225        -6.7001
  96   2.0000      -0.237067        -6.4509
  97   2.0000      -0.231693        -6.3047
  98   2.0000      -0.231596        -6.3020
  99   2.0000      -0.226724        -6.1695
 100   2.0000      -0.221422        -6.0252
 101   0.0000      -0.047373        -1.2891
 102   0.0000      -0.032153        -0.8749
 103   0.0000      -0.016337        -0.4446
 104   0.0000       0.000267         0.0073
 105   0.0000       0.006182         0.1682

MULLIKEN ATOMIC CHARGES
-----------------------
   0 C :   -0.489768
   1 C :   -0.149800
   2 O :   -0.329836
   3 P :    0.703013
   4 S :   -0.525293
   5 O :   -0.297904
   6 C :   -0.148548
   7 C :   -0.483909
   8 S :   -0.103768
   9 C :   -0.251201
  10 S :   -0.152508
  11 P :    0.697150
  12 S :   -0.504977
  13 O :   -0.313774
  14 C :   -0.141487
  15 C :   -0.487135
  16 O :   -0.334799
  17 C :   -0.150418
  18 C :   -0.469387
  19 H :    0.173144
  20 H :    0.169711
  21 H :    0.173123
  22 H :    0.178007
  23 H :    0.175929
  24 H :    0.176734
  25 H :    0.178867
  26 H :    0.170080
  27 H :    0.168037
  28 H :    0.172030
  29 H :    0.238334
  30 H :    0.236340
  31 H :    0.173479
  32 H :    0.176033
  33 H :    0.171271
  34 H :    0.175185
  35 H :    0.168966
  36 H :    0.175054
  37 H :    0.176067
  38 H :    0.168553
  39 H :    0.170884
  40 H :    0.168522
Sum of atomic charges:    0.0000000

LOEWDIN ATOMIC CHARGES
----------------------
   0 C :   -0.409578
   1 C :    0.025961
   2 O :   -0.671376
   3 P :    0.380445
   4 S :   -0.157368
   5 O :   -0.695529
   6 C :    0.022813
   7 C :   -0.402302
   8 S :    0.175180
   9 C :   -0.405216
  10 S :    0.156438
  11 P :    0.380022
  12 S :   -0.145775
  13 O :   -0.676226
  14 C :    0.025369
  15 C :   -0.412806
  16 O :   -0.685860
  17 C :    0.026482
  18 C :   -0.407463
  19 H :    0.168641
  20 H :    0.163767
  21 H :    0.161629
  22 H :    0.181638
  23 H :    0.191283
  24 H :    0.181859
  25 H :    0.191024
  26 H :    0.164277
  27 H :    0.162608
  28 H :    0.168696
  29 H :    0.207021
  30 H :    0.198395
  31 H :    0.181594
  32 H :    0.191786
  33 H :    0.167183
  34 H :    0.168772
  35 H :    0.162608
  36 H :    0.190846
  37 H :    0.181133
  38 H :    0.163085
  39 H :    0.167550
  40 H :    0.161392

  Mayer bond orders larger than 0.100000
B(  0-C ,  1-C ) :   0.9087 B(  0-C , 19-H ) :   0.9532 B(  0-C , 20-H ) :   0.9656
B(  0-C , 21-H ) :   0.9635 B(  1-C ,  2-O ) :   0.8015 B(  1-C , 22-H ) :   0.9656
B(  1-C , 23-H ) :   0.9483 B(  2-O ,  3-P ) :   1.0729 B(  3-P ,  4-S ) :   1.7057
B(  3-P ,  5-O ) :   1.1470 B(  3-P ,  8-S ) :   1.1138 B(  5-O ,  6-C ) :   0.7806
B(  6-C ,  7-C ) :   0.9125 B(  6-C , 24-H ) :   0.9601 B(  6-C , 25-H ) :   0.9519
B(  7-C , 26-H ) :   0.9709 B(  7-C , 27-H ) :   0.9596 B(  7-C , 28-H ) :   0.9560
B(  8-S ,  9-C ) :   0.9132 B(  9-C , 10-S ) :   0.8885 B(  9-C , 29-H ) :   0.9018
B(  9-C , 30-H ) :   0.9063 B( 10-S , 11-P ) :   1.0766 B( 11-P , 12-S ) :   1.7920
B( 11-P , 13-O ) :   1.0987 B( 11-P , 16-O ) :   1.0801 B( 13-O , 14-C ) :   0.7892
B( 14-C , 15-C ) :   0.9124 B( 14-C , 31-H ) :   0.9603 B( 14-C , 32-H ) :   0.9518
B( 15-C , 33-H ) :   0.9563 B( 15-C , 34-H ) :   0.9585 B( 15-C , 35-H ) :   0.9627
B( 16-O , 17-C ) :   0.8060 B( 17-C , 18-C ) :   0.9156 B( 17-C , 36-H ) :   0.9496
B( 17-C , 37-H ) :   0.9643 B( 18-C , 38-H ) :   0.9652 B( 18-C , 39-H ) :   0.9554
B( 18-C , 40-H ) :   0.9640

Dispersion correction           -0.021702781
FINAL SINGLE POINT ENERGY     -2932.471264668067

DIPOLE MOMENT
-------------

Method             : SCF
Type of density    : Electron Density
Multiplicity       :   1
Irrep              :   0
Energy             : -2932.4962144655551128 Eh
Relativity type    :
Basis              : AO
                                X                 Y                 Z
Electronic contribution:     -8.424826086      -1.324448969      -1.580253985
Nuclear contribution   :      9.596336184       0.356724766       1.997675168
                        -----------------------------------------
Total Dipole Moment    :      1.171510098      -0.967724203       0.417421183
                        -----------------------------------------
Magnitude (a.u.)       :      1.575806614
Magnitude (Debye)      :      4.005382101

Rotational constants in cm-1:             0.013119             0.004625             0.004398
Rotational constants in MHz :           393.287575           138.647816           131.837555

                             ****ORCA TERMINATED NORMALLY****
TOTAL RUN TIME: 0 days 0 hours 1 minutes 55 seconds 74 msec
