                         Program Version 6.0.1  -  RELEASE   -
|  1> ! pbe def2-sv(p) def2/J RI DEFGRID1 loosescf d4 GCP(DFT/SV(P)) printgap
|  2> %output
|  3>     printlevel normal
|  4> end
|  5> * xyz 0 1
|  6> C 5.039021299 -0.6063196224 0.5119859139
|  7> C 4.5920254142 -1.6731064076 -0.4742838673
|  8> O 3.1549019026 -1.784602175 -0.4889052516
|  9> C 2.4739767311 -0.9893083166 -1.2855537439
| 10> O 2.9650867193 -0.1842499394 -2.0460376978
| 11> C 0.979904909 -1.2320947111 -1.1632440019
| 12> C 0.2392137378 0.0856808201 -1.3420063684
| 13> H 0.6157040656 0.5835623638 -2.2439539612
| 14> C 0.4280616786 1.0471882774 -0.1841398696
| 15> O -0.4345099704 1.8390193926 0.1430874507
| 16> O 1.6025495131 0.933503554 0.3731269387
| 17> C 1.9161463379 1.805050984 1.4808686659
| 18> C 2.4113354903 3.1552643961 0.9919517071
| 19> S -1.5496884321 -0.1179576081 -1.6166009372
| 20> P -2.1979149543 -0.2123009757 0.3832370658
| 21> S -1.0244162533 -0.7923545099 1.8366960235
| 22> O -2.9876977108 1.1092213073 0.8020641915
| 23> C -3.7644322983 1.8617393536 -0.1458758974
| 24> O -3.3611351051 -1.2786562763 0.0463981674
| 25> C -4.1761562872 -1.8068940251 1.0983306183
| 26> H 6.1230713749 -0.576440054 0.544050414
| 27> H 4.6650702558 0.3655970619 0.1989911029
| 28> H 4.6553224299 -0.8321029449 1.5031736058
| 29> H 4.9399423707 -2.6624814367 -0.1774130112
| 30> H 4.9331045961 -1.433814311 -1.4855099812
| 31> H 0.7675391608 -1.6904002899 -0.1962953892
| 32> H 0.68019078 -1.9198923179 -1.9566547775
| 33> H 1.0183313383 1.9112205369 2.0966550308
| 34> H 2.6876561786 1.2668277449 2.0312703472
| 35> H 1.6156418148 3.6800712514 0.4683255965
| 36> H 2.7251584978 3.7487670058 1.8440217973
| 37> H 3.2519987192 3.0232562107 0.315701025
| 38> H -4.4686806521 2.4384272925 0.4485375358
| 39> H -4.2869876488 1.1935316991 -0.8314149189
| 40> H -3.098685867 2.5229982728 -0.6995348516
| 41> H -3.5481862122 -2.2849581796 1.8520429984
| 42> H -4.8256176991 -2.5374205146 0.6232691071
| 43> H -4.7624792181 -1.0139886879 1.5643806029
| 44> *
| 45>
| 46>                          ****END OF INPUT****

CARTESIAN COORDINATES (ANGSTROEM)
---------------------------------
  C      5.039021   -0.606320    0.511986
  C      4.592025   -1.673106   -0.474284
  O      3.154902   -1.784602   -0.488905
  C      2.473977   -0.989308   -1.285554
  O      2.965087   -0.184250   -2.046038
  C      0.979905   -1.232095   -1.163244
  C      0.239214    0.085681   -1.342006
  H      0.615704    0.583562   -2.243954
  C      0.428062    1.047188   -0.184140
  O     -0.434510    1.839019    0.143087
  O      1.602550    0.933504    0.373127
  C      1.916146    1.805051    1.480869
  C      2.411335    3.155264    0.991952
  S     -1.549688   -0.117958   -1.616601
  P     -2.197915   -0.212301    0.383237
  S     -1.024416   -0.792355    1.836696
  O     -2.987698    1.109221    0.802064
  C     -3.764432    1.861739   -0.145876
  O     -3.361135   -1.278656    0.046398
  C     -4.176156   -1.806894    1.098331
  H      6.123071   -0.576440    0.544050
  H      4.665070    0.365597    0.198991
  H      4.655322   -0.832103    1.503174
  H      4.939942   -2.662481   -0.177413
  H      4.933105   -1.433814   -1.485510
  H      0.767539   -1.690400   -0.196295
  H      0.680191   -1.919892   -1.956655
  H      1.018331    1.911221    2.096655
  H      2.687656    1.266828    2.031270
  H      1.615642    3.680071    0.468326
  H      2.725158    3.748767    1.844022
  H      3.251999    3.023256    0.315701
  H     -4.468681    2.438427    0.448538
  H     -4.286988    1.193532   -0.831415
  H     -3.098686    2.522998   -0.699535
  H     -3.548186   -2.284958    1.852043
  H     -4.825618   -2.537421    0.623269
  H     -4.762479   -1.013989    1.564381

 Total Charge           Charge          ....    0
 Multiplicity           Mult            ....    1
 Number of Electrons    NEL             ....  174
 Basis Dimension        Dim             ....  316

ORBITAL ENERGIES
----------------

  NO   OCC          E(Eh)            E(eV)
   0   2.0000     -88.038789     -2395.6572
   1   2.0000     -87.980210     -2394.0632
   2   2.0000     -76.420776     -2079.5150
   3   2.0000     -18.813999      -511.9549
   4   2.0000     -18.800064      -511.5758
   5   2.0000     -18.785140      -511.1696
   6   2.0000     -18.783120      -511.1147
   7   2.0000     -18.742268      -510.0030
   8   2.0000     -18.737779      -509.8809
   9   2.0000     -10.020610      -272.6747
  10   2.0000     -10.008255      -272.3385
  11   2.0000      -9.949902      -270.7506
  12   2.0000      -9.948131      -270.7024
  13   2.0000      -9.946573      -270.6600
  14   2.0000      -9.943212      -270.5686
  15   2.0000      -9.939865      -270.4775
  16   2.0000      -9.902290      -269.4550
  17   2.0000      -9.889278      -269.1009
  18   2.0000      -9.887764      -269.0597
  19   2.0000      -7.684086      -209.0946
  20   2.0000      -7.625459      -207.4993
  21   2.0000      -6.418085      -174.6450
  22   2.0000      -5.712202      -155.4369
  23   2.0000      -5.708791      -155.3441
  24   2.0000      -5.700533      -155.1194
  25   2.0000      -5.654626      -153.8702
  26   2.0000      -5.646308      -153.6438
  27   2.0000      -5.645025      -153.6089
  28   2.0000      -4.640931      -126.2861
  29   2.0000      -4.639859      -126.2570
  30   2.0000      -4.638471      -126.2192
  31   2.0000      -1.022728       -27.8298
  32   2.0000      -1.008683       -27.4477
  33   2.0000      -0.976028       -26.5591
  34   2.0000      -0.933756       -25.4088
  35   2.0000      -0.924047       -25.1446
  36   2.0000      -0.914647       -24.8888
  37   2.0000      -0.764312       -20.7980
  38   2.0000      -0.712254       -19.3814
  39   2.0000      -0.708043       -19.2668
  40   2.0000      -0.689941       -18.7742
  41   2.0000      -0.656903       -17.8752
  42   2.0000      -0.634615       -17.2687
  43   2.0000      -0.619658       -16.8618
  44   2.0000      -0.615517       -16.7491
  45   2.0000      -0.595118       -16.1940
  46   2.0000      -0.564627       -15.3643
  47   2.0000      -0.511934       -13.9304
  48   2.0000      -0.501725       -13.6526
  49   2.0000      -0.497781       -13.5453
  50   2.0000      -0.479183       -13.0392
  51   2.0000      -0.470145       -12.7933
  52   2.0000      -0.461720       -12.5640
  53   2.0000      -0.440265       -11.9802
  54   2.0000      -0.431031       -11.7290
  55   2.0000      -0.426826       -11.6145
  56   2.0000      -0.425383       -11.5753
  57   2.0000      -0.421182       -11.4609
  58   2.0000      -0.415284       -11.3005
  59   2.0000      -0.407707       -11.0943
  60   2.0000      -0.402364       -10.9489
  61   2.0000      -0.395094       -10.7511
  62   2.0000      -0.393925       -10.7192
  63   2.0000      -0.383869       -10.4456
  64   2.0000      -0.375057       -10.2058
  65   2.0000      -0.363446        -9.8899
  66   2.0000      -0.357155        -9.7187
  67   2.0000      -0.351765        -9.5720
  68   2.0000      -0.346884        -9.4392
  69   2.0000      -0.341045        -9.2803
  70   2.0000      -0.334676        -9.1070
  71   2.0000      -0.329831        -8.9752
  72   2.0000      -0.319844        -8.7034
  73   2.0000      -0.318484        -8.6664
  74   2.0000      -0.309594        -8.4245
  75   2.0000      -0.296798        -8.0763
  76   2.0000      -0.292286        -7.9535
  77   2.0000      -0.277809        -7.5596
  78   2.0000      -0.271430        -7.3860
  79   2.0000      -0.268103        -7.2955
  80   2.0000      -0.259039        -7.0488
  81   2.0000      -0.254224        -6.9178
  82   2.0000      -0.235374        -6.4048
  83   2.0000      -0.227999        -6.2042
  84   2.0000      -0.212256        -5.7758
  85   2.0000      -0.201135        -5.4732
  86   2.0000      -0.193488        -5.2651
  87   0.0000      -0.045367        -1.2345
  88   0.0000      -0.031614        -0.8603
  89   0.0000      -0.014367        -0.3910
  90   0.0000       0.007713         0.2099
  91   0.0000       0.029088         0.7915

MULLIKEN ATOMIC CHARGES
-----------------------
   0 C :   -0.319892
   1 C :   -0.013320
   2 O :   -0.223213
   3 C :    0.115802
   4 O :   -0.217208
   5 C :   -0.046047
   6 C :   -0.315193
   7 H :    0.166377
   8 C :    0.182088
   9 O :   -0.198264
  10 O :   -0.213991
  11 C :   -0.008412
  12 C :   -0.314366
  13 S :   -0.056768
  14 P :    0.617926
  15 S :   -0.326480
  16 O :   -0.369507
  17 C :   -0.106547
  18 O :   -0.392872
  19 C :   -0.104304
  20 H :    0.112874
  21 H :    0.135326
  22 H :    0.120688
  23 H :    0.104579
  24 H :    0.107871
  25 H :    0.121572
  26 H :    0.120339
  27 H :    0.121938
  28 H :    0.106715
  29 H :    0.128543
  30 H :    0.115170
  31 H :    0.122970
  32 H :    0.126190
  33 H :    0.112696
  34 H :    0.131925
  35 H :    0.121377
  36 H :    0.124387
  37 H :    0.109032
Sum of atomic charges:    0.0000000

LOEWDIN ATOMIC CHARGES
----------------------
   0 C :   -0.356995
   1 C :   -0.109688
   2 O :   -0.053256
   3 C :    0.029276
   4 O :   -0.178261
   5 C :   -0.257911
   6 C :   -0.266187
   7 H :    0.157474
   8 C :    0.005404
   9 O :   -0.171868
  10 O :   -0.026594
  11 C :   -0.105842
  12 C :   -0.356791
  13 S :    0.128175
  14 P :    0.587183
  15 S :   -0.308188
  16 O :   -0.245295
  17 C :   -0.212472
  18 O :   -0.274417
  19 C :   -0.216142
  20 H :    0.130591
  21 H :    0.129336
  22 H :    0.125462
  23 H :    0.118583
  24 H :    0.119766
  25 H :    0.134927
  26 H :    0.146992
  27 H :    0.126085
  28 H :    0.118507
  29 H :    0.131521
  30 H :    0.132194
  31 H :    0.126616
  32 H :    0.123047
  33 H :    0.106839
  34 H :    0.119427
  35 H :    0.112328
  36 H :    0.121315
  37 H :    0.108859

  Mayer bond orders larger than 0.100000
B(  0-C ,  1-C ) :   1.1751 B(  0-C , 20-H ) :   0.9421 B(  0-C , 21-H ) :   0.9400
B(  0-C , 22-H ) :   0.9450 B(  1-C ,  2-O ) :   0.9175 B(  1-C , 23-H ) :   0.9374
B(  1-C , 24-H ) :   0.9132 B(  2-O ,  3-C ) :   1.2490 B(  3-C ,  4-O ) :   2.0224
B(  3-C ,  5-C ) :   0.9933 B(  5-C ,  6-C ) :   1.0252 B(  5-C , 25-H ) :   0.8878
B(  5-C , 26-H ) :   0.8769 B(  6-C ,  7-H ) :   0.8482 B(  6-C ,  8-C ) :   0.9030
B(  6-C , 13-S ) :   1.0279 B(  8-C ,  9-O ) :   1.9888 B(  8-C , 10-O ) :   1.2712
B( 10-O , 11-C ) :   0.8986 B( 11-C , 12-C ) :   1.1741 B( 11-C , 27-H ) :   0.9124
B( 11-C , 28-H ) :   0.9323 B( 12-C , 29-H ) :   0.9430 B( 12-C , 30-H ) :   0.9436
B( 12-C , 31-H ) :   0.9469 B( 13-S , 14-P ) :   0.9590 B( 13-S , 15-S ) :   0.1085
B( 14-P , 15-S ) :   1.6061 B( 14-P , 16-O ) :   1.1037 B( 14-P , 18-O ) :   1.0616
B( 16-O , 17-C ) :   0.9238 B( 17-C , 32-H ) :   0.9576 B( 17-C , 33-H ) :   0.9415
B( 17-C , 34-H ) :   0.9464 B( 18-O , 19-C ) :   0.9371 B( 19-C , 35-H ) :   0.9394
B( 19-C , 36-H ) :   0.9593 B( 19-C , 37-H ) :   0.9482

Dispersion correction           -0.052826962
FINAL SINGLE POINT ENERGY     -1979.016841541689

DIPOLE MOMENT
-------------

Method             : SCF
Type of density    : Electron Density
Multiplicity       :   1
Irrep              :   0
Energy             : -1979.1474571892431413 Eh
Relativity type    :
Basis              : AO
                                X                 Y                 Z
Electronic contribution:    -14.766755471      -5.516825918      -5.031258486
Nuclear contribution   :     14.894055319       5.650658049       5.168747223
                        -----------------------------------------
Total Dipole Moment    :      0.127299848       0.133832131       0.137488737
                        -----------------------------------------
Magnitude (a.u.)       :      0.230259513
Magnitude (Debye)      :      0.585273170

Rotational constants in cm-1:             0.016798             0.006159             0.005652
Rotational constants in MHz :           503.595185           184.646659           169.428007

                             ****ORCA TERMINATED NORMALLY****
TOTAL RUN TIME: 0 days 0 hours 0 minutes 44 seconds 3 msec
