                         Program Version 6.0.0  -   RELEASE  -
|  1> ! pbe def2-sv(p) def2/J RI DEFGRID1 loosescf d4 GCP(DFT/SV(P)) printgap
|  2> %output
|  3>     printlevel normal
|  4> end
|  5> * xyz 0 1
|  6> C 5.6708051425 -0.2999934994 -0.8331622135
|  7> C 4.526887579 -1.1165778833 -1.3962821032
|  8> O 3.4012219103 -1.1590089826 -0.4953395917
|  9> P 2.5090948158 0.1155320485 -0.1891819817
| 10> S 2.2121064289 1.2995515558 -1.7317954848
| 11> O 3.2565058894 0.7745349791 1.0470739152
| 12> C 2.9955967197 2.1198432746 1.4825182187
| 13> C 1.6085151366 2.2635629899 2.0733181562
| 14> S 0.8588212305 -0.8803429976 0.6451237343
| 15> C 0.0320177058 -1.2285803529 -0.9510175953
| 16> S -1.6567590533 -1.7854079651 -0.7114381593
| 17> P -2.5701930796 0.0616242465 -0.1170301049
| 18> S -1.4521558475 1.6493588886 -0.3791084436
| 19> O -3.136004315 -0.2327352258 1.340151148
| 20> C -2.3215197065 -0.5252425701 2.4901629328
| 21> C -1.9046819258 0.7454589324 3.2033705269
| 22> O -3.9019230857 0.2034047857 -0.9411623119
| 23> C -5.1162133059 -0.5591109248 -0.7255931393
| 24> C -4.9267204987 -2.0377257972 -0.9875874157
| 25> H 5.928467559 -0.6519426428 0.1622143333
| 26> H 6.5335717717 -0.3911321348 -1.4856210614
| 27> H 5.3821009984 0.748453871 -0.7726111912
| 28> H 4.7996288117 -2.165347009 -1.5206517821
| 29> H 4.1889714438 -0.7003371363 -2.3509696385
| 30> H 3.7727042791 2.3094207955 2.2242629126
| 31> H 3.1200320843 2.7929758454 0.6280009733
| 32> H 1.4481464619 1.5121734481 2.8426546537
| 33> H 1.498555027 3.2534130236 2.5044339701
| 34> H 0.8565238692 2.1400164633 1.2928779416
| 35> H 0.5555215103 -2.0354002582 -1.4589465051
| 36> H 0.0386300799 -0.3100876198 -1.5434873775
| 37> H -2.9627633071 -1.1429549506 3.1219878238
| 38> H -1.4453617396 -1.1029731416 2.1784683552
| 39> H -1.2980529411 1.362754263 2.5451850901
| 40> H -2.7810766198 1.3140007058 3.5017965768
| 41> H -1.3244906976 0.487963813 4.0832192417
| 42> H -5.4529541163 -0.3802813384 0.2967112342
| 43> H -5.8163680481 -0.1116159899 -1.4326939731
| 44> H -4.5304828503 -2.1989377112 -1.9866582904
| 45> H -4.2336076167 -2.4668451446 -0.266051907
| 46> H -5.8857664995 -2.5383987437 -0.8977670265
| 47> *
| 48>
| 49>                          ****END OF INPUT****

CARTESIAN COORDINATES (ANGSTROEM)
---------------------------------
  C      5.670805   -0.299993   -0.833162
  C      4.526888   -1.116578   -1.396282
  O      3.401222   -1.159009   -0.495340
  P      2.509095    0.115532   -0.189182
  S      2.212106    1.299552   -1.731795
  O      3.256506    0.774535    1.047074
  C      2.995597    2.119843    1.482518
  C      1.608515    2.263563    2.073318
  S      0.858821   -0.880343    0.645124
  C      0.032018   -1.228580   -0.951018
  S     -1.656759   -1.785408   -0.711438
  P     -2.570193    0.061624   -0.117030
  S     -1.452156    1.649359   -0.379108
  O     -3.136004   -0.232735    1.340151
  C     -2.321520   -0.525243    2.490163
  C     -1.904682    0.745459    3.203371
  O     -3.901923    0.203405   -0.941162
  C     -5.116213   -0.559111   -0.725593
  C     -4.926720   -2.037726   -0.987587
  H      5.928468   -0.651943    0.162214
  H      6.533572   -0.391132   -1.485621
  H      5.382101    0.748454   -0.772611
  H      4.799629   -2.165347   -1.520652
  H      4.188971   -0.700337   -2.350970
  H      3.772704    2.309421    2.224263
  H      3.120032    2.792976    0.628001
  H      1.448146    1.512173    2.842655
  H      1.498555    3.253413    2.504434
  H      0.856524    2.140016    1.292878
  H      0.555522   -2.035400   -1.458947
  H      0.038630   -0.310088   -1.543487
  H     -2.962763   -1.142955    3.121988
  H     -1.445362   -1.102973    2.178468
  H     -1.298053    1.362754    2.545185
  H     -2.781077    1.314001    3.501797
  H     -1.324491    0.487964    4.083219
  H     -5.452954   -0.380281    0.296711
  H     -5.816368   -0.111616   -1.432694
  H     -4.530483   -2.198938   -1.986658
  H     -4.233608   -2.466845   -0.266052
  H     -5.885766   -2.538399   -0.897767

 Total Charge           Charge          ....    0
 Multiplicity           Mult            ....    1
 Number of Electrons    NEL             ....  202
 Basis Dimension        Dim             ....  334

ORBITAL ENERGIES
----------------

  NO   OCC          E(Eh)            E(eV)
   0   2.0000     -88.046986     -2395.8803
   1   2.0000     -88.037871     -2395.6323
   2   2.0000     -87.984090     -2394.1688
   3   2.0000     -87.981027     -2394.0854
   4   2.0000     -76.426144     -2079.6611
   5   2.0000     -76.422878     -2079.5722
   6   2.0000     -18.794615      -511.4275
   7   2.0000     -18.792518      -511.3704
   8   2.0000     -18.792000      -511.3563
   9   2.0000     -18.785941      -511.1914
  10   2.0000      -9.958978      -270.9976
  11   2.0000      -9.955450      -270.9016
  12   2.0000      -9.950551      -270.7683
  13   2.0000      -9.949847      -270.7491
  14   2.0000      -9.948499      -270.7124
  15   2.0000      -9.893629      -269.2193
  16   2.0000      -9.882194      -268.9082
  17   2.0000      -9.880779      -268.8697
  18   2.0000      -9.878090      -268.7965
  19   2.0000      -7.691534      -209.2973
  20   2.0000      -7.682973      -209.0643
  21   2.0000      -7.628905      -207.5931
  22   2.0000      -7.625799      -207.5085
  23   2.0000      -6.423437      -174.7906
  24   2.0000      -6.420506      -174.7109
  25   2.0000      -5.719485      -155.6351
  26   2.0000      -5.715845      -155.5360
  27   2.0000      -5.710866      -155.4006
  28   2.0000      -5.708771      -155.3436
  29   2.0000      -5.707853      -155.3186
  30   2.0000      -5.699556      -155.0928
  31   2.0000      -5.657689      -153.9536
  32   2.0000      -5.654975      -153.8797
  33   2.0000      -5.649575      -153.7328
  34   2.0000      -5.649195      -153.7224
  35   2.0000      -5.646166      -153.6400
  36   2.0000      -5.645950      -153.6341
  37   2.0000      -4.646325      -126.4329
  38   2.0000      -4.645201      -126.4024
  39   2.0000      -4.643631      -126.3596
  40   2.0000      -4.643043      -126.3436
  41   2.0000      -4.642186      -126.3203
  42   2.0000      -4.641044      -126.2892
  43   2.0000      -0.989916       -26.9370
  44   2.0000      -0.984250       -26.7828
  45   2.0000      -0.945076       -25.7168
  46   2.0000      -0.943863       -25.6838
  47   2.0000      -0.761870       -20.7315
  48   2.0000      -0.721868       -19.6430
  49   2.0000      -0.710165       -19.3246
  50   2.0000      -0.692800       -18.8520
  51   2.0000      -0.684549       -18.6275
  52   2.0000      -0.673889       -18.3375
  53   2.0000      -0.650091       -17.6899
  54   2.0000      -0.633490       -17.2382
  55   2.0000      -0.598666       -16.2905
  56   2.0000      -0.589797       -16.0492
  57   2.0000      -0.580324       -15.7914
  58   2.0000      -0.570090       -15.5129
  59   2.0000      -0.559130       -15.2147
  60   2.0000      -0.501187       -13.6380
  61   2.0000      -0.490806       -13.3555
  62   2.0000      -0.475945       -12.9511
  63   2.0000      -0.470646       -12.8069
  64   2.0000      -0.451963       -12.2985
  65   2.0000      -0.448182       -12.1956
  66   2.0000      -0.441547       -12.0151
  67   2.0000      -0.436312       -11.8727
  68   2.0000      -0.428371       -11.6566
  69   2.0000      -0.416806       -11.3419
  70   2.0000      -0.412232       -11.2174
  71   2.0000      -0.398528       -10.8445
  72   2.0000      -0.392424       -10.6784
  73   2.0000      -0.389856       -10.6085
  74   2.0000      -0.386145       -10.5075
  75   2.0000      -0.379102       -10.3159
  76   2.0000      -0.362055        -9.8520
  77   2.0000      -0.355467        -9.6728
  78   2.0000      -0.353820        -9.6279
  79   2.0000      -0.351021        -9.5518
  80   2.0000      -0.346531        -9.4296
  81   2.0000      -0.345066        -9.3897
  82   2.0000      -0.340508        -9.2657
  83   2.0000      -0.333689        -9.0801
  84   2.0000      -0.332042        -9.0353
  85   2.0000      -0.317862        -8.6495
  86   2.0000      -0.311582        -8.4786
  87   2.0000      -0.298712        -8.1284
  88   2.0000      -0.292480        -7.9588
  89   2.0000      -0.291992        -7.9455
  90   2.0000      -0.280064        -7.6209
  91   2.0000      -0.278054        -7.5662
  92   2.0000      -0.271126        -7.3777
  93   2.0000      -0.264134        -7.1875
  94   2.0000      -0.259167        -7.0523
  95   2.0000      -0.235128        -6.3982
  96   2.0000      -0.219839        -5.9821
  97   2.0000      -0.207031        -5.6336
  98   2.0000      -0.201443        -5.4815
  99   2.0000      -0.192274        -5.2320
 100   2.0000      -0.191488        -5.2106
 101   0.0000      -0.045987        -1.2514
 102   0.0000      -0.031625        -0.8606
 103   0.0000      -0.008477        -0.2307
 104   0.0000       0.005393         0.1468
 105   0.0000       0.018475         0.5027

MULLIKEN ATOMIC CHARGES
-----------------------
   0 C :   -0.306533
   1 C :   -0.004105
   2 O :   -0.370953
   3 P :    0.615947
   4 S :   -0.322659
   5 O :   -0.371637
   6 C :    0.009733
   7 C :   -0.365603
   8 S :   -0.103357
   9 C :   -0.331828
  10 S :   -0.127576
  11 P :    0.602814
  12 S :   -0.285060
  13 O :   -0.383070
  14 C :   -0.015867
  15 C :   -0.309132
  16 O :   -0.357843
  17 C :    0.003334
  18 C :   -0.332039
  19 H :    0.117245
  20 H :    0.111120
  21 H :    0.122174
  22 H :    0.103369
  23 H :    0.108843
  24 H :    0.102669
  25 H :    0.110646
  26 H :    0.114033
  27 H :    0.112840
  28 H :    0.172013
  29 H :    0.179383
  30 H :    0.210785
  31 H :    0.102703
  32 H :    0.114174
  33 H :    0.149064
  34 H :    0.111924
  35 H :    0.107494
  36 H :    0.112378
  37 H :    0.113198
  38 H :    0.130569
  39 H :    0.130208
  40 H :    0.118600
Sum of atomic charges:    0.0000000

LOEWDIN ATOMIC CHARGES
----------------------
   0 C :   -0.364273
   1 C :   -0.119074
   2 O :   -0.247048
   3 P :    0.572863
   4 S :   -0.310756
   5 O :   -0.241940
   6 C :   -0.117586
   7 C :   -0.376456
   8 S :    0.078664
   9 C :   -0.480458
  10 S :    0.076530
  11 P :    0.562755
  12 S :   -0.279873
  13 O :   -0.247478
  14 C :   -0.116753
  15 C :   -0.363846
  16 O :   -0.234848
  17 C :   -0.109044
  18 C :   -0.370378
  19 H :    0.126657
  20 H :    0.129771
  21 H :    0.122991
  22 H :    0.117875
  23 H :    0.109391
  24 H :    0.117521
  25 H :    0.111476
  26 H :    0.121344
  27 H :    0.131442
  28 H :    0.123763
  29 H :    0.133718
  30 H :    0.124448
  31 H :    0.116825
  32 H :    0.098181
  33 H :    0.128891
  34 H :    0.125816
  35 H :    0.128322
  36 H :    0.115398
  37 H :    0.124051
  38 H :    0.130184
  39 H :    0.116724
  40 H :    0.134210

  Mayer bond orders larger than 0.100000
B(  0-C ,  1-C ) :   1.1648 B(  0-C , 19-H ) :   0.9463 B(  0-C , 20-H ) :   0.9389
B(  0-C , 21-H ) :   0.9381 B(  1-C ,  2-O ) :   0.9118 B(  1-C , 22-H ) :   0.9350
B(  1-C , 23-H ) :   0.9148 B(  2-O ,  3-P ) :   1.1166 B(  3-P ,  4-S ) :   1.6039
B(  3-P ,  5-O ) :   1.1119 B(  3-P ,  8-S ) :   0.9676 B(  4-S ,  8-S ) :   0.1148
B(  5-O ,  6-C ) :   0.9050 B(  6-C ,  7-C ) :   1.1634 B(  6-C , 24-H ) :   0.9326
B(  6-C , 25-H ) :   0.9156 B(  7-C , 26-H ) :   0.9427 B(  7-C , 27-H ) :   0.9370
B(  7-C , 28-H ) :   0.9152 B(  8-S ,  9-C ) :   0.9759 B(  9-C , 10-S ) :   1.0209
B(  9-C , 29-H ) :   0.9036 B(  9-C , 30-H ) :   0.8535 B( 10-S , 11-P ) :   0.9210
B( 10-S , 12-S ) :   0.1169 B( 11-P , 12-S ) :   1.6760 B( 11-P , 13-O ) :   1.0704
B( 11-P , 16-O ) :   1.1428 B( 13-O , 14-C ) :   0.9070 B( 14-C , 15-C ) :   1.1686
B( 14-C , 31-H ) :   0.9352 B( 14-C , 32-H ) :   0.9048 B( 15-C , 33-H ) :   0.9262
B( 15-C , 34-H ) :   0.9449 B( 15-C , 35-H ) :   0.9382 B( 16-O , 17-C ) :   0.8997
B( 17-C , 18-C ) :   1.1693 B( 17-C , 36-H ) :   0.9264 B( 17-C , 37-H ) :   0.9334
B( 18-C , 38-H ) :   0.9430 B( 18-C , 39-H ) :   0.9315 B( 18-C , 40-H ) :   0.9356

Dispersion correction           -0.065301983
FINAL SINGLE POINT ENERGY     -2929.516629164614

DIPOLE MOMENT
-------------

Method             : SCF
Type of density    : Electron Density
Multiplicity       :   1
Irrep              :   0
Energy             : -2929.6364637545430014 Eh
Relativity type    :
Basis              : AO
                                X                 Y                 Z
Electronic contribution:     -2.552018183      -0.584346104     -10.349536904
Nuclear contribution   :      2.294101137      -0.430689086      11.295751683
                        -----------------------------------------
Total Dipole Moment    :     -0.257917046      -1.015035190       0.946214778
                        -----------------------------------------
Magnitude (a.u.)       :      1.411431913
Magnitude (Debye)      :      3.587574814

Rotational constants in cm-1:             0.014424             0.004480             0.004098
Rotational constants in MHz :           432.422480           134.317749           122.867200

                             ****ORCA TERMINATED NORMALLY****
TOTAL RUN TIME: 0 days 0 hours 0 minutes 20 seconds 940 msec
