                         Program Version 6.0.1  -  RELEASE   -
|  1> ! r2scan-3c def2/J RI DEFGRID2 scfconv6 printgap
|  2> %output
|  3>     printlevel normal
|  4> end
|  5> * xyz 0 1
|  6> C 3.4279304352 -4.2712556419 -0.8272914055
|  7> C 2.020778105 -3.7604232345 -1.0924612533
|  8> O 1.7895653889 -2.5077286929 -0.4184927413
|  9> C 2.1833594644 -1.3982646991 -1.0100626386
| 10> O 2.7003614464 -1.3428653332 -2.1030687926
| 11> C 1.8629412072 -0.1772843703 -0.1671116201
| 12> C 0.8157605403 0.6589888853 -0.8977987487
| 13> H 1.1932596359 0.9261685505 -1.8910693263
| 14> C 0.4400335009 1.937850801 -0.1695231694
| 15> O -0.7079645859 2.3271546596 -0.0931386982
| 16> O 1.4835601277 2.5463802227 0.3213284222
| 17> C 1.2767993405 3.7797238066 1.0433324222
| 18> C 1.1735341307 4.9604765259 0.0926810576
| 19> S -0.7134977548 -0.2757542983 -1.2260179779
| 20> P -1.7132993331 -0.0604646962 0.6446582816
| 21> S -0.6693983617 0.3011025026 2.2612154602
| 22> O -2.9652360172 0.8851647168 0.486614667
| 23> C -3.8847550315 0.7884127305 -0.6179186755
| 24> O -2.4629773102 -1.4803376864 0.7078346878
| 25> C -1.7311387876 -2.6880162321 0.9349950658
| 26> H 3.600962216 -4.3520950107 0.2423468127
| 27> H 3.5464679648 -5.2480337927 -1.2843695395
| 28> H 4.1600039903 -3.5902655932 -1.2550774131
| 29> H 1.2706897632 -4.4352109837 -0.6797933021
| 30> H 1.8564937739 -3.6129737605 -2.1636271243
| 31> H 2.7643977289 0.4254264182 -0.0489121878
| 32> H 1.4984678162 -0.4911444097 0.8118740871
| 33> H 0.3694923338 3.6773309353 1.6455366348
| 34> H 2.1519334738 3.8571837416 1.687915277
| 35> H 0.2899357225 4.8625174476 -0.5339820986
| 36> H 1.0944206165 5.8755221963 0.6700508796
| 37> H 2.0556339207 5.0103561535 -0.5396752412
| 38> H -3.3583539517 0.976984613 -1.5534648944
| 39> H -4.6264517197 1.5611756527 -0.4338807174
| 40> H -4.3438167163 -0.1984937096 -0.6347719259
| 41> H -1.0890344855 -2.9007109115 0.0799293061
| 42> H -2.4803225655 -3.4655947336 1.0575507744
| 43> H -1.1243581981 -2.5933021586 1.8369214207
| 44> *
| 45>
| 46>                          ****END OF INPUT****

CARTESIAN COORDINATES (ANGSTROEM)
---------------------------------
  C      3.427930   -4.271256   -0.827291
  C      2.020778   -3.760423   -1.092461
  O      1.789565   -2.507729   -0.418493
  C      2.183359   -1.398265   -1.010063
  O      2.700361   -1.342865   -2.103069
  C      1.862941   -0.177284   -0.167112
  C      0.815761    0.658989   -0.897799
  H      1.193260    0.926169   -1.891069
  C      0.440034    1.937851   -0.169523
  O     -0.707965    2.327155   -0.093139
  O      1.483560    2.546380    0.321328
  C      1.276799    3.779724    1.043332
  C      1.173534    4.960477    0.092681
  S     -0.713498   -0.275754   -1.226018
  P     -1.713299   -0.060465    0.644658
  S     -0.669398    0.301103    2.261215
  O     -2.965236    0.885165    0.486615
  C     -3.884755    0.788413   -0.617919
  O     -2.462977   -1.480338    0.707835
  C     -1.731139   -2.688016    0.934995
  H      3.600962   -4.352095    0.242347
  H      3.546468   -5.248034   -1.284370
  H      4.160004   -3.590266   -1.255077
  H      1.270690   -4.435211   -0.679793
  H      1.856494   -3.612974   -2.163627
  H      2.764398    0.425426   -0.048912
  H      1.498468   -0.491144    0.811874
  H      0.369492    3.677331    1.645537
  H      2.151933    3.857184    1.687915
  H      0.289936    4.862517   -0.533982
  H      1.094421    5.875522    0.670051
  H      2.055634    5.010356   -0.539675
  H     -3.358354    0.976985   -1.553465
  H     -4.626452    1.561176   -0.433881
  H     -4.343817   -0.198494   -0.634772
  H     -1.089034   -2.900711    0.079929
  H     -2.480323   -3.465595    1.057551
  H     -1.124358   -2.593302    1.836921

 Total Charge           Charge          ....    0
 Multiplicity           Mult            ....    1
 Number of Electrons    NEL             ....  174
 Basis Dimension        Dim             ....  510

ORBITAL ENERGIES
----------------

  NO   OCC          E(Eh)            E(eV)
   0   2.0000     -88.573054     -2410.1953
   1   2.0000     -88.512801     -2408.5558
   2   2.0000     -76.910549     -2092.8424
   3   2.0000     -19.013160      -517.3744
   4   2.0000     -19.004380      -517.1355
   5   2.0000     -18.985426      -516.6197
   6   2.0000     -18.983780      -516.5749
   7   2.0000     -18.939099      -515.3591
   8   2.0000     -18.935154      -515.2517
   9   2.0000     -10.169671      -276.7308
  10   2.0000     -10.159670      -276.4587
  11   2.0000     -10.101213      -274.8680
  12   2.0000     -10.098565      -274.7959
  13   2.0000     -10.096818      -274.7484
  14   2.0000     -10.090628      -274.5800
  15   2.0000     -10.085215      -274.4326
  16   2.0000     -10.051531      -273.5161
  17   2.0000     -10.033403      -273.0228
  18   2.0000     -10.032620      -273.0015
  19   2.0000      -7.867422      -214.0834
  20   2.0000      -7.807879      -212.4632
  21   2.0000      -6.588410      -179.2798
  22   2.0000      -5.814468      -158.2197
  23   2.0000      -5.811236      -158.1318
  24   2.0000      -5.804387      -157.9454
  25   2.0000      -5.755795      -156.6231
  26   2.0000      -5.748215      -156.4169
  27   2.0000      -5.747498      -156.3974
  28   2.0000      -4.734097      -128.8213
  29   2.0000      -4.733578      -128.8072
  30   2.0000      -4.731901      -128.7616
  31   2.0000      -1.091400       -29.6985
  32   2.0000      -1.080476       -29.4013
  33   2.0000      -1.043463       -28.3941
  34   2.0000      -1.001361       -27.2484
  35   2.0000      -0.992335       -27.0028
  36   2.0000      -0.984971       -26.8024
  37   2.0000      -0.811441       -22.0804
  38   2.0000      -0.754815       -20.5396
  39   2.0000      -0.748807       -20.3761
  40   2.0000      -0.726939       -19.7810
  41   2.0000      -0.694796       -18.9063
  42   2.0000      -0.669356       -18.2141
  43   2.0000      -0.663078       -18.0433
  44   2.0000      -0.651649       -17.7323
  45   2.0000      -0.631054       -17.1719
  46   2.0000      -0.600132       -16.3304
  47   2.0000      -0.540176       -14.6989
  48   2.0000      -0.530252       -14.4289
  49   2.0000      -0.524999       -14.2860
  50   2.0000      -0.505977       -13.7683
  51   2.0000      -0.487789       -13.2734
  52   2.0000      -0.475402       -12.9363
  53   2.0000      -0.467422       -12.7192
  54   2.0000      -0.461243       -12.5511
  55   2.0000      -0.450000       -12.2451
  56   2.0000      -0.446514       -12.1503
  57   2.0000      -0.443198       -12.0600
  58   2.0000      -0.435392       -11.8476
  59   2.0000      -0.426377       -11.6023
  60   2.0000      -0.421144       -11.4599
  61   2.0000      -0.415993       -11.3197
  62   2.0000      -0.412483       -11.2242
  63   2.0000      -0.405109       -11.0236
  64   2.0000      -0.403081       -10.9684
  65   2.0000      -0.384141       -10.4530
  66   2.0000      -0.374455       -10.1894
  67   2.0000      -0.370607       -10.0847
  68   2.0000      -0.364388        -9.9155
  69   2.0000      -0.353872        -9.6294
  70   2.0000      -0.350856        -9.5473
  71   2.0000      -0.344490        -9.3740
  72   2.0000      -0.340139        -9.2556
  73   2.0000      -0.325090        -8.8461
  74   2.0000      -0.318662        -8.6712
  75   2.0000      -0.313828        -8.5397
  76   2.0000      -0.313495        -8.5306
  77   2.0000      -0.307175        -8.3587
  78   2.0000      -0.286848        -7.8055
  79   2.0000      -0.281109        -7.6494
  80   2.0000      -0.278660        -7.5827
  81   2.0000      -0.271238        -7.3808
  82   2.0000      -0.255529        -6.9533
  83   2.0000      -0.243103        -6.6152
  84   2.0000      -0.233912        -6.3651
  85   2.0000      -0.211086        -5.7439
  86   2.0000      -0.208564        -5.6753
  87   0.0000      -0.045018        -1.2250
  88   0.0000      -0.032165        -0.8753
  89   0.0000      -0.013862        -0.3772
  90   0.0000       0.002835         0.0771
  91   0.0000       0.022186         0.6037

MULLIKEN ATOMIC CHARGES
-----------------------
   0 C :   -0.471307
   1 C :   -0.139022
   2 O :   -0.157444
   3 C :    0.396713
   4 O :   -0.423113
   5 C :   -0.424632
   6 C :    0.008542
   7 H :    0.212750
   8 C :    0.287498
   9 O :   -0.394347
  10 O :   -0.155892
  11 C :   -0.135396
  12 C :   -0.476501
  13 S :   -0.180540
  14 P :    0.790437
  15 S :   -0.458804
  16 O :   -0.300716
  17 C :   -0.299602
  18 O :   -0.360476
  19 C :   -0.303579
  20 H :    0.153960
  21 H :    0.148555
  22 H :    0.174933
  23 H :    0.147625
  24 H :    0.170729
  25 H :    0.187446
  26 H :    0.210461
  27 H :    0.182131
  28 H :    0.152830
  29 H :    0.178054
  30 H :    0.151256
  31 H :    0.152553
  32 H :    0.170325
  33 H :    0.155721
  34 H :    0.166225
  35 H :    0.157758
  36 H :    0.148908
  37 H :    0.175958
Sum of atomic charges:    0.0000000

LOEWDIN ATOMIC CHARGES
----------------------
   0 C :   -0.388448
   1 C :    0.026795
   2 O :   -0.589171
   3 C :    0.342921
   4 O :   -0.432007
   5 C :   -0.208679
   6 C :   -0.188486
   7 H :    0.210741
   8 C :    0.341181
   9 O :   -0.458343
  10 O :   -0.572864
  11 C :    0.035665
  12 C :   -0.388638
  13 S :    0.216811
  14 P :    0.415835
  15 S :   -0.076636
  16 O :   -0.638038
  17 C :   -0.050038
  18 O :   -0.689869
  19 C :   -0.065349
  20 H :    0.158411
  21 H :    0.159770
  22 H :    0.166264
  23 H :    0.177748
  24 H :    0.188647
  25 H :    0.195427
  26 H :    0.198906
  27 H :    0.194602
  28 H :    0.180897
  29 H :    0.167199
  30 H :    0.161390
  31 H :    0.157797
  32 H :    0.174516
  33 H :    0.180974
  34 H :    0.171751
  35 H :    0.170779
  36 H :    0.174924
  37 H :    0.176616

  Mayer bond orders larger than 0.100000
B(  0-C ,  1-C ) :   0.9354 B(  0-C , 20-H ) :   0.9730 B(  0-C , 21-H ) :   0.9648
B(  0-C , 22-H ) :   0.9707 B(  1-C ,  2-O ) :   0.8080 B(  1-C , 23-H ) :   0.9609
B(  1-C , 24-H ) :   0.9672 B(  2-O ,  3-C ) :   1.0495 B(  3-C ,  4-O ) :   1.8314
B(  3-C ,  5-C ) :   0.9056 B(  5-C ,  6-C ) :   0.9174 B(  5-C , 25-H ) :   0.9438
B(  5-C , 26-H ) :   0.9565 B(  6-C ,  7-H ) :   0.8891 B(  6-C ,  8-C ) :   0.9618
B(  6-C , 13-S ) :   0.8266 B(  8-C ,  9-O ) :   1.7945 B(  8-C , 10-O ) :   1.1431
B( 10-O , 11-C ) :   0.8004 B( 11-C , 12-C ) :   0.9306 B( 11-C , 27-H ) :   0.9703
B( 11-C , 28-H ) :   0.9607 B( 12-C , 29-H ) :   0.9714 B( 12-C , 30-H ) :   0.9634
B( 12-C , 31-H ) :   0.9714 B( 13-S , 14-P ) :   0.9901 B( 14-P , 15-S ) :   1.7537
B( 14-P , 16-O ) :   1.1977 B( 14-P , 18-O ) :   1.0044 B( 16-O , 17-C ) :   0.7975
B( 17-C , 32-H ) :   0.9573 B( 17-C , 33-H ) :   0.9647 B( 17-C , 34-H ) :   0.9638
B( 18-O , 19-C ) :   0.8421 B( 19-C , 35-H ) :   0.9514 B( 19-C , 36-H ) :   0.9684
B( 19-C , 37-H ) :   0.9573

Dispersion correction           -0.017480983
FINAL SINGLE POINT ENERGY     -1981.449397466787

DIPOLE MOMENT
-------------

Method             : SCF
Type of density    : Electron Density
Multiplicity       :   1
Irrep              :   0
Energy             : -1981.4694518786873232 Eh
Relativity type    :
Basis              : AO
                                X                 Y                 Z
Electronic contribution:     -9.672658862       3.096288240       3.016524635
Nuclear contribution   :      9.852352724      -3.425828873      -3.424096425
                        -----------------------------------------
Total Dipole Moment    :      0.179693862      -0.329540633      -0.407571790
                        -----------------------------------------
Magnitude (a.u.)       :      0.554077320
Magnitude (Debye)      :      1.408352625

Rotational constants in cm-1:             0.011490             0.007859             0.005637
Rotational constants in MHz :           344.466468           235.598636           168.981402

                             ****ORCA TERMINATED NORMALLY****
TOTAL RUN TIME: 0 days 0 hours 1 minutes 17 seconds 749 msec
