                         Program Version 6.0.1  -  RELEASE   -
|  1> ! r2scan-3c def2/J RI DEFGRID2 scfconv6 printgap
|  2> %output
|  3>     printlevel normal
|  4> end
|  5> %cpcm
|  6>     smd true
|  7>     smdsolvent "water"
|  8> end
|  9> * xyz 0 1
| 10> C 3.4279304352 -4.2712556419 -0.8272914055
| 11> C 2.020778105 -3.7604232345 -1.0924612533
| 12> O 1.7895653889 -2.5077286929 -0.4184927413
| 13> C 2.1833594644 -1.3982646991 -1.0100626386
| 14> O 2.7003614464 -1.3428653332 -2.1030687926
| 15> C 1.8629412072 -0.1772843703 -0.1671116201
| 16> C 0.8157605403 0.6589888853 -0.8977987487
| 17> H 1.1932596359 0.9261685505 -1.8910693263
| 18> C 0.4400335009 1.937850801 -0.1695231694
| 19> O -0.7079645859 2.3271546596 -0.0931386982
| 20> O 1.4835601277 2.5463802227 0.3213284222
| 21> C 1.2767993405 3.7797238066 1.0433324222
| 22> C 1.1735341307 4.9604765259 0.0926810576
| 23> S -0.7134977548 -0.2757542983 -1.2260179779
| 24> P -1.7132993331 -0.0604646962 0.6446582816
| 25> S -0.6693983617 0.3011025026 2.2612154602
| 26> O -2.9652360172 0.8851647168 0.486614667
| 27> C -3.8847550315 0.7884127305 -0.6179186755
| 28> O -2.4629773102 -1.4803376864 0.7078346878
| 29> C -1.7311387876 -2.6880162321 0.9349950658
| 30> H 3.600962216 -4.3520950107 0.2423468127
| 31> H 3.5464679648 -5.2480337927 -1.2843695395
| 32> H 4.1600039903 -3.5902655932 -1.2550774131
| 33> H 1.2706897632 -4.4352109837 -0.6797933021
| 34> H 1.8564937739 -3.6129737605 -2.1636271243
| 35> H 2.7643977289 0.4254264182 -0.0489121878
| 36> H 1.4984678162 -0.4911444097 0.8118740871
| 37> H 0.3694923338 3.6773309353 1.6455366348
| 38> H 2.1519334738 3.8571837416 1.687915277
| 39> H 0.2899357225 4.8625174476 -0.5339820986
| 40> H 1.0944206165 5.8755221963 0.6700508796
| 41> H 2.0556339207 5.0103561535 -0.5396752412
| 42> H -3.3583539517 0.976984613 -1.5534648944
| 43> H -4.6264517197 1.5611756527 -0.4338807174
| 44> H -4.3438167163 -0.1984937096 -0.6347719259
| 45> H -1.0890344855 -2.9007109115 0.0799293061
| 46> H -2.4803225655 -3.4655947336 1.0575507744
| 47> H -1.1243581981 -2.5933021586 1.8369214207
| 48> *
| 49>
| 50>                          ****END OF INPUT****

CARTESIAN COORDINATES (ANGSTROEM)
---------------------------------
  C      3.427930   -4.271256   -0.827291
  C      2.020778   -3.760423   -1.092461
  O      1.789565   -2.507729   -0.418493
  C      2.183359   -1.398265   -1.010063
  O      2.700361   -1.342865   -2.103069
  C      1.862941   -0.177284   -0.167112
  C      0.815761    0.658989   -0.897799
  H      1.193260    0.926169   -1.891069
  C      0.440034    1.937851   -0.169523
  O     -0.707965    2.327155   -0.093139
  O      1.483560    2.546380    0.321328
  C      1.276799    3.779724    1.043332
  C      1.173534    4.960477    0.092681
  S     -0.713498   -0.275754   -1.226018
  P     -1.713299   -0.060465    0.644658
  S     -0.669398    0.301103    2.261215
  O     -2.965236    0.885165    0.486615
  C     -3.884755    0.788413   -0.617919
  O     -2.462977   -1.480338    0.707835
  C     -1.731139   -2.688016    0.934995
  H      3.600962   -4.352095    0.242347
  H      3.546468   -5.248034   -1.284370
  H      4.160004   -3.590266   -1.255077
  H      1.270690   -4.435211   -0.679793
  H      1.856494   -3.612974   -2.163627
  H      2.764398    0.425426   -0.048912
  H      1.498468   -0.491144    0.811874
  H      0.369492    3.677331    1.645537
  H      2.151933    3.857184    1.687915
  H      0.289936    4.862517   -0.533982
  H      1.094421    5.875522    0.670051
  H      2.055634    5.010356   -0.539675
  H     -3.358354    0.976985   -1.553465
  H     -4.626452    1.561176   -0.433881
  H     -4.343817   -0.198494   -0.634772
  H     -1.089034   -2.900711    0.079929
  H     -2.480323   -3.465595    1.057551
  H     -1.124358   -2.593302    1.836921

 Total Charge           Charge          ....    0
 Multiplicity           Mult            ....    1
 Number of Electrons    NEL             ....  174
 Basis Dimension        Dim             ....  510

ORBITAL ENERGIES
----------------

  NO   OCC          E(Eh)            E(eV)
   0   2.0000     -88.579837     -2410.3799
   1   2.0000     -88.527499     -2408.9557
   2   2.0000     -76.921743     -2093.1470
   3   2.0000     -19.016280      -517.4593
   4   2.0000     -19.009034      -517.2621
   5   2.0000     -18.996731      -516.9273
   6   2.0000     -18.991051      -516.7728
   7   2.0000     -18.951483      -515.6961
   8   2.0000     -18.948947      -515.6270
   9   2.0000     -10.178989      -276.9844
  10   2.0000     -10.170114      -276.7429
  11   2.0000     -10.102547      -274.9043
  12   2.0000     -10.089603      -274.5521
  13   2.0000     -10.085917      -274.4518
  14   2.0000     -10.084738      -274.4197
  15   2.0000     -10.079674      -274.2819
  16   2.0000     -10.052742      -273.5490
  17   2.0000     -10.020346      -272.6675
  18   2.0000     -10.019393      -272.6416
  19   2.0000      -7.874174      -214.2672
  20   2.0000      -7.822862      -212.8709
  21   2.0000      -6.599740      -179.5881
  22   2.0000      -5.821227      -158.4036
  23   2.0000      -5.818000      -158.3158
  24   2.0000      -5.811128      -158.1288
  25   2.0000      -5.770670      -157.0279
  26   2.0000      -5.763237      -156.8256
  27   2.0000      -5.762493      -156.8054
  28   2.0000      -4.745393      -129.1287
  29   2.0000      -4.744850      -129.1139
  30   2.0000      -4.743328      -129.0725
  31   2.0000      -1.096244       -29.8303
  32   2.0000      -1.086583       -29.5674
  33   2.0000      -1.052873       -28.6501
  34   2.0000      -1.009648       -27.4739
  35   2.0000      -1.002748       -27.2862
  36   2.0000      -0.996578       -27.1183
  37   2.0000      -0.814517       -22.1641
  38   2.0000      -0.748699       -20.3731
  39   2.0000      -0.745921       -20.2976
  40   2.0000      -0.728889       -19.8341
  41   2.0000      -0.696237       -18.9456
  42   2.0000      -0.668179       -18.1821
  43   2.0000      -0.662916       -18.0389
  44   2.0000      -0.656572       -17.8662
  45   2.0000      -0.625467       -17.0198
  46   2.0000      -0.598139       -16.2762
  47   2.0000      -0.541414       -14.7326
  48   2.0000      -0.527186       -14.3455
  49   2.0000      -0.524337       -14.2679
  50   2.0000      -0.508378       -13.8337
  51   2.0000      -0.491532       -13.3753
  52   2.0000      -0.478867       -13.0306
  53   2.0000      -0.472970       -12.8702
  54   2.0000      -0.464590       -12.6421
  55   2.0000      -0.456509       -12.4222
  56   2.0000      -0.450874       -12.2689
  57   2.0000      -0.447947       -12.1893
  58   2.0000      -0.435483       -11.8501
  59   2.0000      -0.426615       -11.6088
  60   2.0000      -0.422921       -11.5083
  61   2.0000      -0.412659       -11.2290
  62   2.0000      -0.409936       -11.1549
  63   2.0000      -0.407361       -11.0849
  64   2.0000      -0.400540       -10.8993
  65   2.0000      -0.379561       -10.3284
  66   2.0000      -0.373309       -10.1582
  67   2.0000      -0.366283        -9.9671
  68   2.0000      -0.362109        -9.8535
  69   2.0000      -0.352489        -9.5917
  70   2.0000      -0.349688        -9.5155
  71   2.0000      -0.343181        -9.3384
  72   2.0000      -0.338419        -9.2089
  73   2.0000      -0.326766        -8.8917
  74   2.0000      -0.319853        -8.7036
  75   2.0000      -0.312779        -8.5112
  76   2.0000      -0.310999        -8.4627
  77   2.0000      -0.308292        -8.3890
  78   2.0000      -0.291872        -7.9422
  79   2.0000      -0.287743        -7.8299
  80   2.0000      -0.284254        -7.7349
  81   2.0000      -0.277514        -7.5515
  82   2.0000      -0.267891        -7.2897
  83   2.0000      -0.256330        -6.9751
  84   2.0000      -0.243747        -6.6327
  85   2.0000      -0.225316        -6.1312
  86   2.0000      -0.224144        -6.0993
  87   0.0000      -0.053446        -1.4544
  88   0.0000      -0.041185        -1.1207
  89   0.0000      -0.022131        -0.6022
  90   0.0000      -0.002640        -0.0718
  91   0.0000       0.013577         0.3694

MULLIKEN ATOMIC CHARGES
-----------------------
   0 C :   -0.496443
   1 C :   -0.144722
   2 O :   -0.173363
   3 C :    0.420041
   4 O :   -0.488088
   5 C :   -0.434169
   6 C :    0.014301
   7 H :    0.251528
   8 C :    0.301998
   9 O :   -0.447418
  10 O :   -0.167015
  11 C :   -0.129572
  12 C :   -0.502570
  13 S :   -0.183727
  14 P :    0.792994
  15 S :   -0.498583
  16 O :   -0.350031
  17 C :   -0.304885
  18 O :   -0.388968
  19 C :   -0.314533
  20 H :    0.167014
  21 H :    0.172143
  22 H :    0.170999
  23 H :    0.178912
  24 H :    0.175912
  25 H :    0.217131
  26 H :    0.208237
  27 H :    0.176006
  28 H :    0.180563
  29 H :    0.174061
  30 H :    0.174174
  31 H :    0.168114
  32 H :    0.180079
  33 H :    0.182332
  34 H :    0.185896
  35 H :    0.174083
  36 H :    0.178812
  37 H :    0.178759
Sum of atomic charges:    0.0000000

LOEWDIN ATOMIC CHARGES
----------------------
   0 C :   -0.390794
   1 C :    0.033123
   2 O :   -0.590906
   3 C :    0.351883
   4 O :   -0.478848
   5 C :   -0.204477
   6 C :   -0.183912
   7 H :    0.225576
   8 C :    0.349628
   9 O :   -0.500734
  10 O :   -0.570291
  11 C :    0.040466
  12 C :   -0.389850
  13 S :    0.221820
  14 P :    0.411485
  15 S :   -0.109242
  16 O :   -0.669531
  17 C :   -0.043142
  18 O :   -0.702526
  19 C :   -0.059840
  20 H :    0.162908
  21 H :    0.168593
  22 H :    0.163288
  23 H :    0.191024
  24 H :    0.190662
  25 H :    0.206949
  26 H :    0.198227
  27 H :    0.192356
  28 H :    0.192678
  29 H :    0.164469
  30 H :    0.169823
  31 H :    0.163724
  32 H :    0.179752
  33 H :    0.191982
  34 H :    0.181277
  35 H :    0.177168
  36 H :    0.187989
  37 H :    0.177245

  Mayer bond orders larger than 0.100000
B(  0-C ,  1-C ) :   0.9321 B(  0-C , 20-H ) :   0.9696 B(  0-C , 21-H ) :   0.9596
B(  0-C , 22-H ) :   0.9686 B(  1-C ,  2-O ) :   0.7901 B(  1-C , 23-H ) :   0.9505
B(  1-C , 24-H ) :   0.9620 B(  2-O ,  3-C ) :   1.0719 B(  3-C ,  4-O ) :   1.7821
B(  3-C ,  5-C ) :   0.9188 B(  5-C ,  6-C ) :   0.9045 B(  5-C , 25-H ) :   0.9325
B(  5-C , 26-H ) :   0.9549 B(  6-C ,  7-H ) :   0.8653 B(  6-C ,  8-C ) :   0.9829
B(  6-C , 13-S ) :   0.8040 B(  8-C ,  9-O ) :   1.7602 B(  8-C , 10-O ) :   1.1581
B( 10-O , 11-C ) :   0.7818 B( 11-C , 12-C ) :   0.9342 B( 11-C , 27-H ) :   0.9633
B( 11-C , 28-H ) :   0.9498 B( 12-C , 29-H ) :   0.9692 B( 12-C , 30-H ) :   0.9580
B( 12-C , 31-H ) :   0.9676 B( 13-S , 14-P ) :   1.0089 B( 14-P , 15-S ) :   1.7549
B( 14-P , 16-O ) :   1.1864 B( 14-P , 18-O ) :   1.0062 B( 16-O , 17-C ) :   0.7912
B( 17-C , 32-H ) :   0.9481 B( 17-C , 33-H ) :   0.9541 B( 17-C , 34-H ) :   0.9539
B( 18-O , 19-C ) :   0.8312 B( 19-C , 35-H ) :   0.9454 B( 19-C , 36-H ) :   0.9580
B( 19-C , 37-H ) :   0.9535

Dispersion correction           -0.017480983
FINAL SINGLE POINT ENERGY     -1981.463688336107

DIPOLE MOMENT
-------------

Method             : SCF
Type of density    : Electron Density
Multiplicity       :   1
Irrep              :   0
Energy             : -1981.4837427480067618 Eh
Relativity type    :
Basis              : AO
                                X                 Y                 Z
Electronic contribution:     -9.431850905       2.756506205       2.780485469
Nuclear contribution   :      9.852352724      -3.425828873      -3.424096425
                        -----------------------------------------
Total Dipole Moment    :      0.420501820      -0.669322668      -0.643610956
                        -----------------------------------------
Magnitude (a.u.)       :      1.019337862
Magnitude (Debye)      :      2.590950939

Rotational constants in cm-1:             0.011490             0.007859             0.005637
Rotational constants in MHz :           344.466468           235.598636           168.981402

                             ****ORCA TERMINATED NORMALLY****
TOTAL RUN TIME: 0 days 0 hours 1 minutes 43 seconds 79 msec
