                         Program Version 6.0.0  -   RELEASE  -
|  1> ! wb97x-v def2-tzvp def2/J RIJCOSX DEFGRID2 scfconv7 GCP(DFT/TZ) printgap
|  2> %output
|  3>     printlevel normal
|  4> end
|  5> * xyz 0 1
|  6> C 3.345363370278615 -1.902736661998851 2.148600845539234
|  7> C 2.098618229014516 -2.0009220264215015 1.3048418526674106
|  8> O 1.6676513017530423 -0.6846416665868615 0.8130699234111577
|  9> P 2.4008514610756584 0.0582723681600482 -0.4099213512854549
| 10> S 3.1180597599277804 -1.0724533342541849 -1.820710360294208
| 11> O 3.530481393112124 1.0069771768592803 0.2324310173298242
| 12> C 3.274930653689129 1.783248126157651 1.4623407371778752
| 13> C 4.563456697219774 2.475677324618876 1.8191838741685842
| 14> S 0.9247945467620463 1.47084275152327 -0.9844587619680271
| 15> C -0.10836916718492504 0.4375757488427195 -2.097829482632889
| 16> S -1.0953189338862224 -0.8994898214453103 -1.323904047063449
| 17> P -2.5412042570022386 0.23468377820076183 -0.2517777132840131
| 18> S -3.202412247525427 1.8181627809510301 -1.1648068338760298
| 19> O -1.938611917642155 0.6019120394647016 1.1859846399804006
| 20> C -1.4308407200049218 -0.43440923877935766 2.1042985149369953
| 21> C -0.5891146409590102 0.26337823962381746 3.140024015061806
| 22> O -3.5838999983082944 -0.9296492665532474 0.13074830112166638
| 23> C -4.502322142841117 -1.493264077623519 -0.871165189154601
| 24> C -5.556914763223976 -2.26568687029186 -0.12363672445439977
| 25> H 4.199946377660554 -1.5455067419717623 1.5654263579560628
| 26> H 3.1903205508832087 -1.2370648066528143 3.0022435675655954
| 27> H 3.587993892258798 -2.900493237214426 2.5292247402692807
| 28> H 1.2434979017303112 -2.3496304044817093 1.8881580906139497
| 29> H 2.234874973015601 -2.660826227606944 0.442951840244535
| 30> H 2.474280436318345 2.5031353765460826 1.2623879579428703
| 31> H 2.9553668953933365 1.0913557325506769 2.2459187738195743
| 32> H 4.408885561465251 3.0599535216716003 2.731476084915439
| 33> H 5.357503205903275 1.7467670632644405 2.0058276670783264
| 34> H 4.878245210053447 3.154546141698062 1.0219179558586708
| 35> H 0.5321266787794434 -0.053861584501997954 -2.836001540826594
| 36> H -0.7793507830444484 1.1377318511092152 -2.6045612977329498
| 37> H -2.295236187552488 -0.9358950185425313 2.547766691492277
| 38> H -0.8465071608297394 -1.157521094082363 1.5270033268668257
| 39> H -1.1877416788153936 0.974797392318985 3.7160478073836063
| 40> H -0.1837853043938406 -0.48430770473665874 3.8290671227402515
| 41> H 0.2468017339008515 0.7938138991343783 2.675043333445459
| 42> H -4.933550588561478 -0.6682233966139133 -1.446795181729065
| 43> H -3.922405967010162 -2.1381336872650007 -1.5386096668103486
| 44> H -6.128870158178282 -1.6073356336311415 0.5361335030898581
| 45> H -6.244569850051229 -2.7141531726304753 -0.8471955986932234
| 46> H -5.108956286535747 -3.068047771064694 0.46947303285616165
| 47> *
| 48>
| 49>                          ****END OF INPUT****

CARTESIAN COORDINATES (ANGSTROEM)
---------------------------------
  C      3.345363   -1.902737    2.148601
  C      2.098618   -2.000922    1.304842
  O      1.667651   -0.684642    0.813070
  P      2.400851    0.058272   -0.409921
  S      3.118060   -1.072453   -1.820710
  O      3.530481    1.006977    0.232431
  C      3.274931    1.783248    1.462341
  C      4.563457    2.475677    1.819184
  S      0.924795    1.470843   -0.984459
  C     -0.108369    0.437576   -2.097829
  S     -1.095319   -0.899490   -1.323904
  P     -2.541204    0.234684   -0.251778
  S     -3.202412    1.818163   -1.164807
  O     -1.938612    0.601912    1.185985
  C     -1.430841   -0.434409    2.104299
  C     -0.589115    0.263378    3.140024
  O     -3.583900   -0.929649    0.130748
  C     -4.502322   -1.493264   -0.871165
  C     -5.556915   -2.265687   -0.123637
  H      4.199946   -1.545507    1.565426
  H      3.190321   -1.237065    3.002244
  H      3.587994   -2.900493    2.529225
  H      1.243498   -2.349630    1.888158
  H      2.234875   -2.660826    0.442952
  H      2.474280    2.503135    1.262388
  H      2.955367    1.091356    2.245919
  H      4.408886    3.059954    2.731476
  H      5.357503    1.746767    2.005828
  H      4.878245    3.154546    1.021918
  H      0.532127   -0.053862   -2.836002
  H     -0.779351    1.137732   -2.604561
  H     -2.295236   -0.935895    2.547767
  H     -0.846507   -1.157521    1.527003
  H     -1.187742    0.974797    3.716048
  H     -0.183785   -0.484308    3.829067
  H      0.246802    0.793814    2.675043
  H     -4.933551   -0.668223   -1.446795
  H     -3.922406   -2.138134   -1.538610
  H     -6.128870   -1.607336    0.536134
  H     -6.244570   -2.714153   -0.847196
  H     -5.108956   -3.068048    0.469473

 Total Charge           Charge          ....    0
 Multiplicity           Mult            ....    1
 Number of Electrons    NEL             ....  202
 Basis Dimension        Dim             ....  757

ORBITAL ENERGIES
----------------

  NO   OCC          E(Eh)            E(eV)
   0   2.0000     -94.144400     -2561.7994
   1   2.0000     -94.143885     -2561.7853
   2   2.0000     -94.082973     -2560.1279
   3   2.0000     -94.079359     -2560.0295
   4   2.0000     -82.122585     -2234.6692
   5   2.0000     -82.119024     -2234.5722
   6   2.0000     -21.717109      -590.9526
   7   2.0000     -21.715653      -590.9130
   8   2.0000     -21.714671      -590.8862
   9   2.0000     -21.709275      -590.7394
  10   2.0000     -12.125740      -329.9582
  11   2.0000     -12.124882      -329.9348
  12   2.0000     -12.124735      -329.9308
  13   2.0000     -12.119350      -329.7843
  14   2.0000     -12.116792      -329.7147
  15   2.0000     -12.059294      -328.1501
  16   2.0000     -12.055865      -328.0568
  17   2.0000     -12.052975      -327.9781
  18   2.0000     -12.050896      -327.9215
  19   2.0000      -9.655894      -262.7502
  20   2.0000      -9.655256      -262.7329
  21   2.0000      -9.595714      -261.1127
  22   2.0000      -9.592119      -261.0148
  23   2.0000      -8.235844      -224.1087
  24   2.0000      -8.232187      -224.0092
  25   2.0000      -7.633537      -207.7191
  26   2.0000      -7.633124      -207.7079
  27   2.0000      -7.632605      -207.6938
  28   2.0000      -7.632018      -207.6778
  29   2.0000      -7.631164      -207.6545
  30   2.0000      -7.630286      -207.6306
  31   2.0000      -7.573358      -206.0815
  32   2.0000      -7.571541      -206.0321
  33   2.0000      -7.571520      -206.0315
  34   2.0000      -7.569676      -205.9813
  35   2.0000      -7.568046      -205.9370
  36   2.0000      -7.567865      -205.9321
  37   2.0000      -6.400288      -174.1607
  38   2.0000      -6.399699      -174.1447
  39   2.0000      -6.399381      -174.1360
  40   2.0000      -6.396558      -174.0592
  41   2.0000      -6.396210      -174.0497
  42   2.0000      -6.395621      -174.0337
  43   2.0000      -1.726643       -46.9843
  44   2.0000      -1.723336       -46.8944
  45   2.0000      -1.704226       -46.3743
  46   2.0000      -1.698344       -46.2143
  47   2.0000      -1.331809       -36.2404
  48   2.0000      -1.319452       -35.9041
  49   2.0000      -1.308083       -35.5947
  50   2.0000      -1.300849       -35.3979
  51   2.0000      -1.294730       -35.2314
  52   2.0000      -1.254356       -34.1328
  53   2.0000      -1.229980       -33.4695
  54   2.0000      -1.208366       -32.8813
  55   2.0000      -1.178135       -32.0587
  56   2.0000      -1.165087       -31.7036
  57   2.0000      -1.156881       -31.4803
  58   2.0000      -1.150757       -31.3137
  59   2.0000      -1.121462       -30.5165
  60   2.0000      -1.087048       -29.5801
  61   2.0000      -1.078334       -29.3430
  62   2.0000      -1.057082       -28.7647
  63   2.0000      -1.056061       -28.7369
  64   2.0000      -1.006519       -27.3888
  65   2.0000      -0.995244       -27.0820
  66   2.0000      -0.989414       -26.9233
  67   2.0000      -0.986179       -26.8353
  68   2.0000      -0.981573       -26.7100
  69   2.0000      -0.974319       -26.5126
  70   2.0000      -0.966274       -26.2936
  71   2.0000      -0.961965       -26.1764
  72   2.0000      -0.922520       -25.1030
  73   2.0000      -0.896768       -24.4023
  74   2.0000      -0.886656       -24.1271
  75   2.0000      -0.879373       -23.9290
  76   2.0000      -0.878734       -23.9116
  77   2.0000      -0.871795       -23.7227
  78   2.0000      -0.867320       -23.6010
  79   2.0000      -0.853572       -23.2269
  80   2.0000      -0.849575       -23.1181
  81   2.0000      -0.848272       -23.0827
  82   2.0000      -0.845841       -23.0165
  83   2.0000      -0.836422       -22.7602
  84   2.0000      -0.834093       -22.6968
  85   2.0000      -0.831523       -22.6269
  86   2.0000      -0.828450       -22.5433
  87   2.0000      -0.826784       -22.4979
  88   2.0000      -0.825032       -22.4503
  89   2.0000      -0.800536       -21.7837
  90   2.0000      -0.796833       -21.6829
  91   2.0000      -0.793239       -21.5851
  92   2.0000      -0.789672       -21.4881
  93   2.0000      -0.777344       -21.1526
  94   2.0000      -0.753509       -20.5040
  95   2.0000      -0.690447       -18.7880
  96   2.0000      -0.676034       -18.3958
  97   2.0000      -0.644777       -17.5453
  98   2.0000      -0.642540       -17.4844
  99   2.0000      -0.639617       -17.4049
 100   2.0000      -0.634698       -17.2710
 101   0.0000      -0.318710        -8.6725
 102   0.0000      -0.314703        -8.5635
 103   0.0000      -0.273127        -7.4322
 104   0.0000      -0.245458        -6.6792
 105   0.0000      -0.234179        -6.3723

MULLIKEN ATOMIC CHARGES
-----------------------
   0 C :   -0.347437
   1 C :   -0.042136
   2 O :   -0.308613
   3 P :    0.593812
   4 S :   -0.397132
   5 O :   -0.295841
   6 C :   -0.071562
   7 C :   -0.307937
   8 S :   -0.118983
   9 C :   -0.192241
  10 S :   -0.151335
  11 P :    0.612126
  12 S :   -0.402228
  13 O :   -0.279225
  14 C :   -0.042689
  15 C :   -0.305839
  16 O :   -0.308428
  17 C :   -0.058545
  18 C :   -0.316054
  19 H :    0.144198
  20 H :    0.111337
  21 H :    0.127398
  22 H :    0.105241
  23 H :    0.140312
  24 H :    0.127878
  25 H :    0.106041
  26 H :    0.113630
  27 H :    0.120453
  28 H :    0.128142
  29 H :    0.176061
  30 H :    0.180017
  31 H :    0.119278
  32 H :    0.102903
  33 H :    0.126718
  34 H :    0.102550
  35 H :    0.112555
  36 H :    0.126835
  37 H :    0.115730
  38 H :    0.123725
  39 H :    0.114585
  40 H :    0.114699
Sum of atomic charges:   -0.0000000

LOEWDIN ATOMIC CHARGES
----------------------
   0 C :   -0.309403
   1 C :   -0.321074
   2 O :    0.022538
   3 P :   -0.033855
   4 S :   -0.109398
   5 O :    0.025054
   6 C :   -0.319125
   7 C :   -0.300081
   8 S :    0.355423
   9 C :   -0.701351
  10 S :    0.340759
  11 P :   -0.036532
  12 S :   -0.110940
  13 O :    0.038097
  14 C :   -0.317589
  15 C :   -0.307499
  16 O :    0.026324
  17 C :   -0.318702
  18 C :   -0.303733
  19 H :    0.126054
  20 H :    0.117180
  21 H :    0.129328
  22 H :    0.122398
  23 H :    0.124465
  24 H :    0.120550
  25 H :    0.116745
  26 H :    0.126100
  27 H :    0.123279
  28 H :    0.125751
  29 H :    0.116450
  30 H :    0.116565
  31 H :    0.121598
  32 H :    0.114081
  33 H :    0.123465
  34 H :    0.123083
  35 H :    0.120384
  36 H :    0.123278
  37 H :    0.119130
  38 H :    0.123734
  39 H :    0.126575
  40 H :    0.120892

  Mayer bond orders larger than 0.100000
B(  0-C ,  1-C ) :   0.9992 B(  0-C , 19-H ) :   0.9664 B(  0-C , 20-H ) :   0.9745
B(  0-C , 21-H ) :   0.9679 B(  1-C ,  2-O ) :   0.8642 B(  1-C , 22-H ) :   0.9667
B(  1-C , 23-H ) :   0.9666 B(  2-O ,  3-P ) :   1.1287 B(  3-P ,  4-S ) :   1.8763
B(  3-P ,  5-O ) :   1.2039 B(  3-P ,  8-S ) :   1.0952 B(  5-O ,  6-C ) :   0.8847
B(  6-C ,  7-C ) :   1.0121 B(  6-C , 24-H ) :   0.9638 B(  6-C , 25-H ) :   0.9661
B(  7-C , 26-H ) :   0.9684 B(  7-C , 27-H ) :   0.9755 B(  7-C , 28-H ) :   0.9762
B(  8-S ,  9-C ) :   1.0243 B(  9-C , 10-S ) :   1.0144 B(  9-C , 29-H ) :   0.9330
B(  9-C , 30-H ) :   0.9326 B( 10-S , 11-P ) :   1.0460 B( 11-P , 12-S ) :   1.8793
B( 11-P , 13-O ) :   1.2406 B( 11-P , 16-O ) :   1.1577 B( 13-O , 14-C ) :   0.8932
B( 14-C , 15-C ) :   1.0027 B( 14-C , 31-H ) :   0.9682 B( 14-C , 32-H ) :   0.9631
B( 15-C , 33-H ) :   0.9725 B( 15-C , 34-H ) :   0.9704 B( 15-C , 35-H ) :   0.9794
B( 16-O , 17-C ) :   0.8882 B( 17-C , 18-C ) :   1.0080 B( 17-C , 36-H ) :   0.9603
B( 17-C , 37-H ) :   0.9659 B( 18-C , 38-H ) :   0.9755 B( 18-C , 39-H ) :   0.9689
B( 18-C , 40-H ) :   0.9751

FINAL SINGLE POINT ENERGY     -2932.533980234350

DIPOLE MOMENT
-------------

Method             : SCF
Type of density    : Electron Density
Multiplicity       :   1
Irrep              :   0
Energy             : -2932.5640922617499200 Eh
Relativity type    :
Basis              : AO
                                X                 Y                 Z
Electronic contribution:     -3.605918658       7.849074382     -23.068393244
Nuclear contribution   :      3.620987795      -9.013977131      24.989089762
                        -----------------------------------------
Total Dipole Moment    :      0.015069137      -1.164902749       1.920696519
                        -----------------------------------------
Magnitude (a.u.)       :      2.246397251
Magnitude (Debye)      :      5.709888041

Rotational constants in cm-1:             0.012301             0.004456             0.004347
Rotational constants in MHz :           368.763683           133.584604           130.329942

                             ****ORCA TERMINATED NORMALLY****
TOTAL RUN TIME: 0 days 0 hours 15 minutes 44 seconds 622 msec
