                         Program Version 6.0.0  -   RELEASE  -
|  1> ! wb97x-v def2-tzvp def2/J RIJCOSX DEFGRID2 scfconv7 GCP(DFT/TZ) printgap
|  2> %output
|  3>     printlevel normal
|  4> end
|  5> %cpcm
|  6>     smd true
|  7>     smdsolvent "water"
|  8> end
|  9> * xyz 0 1
| 10> C 3.345363370278615 -1.902736661998851 2.148600845539234
| 11> C 2.098618229014516 -2.0009220264215015 1.3048418526674106
| 12> O 1.6676513017530423 -0.6846416665868615 0.8130699234111577
| 13> P 2.4008514610756584 0.0582723681600482 -0.4099213512854549
| 14> S 3.1180597599277804 -1.0724533342541849 -1.820710360294208
| 15> O 3.530481393112124 1.0069771768592803 0.2324310173298242
| 16> C 3.274930653689129 1.783248126157651 1.4623407371778752
| 17> C 4.563456697219774 2.475677324618876 1.8191838741685842
| 18> S 0.9247945467620463 1.47084275152327 -0.9844587619680271
| 19> C -0.10836916718492504 0.4375757488427195 -2.097829482632889
| 20> S -1.0953189338862224 -0.8994898214453103 -1.323904047063449
| 21> P -2.5412042570022386 0.23468377820076183 -0.2517777132840131
| 22> S -3.202412247525427 1.8181627809510301 -1.1648068338760298
| 23> O -1.938611917642155 0.6019120394647016 1.1859846399804006
| 24> C -1.4308407200049218 -0.43440923877935766 2.1042985149369953
| 25> C -0.5891146409590102 0.26337823962381746 3.140024015061806
| 26> O -3.5838999983082944 -0.9296492665532474 0.13074830112166638
| 27> C -4.502322142841117 -1.493264077623519 -0.871165189154601
| 28> C -5.556914763223976 -2.26568687029186 -0.12363672445439977
| 29> H 4.199946377660554 -1.5455067419717623 1.5654263579560628
| 30> H 3.1903205508832087 -1.2370648066528143 3.0022435675655954
| 31> H 3.587993892258798 -2.900493237214426 2.5292247402692807
| 32> H 1.2434979017303112 -2.3496304044817093 1.8881580906139497
| 33> H 2.234874973015601 -2.660826227606944 0.442951840244535
| 34> H 2.474280436318345 2.5031353765460826 1.2623879579428703
| 35> H 2.9553668953933365 1.0913557325506769 2.2459187738195743
| 36> H 4.408885561465251 3.0599535216716003 2.731476084915439
| 37> H 5.357503205903275 1.7467670632644405 2.0058276670783264
| 38> H 4.878245210053447 3.154546141698062 1.0219179558586708
| 39> H 0.5321266787794434 -0.053861584501997954 -2.836001540826594
| 40> H -0.7793507830444484 1.1377318511092152 -2.6045612977329498
| 41> H -2.295236187552488 -0.9358950185425313 2.547766691492277
| 42> H -0.8465071608297394 -1.157521094082363 1.5270033268668257
| 43> H -1.1877416788153936 0.974797392318985 3.7160478073836063
| 44> H -0.1837853043938406 -0.48430770473665874 3.8290671227402515
| 45> H 0.2468017339008515 0.7938138991343783 2.675043333445459
| 46> H -4.933550588561478 -0.6682233966139133 -1.446795181729065
| 47> H -3.922405967010162 -2.1381336872650007 -1.5386096668103486
| 48> H -6.128870158178282 -1.6073356336311415 0.5361335030898581
| 49> H -6.244569850051229 -2.7141531726304753 -0.8471955986932234
| 50> H -5.108956286535747 -3.068047771064694 0.46947303285616165
| 51> *
| 52>
| 53>                          ****END OF INPUT****

CARTESIAN COORDINATES (ANGSTROEM)
---------------------------------
  C      3.345363   -1.902737    2.148601
  C      2.098618   -2.000922    1.304842
  O      1.667651   -0.684642    0.813070
  P      2.400851    0.058272   -0.409921
  S      3.118060   -1.072453   -1.820710
  O      3.530481    1.006977    0.232431
  C      3.274931    1.783248    1.462341
  C      4.563457    2.475677    1.819184
  S      0.924795    1.470843   -0.984459
  C     -0.108369    0.437576   -2.097829
  S     -1.095319   -0.899490   -1.323904
  P     -2.541204    0.234684   -0.251778
  S     -3.202412    1.818163   -1.164807
  O     -1.938612    0.601912    1.185985
  C     -1.430841   -0.434409    2.104299
  C     -0.589115    0.263378    3.140024
  O     -3.583900   -0.929649    0.130748
  C     -4.502322   -1.493264   -0.871165
  C     -5.556915   -2.265687   -0.123637
  H      4.199946   -1.545507    1.565426
  H      3.190321   -1.237065    3.002244
  H      3.587994   -2.900493    2.529225
  H      1.243498   -2.349630    1.888158
  H      2.234875   -2.660826    0.442952
  H      2.474280    2.503135    1.262388
  H      2.955367    1.091356    2.245919
  H      4.408886    3.059954    2.731476
  H      5.357503    1.746767    2.005828
  H      4.878245    3.154546    1.021918
  H      0.532127   -0.053862   -2.836002
  H     -0.779351    1.137732   -2.604561
  H     -2.295236   -0.935895    2.547767
  H     -0.846507   -1.157521    1.527003
  H     -1.187742    0.974797    3.716048
  H     -0.183785   -0.484308    3.829067
  H      0.246802    0.793814    2.675043
  H     -4.933551   -0.668223   -1.446795
  H     -3.922406   -2.138134   -1.538610
  H     -6.128870   -1.607336    0.536134
  H     -6.244570   -2.714153   -0.847196
  H     -5.108956   -3.068048    0.469473

 Total Charge           Charge          ....    0
 Multiplicity           Mult            ....    1
 Number of Electrons    NEL             ....  202
 Basis Dimension        Dim             ....  757

ORBITAL ENERGIES
----------------

  NO   OCC          E(Eh)            E(eV)
   0   2.0000     -94.148259     -2561.9044
   1   2.0000     -94.148246     -2561.9040
   2   2.0000     -94.092063     -2560.3752
   3   2.0000     -94.091550     -2560.3612
   4   2.0000     -82.126598     -2234.7783
   5   2.0000     -82.126113     -2234.7651
   6   2.0000     -21.715514      -590.9092
   7   2.0000     -21.713853      -590.8640
   8   2.0000     -21.713689      -590.8595
   9   2.0000     -21.711094      -590.7889
  10   2.0000     -12.124802      -329.9326
  11   2.0000     -12.107852      -329.4714
  12   2.0000     -12.107789      -329.4697
  13   2.0000     -12.105505      -329.4075
  14   2.0000     -12.105292      -329.4017
  15   2.0000     -12.035890      -327.5132
  16   2.0000     -12.035855      -327.5123
  17   2.0000     -12.035135      -327.4927
  18   2.0000     -12.034561      -327.4770
  19   2.0000      -9.659711      -262.8541
  20   2.0000      -9.659636      -262.8521
  21   2.0000      -9.605192      -261.3706
  22   2.0000      -9.604666      -261.3563
  23   2.0000      -8.239821      -224.2169
  24   2.0000      -8.239330      -224.2036
  25   2.0000      -7.637476      -207.8263
  26   2.0000      -7.637300      -207.8215
  27   2.0000      -7.636717      -207.8056
  28   2.0000      -7.636067      -207.7879
  29   2.0000      -7.635296      -207.7670
  30   2.0000      -7.634482      -207.7448
  31   2.0000      -7.582765      -206.3375
  32   2.0000      -7.582326      -206.3256
  33   2.0000      -7.581216      -206.2954
  34   2.0000      -7.581052      -206.2909
  35   2.0000      -7.580593      -206.2784
  36   2.0000      -7.580544      -206.2771
  37   2.0000      -6.404165      -174.2662
  38   2.0000      -6.403848      -174.2576
  39   2.0000      -6.403745      -174.2548
  40   2.0000      -6.403330      -174.2435
  41   2.0000      -6.403206      -174.2401
  42   2.0000      -6.402946      -174.2330
  43   2.0000      -1.726139       -46.9706
  44   2.0000      -1.722266       -46.8652
  45   2.0000      -1.701486       -46.2998
  46   2.0000      -1.700033       -46.2602
  47   2.0000      -1.331980       -36.2450
  48   2.0000      -1.312856       -35.7246
  49   2.0000      -1.301005       -35.4022
  50   2.0000      -1.284421       -34.9509
  51   2.0000      -1.283634       -34.9295
  52   2.0000      -1.252750       -34.0891
  53   2.0000      -1.231552       -33.5122
  54   2.0000      -1.214045       -33.0358
  55   2.0000      -1.168690       -31.8017
  56   2.0000      -1.161769       -31.6133
  57   2.0000      -1.146712       -31.2036
  58   2.0000      -1.144231       -31.1361
  59   2.0000      -1.120329       -30.4857
  60   2.0000      -1.080731       -29.4082
  61   2.0000      -1.072094       -29.1732
  62   2.0000      -1.054760       -28.7015
  63   2.0000      -1.044996       -28.4358
  64   2.0000      -0.999839       -27.2070
  65   2.0000      -0.994416       -27.0594
  66   2.0000      -0.984714       -26.7954
  67   2.0000      -0.980466       -26.6798
  68   2.0000      -0.974210       -26.5096
  69   2.0000      -0.972881       -26.4734
  70   2.0000      -0.961219       -26.1561
  71   2.0000      -0.958143       -26.0724
  72   2.0000      -0.923023       -25.1167
  73   2.0000      -0.892047       -24.2738
  74   2.0000      -0.874124       -23.7861
  75   2.0000      -0.867677       -23.6107
  76   2.0000      -0.867546       -23.6071
  77   2.0000      -0.861792       -23.4505
  78   2.0000      -0.860427       -23.4134
  79   2.0000      -0.842443       -22.9240
  80   2.0000      -0.840066       -22.8593
  81   2.0000      -0.835503       -22.7352
  82   2.0000      -0.834982       -22.7210
  83   2.0000      -0.831562       -22.6280
  84   2.0000      -0.827842       -22.5267
  85   2.0000      -0.811512       -22.0824
  86   2.0000      -0.810977       -22.0678
  87   2.0000      -0.810497       -22.0547
  88   2.0000      -0.810288       -22.0490
  89   2.0000      -0.787849       -21.4385
  90   2.0000      -0.778987       -21.1973
  91   2.0000      -0.777834       -21.1659
  92   2.0000      -0.776232       -21.1224
  93   2.0000      -0.775023       -21.0895
  94   2.0000      -0.758102       -20.6290
  95   2.0000      -0.694801       -18.9065
  96   2.0000      -0.681122       -18.5343
  97   2.0000      -0.656756       -17.8712
  98   2.0000      -0.655158       -17.8277
  99   2.0000      -0.649553       -17.6752
 100   2.0000      -0.648412       -17.6442
 101   0.0000      -0.323339        -8.7985
 102   0.0000      -0.318778        -8.6744
 103   0.0000      -0.275280        -7.4908
 104   0.0000      -0.247494        -6.7346
 105   0.0000      -0.236951        -6.4478

MULLIKEN ATOMIC CHARGES
-----------------------
   0 C :   -0.377179
   1 C :   -0.042202
   2 O :   -0.313625
   3 P :    0.615578
   4 S :   -0.456898
   5 O :   -0.342816
   6 C :   -0.059054
   7 C :   -0.362915
   8 S :   -0.145718
   9 C :   -0.196020
  10 S :   -0.149405
  11 P :    0.628708
  12 S :   -0.458620
  13 O :   -0.326944
  14 C :   -0.054695
  15 C :   -0.357744
  16 O :   -0.325438
  17 C :   -0.046798
  18 C :   -0.365056
  19 H :    0.134588
  20 H :    0.137454
  21 H :    0.148308
  22 H :    0.143533
  23 H :    0.136525
  24 H :    0.140756
  25 H :    0.145463
  26 H :    0.138083
  27 H :    0.135404
  28 H :    0.134136
  29 H :    0.197580
  30 H :    0.199089
  31 H :    0.142386
  32 H :    0.134703
  33 H :    0.138659
  34 H :    0.137663
  35 H :    0.121056
  36 H :    0.129627
  37 H :    0.137183
  38 H :    0.133133
  39 H :    0.137710
  40 H :    0.133804
Sum of atomic charges:   -0.0000000

LOEWDIN ATOMIC CHARGES
----------------------
   0 C :   -0.308979
   1 C :   -0.313266
   2 O :    0.023588
   3 P :   -0.029117
   4 S :   -0.151827
   5 O :    0.006612
   6 C :   -0.308923
   7 C :   -0.304088
   8 S :    0.342657
   9 C :   -0.697214
  10 S :    0.346443
  11 P :   -0.034884
  12 S :   -0.153058
  13 O :    0.016271
  14 C :   -0.311784
  15 C :   -0.309998
  16 O :    0.020819
  17 C :   -0.313256
  18 C :   -0.305403
  19 H :    0.122652
  20 H :    0.125113
  21 H :    0.134592
  22 H :    0.134596
  23 H :    0.122994
  24 H :    0.125014
  25 H :    0.128321
  26 H :    0.133796
  27 H :    0.125343
  28 H :    0.125073
  29 H :    0.122519
  30 H :    0.121852
  31 H :    0.129012
  32 H :    0.120508
  33 H :    0.124809
  34 H :    0.134454
  35 H :    0.120884
  36 H :    0.124373
  37 H :    0.126029
  38 H :    0.124829
  39 H :    0.133649
  40 H :    0.124996

  Mayer bond orders larger than 0.100000
B(  0-C ,  1-C ) :   1.0032 B(  0-C , 19-H ) :   0.9664 B(  0-C , 20-H ) :   0.9703
B(  0-C , 21-H ) :   0.9639 B(  1-C ,  2-O ) :   0.8399 B(  1-C , 22-H ) :   0.9596
B(  1-C , 23-H ) :   0.9681 B(  2-O ,  3-P ) :   1.1592 B(  3-P ,  4-S ) :   1.8391
B(  3-P ,  5-O ) :   1.2133 B(  3-P ,  8-S ) :   1.0981 B(  5-O ,  6-C ) :   0.8438
B(  6-C ,  7-C ) :   1.0106 B(  6-C , 24-H ) :   0.9595 B(  6-C , 25-H ) :   0.9628
B(  7-C , 26-H ) :   0.9650 B(  7-C , 27-H ) :   0.9736 B(  7-C , 28-H ) :   0.9739
B(  8-S ,  9-C ) :   1.0077 B(  9-C , 10-S ) :   1.0058 B(  9-C , 29-H ) :   0.9292
B(  9-C , 30-H ) :   0.9285 B( 10-S , 11-P ) :   1.0637 B( 11-P , 12-S ) :   1.8435
B( 11-P , 13-O ) :   1.2417 B( 11-P , 16-O ) :   1.1760 B( 13-O , 14-C ) :   0.8515
B( 14-C , 15-C ) :   1.0047 B( 14-C , 31-H ) :   0.9637 B( 14-C , 32-H ) :   0.9619
B( 15-C , 33-H ) :   0.9700 B( 15-C , 34-H ) :   0.9656 B( 15-C , 35-H ) :   0.9765
B( 16-O , 17-C ) :   0.8608 B( 17-C , 18-C ) :   1.0144 B( 17-C , 36-H ) :   0.9583
B( 17-C , 37-H ) :   0.9608 B( 18-C , 38-H ) :   0.9727 B( 18-C , 39-H ) :   0.9644
B( 18-C , 40-H ) :   0.9718

FINAL SINGLE POINT ENERGY     -2932.550369553205

DIPOLE MOMENT
-------------

Method             : SCF
Type of density    : Electron Density
Multiplicity       :   1
Irrep              :   0
Energy             : -2932.5804815806045553 Eh
Relativity type    :
Basis              : AO
                                X                 Y                 Z
Electronic contribution:     -3.725328589       7.244949557     -22.394141600
Nuclear contribution   :      3.620987795      -9.013977131      24.989089762
                        -----------------------------------------
Total Dipole Moment    :     -0.104340794      -1.769027573       2.594948163
                        -----------------------------------------
Magnitude (a.u.)       :      3.142308311
Magnitude (Debye)      :      7.987112981

Rotational constants in cm-1:             0.012301             0.004456             0.004347
Rotational constants in MHz :           368.763683           133.584604           130.329942

                             ****ORCA TERMINATED NORMALLY****
TOTAL RUN TIME: 0 days 0 hours 15 minutes 4 seconds 934 msec
