                         Program Version 6.0.0  -   RELEASE  -
|  1> ! pbe def2-sv(p) def2/J RI DEFGRID1 loosescf d4 GCP(DFT/SV(P)) printgap
|  2> %output
|  3>     printlevel normal
|  4> end
|  5> * xyz 0 1
|  6> C 5.4751150572 0.764371927 -0.3801913916
|  7> C 4.4735869821 -0.1075923659 -1.1117337437
|  8> O 3.5170026912 -0.6943258693 -0.20754568
|  9> P 2.2087180464 0.0494101985 0.3027946204
| 10> S 2.425272416 1.6477488211 1.4051495924
| 11> O 1.4708939028 -1.0935746155 1.0972447051
| 12> C 1.3240266798 -2.447599979 0.6036510094
| 13> C 2.3730747574 -3.350139139 1.2168344429
| 14> S 1.1368978921 0.3418727655 -1.5230645977
| 15> C 0.01773906 1.6308808485 -0.9068738784
| 16> S -0.9404315846 1.1436997378 0.5485482867
| 17> P -2.3602162289 -0.1157929563 -0.4440693025
| 18> S -1.6755252286 -1.7797520104 -1.2138273514
| 19> O -3.0365668358 0.7971866389 -1.5404607559
| 20> C -4.136800159 1.7162896681 -1.3217615709
| 21> C -3.7702327307 2.868401933 -0.4102918302
| 22> O -3.5098894221 -0.3064747308 0.6354495692
| 23> C -3.4715170405 -1.3728753333 1.5995185022
| 24> C -2.4227664355 -1.1337065733 2.6667128886
| 25> H 6.2126387577 1.1300305695 -1.0873552786
| 26> H 4.9741719987 1.6115527037 0.0828291318
| 27> H 5.9742565858 0.1909636682 0.3961686509
| 28> H 4.9612410025 -0.9677417183 -1.5750017001
| 29> H 3.9380806442 0.4621170013 -1.8764035939
| 30> H 0.315886119 -2.7473266351 0.8975973161
| 31> H 1.3833169324 -2.4420728857 -0.4881968836
| 32> H 3.3665032979 -3.0343470541 0.9097921191
| 33> H 2.3099334451 -3.3073571345 2.3006554629
| 34> H 2.1992132922 -4.3687534673 0.8847707312
| 35> H -0.6486125965 1.8755771294 -1.7314988124
| 36> H 0.6079684128 2.4924300544 -0.5961570134
| 37> H -4.3736320361 2.0597048843 -2.3301210874
| 38> H -4.9760721159 1.1505575138 -0.9141965426
| 39> H -4.6099674188 3.5546612304 -0.3592799042
| 40> H -3.5496928078 2.5052631864 0.5909547481
| 41> H -2.9014557044 3.4002823508 -0.7902687065
| 42> H -4.4774036526 -1.3825378259 2.0214371812
| 43> H -3.2792954193 -2.3116049718 1.0695395859
| 44> H -2.5754107078 -0.167696675 3.1412164071
| 45> H -2.4858399653 -1.9165653796 3.4156715569
| 46> H -1.4255714429 -1.1462890966 2.2270595777
| 47> *
| 48>
| 49>                          ****END OF INPUT****

CARTESIAN COORDINATES (ANGSTROEM)
---------------------------------
  C      5.475115    0.764372   -0.380191
  C      4.473587   -0.107592   -1.111734
  O      3.517003   -0.694326   -0.207546
  P      2.208718    0.049410    0.302795
  S      2.425272    1.647749    1.405150
  O      1.470894   -1.093575    1.097245
  C      1.324027   -2.447600    0.603651
  C      2.373075   -3.350139    1.216834
  S      1.136898    0.341873   -1.523065
  C      0.017739    1.630881   -0.906874
  S     -0.940432    1.143700    0.548548
  P     -2.360216   -0.115793   -0.444069
  S     -1.675525   -1.779752   -1.213827
  O     -3.036567    0.797187   -1.540461
  C     -4.136800    1.716290   -1.321762
  C     -3.770233    2.868402   -0.410292
  O     -3.509889   -0.306475    0.635450
  C     -3.471517   -1.372875    1.599519
  C     -2.422766   -1.133707    2.666713
  H      6.212639    1.130031   -1.087355
  H      4.974172    1.611553    0.082829
  H      5.974257    0.190964    0.396169
  H      4.961241   -0.967742   -1.575002
  H      3.938081    0.462117   -1.876404
  H      0.315886   -2.747327    0.897597
  H      1.383317   -2.442073   -0.488197
  H      3.366503   -3.034347    0.909792
  H      2.309933   -3.307357    2.300655
  H      2.199213   -4.368753    0.884771
  H     -0.648613    1.875577   -1.731499
  H      0.607968    2.492430   -0.596157
  H     -4.373632    2.059705   -2.330121
  H     -4.976072    1.150558   -0.914197
  H     -4.609967    3.554661   -0.359280
  H     -3.549693    2.505263    0.590955
  H     -2.901456    3.400282   -0.790269
  H     -4.477404   -1.382538    2.021437
  H     -3.279295   -2.311605    1.069540
  H     -2.575411   -0.167697    3.141216
  H     -2.485840   -1.916565    3.415672
  H     -1.425571   -1.146289    2.227060

 Total Charge           Charge          ....    0
 Multiplicity           Mult            ....    1
 Number of Electrons    NEL             ....  202
 Basis Dimension        Dim             ....  334

ORBITAL ENERGIES
----------------

  NO   OCC          E(Eh)            E(eV)
   0   2.0000     -88.039213     -2395.6688
   1   2.0000     -88.035693     -2395.5730
   2   2.0000     -87.981383     -2394.0952
   3   2.0000     -87.981337     -2394.0939
   4   2.0000     -76.426113     -2079.6602
   5   2.0000     -76.423259     -2079.5826
   6   2.0000     -18.798543      -511.5344
   7   2.0000     -18.794032      -511.4116
   8   2.0000     -18.793934      -511.4089
   9   2.0000     -18.785517      -511.1799
  10   2.0000      -9.960432      -271.0371
  11   2.0000      -9.955902      -270.9139
  12   2.0000      -9.955081      -270.8915
  13   2.0000      -9.954996      -270.8892
  14   2.0000      -9.944027      -270.5907
  15   2.0000      -9.890180      -269.1255
  16   2.0000      -9.886455      -269.0241
  17   2.0000      -9.879629      -268.8384
  18   2.0000      -9.878864      -268.8175
  19   2.0000      -7.683414      -209.0763
  20   2.0000      -7.680682      -209.0020
  21   2.0000      -7.626692      -207.5328
  22   2.0000      -7.626439      -207.5260
  23   2.0000      -6.423560      -174.7940
  24   2.0000      -6.420420      -174.7085
  25   2.0000      -5.711242      -155.4108
  26   2.0000      -5.708438      -155.3345
  27   2.0000      -5.708179      -155.3275
  28   2.0000      -5.705225      -155.2471
  29   2.0000      -5.700304      -155.1131
  30   2.0000      -5.697748      -155.0436
  31   2.0000      -5.655712      -153.8998
  32   2.0000      -5.655368      -153.8904
  33   2.0000      -5.647323      -153.6715
  34   2.0000      -5.647146      -153.6667
  35   2.0000      -5.646860      -153.6589
  36   2.0000      -5.646283      -153.6432
  37   2.0000      -4.646948      -126.4499
  38   2.0000      -4.645130      -126.4004
  39   2.0000      -4.643440      -126.3544
  40   2.0000      -4.643345      -126.3518
  41   2.0000      -4.642276      -126.3228
  42   2.0000      -4.640556      -126.2759
  43   2.0000      -0.991735       -26.9865
  44   2.0000      -0.985924       -26.8283
  45   2.0000      -0.948828       -25.8189
  46   2.0000      -0.941302       -25.6141
  47   2.0000      -0.760433       -20.6924
  48   2.0000      -0.719603       -19.5814
  49   2.0000      -0.708750       -19.2861
  50   2.0000      -0.694016       -18.8851
  51   2.0000      -0.686698       -18.6860
  52   2.0000      -0.672068       -18.2879
  53   2.0000      -0.648244       -17.6396
  54   2.0000      -0.636308       -17.3148
  55   2.0000      -0.595636       -16.2081
  56   2.0000      -0.585012       -15.9190
  57   2.0000      -0.583287       -15.8720
  58   2.0000      -0.567835       -15.4516
  59   2.0000      -0.562904       -15.3174
  60   2.0000      -0.502439       -13.6721
  61   2.0000      -0.497595       -13.5402
  62   2.0000      -0.475470       -12.9382
  63   2.0000      -0.474260       -12.9053
  64   2.0000      -0.461421       -12.5559
  65   2.0000      -0.449544       -12.2327
  66   2.0000      -0.443314       -12.0632
  67   2.0000      -0.429891       -11.6979
  68   2.0000      -0.423355       -11.5201
  69   2.0000      -0.417884       -11.3712
  70   2.0000      -0.407556       -11.0902
  71   2.0000      -0.400882       -10.9086
  72   2.0000      -0.393679       -10.7126
  73   2.0000      -0.381345       -10.3769
  74   2.0000      -0.378784       -10.3072
  75   2.0000      -0.373212       -10.1556
  76   2.0000      -0.364738        -9.9250
  77   2.0000      -0.356904        -9.7119
  78   2.0000      -0.354964        -9.6590
  79   2.0000      -0.353746        -9.6259
  80   2.0000      -0.348230        -9.4758
  81   2.0000      -0.343907        -9.3582
  82   2.0000      -0.339435        -9.2365
  83   2.0000      -0.335270        -9.1232
  84   2.0000      -0.331896        -9.0314
  85   2.0000      -0.323713        -8.8087
  86   2.0000      -0.315242        -8.5782
  87   2.0000      -0.300863        -8.1869
  88   2.0000      -0.295718        -8.0469
  89   2.0000      -0.294604        -8.0166
  90   2.0000      -0.286230        -7.7887
  91   2.0000      -0.274767        -7.4768
  92   2.0000      -0.271734        -7.3943
  93   2.0000      -0.262920        -7.1544
  94   2.0000      -0.255787        -6.9603
  95   2.0000      -0.236735        -6.4419
  96   2.0000      -0.215279        -5.8580
  97   2.0000      -0.206352        -5.6151
  98   2.0000      -0.198714        -5.4073
  99   2.0000      -0.194114        -5.2821
 100   2.0000      -0.184997        -5.0340
 101   0.0000      -0.041909        -1.1404
 102   0.0000      -0.025381        -0.6906
 103   0.0000      -0.005810        -0.1581
 104   0.0000       0.000733         0.0199
 105   0.0000       0.017449         0.4748

MULLIKEN ATOMIC CHARGES
-----------------------
   0 C :   -0.297282
   1 C :   -0.012621
   2 O :   -0.379372
   3 P :    0.605764
   4 S :   -0.318489
   5 O :   -0.350810
   6 C :   -0.018643
   7 C :   -0.282851
   8 S :   -0.085034
   9 C :   -0.354802
  10 S :   -0.077395
  11 P :    0.602614
  12 S :   -0.310872
  13 O :   -0.373729
  14 C :    0.005956
  15 C :   -0.317767
  16 O :   -0.384282
  17 C :   -0.003527
  18 C :   -0.344238
  19 H :    0.107004
  20 H :    0.130656
  21 H :    0.114920
  22 H :    0.106154
  23 H :    0.105748
  24 H :    0.113786
  25 H :    0.108695
  26 H :    0.116708
  27 H :    0.114569
  28 H :    0.108225
  29 H :    0.180847
  30 H :    0.192913
  31 H :    0.110736
  32 H :    0.111514
  33 H :    0.113711
  34 H :    0.131024
  35 H :    0.118501
  36 H :    0.104964
  37 H :    0.111899
  38 H :    0.120884
  39 H :    0.115807
  40 H :    0.158116
Sum of atomic charges:    0.0000000

LOEWDIN ATOMIC CHARGES
----------------------
   0 C :   -0.365418
   1 C :   -0.116946
   2 O :   -0.244315
   3 P :    0.566713
   4 S :   -0.313195
   5 O :   -0.230456
   6 C :   -0.116937
   7 C :   -0.359308
   8 S :    0.070725
   9 C :   -0.481964
  10 S :    0.094852
  11 P :    0.567050
  12 S :   -0.307775
  13 O :   -0.244970
  14 C :   -0.107367
  15 C :   -0.368554
  16 O :   -0.246543
  17 C :   -0.119872
  18 C :   -0.372001
  19 H :    0.128562
  20 H :    0.123990
  21 H :    0.126906
  22 H :    0.118333
  23 H :    0.104923
  24 H :    0.112878
  25 H :    0.107067
  26 H :    0.123879
  27 H :    0.126411
  28 H :    0.128801
  29 H :    0.129815
  30 H :    0.132274
  31 H :    0.122046
  32 H :    0.116249
  33 H :    0.131521
  34 H :    0.121791
  35 H :    0.125079
  36 H :    0.118462
  37 H :    0.110247
  38 H :    0.126792
  39 H :    0.133044
  40 H :    0.127208

  Mayer bond orders larger than 0.100000
B(  0-C ,  1-C ) :   1.1665 B(  0-C , 19-H ) :   0.9383 B(  0-C , 20-H ) :   0.9299
B(  0-C , 21-H ) :   0.9475 B(  1-C ,  2-O ) :   0.9079 B(  1-C , 22-H ) :   0.9356
B(  1-C , 23-H ) :   0.9147 B(  2-O ,  3-P ) :   1.0777 B(  3-P ,  4-S ) :   1.6340
B(  3-P ,  5-O ) :   1.1388 B(  3-P ,  8-S ) :   0.9593 B(  4-S ,  8-S ) :   0.1129
B(  5-O ,  6-C ) :   0.8882 B(  6-C ,  7-C ) :   1.1574 B(  6-C , 24-H ) :   0.9223
B(  6-C , 25-H ) :   0.9192 B(  7-C , 26-H ) :   0.9427 B(  7-C , 27-H ) :   0.9467
B(  7-C , 28-H ) :   0.9412 B(  8-S ,  9-C ) :   1.0022 B(  9-C , 10-S ) :   1.0034
B(  9-C , 29-H ) :   0.8947 B(  9-C , 30-H ) :   0.8873 B( 10-S , 11-P ) :   0.9459
B( 10-S , 12-S ) :   0.1129 B( 11-P , 12-S ) :   1.6722 B( 11-P , 13-O ) :   1.1067
B( 11-P , 16-O ) :   1.0706 B( 13-O , 14-C ) :   0.8950 B( 14-C , 15-C ) :   1.1699
B( 14-C , 31-H ) :   0.9356 B( 14-C , 32-H ) :   0.9272 B( 15-C , 33-H ) :   0.9353
B( 15-C , 34-H ) :   0.9367 B( 15-C , 35-H ) :   0.9456 B( 16-O , 17-C ) :   0.9041
B( 17-C , 18-C ) :   1.1635 B( 17-C , 36-H ) :   0.9325 B( 17-C , 37-H ) :   0.9118
B( 18-C , 38-H ) :   0.9441 B( 18-C , 39-H ) :   0.9381 B( 18-C , 40-H ) :   0.9243

Dispersion correction           -0.066198004
FINAL SINGLE POINT ENERGY     -2929.516694308360

DIPOLE MOMENT
-------------

Method             : SCF
Type of density    : Electron Density
Multiplicity       :   1
Irrep              :   0
Energy             : -2929.6356091901002401 Eh
Relativity type    :
Basis              : AO
                                X                 Y                 Z
Electronic contribution:     -1.619020758       3.161259691      -6.154575743
Nuclear contribution   :      0.967013797      -3.150542626       5.955219217
                        -----------------------------------------
Total Dipole Moment    :     -0.652006961       0.010717065      -0.199356526
                        -----------------------------------------
Magnitude (a.u.)       :      0.681887790
Magnitude (Debye)      :      1.733221020

Rotational constants in cm-1:             0.012874             0.005097             0.004578
Rotational constants in MHz :           385.962819           152.808294           137.245292

                             ****ORCA TERMINATED NORMALLY****
TOTAL RUN TIME: 0 days 0 hours 0 minutes 21 seconds 338 msec
