                         Program Version 6.0.0  -   RELEASE  -
|  1> ! r2scan-3c def2/J RI DEFGRID2 scfconv6 printgap
|  2> %output
|  3>     printlevel normal
|  4> end
|  5> * xyz 0 1
|  6> C -0.19020011 2.6027661095 2.4403455686
|  7> C 0.7032682933 1.3819282853 2.5067718163
|  8> O 1.0301082688 1.0002385987 1.1547383886
|  9> P 1.6393108276 -0.418431393 0.8227849536
| 10> S 0.8917119241 -1.9812331003 1.754076247
| 11> O 3.1677046665 -0.1523378171 1.2022951134
| 12> C 4.1209429508 -1.2098133746 1.394724764
| 13> C 4.4225326563 -1.9555075111 0.1105634899
| 14> S 1.6153308896 -0.4127491418 -1.2796431549
| 15> C 0.3629246907 -1.6942045132 -1.5802004806
| 16> S -1.1863129198 -1.1006675728 -2.3369857745
| 17> P -1.84526826 0.32267849 -0.9071173262
| 18> S -3.6925512739 0.9006916807 -1.1958696033
| 19> O -0.7641050369 1.4770676631 -0.9124155499
| 20> C -0.6277128759 2.3408509664 -2.0591791015
| 21> C 0.3424984238 3.4426720972 -1.6870186875
| 22> O -1.475376509 -0.2961658123 0.5075277944
| 23> C -2.4606419465 -1.0566988633 1.2425491449
| 24> C -3.1407898179 -0.1856218416 2.2783666585
| 25> H -0.494036657 2.8827194714 3.4440075729
| 26> H 0.3440155942 3.4286033313 1.9799999007
| 27> H -1.0717238855 2.3820891095 1.8429586087
| 28> H 0.1987930514 0.5388885026 2.9922409165
| 29> H 1.6349925347 1.5930884486 3.0388919331
| 30> H 5.0039224061 -0.6983014749 1.780241132
| 31> H 3.7275800336 -1.8945786452 2.1530753434
| 32> H 4.6990171741 -1.2579902308 -0.6759575085
| 33> H 5.2401147371 -2.6480311607 0.2832817699
| 34> H 3.5464178664 -2.5181526268 -0.2088090658
| 35> H 0.1462744008 -2.1994542513 -0.6356776372
| 36> H 0.7675848474 -2.3890250267 -2.3119885432
| 37> H -0.2508727699 1.7475299053 -2.8989501006
| 38> H -1.6158309646 2.7369585058 -2.3166095598
| 39> H -0.0607053014 4.0356525726 -0.871329146
| 40> H 1.2870070356 3.0061854397 -1.3728149888
| 41> H 0.5071437367 4.0795160941 -2.5497584722
| 42> H -3.1940006334 -1.4686536287 0.5423871682
| 43> H -1.899510249 -1.870360865 1.7085750933
| 44> H -3.6801846237 0.6223596843 1.7879309826
| 45> H -3.8433852862 -0.7905446063 2.842448954
| 46> H -2.4054376599 0.2377213537 2.9568728777
| 47> *
| 48>
| 49>                          ****END OF INPUT****

CARTESIAN COORDINATES (ANGSTROEM)
---------------------------------
  C     -0.190200    2.602766    2.440346
  C      0.703268    1.381928    2.506772
  O      1.030108    1.000239    1.154738
  P      1.639311   -0.418431    0.822785
  S      0.891712   -1.981233    1.754076
  O      3.167705   -0.152338    1.202295
  C      4.120943   -1.209813    1.394725
  C      4.422533   -1.955508    0.110563
  S      1.615331   -0.412749   -1.279643
  C      0.362925   -1.694205   -1.580200
  S     -1.186313   -1.100668   -2.336986
  P     -1.845268    0.322678   -0.907117
  S     -3.692551    0.900692   -1.195870
  O     -0.764105    1.477068   -0.912416
  C     -0.627713    2.340851   -2.059179
  C      0.342498    3.442672   -1.687019
  O     -1.475377   -0.296166    0.507528
  C     -2.460642   -1.056699    1.242549
  C     -3.140790   -0.185622    2.278367
  H     -0.494037    2.882719    3.444008
  H      0.344016    3.428603    1.980000
  H     -1.071724    2.382089    1.842959
  H      0.198793    0.538889    2.992241
  H      1.634993    1.593088    3.038892
  H      5.003922   -0.698301    1.780241
  H      3.727580   -1.894579    2.153075
  H      4.699017   -1.257990   -0.675958
  H      5.240115   -2.648031    0.283282
  H      3.546418   -2.518153   -0.208809
  H      0.146274   -2.199454   -0.635678
  H      0.767585   -2.389025   -2.311989
  H     -0.250873    1.747530   -2.898950
  H     -1.615831    2.736959   -2.316610
  H     -0.060705    4.035653   -0.871329
  H      1.287007    3.006185   -1.372815
  H      0.507144    4.079516   -2.549758
  H     -3.194001   -1.468654    0.542387
  H     -1.899510   -1.870361    1.708575
  H     -3.680185    0.622360    1.787931
  H     -3.843385   -0.790545    2.842449
  H     -2.405438    0.237721    2.956873

 Total Charge           Charge          ....    0
 Multiplicity           Mult            ....    1
 Number of Electrons    NEL             ....  202
 Basis Dimension        Dim             ....  539

ORBITAL ENERGIES
----------------

  NO   OCC          E(Eh)            E(eV)
   0   2.0000     -88.582750     -2410.4592
   1   2.0000     -88.576111     -2410.2785
   2   2.0000     -88.525620     -2408.9046
   3   2.0000     -88.518060     -2408.6989
   4   2.0000     -76.917377     -2093.0282
   5   2.0000     -76.912262     -2092.8890
   6   2.0000     -18.992082      -516.8008
   7   2.0000     -18.991545      -516.7862
   8   2.0000     -18.988530      -516.7042
   9   2.0000     -18.986245      -516.6420
  10   2.0000     -10.110882      -275.1311
  11   2.0000     -10.099155      -274.8120
  12   2.0000     -10.098586      -274.7965
  13   2.0000     -10.095174      -274.7036
  14   2.0000     -10.093344      -274.6539
  15   2.0000     -10.030848      -272.9533
  16   2.0000     -10.029711      -272.9223
  17   2.0000     -10.029341      -272.9123
  18   2.0000     -10.024433      -272.7787
  19   2.0000      -7.877337      -214.3532
  20   2.0000      -7.870034      -214.1545
  21   2.0000      -7.820629      -212.8101
  22   2.0000      -7.812772      -212.5963
  23   2.0000      -6.596001      -179.4863
  24   2.0000      -6.590689      -179.3418
  25   2.0000      -5.824199      -158.4845
  26   2.0000      -5.821286      -158.4053
  27   2.0000      -5.817264      -158.2958
  28   2.0000      -5.814295      -158.2150
  29   2.0000      -5.813319      -158.1885
  30   2.0000      -5.807437      -158.0284
  31   2.0000      -5.768193      -156.9605
  32   2.0000      -5.761210      -156.7705
  33   2.0000      -5.760357      -156.7473
  34   2.0000      -5.760355      -156.7472
  35   2.0000      -5.753102      -156.5499
  36   2.0000      -5.752808      -156.5419
  37   2.0000      -4.741335      -129.0183
  38   2.0000      -4.740741      -129.0021
  39   2.0000      -4.740054      -128.9834
  40   2.0000      -4.736211      -128.8788
  41   2.0000      -4.735847      -128.8689
  42   2.0000      -4.734192      -128.8239
  43   2.0000      -1.052203       -28.6319
  44   2.0000      -1.048355       -28.5272
  45   2.0000      -1.009488       -27.4696
  46   2.0000      -1.008838       -27.4519
  47   2.0000      -0.801839       -21.8192
  48   2.0000      -0.759771       -20.6744
  49   2.0000      -0.750671       -20.4268
  50   2.0000      -0.732259       -19.9258
  51   2.0000      -0.726881       -19.7794
  52   2.0000      -0.714953       -19.4549
  53   2.0000      -0.687604       -18.7107
  54   2.0000      -0.670537       -18.2462
  55   2.0000      -0.631391       -17.1810
  56   2.0000      -0.622283       -16.9332
  57   2.0000      -0.605576       -16.4785
  58   2.0000      -0.595555       -16.2059
  59   2.0000      -0.590863       -16.0782
  60   2.0000      -0.531985       -14.4760
  61   2.0000      -0.527219       -14.3463
  62   2.0000      -0.496846       -13.5199
  63   2.0000      -0.492716       -13.4075
  64   2.0000      -0.470562       -12.8047
  65   2.0000      -0.463005       -12.5990
  66   2.0000      -0.458808       -12.4848
  67   2.0000      -0.452191       -12.3047
  68   2.0000      -0.449244       -12.2246
  69   2.0000      -0.444303       -12.0901
  70   2.0000      -0.428418       -11.6578
  71   2.0000      -0.415298       -11.3008
  72   2.0000      -0.407050       -11.0764
  73   2.0000      -0.403861       -10.9896
  74   2.0000      -0.391996       -10.6668
  75   2.0000      -0.390557       -10.6276
  76   2.0000      -0.380072       -10.3423
  77   2.0000      -0.372026       -10.1233
  78   2.0000      -0.368908       -10.0385
  79   2.0000      -0.368032       -10.0147
  80   2.0000      -0.365680        -9.9507
  81   2.0000      -0.356792        -9.7088
  82   2.0000      -0.352999        -9.6056
  83   2.0000      -0.350286        -9.5318
  84   2.0000      -0.344736        -9.3807
  85   2.0000      -0.332872        -9.0579
  86   2.0000      -0.329817        -8.9748
  87   2.0000      -0.319283        -8.6881
  88   2.0000      -0.313121        -8.5205
  89   2.0000      -0.309256        -8.4153
  90   2.0000      -0.299575        -8.1519
  91   2.0000      -0.286687        -7.8011
  92   2.0000      -0.283201        -7.7063
  93   2.0000      -0.279130        -7.5955
  94   2.0000      -0.269390        -7.3305
  95   2.0000      -0.248612        -6.7651
  96   2.0000      -0.236981        -6.4486
  97   2.0000      -0.227090        -6.1794
  98   2.0000      -0.222189        -6.0461
  99   2.0000      -0.215712        -5.8698
 100   2.0000      -0.211974        -5.7681
 101   0.0000      -0.047010        -1.2792
 102   0.0000      -0.028942        -0.7875
 103   0.0000      -0.016628        -0.4525
 104   0.0000      -0.002603        -0.0708
 105   0.0000       0.009220         0.2509

MULLIKEN ATOMIC CHARGES
-----------------------
   0 C :   -0.464327
   1 C :   -0.152461
   2 O :   -0.282163
   3 P :    0.715682
   4 S :   -0.512293
   5 O :   -0.307829
   6 C :   -0.152917
   7 C :   -0.441848
   8 S :   -0.115922
   9 C :   -0.211572
  10 S :   -0.153793
  11 P :    0.607783
  12 S :   -0.449511
  13 O :   -0.222855
  14 C :   -0.131707
  15 C :   -0.448997
  16 O :   -0.259352
  17 C :   -0.123176
  18 C :   -0.464655
  19 H :    0.146648
  20 H :    0.148066
  21 H :    0.178860
  22 H :    0.165972
  23 H :    0.151999
  24 H :    0.147190
  25 H :    0.172923
  26 H :    0.155763
  27 H :    0.148210
  28 H :    0.168797
  29 H :    0.208346
  30 H :    0.189342
  31 H :    0.155850
  32 H :    0.167016
  33 H :    0.152117
  34 H :    0.164196
  35 H :    0.145546
  36 H :    0.156803
  37 H :    0.173271
  38 H :    0.181042
  39 H :    0.147464
  40 H :    0.146494
Sum of atomic charges:   -0.0000000

LOEWDIN ATOMIC CHARGES
----------------------
   0 C :   -0.388956
   1 C :    0.023745
   2 O :   -0.655882
   3 P :    0.393888
   4 S :   -0.124077
   5 O :   -0.666053
   6 C :    0.017734
   7 C :   -0.407078
   8 S :    0.199925
   9 C :   -0.414357
  10 S :    0.137023
  11 P :    0.365877
  12 S :   -0.109033
  13 O :   -0.678215
  14 C :    0.015176
  15 C :   -0.386514
  16 O :   -0.676007
  17 C :    0.011173
  18 C :   -0.398272
  19 H :    0.159279
  20 H :    0.158883
  21 H :    0.169464
  22 H :    0.179202
  23 H :    0.172504
  24 H :    0.179224
  25 H :    0.179189
  26 H :    0.160747
  27 H :    0.158632
  28 H :    0.162115
  29 H :    0.196071
  30 H :    0.181965
  31 H :    0.173748
  32 H :    0.180088
  33 H :    0.159312
  34 H :    0.163762
  35 H :    0.158772
  36 H :    0.179098
  37 H :    0.184708
  38 H :    0.167456
  39 H :    0.160065
  40 H :    0.155617

  Mayer bond orders larger than 0.100000
B(  0-C ,  1-C ) :   0.9410 B(  0-C , 19-H ) :   0.9655 B(  0-C , 20-H ) :   0.9666
B(  0-C , 21-H ) :   0.9694 B(  1-C ,  2-O ) :   0.7646 B(  1-C , 22-H ) :   0.9614
B(  1-C , 23-H ) :   0.9420 B(  2-O ,  3-P ) :   1.2069 B(  3-P ,  4-S ) :   1.6847
B(  3-P ,  5-O ) :   1.0573 B(  3-P ,  8-S ) :   1.1355 B(  5-O ,  6-C ) :   0.8251
B(  6-C ,  7-C ) :   0.9206 B(  6-C , 24-H ) :   0.9582 B(  6-C , 25-H ) :   0.9694
B(  7-C , 26-H ) :   0.9664 B(  7-C , 27-H ) :   0.9603 B(  7-C , 28-H ) :   0.9665
B(  8-S ,  9-C ) :   0.9113 B(  9-C , 10-S ) :   0.9088 B(  9-C , 29-H ) :   0.9054
B(  9-C , 30-H ) :   0.9142 B( 10-S , 11-P ) :   1.0471 B( 11-P , 12-S ) :   1.8413
B( 11-P , 13-O ) :   1.0932 B( 11-P , 16-O ) :   1.0837 B( 13-O , 14-C ) :   0.7880
B( 14-C , 15-C ) :   0.9440 B( 14-C , 31-H ) :   0.9495 B( 14-C , 32-H ) :   0.9440
B( 15-C , 33-H ) :   0.9706 B( 15-C , 34-H ) :   0.9731 B( 15-C , 35-H ) :   0.9658
B( 16-O , 17-C ) :   0.7447 B( 17-C , 18-C ) :   0.9387 B( 17-C , 36-H ) :   0.9564
B( 17-C , 37-H ) :   0.9501 B( 18-C , 38-H ) :   0.9625 B( 18-C , 39-H ) :   0.9664
B( 18-C , 40-H ) :   0.9740

Dispersion correction           -0.023210211
FINAL SINGLE POINT ENERGY     -2932.462769315212

DIPOLE MOMENT
-------------

Method             : SCF
Type of density    : Electron Density
Multiplicity       :   1
Irrep              :   0
Energy             : -2932.4867994676342278 Eh
Relativity type    :
Basis              : AO
                                X                 Y                 Z
Electronic contribution:     -6.814052412      -8.961112674     -12.349197391
Nuclear contribution   :      8.337930692       9.156066596      12.868451233
                        -----------------------------------------
Total Dipole Moment    :      1.523878280       0.194953922       0.519253842
                        -----------------------------------------
Magnitude (a.u.)       :      1.621677094
Magnitude (Debye)      :      4.121975594

Rotational constants in cm-1:             0.011098             0.006190             0.005894
Rotational constants in MHz :           332.710267           185.581312           176.705762

                             ****ORCA TERMINATED NORMALLY****
TOTAL RUN TIME: 0 days 0 hours 1 minutes 27 seconds 867 msec
