                         Program Version 6.0.0  -   RELEASE  -
|  1> ! r2scan-3c def2/J RI DEFGRID2 scfconv6 printgap
|  2> %output
|  3>     printlevel normal
|  4> end
|  5> %cpcm
|  6>     smd true
|  7>     smdsolvent "water"
|  8> end
|  9> * xyz 0 1
| 10> C -0.19020011 2.6027661095 2.4403455686
| 11> C 0.7032682933 1.3819282853 2.5067718163
| 12> O 1.0301082688 1.0002385987 1.1547383886
| 13> P 1.6393108276 -0.418431393 0.8227849536
| 14> S 0.8917119241 -1.9812331003 1.754076247
| 15> O 3.1677046665 -0.1523378171 1.2022951134
| 16> C 4.1209429508 -1.2098133746 1.394724764
| 17> C 4.4225326563 -1.9555075111 0.1105634899
| 18> S 1.6153308896 -0.4127491418 -1.2796431549
| 19> C 0.3629246907 -1.6942045132 -1.5802004806
| 20> S -1.1863129198 -1.1006675728 -2.3369857745
| 21> P -1.84526826 0.32267849 -0.9071173262
| 22> S -3.6925512739 0.9006916807 -1.1958696033
| 23> O -0.7641050369 1.4770676631 -0.9124155499
| 24> C -0.6277128759 2.3408509664 -2.0591791015
| 25> C 0.3424984238 3.4426720972 -1.6870186875
| 26> O -1.475376509 -0.2961658123 0.5075277944
| 27> C -2.4606419465 -1.0566988633 1.2425491449
| 28> C -3.1407898179 -0.1856218416 2.2783666585
| 29> H -0.494036657 2.8827194714 3.4440075729
| 30> H 0.3440155942 3.4286033313 1.9799999007
| 31> H -1.0717238855 2.3820891095 1.8429586087
| 32> H 0.1987930514 0.5388885026 2.9922409165
| 33> H 1.6349925347 1.5930884486 3.0388919331
| 34> H 5.0039224061 -0.6983014749 1.780241132
| 35> H 3.7275800336 -1.8945786452 2.1530753434
| 36> H 4.6990171741 -1.2579902308 -0.6759575085
| 37> H 5.2401147371 -2.6480311607 0.2832817699
| 38> H 3.5464178664 -2.5181526268 -0.2088090658
| 39> H 0.1462744008 -2.1994542513 -0.6356776372
| 40> H 0.7675848474 -2.3890250267 -2.3119885432
| 41> H -0.2508727699 1.7475299053 -2.8989501006
| 42> H -1.6158309646 2.7369585058 -2.3166095598
| 43> H -0.0607053014 4.0356525726 -0.871329146
| 44> H 1.2870070356 3.0061854397 -1.3728149888
| 45> H 0.5071437367 4.0795160941 -2.5497584722
| 46> H -3.1940006334 -1.4686536287 0.5423871682
| 47> H -1.899510249 -1.870360865 1.7085750933
| 48> H -3.6801846237 0.6223596843 1.7879309826
| 49> H -3.8433852862 -0.7905446063 2.842448954
| 50> H -2.4054376599 0.2377213537 2.9568728777
| 51> *
| 52>
| 53>                          ****END OF INPUT****

CARTESIAN COORDINATES (ANGSTROEM)
---------------------------------
  C     -0.190200    2.602766    2.440346
  C      0.703268    1.381928    2.506772
  O      1.030108    1.000239    1.154738
  P      1.639311   -0.418431    0.822785
  S      0.891712   -1.981233    1.754076
  O      3.167705   -0.152338    1.202295
  C      4.120943   -1.209813    1.394725
  C      4.422533   -1.955508    0.110563
  S      1.615331   -0.412749   -1.279643
  C      0.362925   -1.694205   -1.580200
  S     -1.186313   -1.100668   -2.336986
  P     -1.845268    0.322678   -0.907117
  S     -3.692551    0.900692   -1.195870
  O     -0.764105    1.477068   -0.912416
  C     -0.627713    2.340851   -2.059179
  C      0.342498    3.442672   -1.687019
  O     -1.475377   -0.296166    0.507528
  C     -2.460642   -1.056699    1.242549
  C     -3.140790   -0.185622    2.278367
  H     -0.494037    2.882719    3.444008
  H      0.344016    3.428603    1.980000
  H     -1.071724    2.382089    1.842959
  H      0.198793    0.538889    2.992241
  H      1.634993    1.593088    3.038892
  H      5.003922   -0.698301    1.780241
  H      3.727580   -1.894579    2.153075
  H      4.699017   -1.257990   -0.675958
  H      5.240115   -2.648031    0.283282
  H      3.546418   -2.518153   -0.208809
  H      0.146274   -2.199454   -0.635678
  H      0.767585   -2.389025   -2.311989
  H     -0.250873    1.747530   -2.898950
  H     -1.615831    2.736959   -2.316610
  H     -0.060705    4.035653   -0.871329
  H      1.287007    3.006185   -1.372815
  H      0.507144    4.079516   -2.549758
  H     -3.194001   -1.468654    0.542387
  H     -1.899510   -1.870361    1.708575
  H     -3.680185    0.622360    1.787931
  H     -3.843385   -0.790545    2.842449
  H     -2.405438    0.237721    2.956873

 Total Charge           Charge          ....    0
 Multiplicity           Mult            ....    1
 Number of Electrons    NEL             ....  202
 Basis Dimension        Dim             ....  539

ORBITAL ENERGIES
----------------

  NO   OCC          E(Eh)            E(eV)
   0   2.0000     -88.581320     -2410.4203
   1   2.0000     -88.579301     -2410.3653
   2   2.0000     -88.528357     -2408.9791
   3   2.0000     -88.526722     -2408.9346
   4   2.0000     -76.918831     -2093.0678
   5   2.0000     -76.917859     -2093.0413
   6   2.0000     -18.994512      -516.8670
   7   2.0000     -18.991054      -516.7728
   8   2.0000     -18.990947      -516.7699
   9   2.0000     -18.989846      -516.7400
  10   2.0000     -10.105948      -274.9968
  11   2.0000     -10.089737      -274.5557
  12   2.0000     -10.088992      -274.5354
  13   2.0000     -10.088419      -274.5198
  14   2.0000     -10.087275      -274.4887
  15   2.0000     -10.019429      -272.6425
  16   2.0000     -10.018732      -272.6236
  17   2.0000     -10.017278      -272.5840
  18   2.0000     -10.016735      -272.5692
  19   2.0000      -7.875851      -214.3128
  20   2.0000      -7.873263      -214.2424
  21   2.0000      -7.823465      -212.8873
  22   2.0000      -7.821929      -212.8455
  23   2.0000      -6.597322      -179.5223
  24   2.0000      -6.596527      -179.5006
  25   2.0000      -5.822742      -158.4449
  26   2.0000      -5.820434      -158.3821
  27   2.0000      -5.819800      -158.3648
  28   2.0000      -5.816541      -158.2761
  29   2.0000      -5.812793      -158.1741
  30   2.0000      -5.810744      -158.1184
  31   2.0000      -5.770933      -157.0351
  32   2.0000      -5.769462      -156.9950
  33   2.0000      -5.763758      -156.8398
  34   2.0000      -5.763579      -156.8350
  35   2.0000      -5.762509      -156.8058
  36   2.0000      -5.761650      -156.7825
  37   2.0000      -4.742792      -129.0579
  38   2.0000      -4.742476      -129.0493
  39   2.0000      -4.741846      -129.0322
  40   2.0000      -4.741273      -129.0166
  41   2.0000      -4.740917      -129.0069
  42   2.0000      -4.740601      -128.9983
  43   2.0000      -1.054520       -28.6949
  44   2.0000      -1.049652       -28.5625
  45   2.0000      -1.011851       -27.5339
  46   2.0000      -1.008826       -27.4516
  47   2.0000      -0.799898       -21.7663
  48   2.0000      -0.756763       -20.5926
  49   2.0000      -0.745345       -20.2819
  50   2.0000      -0.721776       -19.6405
  51   2.0000      -0.720779       -19.6134
  52   2.0000      -0.713056       -19.4032
  53   2.0000      -0.690558       -18.7910
  54   2.0000      -0.673520       -18.3274
  55   2.0000      -0.627877       -17.0854
  56   2.0000      -0.618889       -16.8408
  57   2.0000      -0.597916       -16.2701
  58   2.0000      -0.591102       -16.0847
  59   2.0000      -0.585697       -15.9376
  60   2.0000      -0.528817       -14.3899
  61   2.0000      -0.523663       -14.2496
  62   2.0000      -0.495849       -13.4927
  63   2.0000      -0.487787       -13.2734
  64   2.0000      -0.467650       -12.7254
  65   2.0000      -0.460370       -12.5273
  66   2.0000      -0.455196       -12.3865
  67   2.0000      -0.451570       -12.2878
  68   2.0000      -0.444313       -12.0904
  69   2.0000      -0.436340       -11.8734
  70   2.0000      -0.423149       -11.5145
  71   2.0000      -0.412220       -11.2171
  72   2.0000      -0.404340       -11.0026
  73   2.0000      -0.397141       -10.8068
  74   2.0000      -0.389731       -10.6051
  75   2.0000      -0.387215       -10.5367
  76   2.0000      -0.378315       -10.2945
  77   2.0000      -0.364625        -9.9219
  78   2.0000      -0.362616        -9.8673
  79   2.0000      -0.358940        -9.7672
  80   2.0000      -0.355387        -9.6706
  81   2.0000      -0.349505        -9.5105
  82   2.0000      -0.347022        -9.4430
  83   2.0000      -0.344315        -9.3693
  84   2.0000      -0.340949        -9.2777
  85   2.0000      -0.330649        -8.9974
  86   2.0000      -0.324360        -8.8263
  87   2.0000      -0.318967        -8.6795
  88   2.0000      -0.308010        -8.3814
  89   2.0000      -0.303923        -8.2702
  90   2.0000      -0.298106        -8.1119
  91   2.0000      -0.284452        -7.7403
  92   2.0000      -0.281095        -7.6490
  93   2.0000      -0.277373        -7.5477
  94   2.0000      -0.271079        -7.3764
  95   2.0000      -0.251769        -6.8510
  96   2.0000      -0.237928        -6.4744
  97   2.0000      -0.232432        -6.3248
  98   2.0000      -0.229022        -6.2320
  99   2.0000      -0.220517        -6.0006
 100   2.0000      -0.219464        -5.9719
 101   0.0000      -0.046710        -1.2711
 102   0.0000      -0.030443        -0.8284
 103   0.0000      -0.021658        -0.5893
 104   0.0000      -0.005910        -0.1608
 105   0.0000       0.009412         0.2561

MULLIKEN ATOMIC CHARGES
-----------------------
   0 C :   -0.505848
   1 C :   -0.143999
   2 O :   -0.321581
   3 P :    0.737326
   4 S :   -0.544265
   5 O :   -0.337196
   6 C :   -0.152105
   7 C :   -0.478055
   8 S :   -0.116354
   9 C :   -0.206183
  10 S :   -0.177941
  11 P :    0.630530
  12 S :   -0.512288
  13 O :   -0.245261
  14 C :   -0.126208
  15 C :   -0.492520
  16 O :   -0.266974
  17 C :   -0.118955
  18 C :   -0.498126
  19 H :    0.171497
  20 H :    0.166920
  21 H :    0.172971
  22 H :    0.176014
  23 H :    0.173699
  24 H :    0.172457
  25 H :    0.176623
  26 H :    0.166184
  27 H :    0.171430
  28 H :    0.171311
  29 H :    0.212983
  30 H :    0.232180
  31 H :    0.172643
  32 H :    0.171610
  33 H :    0.168158
  34 H :    0.169603
  35 H :    0.170346
  36 H :    0.165734
  37 H :    0.182246
  38 H :    0.172148
  39 H :    0.171285
  40 H :    0.167958
Sum of atomic charges:   -0.0000000

LOEWDIN ATOMIC CHARGES
----------------------
   0 C :   -0.392548
   1 C :    0.027127
   2 O :   -0.677732
   3 P :    0.395188
   4 S :   -0.141696
   5 O :   -0.679785
   6 C :    0.021942
   7 C :   -0.410249
   8 S :    0.203911
   9 C :   -0.402576
  10 S :    0.128232
  11 P :    0.371069
  12 S :   -0.153372
  13 O :   -0.693377
  14 C :    0.018656
  15 C :   -0.390044
  16 O :   -0.680669
  17 C :    0.015993
  18 C :   -0.402362
  19 H :    0.169247
  20 H :    0.163029
  21 H :    0.164958
  22 H :    0.182956
  23 H :    0.181378
  24 H :    0.189661
  25 H :    0.180371
  26 H :    0.163201
  27 H :    0.166993
  28 H :    0.160677
  29 H :    0.198336
  30 H :    0.199713
  31 H :    0.179755
  32 H :    0.182080
  33 H :    0.163120
  34 H :    0.163814
  35 H :    0.168568
  36 H :    0.181900
  37 H :    0.188855
  38 H :    0.162842
  39 H :    0.168132
  40 H :    0.162706

  Mayer bond orders larger than 0.100000
B(  0-C ,  1-C ) :   0.9289 B(  0-C , 19-H ) :   0.9590 B(  0-C , 20-H ) :   0.9653
B(  0-C , 21-H ) :   0.9699 B(  1-C ,  2-O ) :   0.7604 B(  1-C , 22-H ) :   0.9542
B(  1-C , 23-H ) :   0.9337 B(  2-O ,  3-P ) :   1.2014 B(  3-P ,  4-S ) :   1.6614
B(  3-P ,  5-O ) :   1.0612 B(  3-P ,  8-S ) :   1.1460 B(  5-O ,  6-C ) :   0.8142
B(  6-C ,  7-C ) :   0.9095 B(  6-C , 24-H ) :   0.9492 B(  6-C , 25-H ) :   0.9671
B(  7-C , 26-H ) :   0.9645 B(  7-C , 27-H ) :   0.9553 B(  7-C , 28-H ) :   0.9657
B(  8-S ,  9-C ) :   0.9128 B(  9-C , 10-S ) :   0.8998 B(  9-C , 29-H ) :   0.9058
B(  9-C , 30-H ) :   0.8973 B( 10-S , 11-P ) :   1.0677 B( 11-P , 12-S ) :   1.7962
B( 11-P , 13-O ) :   1.0992 B( 11-P , 16-O ) :   1.0923 B( 13-O , 14-C ) :   0.7823
B( 14-C , 15-C ) :   0.9365 B( 14-C , 31-H ) :   0.9424 B( 14-C , 32-H ) :   0.9392
B( 15-C , 33-H ) :   0.9674 B( 15-C , 34-H ) :   0.9719 B( 15-C , 35-H ) :   0.9592
B( 16-O , 17-C ) :   0.7333 B( 17-C , 18-C ) :   0.9310 B( 17-C , 36-H ) :   0.9532
B( 17-C , 37-H ) :   0.9460 B( 18-C , 38-H ) :   0.9652 B( 18-C , 39-H ) :   0.9620
B( 18-C , 40-H ) :   0.9686

Dispersion correction           -0.023210211
FINAL SINGLE POINT ENERGY     -2932.471595054261

DIPOLE MOMENT
-------------

Method             : SCF
Type of density    : Electron Density
Multiplicity       :   1
Irrep              :   0
Energy             : -2932.4956252066840534 Eh
Relativity type    :
Basis              : AO
                                X                 Y                 Z
Electronic contribution:     -6.252245250      -9.147720808     -12.247189921
Nuclear contribution   :      8.337930692       9.156066596      12.868451233
                        -----------------------------------------
Total Dipole Moment    :      2.085685443       0.008345788       0.621261311
                        -----------------------------------------
Magnitude (a.u.)       :      2.176262630
Magnitude (Debye)      :      5.531620001

Rotational constants in cm-1:             0.011098             0.006190             0.005894
Rotational constants in MHz :           332.710267           185.581312           176.705762

                             ****ORCA TERMINATED NORMALLY****
TOTAL RUN TIME: 0 days 0 hours 2 minutes 2 seconds 542 msec
