                         Program Version 6.0.0  -   RELEASE  -
|  1> ! r2scan-3c def2/J RI DEFGRID2 scfconv6 printgap
|  2> %output
|  3>     printlevel normal
|  4> end
|  5> * xyz 0 1
|  6> C 5.1305178435 -1.3667423828 -0.6396923274
|  7> C 4.582819974 -0.3004827476 -1.5648805998
|  8> O 3.1659795509 -0.1006349523 -1.3799531148
|  9> P 2.5811122122 0.5308825283 -0.0445133429
| 10> S 3.6868058426 1.8911014397 0.8271984027
| 11> O 2.295541099 -0.775091359 0.8278477138
| 12> C 2.184588965 -0.7286986869 2.2584206228
| 13> C 0.9727116981 0.0563590899 2.7168553259
| 14> S 0.7067999311 1.1524674289 -0.7937619532
| 15> C 0.1608190922 -0.4206646259 -1.5290444914
| 16> S -0.6377683397 -1.5383811692 -0.3481494103
| 17> P -2.4067013989 -0.419387154 -0.1228885728
| 18> S -3.1118572155 0.4454570379 -1.7407124041
| 19> O -2.0207565877 0.5127798196 1.0947159119
| 20> C -2.7695148258 1.7059289036 1.4221933221
| 21> C -2.0813009888 2.9340106506 0.8612966541
| 22> O -3.4162967097 -1.4303860511 0.5751274667
| 23> C -4.2502776841 -2.3441335715 -0.1667178394
| 24> C -5.6946280094 -2.1426021006 0.2487526884
| 25> H 6.1675940513 -1.5631605249 -0.8930894724
| 26> H 5.0785084075 -1.0229935894 0.3924869329
| 27> H 4.5537305886 -2.2829708319 -0.7356332049
| 28> H 4.6698577658 -0.5878273537 -2.6135760826
| 29> H 5.0905197407 0.6544305718 -1.3969137642
| 30> H 2.121574882 -1.7772124522 2.5518895007
| 31> H 3.0982286253 -0.2780340582 2.6596147618
| 32> H 0.9163869295 0.0326257668 3.8003857793
| 33> H 1.0627567855 1.0931515963 2.3909260458
| 34> H 0.0598824373 -0.3633952688 2.3013162663
| 35> H 1.0157317082 -0.9435159073 -1.9458297175
| 36> H -0.5597508988 -0.1522328877 -2.3023096874
| 37> H -3.7854636316 1.6143672193 1.0288683613
| 38> H -2.7969704114 1.7244409201 2.5125645097
| 39> H -2.6190151155 3.8222881822 1.1765180303
| 40> H -1.0557119302 2.9874284043 1.2162287888
| 41> H -2.0650306122 2.8938293595 -0.2259464728
| 42> H -4.1243058158 -2.1576965617 -1.237701651
| 43> H -3.9001396461 -3.3495872057 0.073976235
| 44> H -6.0280758065 -1.1460395424 -0.0307969063
| 45> H -6.3161572668 -2.8779366638 -0.251653151
| 46> H -5.7920615974 -2.2589150462 1.3242773221
| 47> *
| 48>
| 49>                          ****END OF INPUT****

CARTESIAN COORDINATES (ANGSTROEM)
---------------------------------
  C      5.130518   -1.366742   -0.639692
  C      4.582820   -0.300483   -1.564881
  O      3.165980   -0.100635   -1.379953
  P      2.581112    0.530883   -0.044513
  S      3.686806    1.891101    0.827198
  O      2.295541   -0.775091    0.827848
  C      2.184589   -0.728699    2.258421
  C      0.972712    0.056359    2.716855
  S      0.706800    1.152467   -0.793762
  C      0.160819   -0.420665   -1.529044
  S     -0.637768   -1.538381   -0.348149
  P     -2.406701   -0.419387   -0.122889
  S     -3.111857    0.445457   -1.740712
  O     -2.020757    0.512780    1.094716
  C     -2.769515    1.705929    1.422193
  C     -2.081301    2.934011    0.861297
  O     -3.416297   -1.430386    0.575127
  C     -4.250278   -2.344134   -0.166718
  C     -5.694628   -2.142602    0.248753
  H      6.167594   -1.563161   -0.893089
  H      5.078508   -1.022994    0.392487
  H      4.553731   -2.282971   -0.735633
  H      4.669858   -0.587827   -2.613576
  H      5.090520    0.654431   -1.396914
  H      2.121575   -1.777212    2.551890
  H      3.098229   -0.278034    2.659615
  H      0.916387    0.032626    3.800386
  H      1.062757    1.093152    2.390926
  H      0.059882   -0.363395    2.301316
  H      1.015732   -0.943516   -1.945830
  H     -0.559751   -0.152233   -2.302310
  H     -3.785464    1.614367    1.028868
  H     -2.796970    1.724441    2.512565
  H     -2.619015    3.822288    1.176518
  H     -1.055712    2.987428    1.216229
  H     -2.065031    2.893829   -0.225946
  H     -4.124306   -2.157697   -1.237702
  H     -3.900140   -3.349587    0.073976
  H     -6.028076   -1.146040   -0.030797
  H     -6.316157   -2.877937   -0.251653
  H     -5.792062   -2.258915    1.324277

 Total Charge           Charge          ....    0
 Multiplicity           Mult            ....    1
 Number of Electrons    NEL             ....  202
 Basis Dimension        Dim             ....  539

ORBITAL ENERGIES
----------------

  NO   OCC          E(Eh)            E(eV)
   0   2.0000     -88.579003     -2410.3572
   1   2.0000     -88.573103     -2410.1967
   2   2.0000     -88.525220     -2408.8937
   3   2.0000     -88.521881     -2408.8029
   4   2.0000     -76.917970     -2093.0444
   5   2.0000     -76.914083     -2092.9386
   6   2.0000     -18.995500      -516.8938
   7   2.0000     -18.992708      -516.8179
   8   2.0000     -18.990369      -516.7542
   9   2.0000     -18.989340      -516.7262
  10   2.0000     -10.107307      -275.0338
  11   2.0000     -10.101797      -274.8839
  12   2.0000     -10.100740      -274.8551
  13   2.0000     -10.099197      -274.8131
  14   2.0000     -10.094641      -274.6892
  15   2.0000     -10.033955      -273.0378
  16   2.0000     -10.030331      -272.9392
  17   2.0000     -10.023764      -272.7605
  18   2.0000     -10.019801      -272.6526
  19   2.0000      -7.873416      -214.2465
  20   2.0000      -7.867250      -214.0788
  21   2.0000      -7.819981      -212.7925
  22   2.0000      -7.816495      -212.6976
  23   2.0000      -6.596443      -179.4983
  24   2.0000      -6.592399      -179.3883
  25   2.0000      -5.820248      -158.3770
  26   2.0000      -5.817266      -158.2958
  27   2.0000      -5.814587      -158.2229
  28   2.0000      -5.810859      -158.1215
  29   2.0000      -5.810558      -158.1133
  30   2.0000      -5.804170      -157.9395
  31   2.0000      -5.767563      -156.9434
  32   2.0000      -5.764164      -156.8509
  33   2.0000      -5.760325      -156.7464
  34   2.0000      -5.759992      -156.7374
  35   2.0000      -5.756908      -156.6534
  36   2.0000      -5.756369      -156.6388
  37   2.0000      -4.741933      -129.0346
  38   2.0000      -4.741250      -129.0160
  39   2.0000      -4.740299      -128.9901
  40   2.0000      -4.737739      -128.9204
  41   2.0000      -4.737393      -128.9110
  42   2.0000      -4.736247      -128.8798
  43   2.0000      -1.052531       -28.6408
  44   2.0000      -1.048699       -28.5365
  45   2.0000      -1.012912       -27.5627
  46   2.0000      -1.010051       -27.4849
  47   2.0000      -0.802807       -21.8455
  48   2.0000      -0.761366       -20.7178
  49   2.0000      -0.748469       -20.3669
  50   2.0000      -0.732391       -19.9294
  51   2.0000      -0.728410       -19.8210
  52   2.0000      -0.711233       -19.3536
  53   2.0000      -0.690450       -18.7881
  54   2.0000      -0.670690       -18.2504
  55   2.0000      -0.630912       -17.1680
  56   2.0000      -0.624742       -17.0001
  57   2.0000      -0.607216       -16.5232
  58   2.0000      -0.603956       -16.4345
  59   2.0000      -0.591330       -16.0909
  60   2.0000      -0.533383       -14.5141
  61   2.0000      -0.517800       -14.0901
  62   2.0000      -0.498656       -13.5691
  63   2.0000      -0.490138       -13.3373
  64   2.0000      -0.479825       -13.0567
  65   2.0000      -0.464395       -12.6368
  66   2.0000      -0.456513       -12.4224
  67   2.0000      -0.455385       -12.3916
  68   2.0000      -0.450434       -12.2569
  69   2.0000      -0.429579       -11.6894
  70   2.0000      -0.425110       -11.5678
  71   2.0000      -0.412773       -11.2321
  72   2.0000      -0.411299       -11.1920
  73   2.0000      -0.408748       -11.1226
  74   2.0000      -0.400652       -10.9023
  75   2.0000      -0.392098       -10.6695
  76   2.0000      -0.382155       -10.3990
  77   2.0000      -0.370814       -10.0904
  78   2.0000      -0.369110       -10.0440
  79   2.0000      -0.367761       -10.0073
  80   2.0000      -0.362484        -9.8637
  81   2.0000      -0.359396        -9.7797
  82   2.0000      -0.356626        -9.7043
  83   2.0000      -0.352242        -9.5850
  84   2.0000      -0.343238        -9.3400
  85   2.0000      -0.333554        -9.0765
  86   2.0000      -0.322637        -8.7794
  87   2.0000      -0.314752        -8.5648
  88   2.0000      -0.309548        -8.4232
  89   2.0000      -0.306201        -8.3322
  90   2.0000      -0.302115        -8.2210
  91   2.0000      -0.295366        -8.0373
  92   2.0000      -0.288709        -7.8562
  93   2.0000      -0.282985        -7.7004
  94   2.0000      -0.271695        -7.3932
  95   2.0000      -0.245131        -6.6703
  96   2.0000      -0.230121        -6.2619
  97   2.0000      -0.225333        -6.1316
  98   2.0000      -0.222663        -6.0590
  99   2.0000      -0.219600        -5.9756
 100   2.0000      -0.215634        -5.8677
 101   0.0000      -0.044538        -1.2120
 102   0.0000      -0.023104        -0.6287
 103   0.0000      -0.015228        -0.4144
 104   0.0000       0.006368         0.1733
 105   0.0000       0.007552         0.2055

MULLIKEN ATOMIC CHARGES
-----------------------
   0 C :   -0.431688
   1 C :   -0.154497
   2 O :   -0.304781
   3 P :    0.646747
   4 S :   -0.460965
   5 O :   -0.267906
   6 C :   -0.140237
   7 C :   -0.458278
   8 S :   -0.099828
   9 C :   -0.265248
  10 S :   -0.103236
  11 P :    0.633873
  12 S :   -0.475360
  13 O :   -0.261876
  14 C :   -0.110532
  15 C :   -0.468849
  16 O :   -0.293742
  17 C :   -0.115916
  18 C :   -0.457446
  19 H :    0.147823
  20 H :    0.167045
  21 H :    0.153796
  22 H :    0.148886
  23 H :    0.173905
  24 H :    0.147445
  25 H :    0.162777
  26 H :    0.143361
  27 H :    0.167254
  28 H :    0.179710
  29 H :    0.213412
  30 H :    0.216340
  31 H :    0.152678
  32 H :    0.150352
  33 H :    0.144476
  34 H :    0.162809
  35 H :    0.179272
  36 H :    0.164520
  37 H :    0.149660
  38 H :    0.163045
  39 H :    0.147222
  40 H :    0.153976
Sum of atomic charges:    0.0000000

LOEWDIN ATOMIC CHARGES
----------------------
   0 C :   -0.399562
   1 C :    0.023721
   2 O :   -0.693310
   3 P :    0.370728
   4 S :   -0.110755
   5 O :   -0.676750
   6 C :    0.016326
   7 C :   -0.409436
   8 S :    0.189572
   9 C :   -0.410063
  10 S :    0.176427
  11 P :    0.369849
  12 S :   -0.135090
  13 O :   -0.674892
  14 C :    0.027077
  15 C :   -0.402708
  16 O :   -0.661180
  17 C :    0.021399
  18 C :   -0.390101
  19 H :    0.159717
  20 H :    0.164769
  21 H :    0.160656
  22 H :    0.179578
  23 H :    0.180807
  24 H :    0.180029
  25 H :    0.178356
  26 H :    0.157557
  27 H :    0.165439
  28 H :    0.172574
  29 H :    0.195463
  30 H :    0.195502
  31 H :    0.175983
  32 H :    0.178979
  33 H :    0.157988
  34 H :    0.162048
  35 H :    0.167391
  36 H :    0.180879
  37 H :    0.173617
  38 H :    0.162171
  39 H :    0.159894
  40 H :    0.159353

  Mayer bond orders larger than 0.100000
B(  0-C ,  1-C ) :   0.9241 B(  0-C , 19-H ) :   0.9611 B(  0-C , 20-H ) :   0.9603
B(  0-C , 21-H ) :   0.9702 B(  1-C ,  2-O ) :   0.8113 B(  1-C , 22-H ) :   0.9621
B(  1-C , 23-H ) :   0.9663 B(  2-O ,  3-P ) :   1.1262 B(  3-P ,  4-S ) :   1.8122
B(  3-P ,  5-O ) :   1.0333 B(  3-P ,  8-S ) :   1.0857 B(  5-O ,  6-C ) :   0.7941
B(  6-C ,  7-C ) :   0.9285 B(  6-C , 24-H ) :   0.9601 B(  6-C , 25-H ) :   0.9586
B(  7-C , 26-H ) :   0.9610 B(  7-C , 27-H ) :   0.9614 B(  7-C , 28-H ) :   0.9575
B(  8-S ,  9-C ) :   0.9096 B(  9-C , 10-S ) :   0.9205 B(  9-C , 29-H ) :   0.9100
B(  9-C , 30-H ) :   0.9084 B( 10-S , 11-P ) :   1.1060 B( 11-P , 12-S ) :   1.7646
B( 11-P , 13-O ) :   1.1645 B( 11-P , 16-O ) :   1.0753 B( 13-O , 14-C ) :   0.7507
B( 14-C , 15-C ) :   0.9438 B( 14-C , 31-H ) :   0.9630 B( 14-C , 32-H ) :   0.9606
B( 15-C , 33-H ) :   0.9632 B( 15-C , 34-H ) :   0.9694 B( 15-C , 35-H ) :   0.9616
B( 16-O , 17-C ) :   0.7533 B( 17-C , 18-C ) :   0.9628 B( 17-C , 36-H ) :   0.9576
B( 17-C , 37-H ) :   0.9536 B( 18-C , 38-H ) :   0.9710 B( 18-C , 39-H ) :   0.9654
B( 18-C , 40-H ) :   0.9730

Dispersion correction           -0.021397906
FINAL SINGLE POINT ENERGY     -2932.463901225991

DIPOLE MOMENT
-------------

Method             : SCF
Type of density    : Electron Density
Multiplicity       :   1
Irrep              :   0
Energy             : -2932.4890621814793121 Eh
Relativity type    :
Basis              : AO
                                X                 Y                 Z
Electronic contribution:      4.626580957       4.417569197      -8.924407587
Nuclear contribution   :     -5.060031096      -5.754407972       9.415585304
                        -----------------------------------------
Total Dipole Moment    :     -0.433450139      -1.336838775       0.491177717
                        -----------------------------------------
Magnitude (a.u.)       :      1.488715044
Magnitude (Debye)      :      3.784012923

Rotational constants in cm-1:             0.014558             0.004315             0.004119
Rotational constants in MHz :           436.423837           129.349631           123.479519

                             ****ORCA TERMINATED NORMALLY****
TOTAL RUN TIME: 0 days 0 hours 1 minutes 19 seconds 537 msec
