                         Program Version 6.0.0  -   RELEASE  -
|  1> ! r2scan-3c def2/J RI DEFGRID2 scfconv6 printgap
|  2> %output
|  3>     printlevel normal
|  4> end
|  5> %cpcm
|  6>     smd true
|  7>     smdsolvent "water"
|  8> end
|  9> * xyz 0 1
| 10> C 5.1305178435 -1.3667423828 -0.6396923274
| 11> C 4.582819974 -0.3004827476 -1.5648805998
| 12> O 3.1659795509 -0.1006349523 -1.3799531148
| 13> P 2.5811122122 0.5308825283 -0.0445133429
| 14> S 3.6868058426 1.8911014397 0.8271984027
| 15> O 2.295541099 -0.775091359 0.8278477138
| 16> C 2.184588965 -0.7286986869 2.2584206228
| 17> C 0.9727116981 0.0563590899 2.7168553259
| 18> S 0.7067999311 1.1524674289 -0.7937619532
| 19> C 0.1608190922 -0.4206646259 -1.5290444914
| 20> S -0.6377683397 -1.5383811692 -0.3481494103
| 21> P -2.4067013989 -0.419387154 -0.1228885728
| 22> S -3.1118572155 0.4454570379 -1.7407124041
| 23> O -2.0207565877 0.5127798196 1.0947159119
| 24> C -2.7695148258 1.7059289036 1.4221933221
| 25> C -2.0813009888 2.9340106506 0.8612966541
| 26> O -3.4162967097 -1.4303860511 0.5751274667
| 27> C -4.2502776841 -2.3441335715 -0.1667178394
| 28> C -5.6946280094 -2.1426021006 0.2487526884
| 29> H 6.1675940513 -1.5631605249 -0.8930894724
| 30> H 5.0785084075 -1.0229935894 0.3924869329
| 31> H 4.5537305886 -2.2829708319 -0.7356332049
| 32> H 4.6698577658 -0.5878273537 -2.6135760826
| 33> H 5.0905197407 0.6544305718 -1.3969137642
| 34> H 2.121574882 -1.7772124522 2.5518895007
| 35> H 3.0982286253 -0.2780340582 2.6596147618
| 36> H 0.9163869295 0.0326257668 3.8003857793
| 37> H 1.0627567855 1.0931515963 2.3909260458
| 38> H 0.0598824373 -0.3633952688 2.3013162663
| 39> H 1.0157317082 -0.9435159073 -1.9458297175
| 40> H -0.5597508988 -0.1522328877 -2.3023096874
| 41> H -3.7854636316 1.6143672193 1.0288683613
| 42> H -2.7969704114 1.7244409201 2.5125645097
| 43> H -2.6190151155 3.8222881822 1.1765180303
| 44> H -1.0557119302 2.9874284043 1.2162287888
| 45> H -2.0650306122 2.8938293595 -0.2259464728
| 46> H -4.1243058158 -2.1576965617 -1.237701651
| 47> H -3.9001396461 -3.3495872057 0.073976235
| 48> H -6.0280758065 -1.1460395424 -0.0307969063
| 49> H -6.3161572668 -2.8779366638 -0.251653151
| 50> H -5.7920615974 -2.2589150462 1.3242773221
| 51> *
| 52>
| 53>                          ****END OF INPUT****

CARTESIAN COORDINATES (ANGSTROEM)
---------------------------------
  C      5.130518   -1.366742   -0.639692
  C      4.582820   -0.300483   -1.564881
  O      3.165980   -0.100635   -1.379953
  P      2.581112    0.530883   -0.044513
  S      3.686806    1.891101    0.827198
  O      2.295541   -0.775091    0.827848
  C      2.184589   -0.728699    2.258421
  C      0.972712    0.056359    2.716855
  S      0.706800    1.152467   -0.793762
  C      0.160819   -0.420665   -1.529044
  S     -0.637768   -1.538381   -0.348149
  P     -2.406701   -0.419387   -0.122889
  S     -3.111857    0.445457   -1.740712
  O     -2.020757    0.512780    1.094716
  C     -2.769515    1.705929    1.422193
  C     -2.081301    2.934011    0.861297
  O     -3.416297   -1.430386    0.575127
  C     -4.250278   -2.344134   -0.166718
  C     -5.694628   -2.142602    0.248753
  H      6.167594   -1.563161   -0.893089
  H      5.078508   -1.022994    0.392487
  H      4.553731   -2.282971   -0.735633
  H      4.669858   -0.587827   -2.613576
  H      5.090520    0.654431   -1.396914
  H      2.121575   -1.777212    2.551890
  H      3.098229   -0.278034    2.659615
  H      0.916387    0.032626    3.800386
  H      1.062757    1.093152    2.390926
  H      0.059882   -0.363395    2.301316
  H      1.015732   -0.943516   -1.945830
  H     -0.559751   -0.152233   -2.302310
  H     -3.785464    1.614367    1.028868
  H     -2.796970    1.724441    2.512565
  H     -2.619015    3.822288    1.176518
  H     -1.055712    2.987428    1.216229
  H     -2.065031    2.893829   -0.225946
  H     -4.124306   -2.157697   -1.237702
  H     -3.900140   -3.349587    0.073976
  H     -6.028076   -1.146040   -0.030797
  H     -6.316157   -2.877937   -0.251653
  H     -5.792062   -2.258915    1.324277

 Total Charge           Charge          ....    0
 Multiplicity           Mult            ....    1
 Number of Electrons    NEL             ....  202
 Basis Dimension        Dim             ....  539

ORBITAL ENERGIES
----------------

  NO   OCC          E(Eh)            E(eV)
   0   2.0000     -88.581220     -2410.4175
   1   2.0000     -88.578199     -2410.3353
   2   2.0000     -88.530910     -2409.0485
   3   2.0000     -88.529501     -2409.0102
   4   2.0000     -76.920407     -2093.1107
   5   2.0000     -76.919855     -2093.0957
   6   2.0000     -18.995186      -516.8853
   7   2.0000     -18.993306      -516.8341
   8   2.0000     -18.992354      -516.8082
   9   2.0000     -18.991893      -516.7957
  10   2.0000     -10.106276      -275.0058
  11   2.0000     -10.090906      -274.5875
  12   2.0000     -10.089819      -274.5579
  13   2.0000     -10.089467      -274.5483
  14   2.0000     -10.088174      -274.5132
  15   2.0000     -10.018921      -272.6287
  16   2.0000     -10.018613      -272.6203
  17   2.0000     -10.016310      -272.5577
  18   2.0000     -10.015493      -272.5354
  19   2.0000      -7.875611      -214.3063
  20   2.0000      -7.872439      -214.2200
  21   2.0000      -7.825872      -212.9528
  22   2.0000      -7.824539      -212.9165
  23   2.0000      -6.598907      -179.5654
  24   2.0000      -6.598223      -179.5468
  25   2.0000      -5.822436      -158.4365
  26   2.0000      -5.819712      -158.3624
  27   2.0000      -5.819452      -158.3553
  28   2.0000      -5.815977      -158.2608
  29   2.0000      -5.812780      -158.1738
  30   2.0000      -5.809485      -158.0841
  31   2.0000      -5.773448      -157.1035
  32   2.0000      -5.772071      -157.0660
  33   2.0000      -5.766252      -156.9077
  34   2.0000      -5.765806      -156.8955
  35   2.0000      -5.764876      -156.8702
  36   2.0000      -5.764557      -156.8616
  37   2.0000      -4.744351      -129.1004
  38   2.0000      -4.743719      -129.0832
  39   2.0000      -4.743505      -129.0773
  40   2.0000      -4.743200      -129.0690
  41   2.0000      -4.742832      -129.0590
  42   2.0000      -4.742181      -129.0413
  43   2.0000      -1.052407       -28.6375
  44   2.0000      -1.050588       -28.5880
  45   2.0000      -1.012100       -27.5406
  46   2.0000      -1.011392       -27.5214
  47   2.0000      -0.804106       -21.8808
  48   2.0000      -0.758090       -20.6287
  49   2.0000      -0.742605       -20.2073
  50   2.0000      -0.722758       -19.6672
  51   2.0000      -0.722165       -19.6511
  52   2.0000      -0.710218       -19.3260
  53   2.0000      -0.693711       -18.8768
  54   2.0000      -0.675800       -18.3894
  55   2.0000      -0.629444       -17.1281
  56   2.0000      -0.620552       -16.8861
  57   2.0000      -0.599485       -16.3128
  58   2.0000      -0.597946       -16.2709
  59   2.0000      -0.589551       -16.0425
  60   2.0000      -0.527649       -14.3580
  61   2.0000      -0.514562       -14.0019
  62   2.0000      -0.493674       -13.4335
  63   2.0000      -0.487922       -13.2770
  64   2.0000      -0.478303       -13.0153
  65   2.0000      -0.458857       -12.4861
  66   2.0000      -0.455050       -12.3825
  67   2.0000      -0.450388       -12.2557
  68   2.0000      -0.443634       -12.0719
  69   2.0000      -0.428118       -11.6497
  70   2.0000      -0.421605       -11.4725
  71   2.0000      -0.411014       -11.1843
  72   2.0000      -0.406487       -11.0611
  73   2.0000      -0.404526       -11.0077
  74   2.0000      -0.396530       -10.7901
  75   2.0000      -0.386828       -10.5261
  76   2.0000      -0.381220       -10.3735
  77   2.0000      -0.365781        -9.9534
  78   2.0000      -0.362502        -9.8642
  79   2.0000      -0.361154        -9.8275
  80   2.0000      -0.355086        -9.6624
  81   2.0000      -0.352257        -9.5854
  82   2.0000      -0.349986        -9.5236
  83   2.0000      -0.345855        -9.4112
  84   2.0000      -0.341746        -9.2994
  85   2.0000      -0.331320        -9.0157
  86   2.0000      -0.320150        -8.7117
  87   2.0000      -0.307438        -8.3658
  88   2.0000      -0.305865        -8.3230
  89   2.0000      -0.302815        -8.2400
  90   2.0000      -0.300493        -8.1768
  91   2.0000      -0.293127        -7.9764
  92   2.0000      -0.287120        -7.8129
  93   2.0000      -0.280941        -7.6448
  94   2.0000      -0.272310        -7.4099
  95   2.0000      -0.248043        -6.7496
  96   2.0000      -0.236778        -6.4431
  97   2.0000      -0.232364        -6.3230
  98   2.0000      -0.230001        -6.2586
  99   2.0000      -0.226871        -6.1735
 100   2.0000      -0.221818        -6.0360
 101   0.0000      -0.047705        -1.2981
 102   0.0000      -0.029278        -0.7967
 103   0.0000      -0.019172        -0.5217
 104   0.0000       0.002992         0.0814
 105   0.0000       0.005243         0.1427

MULLIKEN ATOMIC CHARGES
-----------------------
   0 C :   -0.474633
   1 C :   -0.145905
   2 O :   -0.326156
   3 P :    0.674881
   4 S :   -0.515593
   5 O :   -0.283652
   6 C :   -0.141249
   7 C :   -0.490077
   8 S :   -0.129627
   9 C :   -0.272856
  10 S :   -0.109550
  11 P :    0.666290
  12 S :   -0.521247
  13 O :   -0.285045
  14 C :   -0.115462
  15 C :   -0.501876
  16 O :   -0.318441
  17 C :   -0.115591
  18 C :   -0.492413
  19 H :    0.172299
  20 H :    0.168140
  21 H :    0.168851
  22 H :    0.175370
  23 H :    0.176346
  24 H :    0.175746
  25 H :    0.171720
  26 H :    0.170876
  27 H :    0.167538
  28 H :    0.175219
  29 H :    0.244794
  30 H :    0.231648
  31 H :    0.170123
  32 H :    0.176697
  33 H :    0.169233
  34 H :    0.168117
  35 H :    0.171651
  36 H :    0.167349
  37 H :    0.174223
  38 H :    0.165685
  39 H :    0.170137
  40 H :    0.166440
Sum of atomic charges:    0.0000000

LOEWDIN ATOMIC CHARGES
----------------------
   0 C :   -0.402804
   1 C :    0.028501
   2 O :   -0.700266
   3 P :    0.374256
   4 S :   -0.148011
   5 O :   -0.682315
   6 C :    0.021575
   7 C :   -0.412486
   8 S :    0.172502
   9 C :   -0.403024
  10 S :    0.175538
  11 P :    0.375139
  12 S :   -0.163504
  13 O :   -0.686547
  14 C :    0.031919
  15 C :   -0.407390
  16 O :   -0.672827
  17 C :    0.026127
  18 C :   -0.394361
  19 H :    0.168850
  20 H :    0.162604
  21 H :    0.164358
  22 H :    0.190805
  23 H :    0.181286
  24 H :    0.191160
  25 H :    0.181644
  26 H :    0.167251
  27 H :    0.162452
  28 H :    0.169483
  29 H :    0.206461
  30 H :    0.200318
  31 H :    0.181663
  32 H :    0.189882
  33 H :    0.166558
  34 H :    0.162180
  35 H :    0.162082
  36 H :    0.182134
  37 H :    0.183712
  38 H :    0.161459
  39 H :    0.168496
  40 H :    0.163142

  Mayer bond orders larger than 0.100000
B(  0-C ,  1-C ) :   0.9126 B(  0-C , 19-H ) :   0.9552 B(  0-C , 20-H ) :   0.9596
B(  0-C , 21-H ) :   0.9693 B(  1-C ,  2-O ) :   0.7998 B(  1-C , 22-H ) :   0.9516
B(  1-C , 23-H ) :   0.9628 B(  2-O ,  3-P ) :   1.1348 B(  3-P ,  4-S ) :   1.7762
B(  3-P ,  5-O ) :   1.0402 B(  3-P ,  8-S ) :   1.0986 B(  5-O ,  6-C ) :   0.7824
B(  6-C ,  7-C ) :   0.9147 B(  6-C , 24-H ) :   0.9510 B(  6-C , 25-H ) :   0.9570
B(  7-C , 26-H ) :   0.9560 B(  7-C , 27-H ) :   0.9632 B(  7-C , 28-H ) :   0.9584
B(  8-S ,  9-C ) :   0.9044 B(  9-C , 10-S ) :   0.9183 B(  9-C , 29-H ) :   0.8984
B(  9-C , 30-H ) :   0.9034 B( 10-S , 11-P ) :   1.1170 B( 11-P , 12-S ) :   1.7244
B( 11-P , 13-O ) :   1.1703 B( 11-P , 16-O ) :   1.0823 B( 13-O , 14-C ) :   0.7391
B( 14-C , 15-C ) :   0.9302 B( 14-C , 31-H ) :   0.9604 B( 14-C , 32-H ) :   0.9511
B( 15-C , 33-H ) :   0.9591 B( 15-C , 34-H ) :   0.9680 B( 15-C , 35-H ) :   0.9647
B( 16-O , 17-C ) :   0.7426 B( 17-C , 18-C ) :   0.9576 B( 17-C , 36-H ) :   0.9545
B( 17-C , 37-H ) :   0.9446 B( 18-C , 38-H ) :   0.9695 B( 18-C , 39-H ) :   0.9603
B( 18-C , 40-H ) :   0.9696

Dispersion correction           -0.021397906
FINAL SINGLE POINT ENERGY     -2932.471831950696

DIPOLE MOMENT
-------------

Method             : SCF
Type of density    : Electron Density
Multiplicity       :   1
Irrep              :   0
Energy             : -2932.4969929061835501 Eh
Relativity type    :
Basis              : AO
                                X                 Y                 Z
Electronic contribution:      4.560892397       3.838912346      -8.789307507
Nuclear contribution   :     -5.060031096      -5.754407972       9.415585304
                        -----------------------------------------
Total Dipole Moment    :     -0.499138699      -1.915495626       0.626277797
                        -----------------------------------------
Magnitude (a.u.)       :      2.076171191
Magnitude (Debye)      :      5.277207780

Rotational constants in cm-1:             0.014558             0.004315             0.004119
Rotational constants in MHz :           436.423837           129.349631           123.479519

                             ****ORCA TERMINATED NORMALLY****
TOTAL RUN TIME: 0 days 0 hours 1 minutes 54 seconds 569 msec
