                         Program Version 6.0.0  -   RELEASE  -
|  1> ! pbe def2-sv(p) def2/J RI DEFGRID1 loosescf d4 GCP(DFT/SV(P)) printgap
|  2> %output
|  3>     printlevel normal
|  4> end
|  5> * xyz 0 1
|  6> C 3.4445074212 2.973859411 0.1306749341
|  7> C 3.4707092409 1.7081764388 -0.7027673343
|  8> O 3.5333194299 0.5252473701 0.1177245314
|  9> P 2.2890669278 -0.1116026196 0.8688055573
| 10> S 1.5121961085 0.8488354654 2.3853793354
| 11> O 2.8431462746 -1.5066977017 1.348212443
| 12> C 3.6024715635 -2.405536353 0.500951305
| 13> C 5.0880372046 -2.2331238914 0.7416223624
| 14> S 0.9737844551 -0.5684930543 -0.7595449413
| 15> C -0.2983098287 -1.3872815239 0.2389033069
| 16> S -1.5094238553 -0.2491985681 0.9657623559
| 17> P -2.6522341993 0.1477188216 -0.7956353239
| 18> S -2.3960808489 -1.1197047143 -2.2746613184
| 19> O -2.4316320142 1.6757939521 -1.1470907382
| 20> C -1.2223278526 2.1870314828 -1.7391718489
| 21> C -0.3887867398 2.9195729141 -0.7047394286
| 22> O -4.1330494809 0.3296542631 -0.2789349085
| 23> C -5.0565148712 -0.772226683 -0.2106302234
| 24> C -4.6693356393 -1.7825727948 0.8509258613
| 25> H 3.4637717032 3.8370573726 -0.5268348558
| 26> H 2.5455164171 3.0098944722 0.7417221601
| 27> H 4.3084643419 3.006064612 0.7890375434
| 28> H 4.376939064 1.653322708 -1.3092580151
| 29> H 2.5929792235 1.640315299 -1.3513538346
| 30> H 3.2678544096 -3.4038008062 0.7891875292
| 31> H 3.3439805678 -2.214835868 -0.5440759554
| 32> H 5.4002633886 -1.2295365286 0.4661648795
| 33> H 5.315178376 -2.3934602175 1.7920031376
| 34> H 5.6316829706 -2.9567229233 0.1422614289
| 35> H 0.1705039148 -1.9100320516 1.0696540378
| 36> H -0.8104089555 -2.0749085426 -0.434484835
| 37> H -0.6639080118 1.3640812669 -2.1995338795
| 38> H -1.5602705137 2.8709688541 -2.5205047208
| 39> H 0.4626825394 3.3814300288 -1.1944296311
| 40> H -0.9880974512 3.6882709012 -0.2253966429
| 41> H -0.0316202892 2.2383042576 0.066090077
| 42> H -6.0114806734 -0.2965879368 0.0169163004
| 43> H -5.1039115133 -1.2478180502 -1.1956495639
| 44> H -3.7510949134 -2.2928014969 0.5628960034
| 45> H -4.5107644392 -1.2859286659 1.8050588001
| 46> H -5.4620922444 -2.51674198 0.9535004171
| 47> *
| 48>
| 49>                          ****END OF INPUT****

CARTESIAN COORDINATES (ANGSTROEM)
---------------------------------
  C      3.444507    2.973859    0.130675
  C      3.470709    1.708176   -0.702767
  O      3.533319    0.525247    0.117725
  P      2.289067   -0.111603    0.868806
  S      1.512196    0.848835    2.385379
  O      2.843146   -1.506698    1.348212
  C      3.602472   -2.405536    0.500951
  C      5.088037   -2.233124    0.741622
  S      0.973784   -0.568493   -0.759545
  C     -0.298310   -1.387282    0.238903
  S     -1.509424   -0.249199    0.965762
  P     -2.652234    0.147719   -0.795635
  S     -2.396081   -1.119705   -2.274661
  O     -2.431632    1.675794   -1.147091
  C     -1.222328    2.187031   -1.739172
  C     -0.388787    2.919573   -0.704739
  O     -4.133049    0.329654   -0.278935
  C     -5.056515   -0.772227   -0.210630
  C     -4.669336   -1.782573    0.850926
  H      3.463772    3.837057   -0.526835
  H      2.545516    3.009894    0.741722
  H      4.308464    3.006065    0.789038
  H      4.376939    1.653323   -1.309258
  H      2.592979    1.640315   -1.351354
  H      3.267854   -3.403801    0.789188
  H      3.343981   -2.214836   -0.544076
  H      5.400263   -1.229537    0.466165
  H      5.315178   -2.393460    1.792003
  H      5.631683   -2.956723    0.142261
  H      0.170504   -1.910032    1.069654
  H     -0.810409   -2.074909   -0.434485
  H     -0.663908    1.364081   -2.199534
  H     -1.560271    2.870969   -2.520505
  H      0.462683    3.381430   -1.194430
  H     -0.988097    3.688271   -0.225397
  H     -0.031620    2.238304    0.066090
  H     -6.011481   -0.296588    0.016916
  H     -5.103912   -1.247818   -1.195650
  H     -3.751095   -2.292801    0.562896
  H     -4.510764   -1.285929    1.805059
  H     -5.462092   -2.516742    0.953500

 Total Charge           Charge          ....    0
 Multiplicity           Mult            ....    1
 Number of Electrons    NEL             ....  202
 Basis Dimension        Dim             ....  334

ORBITAL ENERGIES
----------------

  NO   OCC          E(Eh)            E(eV)
   0   2.0000     -88.046715     -2395.8729
   1   2.0000     -88.040533     -2395.7047
   2   2.0000     -87.989682     -2394.3210
   3   2.0000     -87.987232     -2394.2543
   4   2.0000     -76.431280     -2079.8009
   5   2.0000     -76.424760     -2079.6234
   6   2.0000     -18.803367      -511.6656
   7   2.0000     -18.799087      -511.5492
   8   2.0000     -18.788818      -511.2697
   9   2.0000     -18.784528      -511.1530
  10   2.0000      -9.966463      -271.2012
  11   2.0000      -9.960638      -271.0427
  12   2.0000      -9.957740      -270.9639
  13   2.0000      -9.951676      -270.7989
  14   2.0000      -9.947677      -270.6901
  15   2.0000      -9.890431      -269.1323
  16   2.0000      -9.887656      -269.0568
  17   2.0000      -9.882900      -268.9274
  18   2.0000      -9.876669      -268.7578
  19   2.0000      -7.691135      -209.2864
  20   2.0000      -7.685063      -209.1212
  21   2.0000      -7.634686      -207.7504
  22   2.0000      -7.632242      -207.6839
  23   2.0000      -6.428532      -174.9292
  24   2.0000      -6.422240      -174.7580
  25   2.0000      -5.718705      -155.6139
  26   2.0000      -5.715717      -155.5326
  27   2.0000      -5.712937      -155.4569
  28   2.0000      -5.709621      -155.3667
  29   2.0000      -5.708442      -155.3346
  30   2.0000      -5.702060      -155.1609
  31   2.0000      -5.663363      -154.1079
  32   2.0000      -5.661364      -154.0535
  33   2.0000      -5.655458      -153.8928
  34   2.0000      -5.654950      -153.8790
  35   2.0000      -5.652727      -153.8185
  36   2.0000      -5.652357      -153.8085
  37   2.0000      -4.651588      -126.5761
  38   2.0000      -4.650500      -126.5465
  39   2.0000      -4.648360      -126.4883
  40   2.0000      -4.644487      -126.3829
  41   2.0000      -4.644191      -126.3749
  42   2.0000      -4.642758      -126.3359
  43   2.0000      -0.996887       -27.1267
  44   2.0000      -0.986409       -26.8416
  45   2.0000      -0.953928       -25.9577
  46   2.0000      -0.941398       -25.6167
  47   2.0000      -0.763712       -20.7817
  48   2.0000      -0.724105       -19.7039
  49   2.0000      -0.712460       -19.3870
  50   2.0000      -0.697833       -18.9890
  51   2.0000      -0.681479       -18.5440
  52   2.0000      -0.675192       -18.3729
  53   2.0000      -0.652621       -17.7587
  54   2.0000      -0.640221       -17.4213
  55   2.0000      -0.600578       -16.3426
  56   2.0000      -0.593373       -16.1465
  57   2.0000      -0.580654       -15.8004
  58   2.0000      -0.566255       -15.4086
  59   2.0000      -0.562704       -15.3120
  60   2.0000      -0.512589       -13.9483
  61   2.0000      -0.495523       -13.4839
  62   2.0000      -0.486000       -13.2247
  63   2.0000      -0.468730       -12.7548
  64   2.0000      -0.463123       -12.6022
  65   2.0000      -0.452650       -12.3172
  66   2.0000      -0.439478       -11.9588
  67   2.0000      -0.436303       -11.8724
  68   2.0000      -0.427061       -11.6209
  69   2.0000      -0.419778       -11.4228
  70   2.0000      -0.411627       -11.2009
  71   2.0000      -0.401361       -10.9216
  72   2.0000      -0.393172       -10.6988
  73   2.0000      -0.391353       -10.6493
  74   2.0000      -0.384350       -10.4587
  75   2.0000      -0.372528       -10.1370
  76   2.0000      -0.364536        -9.9195
  77   2.0000      -0.362884        -9.8746
  78   2.0000      -0.356689        -9.7060
  79   2.0000      -0.351110        -9.5542
  80   2.0000      -0.349764        -9.5176
  81   2.0000      -0.347340        -9.4516
  82   2.0000      -0.343520        -9.3476
  83   2.0000      -0.337159        -9.1746
  84   2.0000      -0.331531        -9.0214
  85   2.0000      -0.327424        -8.9096
  86   2.0000      -0.314102        -8.5471
  87   2.0000      -0.304449        -8.2845
  88   2.0000      -0.297780        -8.1030
  89   2.0000      -0.295054        -8.0288
  90   2.0000      -0.287952        -7.8356
  91   2.0000      -0.283029        -7.7016
  92   2.0000      -0.267613        -7.2821
  93   2.0000      -0.267084        -7.2677
  94   2.0000      -0.258920        -7.0456
  95   2.0000      -0.241753        -6.5784
  96   2.0000      -0.215314        -5.8590
  97   2.0000      -0.211759        -5.7623
  98   2.0000      -0.207209        -5.6385
  99   2.0000      -0.202644        -5.5142
 100   2.0000      -0.194818        -5.3013
 101   0.0000      -0.043081        -1.1723
 102   0.0000      -0.032667        -0.8889
 103   0.0000      -0.013812        -0.3758
 104   0.0000       0.001595         0.0434
 105   0.0000       0.010550         0.2871

MULLIKEN ATOMIC CHARGES
-----------------------
   0 C :   -0.305601
   1 C :   -0.026950
   2 O :   -0.378180
   3 P :    0.585332
   4 S :   -0.291079
   5 O :   -0.359156
   6 C :   -0.010364
   7 C :   -0.290581
   8 S :   -0.103135
   9 C :   -0.347416
  10 S :   -0.064686
  11 P :    0.591035
  12 S :   -0.338745
  13 O :   -0.353403
  14 C :   -0.006805
  15 C :   -0.322416
  16 O :   -0.357712
  17 C :   -0.000848
  18 C :   -0.313280
  19 H :    0.110693
  20 H :    0.143330
  21 H :    0.119762
  22 H :    0.110258
  23 H :    0.116772
  24 H :    0.109252
  25 H :    0.101229
  26 H :    0.122092
  27 H :    0.121742
  28 H :    0.111233
  29 H :    0.186601
  30 H :    0.194619
  31 H :    0.108151
  32 H :    0.104283
  33 H :    0.103764
  34 H :    0.114728
  35 H :    0.140417
  36 H :    0.108313
  37 H :    0.112547
  38 H :    0.120439
  39 H :    0.121666
  40 H :    0.112098
Sum of atomic charges:    0.0000000

LOEWDIN ATOMIC CHARGES
----------------------
   0 C :   -0.365891
   1 C :   -0.113347
   2 O :   -0.243511
   3 P :    0.560966
   4 S :   -0.297837
   5 O :   -0.236853
   6 C :   -0.115960
   7 C :   -0.358393
   8 S :    0.074083
   9 C :   -0.482514
  10 S :    0.097410
  11 P :    0.568920
  12 S :   -0.322969
  13 O :   -0.235673
  14 C :   -0.117989
  15 C :   -0.369286
  16 O :   -0.233729
  17 C :   -0.116072
  18 C :   -0.368899
  19 H :    0.129662
  20 H :    0.127169
  21 H :    0.129919
  22 H :    0.120790
  23 H :    0.106714
  24 H :    0.120592
  25 H :    0.104772
  26 H :    0.126520
  27 H :    0.129613
  28 H :    0.130238
  29 H :    0.133762
  30 H :    0.127817
  31 H :    0.099721
  32 H :    0.118087
  33 H :    0.122717
  34 H :    0.127592
  35 H :    0.114803
  36 H :    0.120486
  37 H :    0.111324
  38 H :    0.118752
  39 H :    0.126226
  40 H :    0.130268

  Mayer bond orders larger than 0.100000
B(  0-C ,  1-C ) :   1.1678 B(  0-C , 19-H ) :   0.9357 B(  0-C , 20-H ) :   0.9278
B(  0-C , 21-H ) :   0.9446 B(  1-C ,  2-O ) :   0.9081 B(  1-C , 22-H ) :   0.9341
B(  1-C , 23-H ) :   0.9190 B(  2-O ,  3-P ) :   1.0758 B(  3-P ,  4-S ) :   1.6715
B(  3-P ,  5-O ) :   1.1200 B(  3-P ,  8-S ) :   0.9480 B(  4-S ,  8-S ) :   0.1116
B(  5-O ,  6-C ) :   0.8899 B(  6-C ,  7-C ) :   1.1670 B(  6-C , 24-H ) :   0.9351
B(  6-C , 25-H ) :   0.9116 B(  7-C , 26-H ) :   0.9430 B(  7-C , 27-H ) :   0.9469
B(  7-C , 28-H ) :   0.9400 B(  8-S ,  9-C ) :   0.9892 B(  9-C , 10-S ) :   1.0193
B(  9-C , 29-H ) :   0.8908 B(  9-C , 30-H ) :   0.8696 B( 10-S , 11-P ) :   0.9400
B( 10-S , 12-S ) :   0.1213 B( 11-P , 12-S ) :   1.5888 B( 11-P , 13-O ) :   1.1356
B( 11-P , 16-O ) :   1.1330 B( 13-O , 14-C ) :   0.9084 B( 14-C , 15-C ) :   1.1645
B( 14-C , 31-H ) :   0.9031 B( 14-C , 32-H ) :   0.9342 B( 15-C , 33-H ) :   0.9340
B( 15-C , 34-H ) :   0.9437 B( 15-C , 35-H ) :   0.9193 B( 16-O , 17-C ) :   0.9121
B( 17-C , 18-C ) :   1.1638 B( 17-C , 36-H ) :   0.9345 B( 17-C , 37-H ) :   0.9179
B( 18-C , 38-H ) :   0.9380 B( 18-C , 39-H ) :   0.9437 B( 18-C , 40-H ) :   0.9377

Dispersion correction           -0.065367261
FINAL SINGLE POINT ENERGY     -2929.521298659801

DIPOLE MOMENT
-------------

Method             : SCF
Type of density    : Electron Density
Multiplicity       :   1
Irrep              :   0
Energy             : -2929.6404381628381088 Eh
Relativity type    :
Basis              : AO
                                X                 Y                 Z
Electronic contribution:    -10.661247696      -3.013877475       1.661666712
Nuclear contribution   :     11.607880362       2.703708485      -2.238351521
                        -----------------------------------------
Total Dipole Moment    :      0.946632666      -0.310168990      -0.576684808
                        -----------------------------------------
Magnitude (a.u.)       :      1.151035870
Magnitude (Debye)      :      2.925700674

Rotational constants in cm-1:             0.013141             0.004614             0.004199
Rotational constants in MHz :           393.947450           138.310607           125.871655

                             ****ORCA TERMINATED NORMALLY****
TOTAL RUN TIME: 0 days 0 hours 0 minutes 20 seconds 936 msec
