                         Program Version 6.0.0  -   RELEASE  -
|  1> ! r2scan-3c def2/J RI DEFGRID2 scfconv6 printgap
|  2> %output
|  3>     printlevel normal
|  4> end
|  5> * xyz 0 1
|  6> C 0.5966353637 1.7064037928 -0.0574279873
|  7> C 1.3926687782 0.4085575946 -0.2395860154
|  8> H 1.6332967945 0.2669940731 -1.2993851744
|  9> C 0.537623584 -0.7823071458 0.2249091154
| 10> H 0.3285415937 -0.6964484794 1.3034471195
| 11> C -0.7961638225 -0.7507189558 -0.5264716151
| 12> H -0.5866696228 -0.819265085 -1.606565783
| 13> C -1.4795711292 0.6028726455 -0.2689047113
| 14> H -2.3854086857 0.6642334466 -0.8846702713
| 15> O -0.6573324202 1.6550535354 -0.7233479845
| 16> O -1.7625601074 0.7173021159 1.085477503
| 17> O -1.6654640988 -1.7760358152 -0.134363
| 18> O 1.168052037 -2.0130999719 -0.0469707821
| 19> O 2.6299918502 0.4385931453 0.4270993327
| 20> H 1.12461634 2.5524338153 -0.496654246
| 21> H 0.4357115249 1.8825472675 1.0144094033
| 22> H -2.4276948005 1.4055519539 1.2368373357
| 23> H -1.160055441 -2.6038052692 -0.1128828046
| 24> H 2.1072204763 -1.9329206504 0.1795481062
| 25> H 2.4978146037 0.6892282614 1.3538421859
| 26> *
| 27>
| 28>                          ****END OF INPUT****

CARTESIAN COORDINATES (ANGSTROEM)
---------------------------------
  C      0.596635    1.706404   -0.057428
  C      1.392669    0.408558   -0.239586
  H      1.633297    0.266994   -1.299385
  C      0.537624   -0.782307    0.224909
  H      0.328542   -0.696448    1.303447
  C     -0.796164   -0.750719   -0.526472
  H     -0.586670   -0.819265   -1.606566
  C     -1.479571    0.602873   -0.268905
  H     -2.385409    0.664233   -0.884670
  O     -0.657332    1.655054   -0.723348
  O     -1.762560    0.717302    1.085478
  O     -1.665464   -1.776036   -0.134363
  O      1.168052   -2.013100   -0.046971
  O      2.629992    0.438593    0.427099
  H      1.124616    2.552434   -0.496654
  H      0.435712    1.882547    1.014409
  H     -2.427695    1.405552    1.236837
  H     -1.160055   -2.603805   -0.112883
  H      2.107220   -1.932921    0.179548
  H      2.497815    0.689228    1.353842

 Total Charge           Charge          ....    0
 Multiplicity           Mult            ....    1
 Number of Electrons    NEL             ....   80
 Basis Dimension        Dim             ....  265

ORBITAL ENERGIES
----------------

  NO   OCC          E(Eh)            E(eV)
   0   2.0000     -18.973348      -516.2910
   1   2.0000     -18.968458      -516.1580
   2   2.0000     -18.968377      -516.1558
   3   2.0000     -18.959792      -515.9222
   4   2.0000     -18.950800      -515.6775
   5   2.0000     -10.137913      -275.8666
   6   2.0000     -10.094305      -274.6800
   7   2.0000     -10.088417      -274.5198
   8   2.0000     -10.087296      -274.4893
   9   2.0000     -10.086979      -274.4807
  10   2.0000      -1.049026       -28.5454
  11   2.0000      -1.017790       -27.6955
  12   2.0000      -1.000877       -27.2353
  13   2.0000      -0.983536       -26.7634
  14   2.0000      -0.978589       -26.6288
  15   2.0000      -0.749171       -20.3860
  16   2.0000      -0.725214       -19.7341
  17   2.0000      -0.621339       -16.9075
  18   2.0000      -0.615854       -16.7582
  19   2.0000      -0.563771       -15.3410
  20   2.0000      -0.520995       -14.1770
  21   2.0000      -0.511411       -13.9162
  22   2.0000      -0.495440       -13.4816
  23   2.0000      -0.470369       -12.7994
  24   2.0000      -0.445938       -12.1346
  25   2.0000      -0.444880       -12.1058
  26   2.0000      -0.416847       -11.3430
  27   2.0000      -0.402811       -10.9610
  28   2.0000      -0.395095       -10.7511
  29   2.0000      -0.376946       -10.2572
  30   2.0000      -0.352777        -9.5995
  31   2.0000      -0.334510        -9.1025
  32   2.0000      -0.327113        -8.9012
  33   2.0000      -0.321487        -8.7481
  34   2.0000      -0.287898        -7.8341
  35   2.0000      -0.275637        -7.5005
  36   2.0000      -0.269059        -7.3215
  37   2.0000      -0.252465        -6.8699
  38   2.0000      -0.236550        -6.4369
  39   2.0000      -0.231999        -6.3130
  40   0.0000       0.027239         0.7412
  41   0.0000       0.047219         1.2849
  42   0.0000       0.063122         1.7176
  43   0.0000       0.090936         2.4745
  44   0.0000       0.096061         2.6140

MULLIKEN ATOMIC CHARGES
-----------------------
   0 C :   -0.252591
   1 C :   -0.093201
   2 H :    0.166949
   3 C :    0.031454
   4 H :    0.176319
   5 C :   -0.051760
   6 H :    0.166115
   7 C :    0.013024
   8 H :    0.133397
   9 O :   -0.198095
  10 O :   -0.383934
  11 O :   -0.416667
  12 O :   -0.436676
  13 O :   -0.411689
  14 H :    0.158801
  15 H :    0.161866
  16 H :    0.306228
  17 H :    0.317217
  18 H :    0.309599
  19 H :    0.303644
Sum of atomic charges:    0.0000000

LOEWDIN ATOMIC CHARGES
----------------------
   0 C :    0.040033
   1 C :    0.091146
   2 H :    0.196334
   3 C :    0.095798
   4 H :    0.187955
   5 C :    0.126245
   6 H :    0.185649
   7 C :    0.291051
   8 H :    0.199282
   9 O :   -0.677347
  10 O :   -0.507995
  11 O :   -0.549345
  12 O :   -0.583780
  13 O :   -0.581055
  14 H :    0.189921
  15 H :    0.177046
  16 H :    0.278772
  17 H :    0.284297
  18 H :    0.282778
  19 H :    0.273214

  Mayer bond orders larger than 0.100000
B(  0-C ,  1-C ) :   0.9069 B(  0-C ,  9-O ) :   0.9454 B(  0-C , 14-H ) :   0.9420
B(  0-C , 15-H ) :   0.9858 B(  1-C ,  2-H ) :   0.9544 B(  1-C ,  3-C ) :   0.9021
B(  1-C , 13-O ) :   0.9845 B(  3-C ,  4-H ) :   0.9525 B(  3-C ,  5-C ) :   0.8806
B(  3-C , 12-O ) :   0.9182 B(  5-C ,  6-H ) :   0.9801 B(  5-C ,  7-C ) :   0.9603
B(  5-C , 11-O ) :   0.9030 B(  7-C ,  8-H ) :   0.9468 B(  7-C ,  9-O ) :   0.9361
B(  7-C , 10-O ) :   1.0515 B( 10-O , 16-H ) :   0.8912 B( 11-O , 17-H ) :   0.8756
B( 12-O , 18-H ) :   0.8749 B( 13-O , 19-H ) :   0.8837

Dispersion correction           -0.006289994
FINAL SINGLE POINT ENERGY      -572.561276778265

DIPOLE MOMENT
-------------

Method             : SCF
Type of density    : Electron Density
Multiplicity       :   1
Irrep              :   0
Energy             :  -572.5712950126217038 Eh
Relativity type    :
Basis              : AO
                                X                 Y                 Z
Electronic contribution:     -1.251768131      -0.767781551      -0.199726590
Nuclear contribution   :      1.466205917       1.306967552       0.654397152
                        -----------------------------------------
Total Dipole Moment    :      0.214437786       0.539186001       0.454670562
                        -----------------------------------------
Magnitude (a.u.)       :      0.737177338
Magnitude (Debye)      :      1.873755884

Rotational constants in cm-1:             0.056542             0.045032             0.029174
Rotational constants in MHz :          1695.095667          1350.023021           874.615502

                             ****ORCA TERMINATED NORMALLY****
TOTAL RUN TIME: 0 days 0 hours 0 minutes 44 seconds 505 msec
