                         Program Version 6.0.0  -   RELEASE  -
|  1> ! r2scan-3c def2/J RI DEFGRID2 scfconv6 printgap
|  2> %output
|  3>     printlevel normal
|  4> end
|  5> %cpcm
|  6>     smd true
|  7>     smdsolvent "water"
|  8> end
|  9> * xyz 0 1
| 10> C 0.5966353637 1.7064037928 -0.0574279873
| 11> C 1.3926687782 0.4085575946 -0.2395860154
| 12> H 1.6332967945 0.2669940731 -1.2993851744
| 13> C 0.537623584 -0.7823071458 0.2249091154
| 14> H 0.3285415937 -0.6964484794 1.3034471195
| 15> C -0.7961638225 -0.7507189558 -0.5264716151
| 16> H -0.5866696228 -0.819265085 -1.606565783
| 17> C -1.4795711292 0.6028726455 -0.2689047113
| 18> H -2.3854086857 0.6642334466 -0.8846702713
| 19> O -0.6573324202 1.6550535354 -0.7233479845
| 20> O -1.7625601074 0.7173021159 1.085477503
| 21> O -1.6654640988 -1.7760358152 -0.134363
| 22> O 1.168052037 -2.0130999719 -0.0469707821
| 23> O 2.6299918502 0.4385931453 0.4270993327
| 24> H 1.12461634 2.5524338153 -0.496654246
| 25> H 0.4357115249 1.8825472675 1.0144094033
| 26> H -2.4276948005 1.4055519539 1.2368373357
| 27> H -1.160055441 -2.6038052692 -0.1128828046
| 28> H 2.1072204763 -1.9329206504 0.1795481062
| 29> H 2.4978146037 0.6892282614 1.3538421859
| 30> *
| 31>
| 32>                          ****END OF INPUT****

CARTESIAN COORDINATES (ANGSTROEM)
---------------------------------
  C      0.596635    1.706404   -0.057428
  C      1.392669    0.408558   -0.239586
  H      1.633297    0.266994   -1.299385
  C      0.537624   -0.782307    0.224909
  H      0.328542   -0.696448    1.303447
  C     -0.796164   -0.750719   -0.526472
  H     -0.586670   -0.819265   -1.606566
  C     -1.479571    0.602873   -0.268905
  H     -2.385409    0.664233   -0.884670
  O     -0.657332    1.655054   -0.723348
  O     -1.762560    0.717302    1.085478
  O     -1.665464   -1.776036   -0.134363
  O      1.168052   -2.013100   -0.046971
  O      2.629992    0.438593    0.427099
  H      1.124616    2.552434   -0.496654
  H      0.435712    1.882547    1.014409
  H     -2.427695    1.405552    1.236837
  H     -1.160055   -2.603805   -0.112883
  H      2.107220   -1.932921    0.179548
  H      2.497815    0.689228    1.353842

 Total Charge           Charge          ....    0
 Multiplicity           Mult            ....    1
 Number of Electrons    NEL             ....   80
 Basis Dimension        Dim             ....  265

ORBITAL ENERGIES
----------------

  NO   OCC          E(Eh)            E(eV)
   0   2.0000     -18.970214      -516.2058
   1   2.0000     -18.965828      -516.0864
   2   2.0000     -18.963612      -516.0261
   3   2.0000     -18.960835      -515.9506
   4   2.0000     -18.959249      -515.9074
   5   2.0000     -10.134535      -275.7747
   6   2.0000     -10.087267      -274.4885
   7   2.0000     -10.086024      -274.4547
   8   2.0000     -10.082771      -274.3661
   9   2.0000     -10.076879      -274.2058
  10   2.0000      -1.048033       -28.5184
  11   2.0000      -1.012538       -27.5526
  12   2.0000      -1.001894       -27.2629
  13   2.0000      -0.984120       -26.7793
  14   2.0000      -0.978026       -26.6134
  15   2.0000      -0.745002       -20.2725
  16   2.0000      -0.720326       -19.6011
  17   2.0000      -0.617013       -16.7898
  18   2.0000      -0.609843       -16.5947
  19   2.0000      -0.559411       -15.2223
  20   2.0000      -0.515270       -14.0212
  21   2.0000      -0.505903       -13.7663
  22   2.0000      -0.494017       -13.4429
  23   2.0000      -0.465066       -12.6551
  24   2.0000      -0.442793       -12.0490
  25   2.0000      -0.441804       -12.0221
  26   2.0000      -0.416953       -11.3459
  27   2.0000      -0.400047       -10.8858
  28   2.0000      -0.391897       -10.6641
  29   2.0000      -0.377032       -10.2596
  30   2.0000      -0.349647        -9.5144
  31   2.0000      -0.343110        -9.3365
  32   2.0000      -0.323563        -8.8046
  33   2.0000      -0.318686        -8.6719
  34   2.0000      -0.286020        -7.7830
  35   2.0000      -0.278493        -7.5782
  36   2.0000      -0.269886        -7.3440
  37   2.0000      -0.252297        -6.8654
  38   2.0000      -0.243119        -6.6156
  39   2.0000      -0.230304        -6.2669
  40   0.0000       0.038858         1.0574
  41   0.0000       0.067595         1.8394
  42   0.0000       0.078460         2.1350
  43   0.0000       0.100824         2.7435
  44   0.0000       0.107142         2.9155

MULLIKEN ATOMIC CHARGES
-----------------------
   0 C :   -0.269278
   1 C :   -0.060982
   2 H :    0.184465
   3 C :    0.029842
   4 H :    0.185437
   5 C :   -0.055027
   6 H :    0.183632
   7 C :    0.022446
   8 H :    0.163503
   9 O :   -0.259061
  10 O :   -0.446555
  11 O :   -0.486951
  12 O :   -0.496013
  13 O :   -0.472749
  14 H :    0.175318
  15 H :    0.182785
  16 H :    0.357692
  17 H :    0.356381
  18 H :    0.347132
  19 H :    0.357984
Sum of atomic charges:    0.0000000

LOEWDIN ATOMIC CHARGES
----------------------
   0 C :    0.043872
   1 C :    0.095298
   2 H :    0.200869
   3 C :    0.098337
   4 H :    0.193081
   5 C :    0.122257
   6 H :    0.193969
   7 C :    0.290533
   8 H :    0.209699
   9 O :   -0.703062
  10 O :   -0.527775
  11 O :   -0.582848
  12 O :   -0.604483
  13 O :   -0.596317
  14 H :    0.196599
  15 H :    0.186900
  16 H :    0.298208
  17 H :    0.296946
  18 H :    0.295056
  19 H :    0.292863

  Mayer bond orders larger than 0.100000
B(  0-C ,  1-C ) :   0.8868 B(  0-C ,  9-O ) :   0.9272 B(  0-C , 14-H ) :   0.9361
B(  0-C , 15-H ) :   0.9784 B(  1-C ,  2-H ) :   0.9613 B(  1-C ,  3-C ) :   0.9027
B(  1-C , 13-O ) :   0.9794 B(  3-C ,  4-H ) :   0.9482 B(  3-C ,  5-C ) :   0.8902
B(  3-C , 12-O ) :   0.9044 B(  5-C ,  6-H ) :   0.9700 B(  5-C ,  7-C ) :   0.9415
B(  5-C , 11-O ) :   0.8953 B(  7-C ,  8-H ) :   0.9460 B(  7-C ,  9-O ) :   0.9383
B(  7-C , 10-O ) :   1.0295 B( 10-O , 16-H ) :   0.8642 B( 11-O , 17-H ) :   0.8569
B( 12-O , 18-H ) :   0.8580 B( 13-O , 19-H ) :   0.8567

Dispersion correction           -0.006289994
FINAL SINGLE POINT ENERGY      -572.590251965731

DIPOLE MOMENT
-------------

Method             : SCF
Type of density    : Electron Density
Multiplicity       :   1
Irrep              :   0
Energy             :  -572.6002702000879481 Eh
Relativity type    :
Basis              : AO
                                X                 Y                 Z
Electronic contribution:     -1.094244454      -0.537698293      -0.042093452
Nuclear contribution   :      1.466205917       1.306967552       0.654397152
                        -----------------------------------------
Total Dipole Moment    :      0.371961463       0.769269259       0.612303700
                        -----------------------------------------
Magnitude (a.u.)       :      1.051211846
Magnitude (Debye)      :      2.671968167

Rotational constants in cm-1:             0.056542             0.045032             0.029174
Rotational constants in MHz :          1695.095667          1350.023021           874.615502

                             ****ORCA TERMINATED NORMALLY****
TOTAL RUN TIME: 0 days 0 hours 0 minutes 50 seconds 438 msec
