                         Program Version 6.0.0  -   RELEASE  -
|  1> ! r2scan-3c def2/J RI DEFGRID2 scfconv6 printgap
|  2> %output
|  3>     printlevel normal
|  4> end
|  5> * xyz 0 1
|  6> C 5.7880946694 -1.2640311384 -0.5931028124
|  7> C 4.9111434196 -0.5977169837 -1.6326053685
|  8> O 3.509233161 -0.8661045209 -1.418427302
|  9> P 2.7220100119 -0.305813066 -0.1652425338
| 10> S 3.2104424937 1.5018557705 0.4295485037
| 11> O 2.9636174191 -1.4512481479 0.9111908409
| 12> C 2.7090988564 -1.2561147217 2.3131806281
| 13> C 1.226650458 -1.1740478885 2.6145681693
| 14> S 0.7609345819 -0.6011460048 -0.92033154
| 15> C 0.1011521653 1.081218391 -0.7064772647
| 16> S -1.1029312317 1.1988004397 0.6327725087
| 17> P -2.7149509024 0.3243403625 -0.4577823653
| 18> S -2.9300624688 0.9997173378 -2.2802929839
| 19> O -3.9738691794 0.4874686724 0.4953758147
| 20> C -4.7005879495 1.726022688 0.6166450441
| 21> C -4.1664860924 2.5701377671 1.7570695539
| 22> O -2.4504353225 -1.2260827136 -0.4373517514
| 23> C -2.2564600188 -1.9977628982 0.7744796866
| 24> C -3.5500861847 -2.6590377026 1.202208669
| 25> H 5.6195449564 -0.8109387276 0.3827104789
| 26> H 5.5590487592 -2.3247550488 -0.5335332087
| 27> H 6.8303965471 -1.1330771578 -0.8669947413
| 28> H 5.0990341833 -0.9905352615 -2.632776616
| 29> H 5.0592369696 0.4869844433 -1.62592444
| 30> H 3.1688156277 -2.1244999471 2.78694578
| 31> H 3.2183386757 -0.3416632488 2.6343824679
| 32> H 0.7127255695 -2.0403662832 2.2057732797
| 33> H 1.0794478431 -1.1408574262 3.6892059797
| 34> H 0.8048899916 -0.2692827306 2.1767120463
| 35> H -0.3898362629 1.3687021534 -1.6369356586
| 36> H 0.9213033664 1.759973834 -0.4628279004
| 37> H -4.6468528622 2.260757439 -0.3372054225
| 38> H -5.7314130617 1.418356588 0.8015304434
| 39> H -4.7909743225 3.450909124 1.8670248665
| 40> H -4.1832218954 2.0010600189 2.6820580398
| 41> H -3.144063732 2.882848428 1.5579173834
| 42> H -1.4982486965 -2.7350073363 0.5030224975
| 43> H -1.8721536412 -1.337863547 1.5572270463
| 44> H -4.2919949002 -1.9057724766 1.4526234047
| 45> H -3.9364475411 -3.2773313196 0.3966553453
| 46> H -3.3602175808 -3.2799778476 2.0720803442
| 47> *
| 48>
| 49>                          ****END OF INPUT****

CARTESIAN COORDINATES (ANGSTROEM)
---------------------------------
  C      5.788095   -1.264031   -0.593103
  C      4.911143   -0.597717   -1.632605
  O      3.509233   -0.866105   -1.418427
  P      2.722010   -0.305813   -0.165243
  S      3.210442    1.501856    0.429549
  O      2.963617   -1.451248    0.911191
  C      2.709099   -1.256115    2.313181
  C      1.226650   -1.174048    2.614568
  S      0.760935   -0.601146   -0.920332
  C      0.101152    1.081218   -0.706477
  S     -1.102931    1.198800    0.632773
  P     -2.714951    0.324340   -0.457782
  S     -2.930062    0.999717   -2.280293
  O     -3.973869    0.487469    0.495376
  C     -4.700588    1.726023    0.616645
  C     -4.166486    2.570138    1.757070
  O     -2.450435   -1.226083   -0.437352
  C     -2.256460   -1.997763    0.774480
  C     -3.550086   -2.659038    1.202209
  H      5.619545   -0.810939    0.382710
  H      5.559049   -2.324755   -0.533533
  H      6.830397   -1.133077   -0.866995
  H      5.099034   -0.990535   -2.632777
  H      5.059237    0.486984   -1.625924
  H      3.168816   -2.124500    2.786946
  H      3.218339   -0.341663    2.634382
  H      0.712726   -2.040366    2.205773
  H      1.079448   -1.140857    3.689206
  H      0.804890   -0.269283    2.176712
  H     -0.389836    1.368702   -1.636936
  H      0.921303    1.759974   -0.462828
  H     -4.646853    2.260757   -0.337205
  H     -5.731413    1.418357    0.801530
  H     -4.790974    3.450909    1.867025
  H     -4.183222    2.001060    2.682058
  H     -3.144064    2.882848    1.557917
  H     -1.498249   -2.735007    0.503022
  H     -1.872154   -1.337864    1.557227
  H     -4.291995   -1.905772    1.452623
  H     -3.936448   -3.277331    0.396655
  H     -3.360218   -3.279978    2.072080

 Total Charge           Charge          ....    0
 Multiplicity           Mult            ....    1
 Number of Electrons    NEL             ....  202
 Basis Dimension        Dim             ....  539

ORBITAL ENERGIES
----------------

  NO   OCC          E(Eh)            E(eV)
   0   2.0000     -88.575660     -2410.2662
   1   2.0000     -88.574412     -2410.2323
   2   2.0000     -88.528109     -2408.9723
   3   2.0000     -88.518383     -2408.7077
   4   2.0000     -76.916331     -2092.9998
   5   2.0000     -76.915136     -2092.9672
   6   2.0000     -18.998771      -516.9828
   7   2.0000     -18.994684      -516.8716
   8   2.0000     -18.994667      -516.8712
   9   2.0000     -18.990911      -516.7690
  10   2.0000     -10.103531      -274.9311
  11   2.0000     -10.103234      -274.9230
  12   2.0000     -10.102260      -274.8965
  13   2.0000     -10.099784      -274.8291
  14   2.0000     -10.099639      -274.8252
  15   2.0000     -10.033722      -273.0315
  16   2.0000     -10.033164      -273.0163
  17   2.0000     -10.032441      -272.9966
  18   2.0000     -10.030912      -272.9550
  19   2.0000      -7.870106      -214.1565
  20   2.0000      -7.868483      -214.1123
  21   2.0000      -7.822854      -212.8707
  22   2.0000      -7.813123      -212.6059
  23   2.0000      -6.595040      -179.4602
  24   2.0000      -6.593733      -179.4246
  25   2.0000      -5.816730      -158.2813
  26   2.0000      -5.815390      -158.2448
  27   2.0000      -5.813928      -158.2050
  28   2.0000      -5.812472      -158.1654
  29   2.0000      -5.807487      -158.0298
  30   2.0000      -5.805463      -157.9747
  31   2.0000      -5.770357      -157.0194
  32   2.0000      -5.763339      -156.8284
  33   2.0000      -5.762795      -156.8136
  34   2.0000      -5.760848      -156.7606
  35   2.0000      -5.753324      -156.5559
  36   2.0000      -5.753126      -156.5505
  37   2.0000      -4.740265      -128.9892
  38   2.0000      -4.739798      -128.9765
  39   2.0000      -4.739613      -128.9714
  40   2.0000      -4.739160      -128.9591
  41   2.0000      -4.738701      -128.9466
  42   2.0000      -4.737040      -128.9014
  43   2.0000      -1.055499       -28.7216
  44   2.0000      -1.052091       -28.6289
  45   2.0000      -1.015393       -27.6302
  46   2.0000      -1.013079       -27.5673
  47   2.0000      -0.799261       -21.7490
  48   2.0000      -0.761697       -20.7268
  49   2.0000      -0.752808       -20.4849
  50   2.0000      -0.738681       -20.1005
  51   2.0000      -0.734790       -19.9946
  52   2.0000      -0.713630       -19.4189
  53   2.0000      -0.687631       -18.7114
  54   2.0000      -0.669404       -18.2154
  55   2.0000      -0.637316       -17.3422
  56   2.0000      -0.626821       -17.0567
  57   2.0000      -0.610042       -16.6001
  58   2.0000      -0.608476       -16.5575
  59   2.0000      -0.588938       -16.0258
  60   2.0000      -0.530788       -14.4435
  61   2.0000      -0.519836       -14.1455
  62   2.0000      -0.502659       -13.6780
  63   2.0000      -0.495168       -13.4742
  64   2.0000      -0.477584       -12.9957
  65   2.0000      -0.468375       -12.7451
  66   2.0000      -0.461245       -12.5511
  67   2.0000      -0.458404       -12.4738
  68   2.0000      -0.450308       -12.2535
  69   2.0000      -0.435451       -11.8492
  70   2.0000      -0.423487       -11.5237
  71   2.0000      -0.413833       -11.2610
  72   2.0000      -0.412224       -11.2172
  73   2.0000      -0.409678       -11.1479
  74   2.0000      -0.402747       -10.9593
  75   2.0000      -0.394679       -10.7398
  76   2.0000      -0.382963       -10.4210
  77   2.0000      -0.375961       -10.2304
  78   2.0000      -0.374431       -10.1888
  79   2.0000      -0.371098       -10.0981
  80   2.0000      -0.366705        -9.9785
  81   2.0000      -0.364772        -9.9259
  82   2.0000      -0.358014        -9.7421
  83   2.0000      -0.356024        -9.6879
  84   2.0000      -0.350741        -9.5441
  85   2.0000      -0.336530        -9.1574
  86   2.0000      -0.327928        -8.9234
  87   2.0000      -0.314244        -8.5510
  88   2.0000      -0.311874        -8.4865
  89   2.0000      -0.309277        -8.4159
  90   2.0000      -0.303663        -8.2631
  91   2.0000      -0.292818        -7.9680
  92   2.0000      -0.289424        -7.8756
  93   2.0000      -0.283197        -7.7062
  94   2.0000      -0.276284        -7.5181
  95   2.0000      -0.245558        -6.6820
  96   2.0000      -0.234020        -6.3680
  97   2.0000      -0.230165        -6.2631
  98   2.0000      -0.222506        -6.0547
  99   2.0000      -0.218305        -5.9404
 100   2.0000      -0.210189        -5.7195
 101   0.0000      -0.044218        -1.2032
 102   0.0000      -0.031691        -0.8624
 103   0.0000      -0.012280        -0.3342
 104   0.0000       0.002991         0.0814
 105   0.0000       0.018374         0.5000

MULLIKEN ATOMIC CHARGES
-----------------------
   0 C :   -0.435703
   1 C :   -0.152524
   2 O :   -0.298633
   3 P :    0.660432
   4 S :   -0.487317
   5 O :   -0.275731
   6 C :   -0.147647
   7 C :   -0.444725
   8 S :   -0.085111
   9 C :   -0.244821
  10 S :   -0.174357
  11 P :    0.647333
  12 S :   -0.437113
  13 O :   -0.293039
  14 C :   -0.165461
  15 C :   -0.438484
  16 O :   -0.267128
  17 C :   -0.105916
  18 C :   -0.464668
  19 H :    0.164489
  20 H :    0.157099
  21 H :    0.147844
  22 H :    0.151410
  23 H :    0.170430
  24 H :    0.148543
  25 H :    0.170108
  26 H :    0.153424
  27 H :    0.147655
  28 H :    0.175691
  29 H :    0.215453
  30 H :    0.215850
  31 H :    0.175082
  32 H :    0.150909
  33 H :    0.149159
  34 H :    0.154834
  35 H :    0.165828
  36 H :    0.162737
  37 H :    0.163981
  38 H :    0.165033
  39 H :    0.159353
  40 H :    0.145700
Sum of atomic charges:    0.0000000

LOEWDIN ATOMIC CHARGES
----------------------
   0 C :   -0.399434
   1 C :    0.025368
   2 O :   -0.665171
   3 P :    0.386049
   4 S :   -0.135054
   5 O :   -0.666706
   6 C :    0.019849
   7 C :   -0.410120
   8 S :    0.185376
   9 C :   -0.421783
  10 S :    0.113330
  11 P :    0.373704
  12 S :   -0.106176
  13 O :   -0.667062
  14 C :    0.023764
  15 C :   -0.401762
  16 O :   -0.652422
  17 C :    0.014513
  18 C :   -0.392543
  19 H :    0.163723
  20 H :    0.161955
  21 H :    0.159667
  22 H :    0.181370
  23 H :    0.179347
  24 H :    0.179450
  25 H :    0.179684
  26 H :    0.159952
  27 H :    0.159364
  28 H :    0.167036
  29 H :    0.193695
  30 H :    0.197316
  31 H :    0.183098
  32 H :    0.179602
  33 H :    0.160799
  34 H :    0.158605
  35 H :    0.164349
  36 H :    0.182875
  37 H :    0.177287
  38 H :    0.166014
  39 H :    0.162495
  40 H :    0.158596

  Mayer bond orders larger than 0.100000
B(  0-C ,  1-C ) :   0.9267 B(  0-C , 19-H ) :   0.9606 B(  0-C , 20-H ) :   0.9701
B(  0-C , 21-H ) :   0.9608 B(  1-C ,  2-O ) :   0.8139 B(  1-C , 22-H ) :   0.9604
B(  1-C , 23-H ) :   0.9671 B(  2-O ,  3-P ) :   1.1853 B(  3-P ,  4-S ) :   1.7309
B(  3-P ,  5-O ) :   1.0629 B(  3-P ,  8-S ) :   1.0824 B(  5-O ,  6-C ) :   0.8036
B(  6-C ,  7-C ) :   0.9343 B(  6-C , 24-H ) :   0.9594 B(  6-C , 25-H ) :   0.9627
B(  7-C , 26-H ) :   0.9667 B(  7-C , 27-H ) :   0.9592 B(  7-C , 28-H ) :   0.9530
B(  8-S ,  9-C ) :   0.9215 B(  9-C , 10-S ) :   0.9171 B(  9-C , 29-H ) :   0.9067
B(  9-C , 30-H ) :   0.8890 B( 10-S , 11-P ) :   0.9936 B( 11-P , 12-S ) :   1.8760
B( 11-P , 13-O ) :   1.0472 B( 11-P , 16-O ) :   1.1454 B( 13-O , 14-C ) :   0.7782
B( 14-C , 15-C ) :   0.9422 B( 14-C , 31-H ) :   0.9593 B( 14-C , 32-H ) :   0.9644
B( 15-C , 33-H ) :   0.9625 B( 15-C , 34-H ) :   0.9748 B( 15-C , 35-H ) :   0.9557
B( 16-O , 17-C ) :   0.7345 B( 17-C , 18-C ) :   0.9394 B( 17-C , 36-H ) :   0.9589
B( 17-C , 37-H ) :   0.9642 B( 18-C , 38-H ) :   0.9676 B( 18-C , 39-H ) :   0.9723
B( 18-C , 40-H ) :   0.9654

Dispersion correction           -0.020851996
FINAL SINGLE POINT ENERGY     -2932.461101783812

DIPOLE MOMENT
-------------

Method             : SCF
Type of density    : Electron Density
Multiplicity       :   1
Irrep              :   0
Energy             : -2932.4871054736290716 Eh
Relativity type    :
Basis              : AO
                                X                 Y                 Z
Electronic contribution:     -0.030732914       6.911368077     -16.418839991
Nuclear contribution   :      0.209496109      -7.734147783      18.127280369
                        -----------------------------------------
Total Dipole Moment    :      0.178763195      -0.822779706       1.708440379
                        -----------------------------------------
Magnitude (a.u.)       :      1.904649903
Magnitude (Debye)      :      4.841235313

Rotational constants in cm-1:             0.014165             0.003996             0.003855
Rotational constants in MHz :           424.648746           119.806970           115.579059

                             ****ORCA TERMINATED NORMALLY****
TOTAL RUN TIME: 0 days 0 hours 1 minutes 15 seconds 487 msec
