                         Program Version 6.0.0  -   RELEASE  -
|  1> ! r2scan-3c def2/J RI DEFGRID2 scfconv6 printgap
|  2> %output
|  3>     printlevel normal
|  4> end
|  5> %cpcm
|  6>     smd true
|  7>     smdsolvent "water"
|  8> end
|  9> * xyz 0 1
| 10> C 5.7880946694 -1.2640311384 -0.5931028124
| 11> C 4.9111434196 -0.5977169837 -1.6326053685
| 12> O 3.509233161 -0.8661045209 -1.418427302
| 13> P 2.7220100119 -0.305813066 -0.1652425338
| 14> S 3.2104424937 1.5018557705 0.4295485037
| 15> O 2.9636174191 -1.4512481479 0.9111908409
| 16> C 2.7090988564 -1.2561147217 2.3131806281
| 17> C 1.226650458 -1.1740478885 2.6145681693
| 18> S 0.7609345819 -0.6011460048 -0.92033154
| 19> C 0.1011521653 1.081218391 -0.7064772647
| 20> S -1.1029312317 1.1988004397 0.6327725087
| 21> P -2.7149509024 0.3243403625 -0.4577823653
| 22> S -2.9300624688 0.9997173378 -2.2802929839
| 23> O -3.9738691794 0.4874686724 0.4953758147
| 24> C -4.7005879495 1.726022688 0.6166450441
| 25> C -4.1664860924 2.5701377671 1.7570695539
| 26> O -2.4504353225 -1.2260827136 -0.4373517514
| 27> C -2.2564600188 -1.9977628982 0.7744796866
| 28> C -3.5500861847 -2.6590377026 1.202208669
| 29> H 5.6195449564 -0.8109387276 0.3827104789
| 30> H 5.5590487592 -2.3247550488 -0.5335332087
| 31> H 6.8303965471 -1.1330771578 -0.8669947413
| 32> H 5.0990341833 -0.9905352615 -2.632776616
| 33> H 5.0592369696 0.4869844433 -1.62592444
| 34> H 3.1688156277 -2.1244999471 2.78694578
| 35> H 3.2183386757 -0.3416632488 2.6343824679
| 36> H 0.7127255695 -2.0403662832 2.2057732797
| 37> H 1.0794478431 -1.1408574262 3.6892059797
| 38> H 0.8048899916 -0.2692827306 2.1767120463
| 39> H -0.3898362629 1.3687021534 -1.6369356586
| 40> H 0.9213033664 1.759973834 -0.4628279004
| 41> H -4.6468528622 2.260757439 -0.3372054225
| 42> H -5.7314130617 1.418356588 0.8015304434
| 43> H -4.7909743225 3.450909124 1.8670248665
| 44> H -4.1832218954 2.0010600189 2.6820580398
| 45> H -3.144063732 2.882848428 1.5579173834
| 46> H -1.4982486965 -2.7350073363 0.5030224975
| 47> H -1.8721536412 -1.337863547 1.5572270463
| 48> H -4.2919949002 -1.9057724766 1.4526234047
| 49> H -3.9364475411 -3.2773313196 0.3966553453
| 50> H -3.3602175808 -3.2799778476 2.0720803442
| 51> *
| 52>
| 53>                          ****END OF INPUT****

CARTESIAN COORDINATES (ANGSTROEM)
---------------------------------
  C      5.788095   -1.264031   -0.593103
  C      4.911143   -0.597717   -1.632605
  O      3.509233   -0.866105   -1.418427
  P      2.722010   -0.305813   -0.165243
  S      3.210442    1.501856    0.429549
  O      2.963617   -1.451248    0.911191
  C      2.709099   -1.256115    2.313181
  C      1.226650   -1.174048    2.614568
  S      0.760935   -0.601146   -0.920332
  C      0.101152    1.081218   -0.706477
  S     -1.102931    1.198800    0.632773
  P     -2.714951    0.324340   -0.457782
  S     -2.930062    0.999717   -2.280293
  O     -3.973869    0.487469    0.495376
  C     -4.700588    1.726023    0.616645
  C     -4.166486    2.570138    1.757070
  O     -2.450435   -1.226083   -0.437352
  C     -2.256460   -1.997763    0.774480
  C     -3.550086   -2.659038    1.202209
  H      5.619545   -0.810939    0.382710
  H      5.559049   -2.324755   -0.533533
  H      6.830397   -1.133077   -0.866995
  H      5.099034   -0.990535   -2.632777
  H      5.059237    0.486984   -1.625924
  H      3.168816   -2.124500    2.786946
  H      3.218339   -0.341663    2.634382
  H      0.712726   -2.040366    2.205773
  H      1.079448   -1.140857    3.689206
  H      0.804890   -0.269283    2.176712
  H     -0.389836    1.368702   -1.636936
  H      0.921303    1.759974   -0.462828
  H     -4.646853    2.260757   -0.337205
  H     -5.731413    1.418357    0.801530
  H     -4.790974    3.450909    1.867025
  H     -4.183222    2.001060    2.682058
  H     -3.144064    2.882848    1.557917
  H     -1.498249   -2.735007    0.503022
  H     -1.872154   -1.337864    1.557227
  H     -4.291995   -1.905772    1.452623
  H     -3.936448   -3.277331    0.396655
  H     -3.360218   -3.279978    2.072080

 Total Charge           Charge          ....    0
 Multiplicity           Mult            ....    1
 Number of Electrons    NEL             ....  202
 Basis Dimension        Dim             ....  539

ORBITAL ENERGIES
----------------

  NO   OCC          E(Eh)            E(eV)
   0   2.0000     -88.580041     -2410.3855
   1   2.0000     -88.579677     -2410.3756
   2   2.0000     -88.533966     -2409.1317
   3   2.0000     -88.530422     -2409.0353
   4   2.0000     -76.921977     -2093.1534
   5   2.0000     -76.920892     -2093.1239
   6   2.0000     -18.999267      -516.9963
   7   2.0000     -18.998576      -516.9775
   8   2.0000     -18.995420      -516.8916
   9   2.0000     -18.994352      -516.8626
  10   2.0000     -10.103194      -274.9219
  11   2.0000     -10.092702      -274.6364
  12   2.0000     -10.091930      -274.6154
  13   2.0000     -10.090562      -274.5781
  14   2.0000     -10.090008      -274.5631
  15   2.0000     -10.019218      -272.6368
  16   2.0000     -10.019099      -272.6335
  17   2.0000     -10.018824      -272.6261
  18   2.0000     -10.018616      -272.6204
  19   2.0000      -7.874245      -214.2691
  20   2.0000      -7.874086      -214.2648
  21   2.0000      -7.828933      -213.0361
  22   2.0000      -7.825564      -212.9444
  23   2.0000      -6.600598      -179.6114
  24   2.0000      -6.599642      -179.5854
  25   2.0000      -5.821106      -158.4003
  26   2.0000      -5.820746      -158.3906
  27   2.0000      -5.818213      -158.3216
  28   2.0000      -5.817940      -158.3142
  29   2.0000      -5.811397      -158.1362
  30   2.0000      -5.811284      -158.1331
  31   2.0000      -5.776409      -157.1841
  32   2.0000      -5.773148      -157.0953
  33   2.0000      -5.769386      -156.9930
  34   2.0000      -5.768892      -156.9795
  35   2.0000      -5.765742      -156.8938
  36   2.0000      -5.765654      -156.8914
  37   2.0000      -4.746408      -129.1563
  38   2.0000      -4.745520      -129.1322
  39   2.0000      -4.744840      -129.1137
  40   2.0000      -4.744381      -129.1012
  41   2.0000      -4.744073      -129.0928
  42   2.0000      -4.743827      -129.0861
  43   2.0000      -1.057347       -28.7719
  44   2.0000      -1.053763       -28.6744
  45   2.0000      -1.016539       -27.6614
  46   2.0000      -1.014069       -27.5942
  47   2.0000      -0.803321       -21.8595
  48   2.0000      -0.758449       -20.6384
  49   2.0000      -0.746159       -20.3040
  50   2.0000      -0.727455       -19.7951
  51   2.0000      -0.724442       -19.7131
  52   2.0000      -0.712217       -19.3804
  53   2.0000      -0.690968       -18.8022
  54   2.0000      -0.676007       -18.3951
  55   2.0000      -0.634703       -17.2712
  56   2.0000      -0.622087       -16.9279
  57   2.0000      -0.602629       -16.3984
  58   2.0000      -0.600184       -16.3318
  59   2.0000      -0.588714       -16.0197
  60   2.0000      -0.526430       -14.3249
  61   2.0000      -0.515163       -14.0183
  62   2.0000      -0.497988       -13.5510
  63   2.0000      -0.490673       -13.3519
  64   2.0000      -0.477686       -12.9985
  65   2.0000      -0.463921       -12.6239
  66   2.0000      -0.456517       -12.4225
  67   2.0000      -0.454068       -12.3558
  68   2.0000      -0.444309       -12.0903
  69   2.0000      -0.430889       -11.7251
  70   2.0000      -0.418422       -11.3858
  71   2.0000      -0.408413       -11.1135
  72   2.0000      -0.407346       -11.0845
  73   2.0000      -0.405692       -11.0394
  74   2.0000      -0.400733       -10.9045
  75   2.0000      -0.393657       -10.7120
  76   2.0000      -0.377783       -10.2800
  77   2.0000      -0.370506       -10.0820
  78   2.0000      -0.366388        -9.9699
  79   2.0000      -0.364003        -9.9050
  80   2.0000      -0.357673        -9.7328
  81   2.0000      -0.352794        -9.6000
  82   2.0000      -0.351062        -9.5529
  83   2.0000      -0.348484        -9.4827
  84   2.0000      -0.344497        -9.3742
  85   2.0000      -0.333228        -9.0676
  86   2.0000      -0.325495        -8.8572
  87   2.0000      -0.307500        -8.3675
  88   2.0000      -0.305223        -8.3055
  89   2.0000      -0.303267        -8.2523
  90   2.0000      -0.301868        -8.2142
  91   2.0000      -0.291211        -7.9243
  92   2.0000      -0.287610        -7.8263
  93   2.0000      -0.282694        -7.6925
  94   2.0000      -0.278230        -7.5710
  95   2.0000      -0.250512        -6.8168
  96   2.0000      -0.240376        -6.5410
  97   2.0000      -0.237382        -6.4595
  98   2.0000      -0.230648        -6.2763
  99   2.0000      -0.230144        -6.2625
 100   2.0000      -0.219982        -5.9860
 101   0.0000      -0.050712        -1.3799
 102   0.0000      -0.038250        -1.0408
 103   0.0000      -0.016234        -0.4417
 104   0.0000      -0.001865        -0.0508
 105   0.0000       0.014117         0.3841

MULLIKEN ATOMIC CHARGES
-----------------------
   0 C :   -0.475495
   1 C :   -0.149025
   2 O :   -0.331655
   3 P :    0.690031
   4 S :   -0.520564
   5 O :   -0.300334
   6 C :   -0.143992
   7 C :   -0.473671
   8 S :   -0.112294
   9 C :   -0.251588
  10 S :   -0.166218
  11 P :    0.665234
  12 S :   -0.501769
  13 O :   -0.310144
  14 C :   -0.152552
  15 C :   -0.470377
  16 O :   -0.299017
  17 C :   -0.088173
  18 C :   -0.508595
  19 H :    0.168227
  20 H :    0.169485
  21 H :    0.172756
  22 H :    0.175895
  23 H :    0.176546
  24 H :    0.175673
  25 H :    0.174408
  26 H :    0.173383
  27 H :    0.173116
  28 H :    0.163723
  29 H :    0.226249
  30 H :    0.227116
  31 H :    0.173027
  32 H :    0.176896
  33 H :    0.171801
  34 H :    0.172837
  35 H :    0.159527
  36 H :    0.182488
  37 H :    0.177358
  38 H :    0.169710
  39 H :    0.168255
  40 H :    0.171721
Sum of atomic charges:    0.0000000

LOEWDIN ATOMIC CHARGES
----------------------
   0 C :   -0.402290
   1 C :    0.029611
   2 O :   -0.683708
   3 P :    0.389523
   4 S :   -0.155076
   5 O :   -0.676424
   6 C :    0.026030
   7 C :   -0.409986
   8 S :    0.168706
   9 C :   -0.420244
  10 S :    0.123112
  11 P :    0.377129
  12 S :   -0.155841
  13 O :   -0.669963
  14 C :    0.029759
  15 C :   -0.403001
  16 O :   -0.672812
  17 C :    0.023198
  18 C :   -0.394723
  19 H :    0.162837
  20 H :    0.164665
  21 H :    0.169174
  22 H :    0.191480
  23 H :    0.181715
  24 H :    0.191214
  25 H :    0.181543
  26 H :    0.165525
  27 H :    0.169138
  28 H :    0.161276
  29 H :    0.195603
  30 H :    0.200616
  31 H :    0.182719
  32 H :    0.190779
  33 H :    0.169358
  34 H :    0.164281
  35 H :    0.160836
  36 H :    0.191250
  37 H :    0.183832
  38 H :    0.165878
  39 H :    0.163980
  40 H :    0.169298

  Mayer bond orders larger than 0.100000
B(  0-C ,  1-C ) :   0.9148 B(  0-C , 19-H ) :   0.9589 B(  0-C , 20-H ) :   0.9693
B(  0-C , 21-H ) :   0.9547 B(  1-C ,  2-O ) :   0.8028 B(  1-C , 22-H ) :   0.9508
B(  1-C , 23-H ) :   0.9621 B(  2-O ,  3-P ) :   1.1863 B(  3-P ,  4-S ) :   1.7120
B(  3-P ,  5-O ) :   1.0747 B(  3-P ,  8-S ) :   1.0835 B(  5-O ,  6-C ) :   0.7893
B(  6-C ,  7-C ) :   0.9217 B(  6-C , 24-H ) :   0.9492 B(  6-C , 25-H ) :   0.9599
B(  7-C , 26-H ) :   0.9642 B(  7-C , 27-H ) :   0.9542 B(  7-C , 28-H ) :   0.9549
B(  8-S ,  9-C ) :   0.9120 B(  9-C , 10-S ) :   0.9145 B(  9-C , 29-H ) :   0.9045
B(  9-C , 30-H ) :   0.8873 B( 10-S , 11-P ) :   1.0085 B( 11-P , 12-S ) :   1.8383
B( 11-P , 13-O ) :   1.0612 B( 11-P , 16-O ) :   1.1551 B( 13-O , 14-C ) :   0.7679
B( 14-C , 15-C ) :   0.9394 B( 14-C , 31-H ) :   0.9568 B( 14-C , 32-H ) :   0.9536
B( 15-C , 33-H ) :   0.9574 B( 15-C , 34-H ) :   0.9716 B( 15-C , 35-H ) :   0.9557
B( 16-O , 17-C ) :   0.7241 B( 17-C , 18-C ) :   0.9332 B( 17-C , 36-H ) :   0.9487
B( 17-C , 37-H ) :   0.9542 B( 18-C , 38-H ) :   0.9671 B( 18-C , 39-H ) :   0.9712
B( 18-C , 40-H ) :   0.9585

Dispersion correction           -0.020851996
FINAL SINGLE POINT ENERGY     -2932.470273932626

DIPOLE MOMENT
-------------

Method             : SCF
Type of density    : Electron Density
Multiplicity       :   1
Irrep              :   0
Energy             : -2932.4962776224433583 Eh
Relativity type    :
Basis              : AO
                                X                 Y                 Z
Electronic contribution:      0.084238935       6.717024525     -15.582036195
Nuclear contribution   :      0.209496109      -7.734147783      18.127280369
                        -----------------------------------------
Total Dipole Moment    :      0.293735045      -1.017123257       2.545244174
                        -----------------------------------------
Magnitude (a.u.)       :      2.756644319
Magnitude (Debye)      :      7.006833017

Rotational constants in cm-1:             0.014165             0.003996             0.003855
Rotational constants in MHz :           424.648746           119.806970           115.579059

                             ****ORCA TERMINATED NORMALLY****
TOTAL RUN TIME: 0 days 0 hours 1 minutes 46 seconds 226 msec
