                         Program Version 6.0.0  -   RELEASE  -
|  1> ! pbe def2-sv(p) def2/J RI DEFGRID1 loosescf d4 GCP(DFT/SV(P)) printgap
|  2> %output
|  3>     printlevel normal
|  4> end
|  5> * xyz 0 1
|  6> C 5.7473613604 -0.6805745494 -0.6324857459
|  7> C 4.2700981001 -0.8811828833 -0.9038167266
|  8> O 3.5458777226 0.1394604682 -0.1895180604
|  9> P 2.0124684601 0.4283424724 -0.5082929674
| 10> S 1.6422128747 0.7894421448 -2.3921168003
| 11> O 1.7094574085 1.6359949812 0.4503772341
| 12> C 1.9724153187 1.6145086218 1.8766159863
| 13> C 3.33267825 2.2011796732 2.1919410849
| 14> S 1.0700207896 -1.305954839 0.3292083564
| 15> C 0.0041045126 -1.7945716709 -1.0606258346
| 16> S -1.7030831844 -2.1431100032 -0.5663168912
| 17> P -2.1972302264 -0.2824192791 0.2777199245
| 18> S -1.4159064551 1.356713277 -0.4885067956
| 19> O -1.8116549707 -0.5807370684 1.7836950225
| 20> C -1.6660015421 0.4592544174 2.7703105143
| 21> C -3.0088023676 0.9600823419 3.2603848911
| 22> O -3.7852233442 -0.2916283249 0.3323130388
| 23> C -4.6033277031 0.2128545007 -0.7366715093
| 24> C -4.4757653658 -0.6184775741 -1.9968035295
| 25> H 6.0585329874 0.3026427923 -0.9740252208
| 26> H 5.9462903912 -0.7649620127 0.4319265087
| 27> H 6.3120569386 -1.4391249863 -1.164269324
| 28> H 3.9266285228 -1.8561345264 -0.546384714
| 29> H 4.0405933444 -0.787482608 -1.9703969831
| 30> H 1.1728477713 2.2234885959 2.3038352816
| 31> H 1.8874870111 0.5845404791 2.2356848263
| 32> H 3.4063871377 3.2051320246 1.7829863157
| 33> H 3.4564281584 2.2418445054 3.2696667953
| 34> H 4.1189895327 1.5883455335 1.7609064145
| 35> H 0.3820500835 -2.7241490283 -1.4789868098
| 36> H 0.0273002657 -0.9921747816 -1.8041673103
| 37> H -1.0932445885 -0.0137315189 3.569399888
| 38> H -1.0863673596 1.2764098253 2.3268777941
| 39> H -3.5326481 1.4729257444 2.4556815139
| 40> H -3.6165355814 0.1252957969 3.5983311268
| 41> H -2.8550798283 1.6529043115 4.0819063775
| 42> H -5.6150162396 0.176713813 -0.3303239703
| 43> H -4.314971984 1.2509746507 -0.9314775145
| 44> H -3.4757954555 -0.5084455663 -2.4156500719
| 45> H -4.6494142266 -1.6687671308 -1.7763453337
| 46> H -5.2009318537 -0.2767859683 -2.7284699097
| 47> *
| 48>
| 49>                          ****END OF INPUT****

CARTESIAN COORDINATES (ANGSTROEM)
---------------------------------
  C      5.747361   -0.680575   -0.632486
  C      4.270098   -0.881183   -0.903817
  O      3.545878    0.139460   -0.189518
  P      2.012468    0.428342   -0.508293
  S      1.642213    0.789442   -2.392117
  O      1.709457    1.635995    0.450377
  C      1.972415    1.614509    1.876616
  C      3.332678    2.201180    2.191941
  S      1.070021   -1.305955    0.329208
  C      0.004105   -1.794572   -1.060626
  S     -1.703083   -2.143110   -0.566317
  P     -2.197230   -0.282419    0.277720
  S     -1.415906    1.356713   -0.488507
  O     -1.811655   -0.580737    1.783695
  C     -1.666002    0.459254    2.770311
  C     -3.008802    0.960082    3.260385
  O     -3.785223   -0.291628    0.332313
  C     -4.603328    0.212855   -0.736672
  C     -4.475765   -0.618478   -1.996804
  H      6.058533    0.302643   -0.974025
  H      5.946290   -0.764962    0.431927
  H      6.312057   -1.439125   -1.164269
  H      3.926629   -1.856135   -0.546385
  H      4.040593   -0.787483   -1.970397
  H      1.172848    2.223489    2.303835
  H      1.887487    0.584540    2.235685
  H      3.406387    3.205132    1.782986
  H      3.456428    2.241845    3.269667
  H      4.118990    1.588346    1.760906
  H      0.382050   -2.724149   -1.478987
  H      0.027300   -0.992175   -1.804167
  H     -1.093245   -0.013732    3.569400
  H     -1.086367    1.276410    2.326878
  H     -3.532648    1.472926    2.455682
  H     -3.616536    0.125296    3.598331
  H     -2.855080    1.652904    4.081906
  H     -5.615016    0.176714   -0.330324
  H     -4.314972    1.250975   -0.931478
  H     -3.475795   -0.508446   -2.415650
  H     -4.649414   -1.668767   -1.776345
  H     -5.200932   -0.276786   -2.728470

 Total Charge           Charge          ....    0
 Multiplicity           Mult            ....    1
 Number of Electrons    NEL             ....  202
 Basis Dimension        Dim             ....  334

ORBITAL ENERGIES
----------------

  NO   OCC          E(Eh)            E(eV)
   0   2.0000     -88.041116     -2395.7206
   1   2.0000     -88.039034     -2395.6639
   2   2.0000     -87.981860     -2394.1081
   3   2.0000     -87.981265     -2394.0919
   4   2.0000     -76.422760     -2079.5690
   5   2.0000     -76.422172     -2079.5530
   6   2.0000     -18.790896      -511.3263
   7   2.0000     -18.789875      -511.2985
   8   2.0000     -18.789622      -511.2916
   9   2.0000     -18.784869      -511.1623
  10   2.0000      -9.959000      -270.9982
  11   2.0000      -9.951442      -270.7925
  12   2.0000      -9.950560      -270.7685
  13   2.0000      -9.950466      -270.7660
  14   2.0000      -9.950300      -270.7614
  15   2.0000      -9.888414      -269.0774
  16   2.0000      -9.886627      -269.0288
  17   2.0000      -9.883976      -268.9567
  18   2.0000      -9.881773      -268.8967
  19   2.0000      -7.686717      -209.1662
  20   2.0000      -7.683422      -209.0766
  21   2.0000      -7.626534      -207.5285
  22   2.0000      -7.626313      -207.5225
  23   2.0000      -6.420144      -174.7010
  24   2.0000      -6.419675      -174.6882
  25   2.0000      -5.714678      -155.5043
  26   2.0000      -5.711276      -155.4117
  27   2.0000      -5.711152      -155.4083
  28   2.0000      -5.707964      -155.3216
  29   2.0000      -5.703576      -155.2022
  30   2.0000      -5.700502      -155.1185
  31   2.0000      -5.655557      -153.8955
  32   2.0000      -5.655153      -153.8845
  33   2.0000      -5.647098      -153.6654
  34   2.0000      -5.647035      -153.6636
  35   2.0000      -5.646574      -153.6511
  36   2.0000      -5.646554      -153.6505
  37   2.0000      -4.642916      -126.3402
  38   2.0000      -4.642082      -126.3175
  39   2.0000      -4.641842      -126.3109
  40   2.0000      -4.641450      -126.3003
  41   2.0000      -4.640479      -126.2739
  42   2.0000      -4.640253      -126.2677
  43   2.0000      -0.986983       -26.8572
  44   2.0000      -0.983580       -26.7646
  45   2.0000      -0.943066       -25.6621
  46   2.0000      -0.942794       -25.6547
  47   2.0000      -0.759635       -20.6707
  48   2.0000      -0.720175       -19.5970
  49   2.0000      -0.708560       -19.2809
  50   2.0000      -0.692109       -18.8333
  51   2.0000      -0.685747       -18.6601
  52   2.0000      -0.672685       -18.3047
  53   2.0000      -0.647681       -17.6243
  54   2.0000      -0.632602       -17.2140
  55   2.0000      -0.598655       -16.2902
  56   2.0000      -0.588267       -16.0076
  57   2.0000      -0.571041       -15.5388
  58   2.0000      -0.569337       -15.4925
  59   2.0000      -0.560926       -15.2636
  60   2.0000      -0.507559       -13.8114
  61   2.0000      -0.490923       -13.3587
  62   2.0000      -0.481514       -13.1027
  63   2.0000      -0.470320       -12.7981
  64   2.0000      -0.447211       -12.1692
  65   2.0000      -0.446541       -12.1510
  66   2.0000      -0.441139       -12.0040
  67   2.0000      -0.436208       -11.8698
  68   2.0000      -0.430620       -11.7178
  69   2.0000      -0.419656       -11.4194
  70   2.0000      -0.408251       -11.1091
  71   2.0000      -0.392267       -10.6741
  72   2.0000      -0.388219       -10.5640
  73   2.0000      -0.386740       -10.5237
  74   2.0000      -0.380132       -10.3439
  75   2.0000      -0.373744       -10.1701
  76   2.0000      -0.363687        -9.8964
  77   2.0000      -0.356120        -9.6905
  78   2.0000      -0.355166        -9.6646
  79   2.0000      -0.351641        -9.5687
  80   2.0000      -0.347908        -9.4671
  81   2.0000      -0.344414        -9.3720
  82   2.0000      -0.342300        -9.3145
  83   2.0000      -0.337675        -9.1886
  84   2.0000      -0.334634        -9.1059
  85   2.0000      -0.315298        -8.5797
  86   2.0000      -0.311885        -8.4868
  87   2.0000      -0.298175        -8.1138
  88   2.0000      -0.294334        -8.0092
  89   2.0000      -0.290559        -7.9065
  90   2.0000      -0.279675        -7.6103
  91   2.0000      -0.276102        -7.5131
  92   2.0000      -0.269223        -7.3259
  93   2.0000      -0.261172        -7.1069
  94   2.0000      -0.255862        -6.9624
  95   2.0000      -0.231523        -6.3001
  96   2.0000      -0.221348        -6.0232
  97   2.0000      -0.211072        -5.7436
  98   2.0000      -0.197398        -5.3715
  99   2.0000      -0.195957        -5.3323
 100   2.0000      -0.185250        -5.0409
 101   0.0000      -0.040556        -1.1036
 102   0.0000      -0.031277        -0.8511
 103   0.0000      -0.007795        -0.2121
 104   0.0000       0.011166         0.3038
 105   0.0000       0.019174         0.5218

MULLIKEN ATOMIC CHARGES
-----------------------
   0 C :   -0.283178
   1 C :   -0.006419
   2 O :   -0.385180
   3 P :    0.611564
   4 S :   -0.291421
   5 O :   -0.346999
   6 C :   -0.037370
   7 C :   -0.281749
   8 S :   -0.128182
   9 C :   -0.340322
  10 S :   -0.088501
  11 P :    0.602132
  12 S :   -0.312188
  13 O :   -0.359456
  14 C :   -0.030731
  15 C :   -0.294949
  16 O :   -0.372029
  17 C :   -0.002926
  18 C :   -0.318466
  19 H :    0.121926
  20 H :    0.115310
  21 H :    0.111985
  22 H :    0.096724
  23 H :    0.102383
  24 H :    0.121808
  25 H :    0.108152
  26 H :    0.121344
  27 H :    0.106863
  28 H :    0.126243
  29 H :    0.176760
  30 H :    0.204906
  31 H :    0.102571
  32 H :    0.124750
  33 H :    0.121054
  34 H :    0.117630
  35 H :    0.107813
  36 H :    0.104234
  37 H :    0.110788
  38 H :    0.131548
  39 H :    0.118181
  40 H :    0.113395
Sum of atomic charges:    0.0000000

LOEWDIN ATOMIC CHARGES
----------------------
   0 C :   -0.350630
   1 C :   -0.124277
   2 O :   -0.252444
   3 P :    0.572496
   4 S :   -0.288390
   5 O :   -0.225884
   6 C :   -0.111561
   7 C :   -0.360105
   8 S :    0.052162
   9 C :   -0.479450
  10 S :    0.091989
  11 P :    0.561362
  12 S :   -0.306779
  13 O :   -0.239558
  14 C :   -0.120534
  15 C :   -0.360807
  16 O :   -0.245130
  17 C :   -0.119339
  18 C :   -0.370215
  19 H :    0.129096
  20 H :    0.124743
  21 H :    0.130784
  22 H :    0.104804
  23 H :    0.107478
  24 H :    0.120129
  25 H :    0.105454
  26 H :    0.130330
  27 H :    0.128556
  28 H :    0.126729
  29 H :    0.134356
  30 H :    0.123126
  31 H :    0.116649
  32 H :    0.107647
  33 H :    0.124497
  34 H :    0.127338
  35 H :    0.128274
  36 H :    0.118207
  37 H :    0.110813
  38 H :    0.123067
  39 H :    0.123776
  40 H :    0.131240

  Mayer bond orders larger than 0.100000
B(  0-C ,  1-C ) :   1.1594 B(  0-C , 19-H ) :   0.9512 B(  0-C , 20-H ) :   0.9508
B(  0-C , 21-H ) :   0.9423 B(  1-C ,  2-O ) :   0.9104 B(  1-C , 22-H ) :   0.9221
B(  1-C , 23-H ) :   0.9095 B(  2-O ,  3-P ) :   1.0641 B(  3-P ,  4-S ) :   1.6457
B(  3-P ,  5-O ) :   1.1444 B(  3-P ,  8-S ) :   0.9384 B(  4-S ,  8-S ) :   0.1203
B(  4-S , 30-H ) :   0.1094 B(  5-O ,  6-C ) :   0.8973 B(  6-C ,  7-C ) :   1.1631
B(  6-C , 24-H ) :   0.9248 B(  6-C , 25-H ) :   0.9166 B(  7-C , 26-H ) :   0.9459
B(  7-C , 27-H ) :   0.9390 B(  7-C , 28-H ) :   0.9375 B(  8-S ,  9-C ) :   0.9982
B(  9-C , 10-S ) :   0.9990 B(  9-C , 29-H ) :   0.9120 B(  9-C , 30-H ) :   0.8471
B( 10-S , 11-P ) :   0.9588 B( 10-S , 12-S ) :   0.1135 B( 11-P , 12-S ) :   1.6195
B( 11-P , 13-O ) :   1.1203 B( 11-P , 16-O ) :   1.1015 B( 13-O , 14-C ) :   0.9131
B( 14-C , 15-C ) :   1.1617 B( 14-C , 31-H ) :   0.9354 B( 14-C , 32-H ) :   0.9001
B( 15-C , 33-H ) :   0.9414 B( 15-C , 34-H ) :   0.9466 B( 15-C , 35-H ) :   0.9399
B( 16-O , 17-C ) :   0.9081 B( 17-C , 18-C ) :   1.1668 B( 17-C , 36-H ) :   0.9339
B( 17-C , 37-H ) :   0.9158 B( 18-C , 38-H ) :   0.9348 B( 18-C , 39-H ) :   0.9440
B( 18-C , 40-H ) :   0.9376

Dispersion correction           -0.065529165
FINAL SINGLE POINT ENERGY     -2929.517888210893

DIPOLE MOMENT
-------------

Method             : SCF
Type of density    : Electron Density
Multiplicity       :   1
Irrep              :   0
Energy             : -2929.6366453430073307 Eh
Relativity type    :
Basis              : AO
                                X                 Y                 Z
Electronic contribution:     -4.939687613      -5.142305539     -10.091813100
Nuclear contribution   :      5.139971970       4.676731788      11.304989265
                        -----------------------------------------
Total Dipole Moment    :      0.200284357      -0.465573752       1.213176165
                        -----------------------------------------
Magnitude (a.u.)       :      1.314788633
Magnitude (Debye)      :      3.341927118

Rotational constants in cm-1:             0.012867             0.005084             0.004482
Rotational constants in MHz :           385.747296           152.414261           134.374162

                             ****ORCA TERMINATED NORMALLY****
TOTAL RUN TIME: 0 days 0 hours 0 minutes 21 seconds 64 msec
