                         Program Version 6.0.0  -   RELEASE  -
|  1> ! pbe def2-sv(p) def2/J RI DEFGRID1 loosescf d4 GCP(DFT/SV(P)) printgap
|  2> %output
|  3>     printlevel normal
|  4> end
|  5> * xyz 0 1
|  6> C 4.7971608191 -0.7450949542 -2.2569703476
|  7> C 4.4133317186 -1.6729753889 -1.1238745103
|  8> O 3.9679804363 -0.9637443915 0.0479892098
|  9> P 2.7800219245 0.0875592009 0.0824946881
| 10> S 3.1060143455 1.9143817828 -0.5524712267
| 11> O 2.4487351651 0.1562360406 1.6204589824
| 12> C 2.4646702776 -0.9399025783 2.5683254088
| 13> C 1.2307735045 -1.8109082799 2.4515513841
| 14> S 1.2058079416 -0.9129196066 -0.9602475814
| 15> C 0.0917655739 0.5005626608 -1.0239044441
| 16> S -0.8704657362 0.6997765111 0.4987872615
| 17> P -2.8388137788 0.3203680544 -0.2674923173
| 18> S -2.9972398412 0.137370906 -2.206763295
| 19> O -3.6793256341 1.5261194694 0.2988480446
| 20> C -3.7667068428 1.8082644567 1.7200968044
| 21> C -4.1837582254 3.2549045137 1.879817426
| 22> O -3.4203463085 -0.8956597947 0.5829410024
| 23> C -3.2917962808 -2.2670698653 0.1662987513
| 24> C -1.8773493496 -2.7831576389 0.329645247
| 25> H 5.2009376002 -1.3266848916 -3.0793844746
| 26> H 3.9237909743 -0.1960309548 -2.6065334135
| 27> H 5.5418422837 -0.0259423963 -1.9238377393
| 28> H 5.2728674893 -2.2428692603 -0.7665863031
| 29> H 3.6162129365 -2.3536539322 -1.4346774223
| 30> H 3.3776279377 -1.517879883 2.4169080294
| 31> H 2.5022360052 -0.430636754 3.5326841722
| 32> H 1.2381570054 -2.3659301629 1.5164337038
| 33> H 1.2153713793 -2.5123401085 3.2799099503
| 34> H 0.3386874881 -1.1898002294 2.4892390388
| 35> H -0.5967257934 0.3477631567 -1.858834839
| 36> H 0.691134593 1.4021565089 -1.1671827212
| 37> H -4.5017171257 1.1248627137 2.1489867474
| 38> H -2.7886437785 1.6211120988 2.1732177834
| 39> H -3.4364387402 3.9111190354 1.4422086171
| 40> H -5.1329403368 3.4250058714 1.3799097705
| 41> H -4.2863118315 3.4821658841 2.9359599686
| 42> H -3.9910304582 -2.8006977122 0.8116675101
| 43> H -3.6152257076 -2.3437368091 -0.8765113545
| 44> H -1.8576498222 -3.845600221 0.1100191031
| 45> H -1.2063570864 -2.2742687821 -0.3616643739
| 46> H -1.5318579395 -2.6199891815 1.3467830249
| 47> *
| 48>
| 49>                          ****END OF INPUT****

CARTESIAN COORDINATES (ANGSTROEM)
---------------------------------
  C      4.797161   -0.745095   -2.256970
  C      4.413332   -1.672975   -1.123875
  O      3.967980   -0.963744    0.047989
  P      2.780022    0.087559    0.082495
  S      3.106014    1.914382   -0.552471
  O      2.448735    0.156236    1.620459
  C      2.464670   -0.939903    2.568325
  C      1.230774   -1.810908    2.451551
  S      1.205808   -0.912920   -0.960248
  C      0.091766    0.500563   -1.023904
  S     -0.870466    0.699777    0.498787
  P     -2.838814    0.320368   -0.267492
  S     -2.997240    0.137371   -2.206763
  O     -3.679326    1.526119    0.298848
  C     -3.766707    1.808264    1.720097
  C     -4.183758    3.254905    1.879817
  O     -3.420346   -0.895660    0.582941
  C     -3.291796   -2.267070    0.166299
  C     -1.877349   -2.783158    0.329645
  H      5.200938   -1.326685   -3.079384
  H      3.923791   -0.196031   -2.606533
  H      5.541842   -0.025942   -1.923838
  H      5.272867   -2.242869   -0.766586
  H      3.616213   -2.353654   -1.434677
  H      3.377628   -1.517880    2.416908
  H      2.502236   -0.430637    3.532684
  H      1.238157   -2.365930    1.516434
  H      1.215371   -2.512340    3.279910
  H      0.338687   -1.189800    2.489239
  H     -0.596726    0.347763   -1.858835
  H      0.691135    1.402157   -1.167183
  H     -4.501717    1.124863    2.148987
  H     -2.788644    1.621112    2.173218
  H     -3.436439    3.911119    1.442209
  H     -5.132940    3.425006    1.379910
  H     -4.286312    3.482166    2.935960
  H     -3.991030   -2.800698    0.811668
  H     -3.615226   -2.343737   -0.876511
  H     -1.857650   -3.845600    0.110019
  H     -1.206357   -2.274269   -0.361664
  H     -1.531858   -2.619989    1.346783

 Total Charge           Charge          ....    0
 Multiplicity           Mult            ....    1
 Number of Electrons    NEL             ....  202
 Basis Dimension        Dim             ....  334

ORBITAL ENERGIES
----------------

  NO   OCC          E(Eh)            E(eV)
   0   2.0000     -88.046351     -2395.8630
   1   2.0000     -88.041672     -2395.7357
   2   2.0000     -87.992387     -2394.3946
   3   2.0000     -87.981101     -2394.0875
   4   2.0000     -76.428153     -2079.7158
   5   2.0000     -76.427802     -2079.7062
   6   2.0000     -18.800587      -511.5900
   7   2.0000     -18.793444      -511.3956
   8   2.0000     -18.792920      -511.3814
   9   2.0000     -18.791463      -511.3417
  10   2.0000      -9.964014      -271.1346
  11   2.0000      -9.960431      -271.0371
  12   2.0000      -9.957156      -270.9480
  13   2.0000      -9.954761      -270.8828
  14   2.0000      -9.948137      -270.7026
  15   2.0000      -9.890436      -269.1325
  16   2.0000      -9.887319      -269.0476
  17   2.0000      -9.886681      -269.0303
  18   2.0000      -9.885501      -268.9982
  19   2.0000      -7.690686      -209.2742
  20   2.0000      -7.686327      -209.1556
  21   2.0000      -7.637506      -207.8271
  22   2.0000      -7.626371      -207.5241
  23   2.0000      -6.425691      -174.8519
  24   2.0000      -6.425404      -174.8441
  25   2.0000      -5.718239      -155.6012
  26   2.0000      -5.715334      -155.5221
  27   2.0000      -5.714090      -155.4883
  28   2.0000      -5.710902      -155.4016
  29   2.0000      -5.707981      -155.3221
  30   2.0000      -5.703414      -155.1978
  31   2.0000      -5.666411      -154.1909
  32   2.0000      -5.658143      -153.9659
  33   2.0000      -5.657626      -153.9518
  34   2.0000      -5.655473      -153.8932
  35   2.0000      -5.647051      -153.6641
  36   2.0000      -5.646258      -153.6425
  37   2.0000      -4.648504      -126.4922
  38   2.0000      -4.648400      -126.4894
  39   2.0000      -4.647271      -126.4587
  40   2.0000      -4.647192      -126.4565
  41   2.0000      -4.646233      -126.4304
  42   2.0000      -4.645292      -126.4048
  43   2.0000      -0.992353       -27.0033
  44   2.0000      -0.990120       -26.9425
  45   2.0000      -0.947780       -25.7904
  46   2.0000      -0.946049       -25.7433
  47   2.0000      -0.762637       -20.7524
  48   2.0000      -0.724980       -19.7277
  49   2.0000      -0.715658       -19.4740
  50   2.0000      -0.694340       -18.8939
  51   2.0000      -0.691896       -18.8274
  52   2.0000      -0.679900       -18.5010
  53   2.0000      -0.652114       -17.7449
  54   2.0000      -0.638359       -17.3706
  55   2.0000      -0.596724       -16.2377
  56   2.0000      -0.591349       -16.0914
  57   2.0000      -0.583069       -15.8661
  58   2.0000      -0.575579       -15.6623
  59   2.0000      -0.560740       -15.2585
  60   2.0000      -0.509321       -13.8593
  61   2.0000      -0.502386       -13.6706
  62   2.0000      -0.477718       -12.9994
  63   2.0000      -0.474929       -12.9235
  64   2.0000      -0.461625       -12.5614
  65   2.0000      -0.451594       -12.2885
  66   2.0000      -0.441261       -12.0073
  67   2.0000      -0.439560       -11.9610
  68   2.0000      -0.437377       -11.9016
  69   2.0000      -0.424163       -11.5421
  70   2.0000      -0.413659       -11.2562
  71   2.0000      -0.404180       -10.9983
  72   2.0000      -0.397197       -10.8083
  73   2.0000      -0.393084       -10.6964
  74   2.0000      -0.379479       -10.3262
  75   2.0000      -0.369827       -10.0635
  76   2.0000      -0.359026        -9.7696
  77   2.0000      -0.358551        -9.7567
  78   2.0000      -0.357826        -9.7369
  79   2.0000      -0.351804        -9.5731
  80   2.0000      -0.346749        -9.4355
  81   2.0000      -0.345176        -9.3927
  82   2.0000      -0.344424        -9.3723
  83   2.0000      -0.343729        -9.3534
  84   2.0000      -0.339787        -9.2461
  85   2.0000      -0.325999        -8.8709
  86   2.0000      -0.316529        -8.6132
  87   2.0000      -0.305056        -8.3010
  88   2.0000      -0.301702        -8.2097
  89   2.0000      -0.297937        -8.1073
  90   2.0000      -0.293992        -7.9999
  91   2.0000      -0.280068        -7.6210
  92   2.0000      -0.273705        -7.4479
  93   2.0000      -0.266295        -7.2462
  94   2.0000      -0.256854        -6.9894
  95   2.0000      -0.232704        -6.3322
  96   2.0000      -0.221485        -6.0269
  97   2.0000      -0.213398        -5.8069
  98   2.0000      -0.207577        -5.6484
  99   2.0000      -0.200439        -5.4542
 100   2.0000      -0.193014        -5.2522
 101   0.0000      -0.043885        -1.1942
 102   0.0000      -0.035183        -0.9574
 103   0.0000      -0.018221        -0.4958
 104   0.0000      -0.000217        -0.0059
 105   0.0000       0.013812         0.3758

MULLIKEN ATOMIC CHARGES
-----------------------
   0 C :   -0.308388
   1 C :   -0.014821
   2 O :   -0.384422
   3 P :    0.612875
   4 S :   -0.307103
   5 O :   -0.352763
   6 C :    0.004914
   7 C :   -0.339872
   8 S :   -0.125081
   9 C :   -0.354795
  10 S :   -0.108357
  11 P :    0.601937
  12 S :   -0.299060
  13 O :   -0.359125
  14 C :   -0.021357
  15 C :   -0.277636
  16 O :   -0.385464
  17 C :    0.002513
  18 C :   -0.330112
  19 H :    0.112754
  20 H :    0.130056
  21 H :    0.127837
  22 H :    0.110345
  23 H :    0.115319
  24 H :    0.108441
  25 H :    0.109322
  26 H :    0.128573
  27 H :    0.108817
  28 H :    0.138947
  29 H :    0.192770
  30 H :    0.198827
  31 H :    0.110959
  32 H :    0.110198
  33 H :    0.125289
  34 H :    0.124109
  35 H :    0.111576
  36 H :    0.103339
  37 H :    0.112464
  38 H :    0.110612
  39 H :    0.128957
  40 H :    0.126603
Sum of atomic charges:   -0.0000000

LOEWDIN ATOMIC CHARGES
----------------------
   0 C :   -0.368464
   1 C :   -0.114217
   2 O :   -0.244096
   3 P :    0.568891
   4 S :   -0.305253
   5 O :   -0.234579
   6 C :   -0.108860
   7 C :   -0.372910
   8 S :    0.075446
   9 C :   -0.491675
  10 S :    0.069417
  11 P :    0.569804
  12 S :   -0.291194
  13 O :   -0.239418
  14 C :   -0.113500
  15 C :   -0.349465
  16 O :   -0.252505
  17 C :   -0.116830
  18 C :   -0.368137
  19 H :    0.130990
  20 H :    0.123687
  21 H :    0.131556
  22 H :    0.121625
  23 H :    0.108409
  24 H :    0.112547
  25 H :    0.122249
  26 H :    0.117953
  27 H :    0.128545
  28 H :    0.123675
  29 H :    0.124483
  30 H :    0.126782
  31 H :    0.116487
  32 H :    0.104813
  33 H :    0.131947
  34 H :    0.131260
  35 H :    0.130904
  36 H :    0.118169
  37 H :    0.110936
  38 H :    0.130682
  39 H :    0.113488
  40 H :    0.126356

  Mayer bond orders larger than 0.100000
B(  0-C ,  1-C ) :   1.1674 B(  0-C , 19-H ) :   0.9348 B(  0-C , 20-H ) :   0.9310
B(  0-C , 21-H ) :   0.9434 B(  1-C ,  2-O ) :   0.9090 B(  1-C , 22-H ) :   0.9330
B(  1-C , 23-H ) :   0.9258 B(  2-O ,  3-P ) :   1.0855 B(  3-P ,  4-S ) :   1.6452
B(  3-P ,  5-O ) :   1.1427 B(  3-P ,  8-S ) :   0.9303 B(  4-S ,  8-S ) :   0.1111
B(  4-S , 30-H ) :   0.1101 B(  5-O ,  6-C ) :   0.8998 B(  6-C ,  7-C ) :   1.1666
B(  6-C , 24-H ) :   0.9246 B(  6-C , 25-H ) :   0.9344 B(  7-C , 26-H ) :   0.9380
B(  7-C , 27-H ) :   0.9362 B(  7-C , 28-H ) :   0.9322 B(  8-S ,  9-C ) :   1.0100
B(  9-C , 10-S ) :   1.0058 B(  9-C , 29-H ) :   0.8471 B(  9-C , 30-H ) :   0.8550
B( 10-S , 11-P ) :   0.9505 B( 10-S , 12-S ) :   0.1154 B( 11-P , 12-S ) :   1.6343
B( 11-P , 13-O ) :   1.1432 B( 11-P , 16-O ) :   1.0769 B( 12-S , 29-H ) :   0.1226
B( 13-O , 14-C ) :   0.8926 B( 14-C , 15-C ) :   1.1642 B( 14-C , 31-H ) :   0.9296
B( 14-C , 32-H ) :   0.9141 B( 15-C , 33-H ) :   0.9492 B( 15-C , 34-H ) :   0.9494
B( 15-C , 35-H ) :   0.9403 B( 16-O , 17-C ) :   0.9151 B( 17-C , 18-C ) :   1.1611
B( 17-C , 36-H ) :   0.9333 B( 17-C , 37-H ) :   0.9152 B( 18-C , 38-H ) :   0.9373
B( 18-C , 39-H ) :   0.9318 B( 18-C , 40-H ) :   0.9392

Dispersion correction           -0.062937799
FINAL SINGLE POINT ENERGY     -2929.512885233394

DIPOLE MOMENT
-------------

Method             : SCF
Type of density    : Electron Density
Multiplicity       :   1
Irrep              :   0
Energy             : -2929.6349562132122628 Eh
Relativity type    :
Basis              : AO
                                X                 Y                 Z
Electronic contribution:      0.035182301      10.607152942      -9.661367636
Nuclear contribution   :      0.005136847     -12.365017127      11.093447773
                        -----------------------------------------
Total Dipole Moment    :      0.040319148      -1.757864185       1.432080136
                        -----------------------------------------
Magnitude (a.u.)       :      2.267722568
Magnitude (Debye)      :      5.764092688

Rotational constants in cm-1:             0.012315             0.004197             0.004105
Rotational constants in MHz :           369.194705           125.819534           123.059865

                             ****ORCA TERMINATED NORMALLY****
TOTAL RUN TIME: 0 days 0 hours 0 minutes 20 seconds 793 msec
