                         Program Version 6.0.0  -   RELEASE  -
|  1> ! r2scan-3c def2/J RI DEFGRID2 scfconv6 printgap
|  2> %output
|  3>     printlevel normal
|  4> end
|  5> * xyz 0 1
|  6> C 3.3337768191 0.2264206077 -2.9256454163
|  7> C 1.8845766185 0.4328574095 -2.5415409331
|  8> O 1.455071148 -0.4891644261 -1.5193428036
|  9> P 2.0800800233 -0.5036249058 -0.0650636175
| 10> S 2.6912307182 1.1955791853 0.7071358699
| 11> O 3.231733941 -1.5839628579 -0.2593581087
| 12> C 4.2969109863 -1.7626769848 0.6880588508
| 13> C 3.8002762795 -2.2883208108 2.0196633473
| 14> S 0.556857127 -1.5653810112 0.9587246818
| 15> C 0.0500653189 -0.3014832119 2.1788436045
| 16> S -1.747052864 -0.1072368616 2.2848817751
| 17> P -2.1362004186 0.6381023505 0.3474292021
| 18> S -0.7440999808 1.6946261077 -0.5485998269
| 19> O -3.4532429868 1.4125138949 0.7471482295
| 20> C -4.0328795354 2.4521129563 -0.0676795413
| 21> C -4.8474189247 1.8815429564 -1.2103453352
| 22> O -2.6939159112 -0.5922344126 -0.4956805929
| 23> C -1.9845588704 -1.3170684503 -1.515206901
| 24> C -2.5604399162 -0.9908731142 -2.8799391791
| 25> H 3.503418882 -0.8105374548 -3.203739291
| 26> H 3.5780071552 0.8731679306 -3.7625079839
| 27> H 3.9798664707 0.4776518578 -2.0850693803
| 28> H 1.2100788981 0.226786588 -3.3738317961
| 29> H 1.7118803221 1.4510941044 -2.177219607
| 30> H 4.965757407 -2.4717098018 0.198565994
| 31> H 4.8036153242 -0.8015844865 0.8222812328
| 32> H 3.1923588783 -1.5302192392 2.5125020386
| 33> H 3.1993655378 -3.1823865915 1.8738150588
| 34> H 4.64998785 -2.5224221804 2.6529253055
| 35> H 0.5206306814 0.6481358487 1.9096747761
| 36> H 0.3643595416 -0.6268803975 3.167282211
| 37> H -4.6569770693 3.0144220314 0.628817844
| 38> H -3.2264884884 3.0929340484 -0.4405753209
| 39> H -5.5778522477 1.173669377 -0.8280457869
| 40> H -5.3606530957 2.6899143223 -1.7218819187
| 41> H -4.1970540933 1.369911084 -1.9159639561
| 42> H -0.9218341762 -1.0628834761 -1.479544508
| 43> H -2.1120326314 -2.372068455 -1.2655929662
| 44> H -2.0799672794 -1.6165531509 -3.6252552643
| 45> H -3.6306482504 -1.1776514914 -2.8898314124
| 46> H -2.3753299179 0.0536222797 -3.1231140053
| 47> *
| 48>
| 49>                          ****END OF INPUT****

CARTESIAN COORDINATES (ANGSTROEM)
---------------------------------
  C      3.333777    0.226421   -2.925645
  C      1.884577    0.432857   -2.541541
  O      1.455071   -0.489164   -1.519343
  P      2.080080   -0.503625   -0.065064
  S      2.691231    1.195579    0.707136
  O      3.231734   -1.583963   -0.259358
  C      4.296911   -1.762677    0.688059
  C      3.800276   -2.288321    2.019663
  S      0.556857   -1.565381    0.958725
  C      0.050065   -0.301483    2.178844
  S     -1.747053   -0.107237    2.284882
  P     -2.136200    0.638102    0.347429
  S     -0.744100    1.694626   -0.548600
  O     -3.453243    1.412514    0.747148
  C     -4.032880    2.452113   -0.067680
  C     -4.847419    1.881543   -1.210345
  O     -2.693916   -0.592234   -0.495681
  C     -1.984559   -1.317068   -1.515207
  C     -2.560440   -0.990873   -2.879939
  H      3.503419   -0.810537   -3.203739
  H      3.578007    0.873168   -3.762508
  H      3.979866    0.477652   -2.085069
  H      1.210079    0.226787   -3.373832
  H      1.711880    1.451094   -2.177220
  H      4.965757   -2.471710    0.198566
  H      4.803615   -0.801584    0.822281
  H      3.192359   -1.530219    2.512502
  H      3.199366   -3.182387    1.873815
  H      4.649988   -2.522422    2.652925
  H      0.520631    0.648136    1.909675
  H      0.364360   -0.626880    3.167282
  H     -4.656977    3.014422    0.628818
  H     -3.226488    3.092934   -0.440575
  H     -5.577852    1.173669   -0.828046
  H     -5.360653    2.689914   -1.721882
  H     -4.197054    1.369911   -1.915964
  H     -0.921834   -1.062883   -1.479545
  H     -2.112033   -2.372068   -1.265593
  H     -2.079967   -1.616553   -3.625255
  H     -3.630648   -1.177651   -2.889831
  H     -2.375330    0.053622   -3.123114

 Total Charge           Charge          ....    0
 Multiplicity           Mult            ....    1
 Number of Electrons    NEL             ....  202
 Basis Dimension        Dim             ....  539

ORBITAL ENERGIES
----------------

  NO   OCC          E(Eh)            E(eV)
   0   2.0000     -88.573608     -2410.2104
   1   2.0000     -88.572598     -2410.1829
   2   2.0000     -88.521544     -2408.7937
   3   2.0000     -88.516842     -2408.6657
   4   2.0000     -76.913317     -2092.9178
   5   2.0000     -76.911455     -2092.8671
   6   2.0000     -18.989012      -516.7173
   7   2.0000     -18.987691      -516.6813
   8   2.0000     -18.987379      -516.6728
   9   2.0000     -18.983863      -516.5772
  10   2.0000     -10.104041      -274.9449
  11   2.0000     -10.097676      -274.7717
  12   2.0000     -10.097051      -274.7547
  13   2.0000     -10.095970      -274.7253
  14   2.0000     -10.090223      -274.5689
  15   2.0000     -10.029140      -272.9068
  16   2.0000     -10.028693      -272.8946
  17   2.0000     -10.027501      -272.8622
  18   2.0000     -10.027205      -272.8541
  19   2.0000      -7.868028      -214.0999
  20   2.0000      -7.866937      -214.0702
  21   2.0000      -7.816188      -212.6893
  22   2.0000      -7.811627      -212.5652
  23   2.0000      -6.591772      -179.3712
  24   2.0000      -6.589573      -179.3114
  25   2.0000      -5.814785      -158.2283
  26   2.0000      -5.814023      -158.2076
  27   2.0000      -5.812061      -158.1542
  28   2.0000      -5.810742      -158.1183
  29   2.0000      -5.805065      -157.9638
  30   2.0000      -5.803866      -157.9312
  31   2.0000      -5.763866      -156.8428
  32   2.0000      -5.759281      -156.7180
  33   2.0000      -5.756697      -156.6477
  34   2.0000      -5.755959      -156.6276
  35   2.0000      -5.752129      -156.5234
  36   2.0000      -5.751407      -156.5038
  37   2.0000      -4.736981      -128.8998
  38   2.0000      -4.736565      -128.8885
  39   2.0000      -4.735911      -128.8707
  40   2.0000      -4.734903      -128.8433
  41   2.0000      -4.734444      -128.8308
  42   2.0000      -4.733558      -128.8067
  43   2.0000      -1.048548       -28.5324
  44   2.0000      -1.044396       -28.4195
  45   2.0000      -1.008619       -27.4459
  46   2.0000      -1.005340       -27.3567
  47   2.0000      -0.796830       -21.6828
  48   2.0000      -0.758105       -20.6291
  49   2.0000      -0.747256       -20.3339
  50   2.0000      -0.730461       -19.8768
  51   2.0000      -0.729321       -19.8458
  52   2.0000      -0.708952       -19.2916
  53   2.0000      -0.685504       -18.6535
  54   2.0000      -0.665450       -18.1078
  55   2.0000      -0.635532       -17.2937
  56   2.0000      -0.625128       -17.0106
  57   2.0000      -0.604835       -16.4584
  58   2.0000      -0.600343       -16.3362
  59   2.0000      -0.588241       -16.0069
  60   2.0000      -0.522582       -14.2202
  61   2.0000      -0.513322       -13.9682
  62   2.0000      -0.494486       -13.4556
  63   2.0000      -0.489545       -13.3212
  64   2.0000      -0.467400       -12.7186
  65   2.0000      -0.464997       -12.6532
  66   2.0000      -0.457583       -12.4515
  67   2.0000      -0.448392       -12.2014
  68   2.0000      -0.444513       -12.0958
  69   2.0000      -0.434641       -11.8272
  70   2.0000      -0.417704       -11.3663
  71   2.0000      -0.414841       -11.2884
  72   2.0000      -0.407458       -11.0875
  73   2.0000      -0.400207       -10.8902
  74   2.0000      -0.397136       -10.8066
  75   2.0000      -0.396508       -10.7895
  76   2.0000      -0.387205       -10.5364
  77   2.0000      -0.373232       -10.1562
  78   2.0000      -0.368950       -10.0397
  79   2.0000      -0.363362        -9.8876
  80   2.0000      -0.361477        -9.8363
  81   2.0000      -0.355727        -9.6798
  82   2.0000      -0.352295        -9.5864
  83   2.0000      -0.350304        -9.5323
  84   2.0000      -0.347831        -9.4650
  85   2.0000      -0.328242        -8.9319
  86   2.0000      -0.324630        -8.8336
  87   2.0000      -0.309184        -8.4133
  88   2.0000      -0.307380        -8.3642
  89   2.0000      -0.298589        -8.1250
  90   2.0000      -0.294675        -8.0185
  91   2.0000      -0.290262        -7.8984
  92   2.0000      -0.284449        -7.7403
  93   2.0000      -0.279360        -7.6018
  94   2.0000      -0.272657        -7.4194
  95   2.0000      -0.242693        -6.6040
  96   2.0000      -0.232880        -6.3370
  97   2.0000      -0.227916        -6.2019
  98   2.0000      -0.214420        -5.8347
  99   2.0000      -0.212977        -5.7954
 100   2.0000      -0.203229        -5.5301
 101   0.0000      -0.046105        -1.2546
 102   0.0000      -0.037072        -1.0088
 103   0.0000      -0.004529        -0.1232
 104   0.0000       0.012815         0.3487
 105   0.0000       0.016099         0.4381

MULLIKEN ATOMIC CHARGES
-----------------------
   0 C :   -0.450401
   1 C :   -0.154592
   2 O :   -0.293933
   3 P :    0.673418
   4 S :   -0.461430
   5 O :   -0.288520
   6 C :   -0.153711
   7 C :   -0.439954
   8 S :   -0.147828
   9 C :   -0.222776
  10 S :   -0.116367
  11 P :    0.672160
  12 S :   -0.443236
  13 O :   -0.308139
  14 C :   -0.170108
  15 C :   -0.428627
  16 O :   -0.263524
  17 C :   -0.095253
  18 C :   -0.504589
  19 H :    0.156259
  20 H :    0.147442
  21 H :    0.171193
  22 H :    0.150663
  23 H :    0.178518
  24 H :    0.147707
  25 H :    0.171195
  26 H :    0.166042
  27 H :    0.159082
  28 H :    0.147795
  29 H :    0.218828
  30 H :    0.186540
  31 H :    0.151149
  32 H :    0.175000
  33 H :    0.157029
  34 H :    0.146867
  35 H :    0.157508
  36 H :    0.186695
  37 H :    0.150780
  38 H :    0.145964
  39 H :    0.157425
  40 H :    0.167729
Sum of atomic charges:   -0.0000000

LOEWDIN ATOMIC CHARGES
----------------------
   0 C :   -0.400743
   1 C :    0.014454
   2 O :   -0.695896
   3 P :    0.382546
   4 S :   -0.120547
   5 O :   -0.669182
   6 C :    0.018767
   7 C :   -0.406413
   8 S :    0.156234
   9 C :   -0.415732
  10 S :    0.168111
  11 P :    0.386344
  12 S :   -0.085111
  13 O :   -0.670544
  14 C :    0.025259
  15 C :   -0.396414
  16 O :   -0.663483
  17 C :    0.011895
  18 C :   -0.401704
  19 H :    0.161264
  20 H :    0.159664
  21 H :    0.165896
  22 H :    0.180928
  23 H :    0.182918
  24 H :    0.179349
  25 H :    0.178937
  26 H :    0.161906
  27 H :    0.161886
  28 H :    0.158402
  29 H :    0.199351
  30 H :    0.178242
  31 H :    0.179866
  32 H :    0.181035
  33 H :    0.161932
  34 H :    0.158958
  35 H :    0.162109
  36 H :    0.195325
  37 H :    0.176567
  38 H :    0.159181
  39 H :    0.158336
  40 H :    0.160105

  Mayer bond orders larger than 0.100000
B(  0-C ,  1-C ) :   0.9154 B(  0-C , 19-H ) :   0.9710 B(  0-C , 20-H ) :   0.9596
B(  0-C , 21-H ) :   0.9604 B(  1-C ,  2-O ) :   0.8108 B(  1-C , 22-H ) :   0.9603
B(  1-C , 23-H ) :   0.9633 B(  2-O ,  3-P ) :   1.1655 B(  3-P ,  4-S ) :   1.7392
B(  3-P ,  5-O ) :   1.0567 B(  3-P ,  8-S ) :   1.0943 B(  5-O ,  6-C ) :   0.8217
B(  6-C ,  7-C ) :   0.9194 B(  6-C , 24-H ) :   0.9579 B(  6-C , 25-H ) :   0.9682
B(  7-C , 26-H ) :   0.9673 B(  7-C , 27-H ) :   0.9663 B(  7-C , 28-H ) :   0.9599
B(  8-S ,  9-C ) :   0.8772 B(  9-C , 10-S ) :   0.9274 B(  9-C , 29-H ) :   0.9032
B(  9-C , 30-H ) :   0.9148 B( 10-S , 11-P ) :   1.0842 B( 11-P , 12-S ) :   1.7408
B( 11-P , 13-O ) :   1.1844 B( 11-P , 16-O ) :   1.0681 B( 13-O , 14-C ) :   0.7917
B( 14-C , 15-C ) :   0.9392 B( 14-C , 31-H ) :   0.9640 B( 14-C , 32-H ) :   0.9626
B( 15-C , 33-H ) :   0.9709 B( 15-C , 34-H ) :   0.9651 B( 15-C , 35-H ) :   0.9606
B( 16-O , 17-C ) :   0.7558 B( 17-C , 18-C ) :   0.9200 B( 17-C , 36-H ) :   0.9518
B( 17-C , 37-H ) :   0.9633 B( 18-C , 38-H ) :   0.9637 B( 18-C , 39-H ) :   0.9744
B( 18-C , 40-H ) :   0.9751

Dispersion correction           -0.022168071
FINAL SINGLE POINT ENERGY     -2932.459498616683

DIPOLE MOMENT
-------------

Method             : SCF
Type of density    : Electron Density
Multiplicity       :   1
Irrep              :   0
Energy             : -2932.4839670314759132 Eh
Relativity type    :
Basis              : AO
                                X                 Y                 Z
Electronic contribution:     -1.441574065       2.382900517      16.555555062
Nuclear contribution   :      1.451848583      -3.085655041     -17.378988076
                        -----------------------------------------
Total Dipole Moment    :      0.010274518      -0.702754524      -0.823433014
                        -----------------------------------------
Magnitude (a.u.)       :      1.082594761
Magnitude (Debye)      :      2.751737198

Rotational constants in cm-1:             0.012945             0.005235             0.004668
Rotational constants in MHz :           388.083696           156.933279           139.942730

                             ****ORCA TERMINATED NORMALLY****
TOTAL RUN TIME: 0 days 0 hours 1 minutes 24 seconds 578 msec
