                         Program Version 6.0.0  -   RELEASE  -
|  1> ! r2scan-3c def2/J RI DEFGRID2 scfconv6 printgap
|  2> %output
|  3>     printlevel normal
|  4> end
|  5> %cpcm
|  6>     smd true
|  7>     smdsolvent "water"
|  8> end
|  9> * xyz 0 1
| 10> C 3.3337768191 0.2264206077 -2.9256454163
| 11> C 1.8845766185 0.4328574095 -2.5415409331
| 12> O 1.455071148 -0.4891644261 -1.5193428036
| 13> P 2.0800800233 -0.5036249058 -0.0650636175
| 14> S 2.6912307182 1.1955791853 0.7071358699
| 15> O 3.231733941 -1.5839628579 -0.2593581087
| 16> C 4.2969109863 -1.7626769848 0.6880588508
| 17> C 3.8002762795 -2.2883208108 2.0196633473
| 18> S 0.556857127 -1.5653810112 0.9587246818
| 19> C 0.0500653189 -0.3014832119 2.1788436045
| 20> S -1.747052864 -0.1072368616 2.2848817751
| 21> P -2.1362004186 0.6381023505 0.3474292021
| 22> S -0.7440999808 1.6946261077 -0.5485998269
| 23> O -3.4532429868 1.4125138949 0.7471482295
| 24> C -4.0328795354 2.4521129563 -0.0676795413
| 25> C -4.8474189247 1.8815429564 -1.2103453352
| 26> O -2.6939159112 -0.5922344126 -0.4956805929
| 27> C -1.9845588704 -1.3170684503 -1.515206901
| 28> C -2.5604399162 -0.9908731142 -2.8799391791
| 29> H 3.503418882 -0.8105374548 -3.203739291
| 30> H 3.5780071552 0.8731679306 -3.7625079839
| 31> H 3.9798664707 0.4776518578 -2.0850693803
| 32> H 1.2100788981 0.226786588 -3.3738317961
| 33> H 1.7118803221 1.4510941044 -2.177219607
| 34> H 4.965757407 -2.4717098018 0.198565994
| 35> H 4.8036153242 -0.8015844865 0.8222812328
| 36> H 3.1923588783 -1.5302192392 2.5125020386
| 37> H 3.1993655378 -3.1823865915 1.8738150588
| 38> H 4.64998785 -2.5224221804 2.6529253055
| 39> H 0.5206306814 0.6481358487 1.9096747761
| 40> H 0.3643595416 -0.6268803975 3.167282211
| 41> H -4.6569770693 3.0144220314 0.628817844
| 42> H -3.2264884884 3.0929340484 -0.4405753209
| 43> H -5.5778522477 1.173669377 -0.8280457869
| 44> H -5.3606530957 2.6899143223 -1.7218819187
| 45> H -4.1970540933 1.369911084 -1.9159639561
| 46> H -0.9218341762 -1.0628834761 -1.479544508
| 47> H -2.1120326314 -2.372068455 -1.2655929662
| 48> H -2.0799672794 -1.6165531509 -3.6252552643
| 49> H -3.6306482504 -1.1776514914 -2.8898314124
| 50> H -2.3753299179 0.0536222797 -3.1231140053
| 51> *
| 52>
| 53>                          ****END OF INPUT****

CARTESIAN COORDINATES (ANGSTROEM)
---------------------------------
  C      3.333777    0.226421   -2.925645
  C      1.884577    0.432857   -2.541541
  O      1.455071   -0.489164   -1.519343
  P      2.080080   -0.503625   -0.065064
  S      2.691231    1.195579    0.707136
  O      3.231734   -1.583963   -0.259358
  C      4.296911   -1.762677    0.688059
  C      3.800276   -2.288321    2.019663
  S      0.556857   -1.565381    0.958725
  C      0.050065   -0.301483    2.178844
  S     -1.747053   -0.107237    2.284882
  P     -2.136200    0.638102    0.347429
  S     -0.744100    1.694626   -0.548600
  O     -3.453243    1.412514    0.747148
  C     -4.032880    2.452113   -0.067680
  C     -4.847419    1.881543   -1.210345
  O     -2.693916   -0.592234   -0.495681
  C     -1.984559   -1.317068   -1.515207
  C     -2.560440   -0.990873   -2.879939
  H      3.503419   -0.810537   -3.203739
  H      3.578007    0.873168   -3.762508
  H      3.979866    0.477652   -2.085069
  H      1.210079    0.226787   -3.373832
  H      1.711880    1.451094   -2.177220
  H      4.965757   -2.471710    0.198566
  H      4.803615   -0.801584    0.822281
  H      3.192359   -1.530219    2.512502
  H      3.199366   -3.182387    1.873815
  H      4.649988   -2.522422    2.652925
  H      0.520631    0.648136    1.909675
  H      0.364360   -0.626880    3.167282
  H     -4.656977    3.014422    0.628818
  H     -3.226488    3.092934   -0.440575
  H     -5.577852    1.173669   -0.828046
  H     -5.360653    2.689914   -1.721882
  H     -4.197054    1.369911   -1.915964
  H     -0.921834   -1.062883   -1.479545
  H     -2.112033   -2.372068   -1.265593
  H     -2.079967   -1.616553   -3.625255
  H     -3.630648   -1.177651   -2.889831
  H     -2.375330    0.053622   -3.123114

 Total Charge           Charge          ....    0
 Multiplicity           Mult            ....    1
 Number of Electrons    NEL             ....  202
 Basis Dimension        Dim             ....  539

ORBITAL ENERGIES
----------------

  NO   OCC          E(Eh)            E(eV)
   0   2.0000     -88.580089     -2410.3868
   1   2.0000     -88.577094     -2410.3053
   2   2.0000     -88.528566     -2408.9848
   3   2.0000     -88.525325     -2408.8966
   4   2.0000     -76.918447     -2093.0574
   5   2.0000     -76.918243     -2093.0518
   6   2.0000     -18.992772      -516.8196
   7   2.0000     -18.991732      -516.7913
   8   2.0000     -18.990165      -516.7487
   9   2.0000     -18.989796      -516.7386
  10   2.0000     -10.104701      -274.9629
  11   2.0000     -10.089912      -274.5605
  12   2.0000     -10.089163      -274.5401
  13   2.0000     -10.088362      -274.5183
  14   2.0000     -10.085712      -274.4462
  15   2.0000     -10.018273      -272.6111
  16   2.0000     -10.017985      -272.6032
  17   2.0000     -10.017807      -272.5984
  18   2.0000     -10.016657      -272.5671
  19   2.0000      -7.874465      -214.2751
  20   2.0000      -7.871527      -214.1951
  21   2.0000      -7.823517      -212.8887
  22   2.0000      -7.820298      -212.8011
  23   2.0000      -6.596733      -179.5062
  24   2.0000      -6.596672      -179.5046
  25   2.0000      -5.821473      -158.4103
  26   2.0000      -5.818304      -158.3241
  27   2.0000      -5.818207      -158.3215
  28   2.0000      -5.815591      -158.2503
  29   2.0000      -5.811551      -158.1403
  30   2.0000      -5.808517      -158.0578
  31   2.0000      -5.771133      -157.0405
  32   2.0000      -5.767920      -156.9531
  33   2.0000      -5.764004      -156.8465
  34   2.0000      -5.763318      -156.8278
  35   2.0000      -5.760706      -156.7568
  36   2.0000      -5.760168      -156.7421
  37   2.0000      -4.742002      -129.0364
  38   2.0000      -4.741908      -129.0339
  39   2.0000      -4.741530      -129.0236
  40   2.0000      -4.741509      -129.0230
  41   2.0000      -4.740953      -129.0079
  42   2.0000      -4.740677      -129.0004
  43   2.0000      -1.050874       -28.5957
  44   2.0000      -1.049758       -28.5654
  45   2.0000      -1.010346       -27.4929
  46   2.0000      -1.010071       -27.4854
  47   2.0000      -0.800227       -21.7753
  48   2.0000      -0.756791       -20.5933
  49   2.0000      -0.742826       -20.2133
  50   2.0000      -0.722665       -19.6647
  51   2.0000      -0.722366       -19.6566
  52   2.0000      -0.708824       -19.2881
  53   2.0000      -0.689409       -18.7598
  54   2.0000      -0.672131       -18.2896
  55   2.0000      -0.634954       -17.2780
  56   2.0000      -0.622609       -16.9421
  57   2.0000      -0.598742       -16.2926
  58   2.0000      -0.596181       -16.2229
  59   2.0000      -0.587447       -15.9852
  60   2.0000      -0.521219       -14.1831
  61   2.0000      -0.510848       -13.9009
  62   2.0000      -0.494208       -13.4481
  63   2.0000      -0.486870       -13.2484
  64   2.0000      -0.467181       -12.7126
  65   2.0000      -0.464586       -12.6420
  66   2.0000      -0.453646       -12.3443
  67   2.0000      -0.447870       -12.1872
  68   2.0000      -0.442370       -12.0375
  69   2.0000      -0.431641       -11.7456
  70   2.0000      -0.416330       -11.3289
  71   2.0000      -0.411237       -11.1903
  72   2.0000      -0.405432       -11.0324
  73   2.0000      -0.398546       -10.8450
  74   2.0000      -0.395923       -10.7736
  75   2.0000      -0.393515       -10.7081
  76   2.0000      -0.385220       -10.4824
  77   2.0000      -0.367241        -9.9931
  78   2.0000      -0.363596        -9.8940
  79   2.0000      -0.355225        -9.6662
  80   2.0000      -0.352835        -9.6011
  81   2.0000      -0.349386        -9.5073
  82   2.0000      -0.348845        -9.4925
  83   2.0000      -0.346043        -9.4163
  84   2.0000      -0.343987        -9.3604
  85   2.0000      -0.327416        -8.9094
  86   2.0000      -0.323426        -8.8009
  87   2.0000      -0.306627        -8.3438
  88   2.0000      -0.304083        -8.2745
  89   2.0000      -0.298244        -8.1156
  90   2.0000      -0.295046        -8.0286
  91   2.0000      -0.291390        -7.9291
  92   2.0000      -0.283893        -7.7251
  93   2.0000      -0.280481        -7.6323
  94   2.0000      -0.275767        -7.5040
  95   2.0000      -0.247403        -6.7322
  96   2.0000      -0.241012        -6.5583
  97   2.0000      -0.235133        -6.3983
  98   2.0000      -0.222552        -6.0559
  99   2.0000      -0.220303        -5.9947
 100   2.0000      -0.211504        -5.7553
 101   0.0000      -0.052428        -1.4266
 102   0.0000      -0.043101        -1.1728
 103   0.0000      -0.008451        -0.2300
 104   0.0000       0.009491         0.2583
 105   0.0000       0.010956         0.2981

MULLIKEN ATOMIC CHARGES
-----------------------
   0 C :   -0.492217
   1 C :   -0.151665
   2 O :   -0.315745
   3 P :    0.720859
   4 S :   -0.515809
   5 O :   -0.318395
   6 C :   -0.156128
   7 C :   -0.474094
   8 S :   -0.151683
   9 C :   -0.221804
  10 S :   -0.143003
  11 P :    0.689940
  12 S :   -0.480266
  13 O :   -0.339548
  14 C :   -0.156281
  15 C :   -0.476420
  16 O :   -0.289306
  17 C :   -0.097654
  18 C :   -0.520950
  19 H :    0.169714
  20 H :    0.172332
  21 H :    0.170697
  22 H :    0.178866
  23 H :    0.177672
  24 H :    0.174038
  25 H :    0.176880
  26 H :    0.170053
  27 H :    0.167239
  28 H :    0.172037
  29 H :    0.214139
  30 H :    0.229685
  31 H :    0.175196
  32 H :    0.175546
  33 H :    0.169076
  34 H :    0.171122
  35 H :    0.167888
  36 H :    0.179431
  37 H :    0.172915
  38 H :    0.168251
  39 H :    0.167925
  40 H :    0.169466
Sum of atomic charges:   -0.0000000

LOEWDIN ATOMIC CHARGES
----------------------
   0 C :   -0.403618
   1 C :    0.017931
   2 O :   -0.704941
   3 P :    0.389286
   4 S :   -0.152779
   5 O :   -0.681485
   6 C :    0.023746
   7 C :   -0.409053
   8 S :    0.157051
   9 C :   -0.408893
  10 S :    0.153099
  11 P :    0.385179
  12 S :   -0.105304
  13 O :   -0.688428
  14 C :    0.029558
  15 C :   -0.400117
  16 O :   -0.676788
  17 C :    0.014732
  18 C :   -0.401923
  19 H :    0.164637
  20 H :    0.168904
  21 H :    0.163267
  22 H :    0.191644
  23 H :    0.182056
  24 H :    0.190349
  25 H :    0.180830
  26 H :    0.160936
  27 H :    0.163611
  28 H :    0.167251
  29 H :    0.197409
  30 H :    0.194850
  31 H :    0.189681
  32 H :    0.181901
  33 H :    0.164270
  34 H :    0.168501
  35 H :    0.163764
  36 H :    0.193222
  37 H :    0.184739
  38 H :    0.167564
  39 H :    0.162441
  40 H :    0.160919

  Mayer bond orders larger than 0.100000
B(  0-C ,  1-C ) :   0.9078 B(  0-C , 19-H ) :   0.9693 B(  0-C , 20-H ) :   0.9535
B(  0-C , 21-H ) :   0.9608 B(  1-C ,  2-O ) :   0.7967 B(  1-C , 22-H ) :   0.9491
B(  1-C , 23-H ) :   0.9606 B(  2-O ,  3-P ) :   1.1739 B(  3-P ,  4-S ) :   1.6858
B(  3-P ,  5-O ) :   1.0652 B(  3-P ,  8-S ) :   1.1083 B(  5-O ,  6-C ) :   0.8092
B(  6-C ,  7-C ) :   0.9073 B(  6-C , 24-H ) :   0.9482 B(  6-C , 25-H ) :   0.9664
B(  7-C , 26-H ) :   0.9658 B(  7-C , 27-H ) :   0.9646 B(  7-C , 28-H ) :   0.9547
B(  8-S ,  9-C ) :   0.8750 B(  9-C , 10-S ) :   0.9191 B(  9-C , 29-H ) :   0.9068
B(  9-C , 30-H ) :   0.8993 B( 10-S , 11-P ) :   1.0941 B( 11-P , 12-S ) :   1.7254
B( 11-P , 13-O ) :   1.1840 B( 11-P , 16-O ) :   1.0668 B( 13-O , 14-C ) :   0.7828
B( 14-C , 15-C ) :   0.9282 B( 14-C , 31-H ) :   0.9549 B( 14-C , 32-H ) :   0.9572
B( 15-C , 33-H ) :   0.9708 B( 15-C , 34-H ) :   0.9584 B( 15-C , 35-H ) :   0.9587
B( 16-O , 17-C ) :   0.7452 B( 17-C , 18-C ) :   0.9285 B( 17-C , 36-H ) :   0.9510
B( 17-C , 37-H ) :   0.9529 B( 18-C , 38-H ) :   0.9579 B( 18-C , 39-H ) :   0.9706
B( 18-C , 40-H ) :   0.9702

Dispersion correction           -0.022168071
FINAL SINGLE POINT ENERGY     -2932.467008058996

DIPOLE MOMENT
-------------

Method             : SCF
Type of density    : Electron Density
Multiplicity       :   1
Irrep              :   0
Energy             : -2932.4914764737895894 Eh
Relativity type    :
Basis              : AO
                                X                 Y                 Z
Electronic contribution:     -1.345723574       2.084863876      16.282969327
Nuclear contribution   :      1.451848583      -3.085655041     -17.378988076
                        -----------------------------------------
Total Dipole Moment    :      0.106125009      -1.000791165      -1.096018749
                        -----------------------------------------
Magnitude (a.u.)       :      1.487986079
Magnitude (Debye)      :      3.782160040

Rotational constants in cm-1:             0.012945             0.005235             0.004668
Rotational constants in MHz :           388.083696           156.933279           139.942730

                             ****ORCA TERMINATED NORMALLY****
TOTAL RUN TIME: 0 days 0 hours 1 minutes 50 seconds 521 msec
