                         Program Version 6.0.0  -   RELEASE  -
|  1> ! r2scan-3c def2/J RI DEFGRID2 scfconv6 printgap
|  2> %output
|  3>     printlevel normal
|  4> end
|  5> * xyz 0 1
|  6> C 4.1369218439 -2.3645220622 -0.9716427106
|  7> C 4.3464925729 -0.9601048938 -0.4419708027
|  8> O 3.1194679119 -0.375871419 0.0246323182
|  9> P 1.973732699 0.1006861764 -0.9874500251
| 10> S 2.6545779486 0.8834208613 -2.6471133181
| 11> O 1.1218944145 1.036145706 -0.0308477024
| 12> C 1.5585042075 2.3830574811 0.2557587122
| 13> C 0.7892936429 3.3721137073 -0.5947123173
| 14> S 0.6474938263 -1.5078272724 -1.1922308193
| 15> C 0.2481991825 -1.8590295656 0.5649157606
| 16> S -1.5346888064 -1.9251020955 0.8365961996
| 17> P -1.8839604119 0.1648550362 1.0621506843
| 18> S -0.8430482456 1.0622786443 2.4510403838
| 19> O -3.4633698168 0.2467528786 1.2357567107
| 20> C -4.1147856595 0.1270038647 2.512928522
| 21> C -3.9813831291 -1.2634412098 3.0989368635
| 22> O -1.6905357843 0.7964565667 -0.371322395
| 23> C -2.4434739336 0.3657304634 -1.5334482145
| 24> C -1.8193953941 1.0133358488 -2.7515519273
| 25> H 5.0965436026 -2.7885708731 -1.2491965388
| 26> H 3.6730258472 -2.9916544566 -0.2147803126
| 27> H 3.495365771 -2.337392138 -1.8521280632
| 28> H 4.7620857942 -0.3139408855 -1.2220545118
| 29> H 4.99547652 -0.9493546214 0.4347689864
| 30> H 1.3499364395 2.5232645392 1.3185641273
| 31> H 2.6349573275 2.4573134308 0.0780149906
| 32> H 1.0715747256 4.3817081698 -0.3143137793
| 33> H 1.0121964637 3.2147811769 -1.6480814725
| 34> H -0.2772907249 3.2360551891 -0.4336930618
| 35> H 0.6871858965 -1.0866715214 1.1952014475
| 36> H 0.6337478394 -2.8459118189 0.8048831939
| 37> H -3.6874112127 0.8734664019 3.1896167945
| 38> H -5.154843959 0.3751058774 2.2960259461
| 39> H -4.2904875338 -2.0114546287 2.3731942844
| 40> H -2.9469528354 -1.45328794 3.3801637384
| 41> H -4.6053579495 -1.3392354747 3.9836460959
| 42> H -2.3965473504 -0.7256781896 -1.5962329798
| 43> H -3.4807272486 0.6771426332 -1.3977861408
| 44> H -2.35816609 0.6968037285 -3.6385914984
| 45> H -1.8634457647 2.095658677 -2.6690272678
| 46> H -0.7767170649 0.7152486777 -2.8470679402
| 47> *
| 48>
| 49>                          ****END OF INPUT****

CARTESIAN COORDINATES (ANGSTROEM)
---------------------------------
  C      4.136922   -2.364522   -0.971643
  C      4.346493   -0.960105   -0.441971
  O      3.119468   -0.375871    0.024632
  P      1.973733    0.100686   -0.987450
  S      2.654578    0.883421   -2.647113
  O      1.121894    1.036146   -0.030848
  C      1.558504    2.383057    0.255759
  C      0.789294    3.372114   -0.594712
  S      0.647494   -1.507827   -1.192231
  C      0.248199   -1.859030    0.564916
  S     -1.534689   -1.925102    0.836596
  P     -1.883960    0.164855    1.062151
  S     -0.843048    1.062279    2.451040
  O     -3.463370    0.246753    1.235757
  C     -4.114786    0.127004    2.512929
  C     -3.981383   -1.263441    3.098937
  O     -1.690536    0.796457   -0.371322
  C     -2.443474    0.365730   -1.533448
  C     -1.819395    1.013336   -2.751552
  H      5.096544   -2.788571   -1.249197
  H      3.673026   -2.991654   -0.214780
  H      3.495366   -2.337392   -1.852128
  H      4.762086   -0.313941   -1.222055
  H      4.995477   -0.949355    0.434769
  H      1.349936    2.523265    1.318564
  H      2.634957    2.457313    0.078015
  H      1.071575    4.381708   -0.314314
  H      1.012196    3.214781   -1.648081
  H     -0.277291    3.236055   -0.433693
  H      0.687186   -1.086672    1.195201
  H      0.633748   -2.845912    0.804883
  H     -3.687411    0.873466    3.189617
  H     -5.154844    0.375106    2.296026
  H     -4.290488   -2.011455    2.373194
  H     -2.946953   -1.453288    3.380164
  H     -4.605358   -1.339235    3.983646
  H     -2.396547   -0.725678   -1.596233
  H     -3.480727    0.677143   -1.397786
  H     -2.358166    0.696804   -3.638591
  H     -1.863446    2.095659   -2.669027
  H     -0.776717    0.715249   -2.847068

 Total Charge           Charge          ....    0
 Multiplicity           Mult            ....    1
 Number of Electrons    NEL             ....  202
 Basis Dimension        Dim             ....  539

ORBITAL ENERGIES
----------------

  NO   OCC          E(Eh)            E(eV)
   0   2.0000     -88.581682     -2410.4301
   1   2.0000     -88.577017     -2410.3032
   2   2.0000     -88.521377     -2408.7891
   3   2.0000     -88.520611     -2408.7683
   4   2.0000     -76.917256     -2093.0249
   5   2.0000     -76.912043     -2092.8831
   6   2.0000     -18.997645      -516.9522
   7   2.0000     -18.990544      -516.7590
   8   2.0000     -18.988210      -516.6955
   9   2.0000     -18.980984      -516.4988
  10   2.0000     -10.113582      -275.2045
  11   2.0000     -10.102998      -274.9166
  12   2.0000     -10.096843      -274.7491
  13   2.0000     -10.095277      -274.7065
  14   2.0000     -10.087076      -274.4833
  15   2.0000     -10.033473      -273.0247
  16   2.0000     -10.028591      -272.8918
  17   2.0000     -10.024884      -272.7910
  18   2.0000     -10.014298      -272.5029
  19   2.0000      -7.876085      -214.3192
  20   2.0000      -7.871506      -214.1946
  21   2.0000      -7.816286      -212.6920
  22   2.0000      -7.815304      -212.6652
  23   2.0000      -6.595573      -179.4747
  24   2.0000      -6.590400      -179.3339
  25   2.0000      -5.822984      -158.4514
  26   2.0000      -5.819812      -158.3651
  27   2.0000      -5.818883      -158.3398
  28   2.0000      -5.814996      -158.2341
  29   2.0000      -5.813270      -158.1871
  30   2.0000      -5.808450      -158.0560
  31   2.0000      -5.764043      -156.8476
  32   2.0000      -5.762980      -156.8187
  33   2.0000      -5.756479      -156.6418
  34   2.0000      -5.756246      -156.6354
  35   2.0000      -5.755734      -156.6215
  36   2.0000      -5.755143      -156.6054
  37   2.0000      -4.741485      -129.0224
  38   2.0000      -4.740537      -128.9966
  39   2.0000      -4.738946      -128.9533
  40   2.0000      -4.735719      -128.8655
  41   2.0000      -4.735486      -128.8591
  42   2.0000      -4.734198      -128.8241
  43   2.0000      -1.053403       -28.6646
  44   2.0000      -1.044095       -28.4113
  45   2.0000      -1.011495       -27.5242
  46   2.0000      -1.003438       -27.3049
  47   2.0000      -0.803466       -21.8634
  48   2.0000      -0.759323       -20.6622
  49   2.0000      -0.747348       -20.3364
  50   2.0000      -0.734656       -19.9910
  51   2.0000      -0.725528       -19.7426
  52   2.0000      -0.710752       -19.3405
  53   2.0000      -0.689248       -18.7554
  54   2.0000      -0.670369       -18.2417
  55   2.0000      -0.629672       -17.1343
  56   2.0000      -0.619097       -16.8465
  57   2.0000      -0.602432       -16.3930
  58   2.0000      -0.600538       -16.3415
  59   2.0000      -0.592523       -16.1234
  60   2.0000      -0.531199       -14.4546
  61   2.0000      -0.521829       -14.1997
  62   2.0000      -0.496794       -13.5185
  63   2.0000      -0.484639       -13.1877
  64   2.0000      -0.477392       -12.9905
  65   2.0000      -0.466486       -12.6937
  66   2.0000      -0.458425       -12.4744
  67   2.0000      -0.452329       -12.3085
  68   2.0000      -0.445509       -12.1229
  69   2.0000      -0.437437       -11.9033
  70   2.0000      -0.432931       -11.7807
  71   2.0000      -0.412226       -11.2172
  72   2.0000      -0.408250       -11.1090
  73   2.0000      -0.401042       -10.9129
  74   2.0000      -0.393830       -10.7167
  75   2.0000      -0.389153       -10.5894
  76   2.0000      -0.381411       -10.3787
  77   2.0000      -0.373503       -10.1635
  78   2.0000      -0.366788        -9.9808
  79   2.0000      -0.363794        -9.8993
  80   2.0000      -0.360730        -9.8160
  81   2.0000      -0.356654        -9.7050
  82   2.0000      -0.351199        -9.5566
  83   2.0000      -0.346570        -9.4306
  84   2.0000      -0.340434        -9.2637
  85   2.0000      -0.331131        -9.0105
  86   2.0000      -0.324589        -8.8325
  87   2.0000      -0.316854        -8.6220
  88   2.0000      -0.312432        -8.5017
  89   2.0000      -0.307570        -8.3694
  90   2.0000      -0.296309        -8.0630
  91   2.0000      -0.284925        -7.7532
  92   2.0000      -0.282126        -7.6770
  93   2.0000      -0.278007        -7.5650
  94   2.0000      -0.275233        -7.4895
  95   2.0000      -0.254355        -6.9214
  96   2.0000      -0.233122        -6.3436
  97   2.0000      -0.225527        -6.1369
  98   2.0000      -0.220556        -6.0016
  99   2.0000      -0.215231        -5.8567
 100   2.0000      -0.211795        -5.7632
 101   0.0000      -0.045253        -1.2314
 102   0.0000      -0.030548        -0.8313
 103   0.0000      -0.023217        -0.6318
 104   0.0000       0.005214         0.1419
 105   0.0000       0.016175         0.4401

MULLIKEN ATOMIC CHARGES
-----------------------
   0 C :   -0.435883
   1 C :   -0.158161
   2 O :   -0.283888
   3 P :    0.631974
   4 S :   -0.460821
   5 O :   -0.254303
   6 C :   -0.111970
   7 C :   -0.481640
   8 S :   -0.147595
   9 C :   -0.210668
  10 S :   -0.153420
  11 P :    0.654955
  12 S :   -0.443504
  13 O :   -0.301045
  14 C :   -0.154680
  15 C :   -0.469260
  16 O :   -0.256588
  17 C :   -0.105576
  18 C :   -0.462996
  19 H :    0.147424
  20 H :    0.147819
  21 H :    0.171412
  22 H :    0.171877
  23 H :    0.147585
  24 H :    0.167096
  25 H :    0.146475
  26 H :    0.142778
  27 H :    0.172198
  28 H :    0.169884
  29 H :    0.211140
  30 H :    0.199179
  31 H :    0.176134
  32 H :    0.148466
  33 H :    0.156760
  34 H :    0.183974
  35 H :    0.150735
  36 H :    0.161896
  37 H :    0.154246
  38 H :    0.144443
  39 H :    0.152901
  40 H :    0.180646
Sum of atomic charges:   -0.0000000

LOEWDIN ATOMIC CHARGES
----------------------
   0 C :   -0.403830
   1 C :    0.016521
   2 O :   -0.672277
   3 P :    0.357164
   4 S :   -0.112648
   5 O :   -0.692548
   6 C :    0.016671
   7 C :   -0.399731
   8 S :    0.168832
   9 C :   -0.402609
  10 S :    0.136931
  11 P :    0.387295
  12 S :   -0.082586
  13 O :   -0.665957
  14 C :    0.021955
  15 C :   -0.408604
  16 O :   -0.654657
  17 C :    0.018585
  18 C :   -0.388311
  19 H :    0.159174
  20 H :    0.156090
  21 H :    0.165478
  22 H :    0.180357
  23 H :    0.178632
  24 H :    0.185472
  25 H :    0.174365
  26 H :    0.156851
  27 H :    0.165021
  28 H :    0.166112
  29 H :    0.202571
  30 H :    0.179522
  31 H :    0.180911
  32 H :    0.180008
  33 H :    0.159806
  34 H :    0.166882
  35 H :    0.160797
  36 H :    0.177402
  37 H :    0.174374
  38 H :    0.159724
  39 H :    0.159997
  40 H :    0.170258

  Mayer bond orders larger than 0.100000
B(  0-C ,  1-C ) :   0.9310 B(  0-C , 19-H ) :   0.9608 B(  0-C , 20-H ) :   0.9727
B(  0-C , 21-H ) :   0.9609 B(  1-C ,  2-O ) :   0.8169 B(  1-C , 22-H ) :   0.9612
B(  1-C , 23-H ) :   0.9594 B(  2-O ,  3-P ) :   1.0342 B(  3-P ,  4-S ) :   1.8002
B(  3-P ,  5-O ) :   1.1472 B(  3-P ,  8-S ) :   1.0968 B(  5-O ,  6-C ) :   0.7376
B(  6-C ,  7-C ) :   0.9275 B(  6-C , 24-H ) :   0.9551 B(  6-C , 25-H ) :   0.9568
B(  7-C , 26-H ) :   0.9687 B(  7-C , 27-H ) :   0.9614 B(  7-C , 28-H ) :   0.9723
B(  8-S ,  9-C ) :   0.8773 B(  9-C , 10-S ) :   0.9216 B(  9-C , 29-H ) :   0.9188
B(  9-C , 30-H ) :   0.9140 B( 10-S , 11-P ) :   1.0064 B( 11-P , 12-S ) :   1.8446
B( 11-P , 13-O ) :   1.0497 B( 11-P , 16-O ) :   1.1448 B( 13-O , 14-C ) :   0.8229
B( 14-C , 15-C ) :   0.9095 B( 14-C , 31-H ) :   0.9691 B( 14-C , 32-H ) :   0.9594
B( 15-C , 33-H ) :   0.9684 B( 15-C , 34-H ) :   0.9634 B( 15-C , 35-H ) :   0.9562
B( 16-O , 17-C ) :   0.7562 B( 17-C , 18-C ) :   0.9432 B( 17-C , 36-H ) :   0.9491
B( 17-C , 37-H ) :   0.9402 B( 18-C , 38-H ) :   0.9637 B( 18-C , 39-H ) :   0.9696
B( 18-C , 40-H ) :   0.9632

Dispersion correction           -0.022563300
FINAL SINGLE POINT ENERGY     -2932.463596459166

DIPOLE MOMENT
-------------

Method             : SCF
Type of density    : Electron Density
Multiplicity       :   1
Irrep              :   0
Energy             : -2932.4877070817769891 Eh
Relativity type    :
Basis              : AO
                                X                 Y                 Z
Electronic contribution:      1.733369444      -2.814184683       0.613951073
Nuclear contribution   :     -2.396349383       2.085815946      -0.065153419
                        -----------------------------------------
Total Dipole Moment    :     -0.662979939      -0.728368737       0.548797654
                        -----------------------------------------
Magnitude (a.u.)       :      1.127493806
Magnitude (Debye)      :      2.865861500

Rotational constants in cm-1:             0.012760             0.005343             0.004968
Rotational constants in MHz :           382.532250           160.177645           148.933153

                             ****ORCA TERMINATED NORMALLY****
TOTAL RUN TIME: 0 days 0 hours 1 minutes 24 seconds 83 msec
