                         Program Version 6.0.0  -   RELEASE  -
|  1> ! r2scan-3c def2/J RI DEFGRID2 scfconv6 printgap
|  2> %output
|  3>     printlevel normal
|  4> end
|  5> %cpcm
|  6>     smd true
|  7>     smdsolvent "water"
|  8> end
|  9> * xyz 0 1
| 10> C 4.1369218439 -2.3645220622 -0.9716427106
| 11> C 4.3464925729 -0.9601048938 -0.4419708027
| 12> O 3.1194679119 -0.375871419 0.0246323182
| 13> P 1.973732699 0.1006861764 -0.9874500251
| 14> S 2.6545779486 0.8834208613 -2.6471133181
| 15> O 1.1218944145 1.036145706 -0.0308477024
| 16> C 1.5585042075 2.3830574811 0.2557587122
| 17> C 0.7892936429 3.3721137073 -0.5947123173
| 18> S 0.6474938263 -1.5078272724 -1.1922308193
| 19> C 0.2481991825 -1.8590295656 0.5649157606
| 20> S -1.5346888064 -1.9251020955 0.8365961996
| 21> P -1.8839604119 0.1648550362 1.0621506843
| 22> S -0.8430482456 1.0622786443 2.4510403838
| 23> O -3.4633698168 0.2467528786 1.2357567107
| 24> C -4.1147856595 0.1270038647 2.512928522
| 25> C -3.9813831291 -1.2634412098 3.0989368635
| 26> O -1.6905357843 0.7964565667 -0.371322395
| 27> C -2.4434739336 0.3657304634 -1.5334482145
| 28> C -1.8193953941 1.0133358488 -2.7515519273
| 29> H 5.0965436026 -2.7885708731 -1.2491965388
| 30> H 3.6730258472 -2.9916544566 -0.2147803126
| 31> H 3.495365771 -2.337392138 -1.8521280632
| 32> H 4.7620857942 -0.3139408855 -1.2220545118
| 33> H 4.99547652 -0.9493546214 0.4347689864
| 34> H 1.3499364395 2.5232645392 1.3185641273
| 35> H 2.6349573275 2.4573134308 0.0780149906
| 36> H 1.0715747256 4.3817081698 -0.3143137793
| 37> H 1.0121964637 3.2147811769 -1.6480814725
| 38> H -0.2772907249 3.2360551891 -0.4336930618
| 39> H 0.6871858965 -1.0866715214 1.1952014475
| 40> H 0.6337478394 -2.8459118189 0.8048831939
| 41> H -3.6874112127 0.8734664019 3.1896167945
| 42> H -5.154843959 0.3751058774 2.2960259461
| 43> H -4.2904875338 -2.0114546287 2.3731942844
| 44> H -2.9469528354 -1.45328794 3.3801637384
| 45> H -4.6053579495 -1.3392354747 3.9836460959
| 46> H -2.3965473504 -0.7256781896 -1.5962329798
| 47> H -3.4807272486 0.6771426332 -1.3977861408
| 48> H -2.35816609 0.6968037285 -3.6385914984
| 49> H -1.8634457647 2.095658677 -2.6690272678
| 50> H -0.7767170649 0.7152486777 -2.8470679402
| 51> *
| 52>
| 53>                          ****END OF INPUT****

CARTESIAN COORDINATES (ANGSTROEM)
---------------------------------
  C      4.136922   -2.364522   -0.971643
  C      4.346493   -0.960105   -0.441971
  O      3.119468   -0.375871    0.024632
  P      1.973733    0.100686   -0.987450
  S      2.654578    0.883421   -2.647113
  O      1.121894    1.036146   -0.030848
  C      1.558504    2.383057    0.255759
  C      0.789294    3.372114   -0.594712
  S      0.647494   -1.507827   -1.192231
  C      0.248199   -1.859030    0.564916
  S     -1.534689   -1.925102    0.836596
  P     -1.883960    0.164855    1.062151
  S     -0.843048    1.062279    2.451040
  O     -3.463370    0.246753    1.235757
  C     -4.114786    0.127004    2.512929
  C     -3.981383   -1.263441    3.098937
  O     -1.690536    0.796457   -0.371322
  C     -2.443474    0.365730   -1.533448
  C     -1.819395    1.013336   -2.751552
  H      5.096544   -2.788571   -1.249197
  H      3.673026   -2.991654   -0.214780
  H      3.495366   -2.337392   -1.852128
  H      4.762086   -0.313941   -1.222055
  H      4.995477   -0.949355    0.434769
  H      1.349936    2.523265    1.318564
  H      2.634957    2.457313    0.078015
  H      1.071575    4.381708   -0.314314
  H      1.012196    3.214781   -1.648081
  H     -0.277291    3.236055   -0.433693
  H      0.687186   -1.086672    1.195201
  H      0.633748   -2.845912    0.804883
  H     -3.687411    0.873466    3.189617
  H     -5.154844    0.375106    2.296026
  H     -4.290488   -2.011455    2.373194
  H     -2.946953   -1.453288    3.380164
  H     -4.605358   -1.339235    3.983646
  H     -2.396547   -0.725678   -1.596233
  H     -3.480727    0.677143   -1.397786
  H     -2.358166    0.696804   -3.638591
  H     -1.863446    2.095659   -2.669027
  H     -0.776717    0.715249   -2.847068

 Total Charge           Charge          ....    0
 Multiplicity           Mult            ....    1
 Number of Electrons    NEL             ....  202
 Basis Dimension        Dim             ....  539

ORBITAL ENERGIES
----------------

  NO   OCC          E(Eh)            E(eV)
   0   2.0000     -88.581498     -2410.4251
   1   2.0000     -88.578521     -2410.3441
   2   2.0000     -88.529445     -2409.0087
   3   2.0000     -88.527605     -2408.9586
   4   2.0000     -76.920349     -2093.1091
   5   2.0000     -76.918104     -2093.0480
   6   2.0000     -18.996509      -516.9213
   7   2.0000     -18.993637      -516.8431
   8   2.0000     -18.990972      -516.7706
   9   2.0000     -18.987171      -516.6672
  10   2.0000     -10.108433      -275.0644
  11   2.0000     -10.090644      -274.5804
  12   2.0000     -10.090503      -274.5765
  13   2.0000     -10.087135      -274.4849
  14   2.0000     -10.086973      -274.4805
  15   2.0000     -10.019636      -272.6482
  16   2.0000     -10.019221      -272.6369
  17   2.0000     -10.017639      -272.5938
  18   2.0000     -10.015553      -272.5370
  19   2.0000      -7.875808      -214.3116
  20   2.0000      -7.873023      -214.2358
  21   2.0000      -7.824482      -212.9150
  22   2.0000      -7.822793      -212.8690
  23   2.0000      -6.598723      -179.5604
  24   2.0000      -6.596504      -179.5000
  25   2.0000      -5.822703      -158.4438
  26   2.0000      -5.820378      -158.3805
  27   2.0000      -5.819547      -158.3579
  28   2.0000      -5.816512      -158.2753
  29   2.0000      -5.813005      -158.1799
  30   2.0000      -5.809990      -158.0979
  31   2.0000      -5.772067      -157.0659
  32   2.0000      -5.770461      -157.0222
  33   2.0000      -5.764924      -156.8716
  34   2.0000      -5.764332      -156.8555
  35   2.0000      -5.763056      -156.8207
  36   2.0000      -5.762718      -156.8115
  37   2.0000      -4.744605      -129.1073
  38   2.0000      -4.743649      -129.0812
  39   2.0000      -4.742188      -129.0415
  40   2.0000      -4.741799      -129.0309
  41   2.0000      -4.741574      -129.0248
  42   2.0000      -4.740371      -128.9921
  43   2.0000      -1.054059       -28.6824
  44   2.0000      -1.048232       -28.5238
  45   2.0000      -1.012075       -27.5399
  46   2.0000      -1.007274       -27.4093
  47   2.0000      -0.801826       -21.8188
  48   2.0000      -0.757656       -20.6169
  49   2.0000      -0.744104       -20.2481
  50   2.0000      -0.725605       -19.7447
  51   2.0000      -0.720617       -19.6090
  52   2.0000      -0.711353       -19.3569
  53   2.0000      -0.692799       -18.8520
  54   2.0000      -0.675158       -18.3720
  55   2.0000      -0.626385       -17.0448
  56   2.0000      -0.615553       -16.7500
  57   2.0000      -0.599993       -16.3267
  58   2.0000      -0.597630       -16.2624
  59   2.0000      -0.590375       -16.0649
  60   2.0000      -0.526845       -14.3362
  61   2.0000      -0.521088       -14.1795
  62   2.0000      -0.491832       -13.3834
  63   2.0000      -0.484047       -13.1716
  64   2.0000      -0.476289       -12.9605
  65   2.0000      -0.465560       -12.6685
  66   2.0000      -0.454226       -12.3601
  67   2.0000      -0.448218       -12.1966
  68   2.0000      -0.442138       -12.0312
  69   2.0000      -0.433800       -11.8043
  70   2.0000      -0.427638       -11.6366
  71   2.0000      -0.410399       -11.1675
  72   2.0000      -0.406050       -11.0492
  73   2.0000      -0.397699       -10.8219
  74   2.0000      -0.392088       -10.6692
  75   2.0000      -0.389776       -10.6063
  76   2.0000      -0.377528       -10.2731
  77   2.0000      -0.368368       -10.0238
  78   2.0000      -0.363397        -9.8885
  79   2.0000      -0.358795        -9.7633
  80   2.0000      -0.353893        -9.6299
  81   2.0000      -0.352709        -9.5977
  82   2.0000      -0.346556        -9.4303
  83   2.0000      -0.343413        -9.3448
  84   2.0000      -0.339809        -9.2467
  85   2.0000      -0.329238        -8.9590
  86   2.0000      -0.324286        -8.8243
  87   2.0000      -0.314911        -8.5692
  88   2.0000      -0.306058        -8.3283
  89   2.0000      -0.304215        -8.2781
  90   2.0000      -0.298389        -8.1196
  91   2.0000      -0.285727        -7.7750
  92   2.0000      -0.282400        -7.6845
  93   2.0000      -0.277756        -7.5581
  94   2.0000      -0.275576        -7.4988
  95   2.0000      -0.255462        -6.9515
  96   2.0000      -0.236541        -6.4366
  97   2.0000      -0.234067        -6.3693
  98   2.0000      -0.228600        -6.2205
  99   2.0000      -0.223434        -6.0799
 100   2.0000      -0.217513        -5.9188
 101   0.0000      -0.046234        -1.2581
 102   0.0000      -0.033911        -0.9228
 103   0.0000      -0.024875        -0.6769
 104   0.0000       0.003502         0.0953
 105   0.0000       0.010724         0.2918

MULLIKEN ATOMIC CHARGES
-----------------------
   0 C :   -0.470773
   1 C :   -0.155091
   2 O :   -0.308247
   3 P :    0.663563
   4 S :   -0.518049
   5 O :   -0.275623
   6 C :   -0.119439
   7 C :   -0.514655
   8 S :   -0.158979
   9 C :   -0.207816
  10 S :   -0.154944
  11 P :    0.667164
  12 S :   -0.488832
  13 O :   -0.322548
  14 C :   -0.150347
  15 C :   -0.502087
  16 O :   -0.283550
  17 C :   -0.092672
  18 C :   -0.512571
  19 H :    0.170246
  20 H :    0.168921
  21 H :    0.164880
  22 H :    0.173318
  23 H :    0.173022
  24 H :    0.178559
  25 H :    0.167226
  26 H :    0.170770
  27 H :    0.171585
  28 H :    0.169534
  29 H :    0.213907
  30 H :    0.242497
  31 H :    0.180016
  32 H :    0.175262
  33 H :    0.172146
  34 H :    0.177294
  35 H :    0.175208
  36 H :    0.173632
  37 H :    0.175266
  38 H :    0.171583
  39 H :    0.170686
  40 H :    0.169936
Sum of atomic charges:    0.0000000

LOEWDIN ATOMIC CHARGES
----------------------
   0 C :   -0.406956
   1 C :    0.021704
   2 O :   -0.681822
   3 P :    0.362441
   4 S :   -0.150630
   5 O :   -0.705338
   6 C :    0.017546
   7 C :   -0.404339
   8 S :    0.166521
   9 C :   -0.392924
  10 S :    0.143979
  11 P :    0.389044
  12 S :   -0.115209
  13 O :   -0.674061
  14 C :    0.026995
  15 C :   -0.410745
  16 O :   -0.673949
  17 C :    0.024601
  18 C :   -0.394321
  19 H :    0.167325
  20 H :    0.162824
  21 H :    0.161121
  22 H :    0.180629
  23 H :    0.189467
  24 H :    0.189129
  25 H :    0.181222
  26 H :    0.166797
  27 H :    0.162803
  28 H :    0.163800
  29 H :    0.203536
  30 H :    0.197359
  31 H :    0.181772
  32 H :    0.191382
  33 H :    0.164108
  34 H :    0.162200
  35 H :    0.169750
  36 H :    0.181920
  37 H :    0.183654
  38 H :    0.169806
  39 H :    0.163742
  40 H :    0.163116

  Mayer bond orders larger than 0.100000
B(  0-C ,  1-C ) :   0.9234 B(  0-C , 19-H ) :   0.9562 B(  0-C , 20-H ) :   0.9680
B(  0-C , 21-H ) :   0.9617 B(  1-C ,  2-O ) :   0.8039 B(  1-C , 22-H ) :   0.9594
B(  1-C , 23-H ) :   0.9499 B(  2-O ,  3-P ) :   1.0418 B(  3-P ,  4-S ) :   1.7524
B(  3-P ,  5-O ) :   1.1462 B(  3-P ,  8-S ) :   1.1167 B(  5-O ,  6-C ) :   0.7274
B(  6-C ,  7-C ) :   0.9134 B(  6-C , 24-H ) :   0.9499 B(  6-C , 25-H ) :   0.9518
B(  7-C , 26-H ) :   0.9635 B(  7-C , 27-H ) :   0.9634 B(  7-C , 28-H ) :   0.9714
B(  8-S ,  9-C ) :   0.8734 B(  9-C , 10-S ) :   0.9162 B(  9-C , 29-H ) :   0.9187
B(  9-C , 30-H ) :   0.8966 B( 10-S , 11-P ) :   1.0230 B( 11-P , 12-S ) :   1.8183
B( 11-P , 13-O ) :   1.0573 B( 11-P , 16-O ) :   1.1436 B( 13-O , 14-C ) :   0.8116
B( 14-C , 15-C ) :   0.8980 B( 14-C , 31-H ) :   0.9674 B( 14-C , 32-H ) :   0.9494
B( 15-C , 33-H ) :   0.9649 B( 15-C , 34-H ) :   0.9650 B( 15-C , 35-H ) :   0.9508
B( 16-O , 17-C ) :   0.7523 B( 17-C , 18-C ) :   0.9258 B( 17-C , 36-H ) :   0.9441
B( 17-C , 37-H ) :   0.9326 B( 18-C , 38-H ) :   0.9578 B( 18-C , 39-H ) :   0.9670
B( 18-C , 40-H ) :   0.9684

Dispersion correction           -0.022563300
FINAL SINGLE POINT ENERGY     -2932.471987136018

DIPOLE MOMENT
-------------

Method             : SCF
Type of density    : Electron Density
Multiplicity       :   1
Irrep              :   0
Energy             : -2932.4960977586288209 Eh
Relativity type    :
Basis              : AO
                                X                 Y                 Z
Electronic contribution:      1.526524688      -3.292029225       0.870767243
Nuclear contribution   :     -2.396349383       2.085815946      -0.065153419
                        -----------------------------------------
Total Dipole Moment    :     -0.869824695      -1.206213279       0.805613824
                        -----------------------------------------
Magnitude (a.u.)       :      1.691318748
Magnitude (Debye)      :      4.298990611

Rotational constants in cm-1:             0.012760             0.005343             0.004968
Rotational constants in MHz :           382.532250           160.177645           148.933153

                             ****ORCA TERMINATED NORMALLY****
TOTAL RUN TIME: 0 days 0 hours 1 minutes 56 seconds 280 msec
