                         Program Version 6.0.0  -   RELEASE  -
|  1> ! pbe def2-sv(p) def2/J RI DEFGRID1 loosescf d4 GCP(DFT/SV(P)) printgap
|  2> %output
|  3>     printlevel normal
|  4> end
|  5> * xyz 0 1
|  6> C 3.9526237421 -1.7626508173 -2.2757077296
|  7> C 4.4757636467 -1.5550815326 -0.8695780449
|  8> O 3.4183010513 -1.348862061 0.0858437204
|  9> P 2.4733721373 -0.0717617581 0.0549703455
| 10> S 3.3335318937 1.6289367969 -0.373842707
| 11> O 1.8518053606 -0.0682378654 1.5036770558
| 12> C 1.2425850329 -1.2360467502 2.1063090671
| 13> C 2.1985107384 -1.8842479234 3.0860688239
| 14> S 0.8703417781 -0.6593891286 -1.2342661134
| 15> C 0.2048977558 1.0024059108 -1.4566370615
| 16> S -0.5542216133 1.6655410814 0.0540434991
| 17> P -2.311092949 0.5051837602 -0.0511636448
| 18> S -3.0939353022 0.2740740355 -1.8377353884
| 19> O -3.2803910718 1.178740772 1.0126853418
| 20> C -4.0813940601 2.337340098 0.7030538057
| 21> C -5.3182673525 2.3018930651 1.5782688273
| 22> O -1.8824202368 -0.8156550988 0.7020011706
| 23> C -2.6377687641 -2.0471964696 0.5713662082
| 24> C -1.673251257 -3.2079907587 0.4423852197
| 25> H 3.1990315801 -2.5460092821 -2.2895463785
| 26> H 3.5087091932 -0.8409881152 -2.6488065275
| 27> H 4.7759321116 -2.0423189427 -2.9250843414
| 28> H 5.1452332373 -0.6904906644 -0.8323304402
| 29> H 4.9914900032 -2.4415119516 -0.4976004954
| 30> H 0.3475423965 -0.8567548392 2.6046380043
| 31> H 0.9545851845 -1.9315869099 1.3136002436
| 32> H 2.5135407041 -1.1598497297 3.8320874457
| 33> H 1.6978193894 -2.7119246791 3.5786600409
| 34> H 3.0765438396 -2.2543234493 2.5634458211
| 35> H -0.5469585098 0.9472047045 -2.2445760046
| 36> H 1.0143793882 1.6831075901 -1.7213562323
| 37> H -3.4763866126 3.2258913294 0.8998929018
| 38> H -4.3438736253 2.3083010999 -0.3600242701
| 39> H -5.9163460526 3.1861924463 1.3840861116
| 40> H -5.9069788068 1.4156913945 1.3581900036
| 41> H -5.0305377021 2.2839599493 2.6254533493
| 42> H -3.2590516575 -2.1359411437 1.4643893281
| 43> H -3.2798470104 -1.971157968 -0.3126324246
| 44> H -1.0241705249 -3.0583523455 -0.4172878117
| 45> H -1.066378629 -3.2959561357 1.3385998359
| 46> H -2.2415540099 -4.1222138677 0.3037617277
| 47> *
| 48>
| 49>                          ****END OF INPUT****

CARTESIAN COORDINATES (ANGSTROEM)
---------------------------------
  C      3.952624   -1.762651   -2.275708
  C      4.475764   -1.555082   -0.869578
  O      3.418301   -1.348862    0.085844
  P      2.473372   -0.071762    0.054970
  S      3.333532    1.628937   -0.373843
  O      1.851805   -0.068238    1.503677
  C      1.242585   -1.236047    2.106309
  C      2.198511   -1.884248    3.086069
  S      0.870342   -0.659389   -1.234266
  C      0.204898    1.002406   -1.456637
  S     -0.554222    1.665541    0.054043
  P     -2.311093    0.505184   -0.051164
  S     -3.093935    0.274074   -1.837735
  O     -3.280391    1.178741    1.012685
  C     -4.081394    2.337340    0.703054
  C     -5.318267    2.301893    1.578269
  O     -1.882420   -0.815655    0.702001
  C     -2.637769   -2.047196    0.571366
  C     -1.673251   -3.207991    0.442385
  H      3.199032   -2.546009   -2.289546
  H      3.508709   -0.840988   -2.648807
  H      4.775932   -2.042319   -2.925084
  H      5.145233   -0.690491   -0.832330
  H      4.991490   -2.441512   -0.497600
  H      0.347542   -0.856755    2.604638
  H      0.954585   -1.931587    1.313600
  H      2.513541   -1.159850    3.832087
  H      1.697819   -2.711925    3.578660
  H      3.076544   -2.254323    2.563446
  H     -0.546959    0.947205   -2.244576
  H      1.014379    1.683108   -1.721356
  H     -3.476387    3.225891    0.899893
  H     -4.343874    2.308301   -0.360024
  H     -5.916346    3.186192    1.384086
  H     -5.906979    1.415691    1.358190
  H     -5.030538    2.283960    2.625453
  H     -3.259052   -2.135941    1.464389
  H     -3.279847   -1.971158   -0.312632
  H     -1.024171   -3.058352   -0.417288
  H     -1.066379   -3.295956    1.338600
  H     -2.241554   -4.122214    0.303762

 Total Charge           Charge          ....    0
 Multiplicity           Mult            ....    1
 Number of Electrons    NEL             ....  202
 Basis Dimension        Dim             ....  334

ORBITAL ENERGIES
----------------

  NO   OCC          E(Eh)            E(eV)
   0   2.0000     -88.041200     -2395.7229
   1   2.0000     -88.040945     -2395.7159
   2   2.0000     -87.988934     -2394.3006
   3   2.0000     -87.986747     -2394.2411
   4   2.0000     -76.426939     -2079.6827
   5   2.0000     -76.426664     -2079.6752
   6   2.0000     -18.798045      -511.5208
   7   2.0000     -18.794558      -511.4259
   8   2.0000     -18.794379      -511.4210
   9   2.0000     -18.789187      -511.2798
  10   2.0000      -9.956304      -270.9248
  11   2.0000      -9.955096      -270.8919
  12   2.0000      -9.953425      -270.8465
  13   2.0000      -9.951673      -270.7988
  14   2.0000      -9.950613      -270.7699
  15   2.0000      -9.890062      -269.1223
  16   2.0000      -9.889202      -269.0989
  17   2.0000      -9.885888      -269.0087
  18   2.0000      -9.885187      -268.9896
  19   2.0000      -7.686615      -209.1634
  20   2.0000      -7.685718      -209.1390
  21   2.0000      -7.633922      -207.7296
  22   2.0000      -7.632065      -207.6790
  23   2.0000      -6.424980      -174.8326
  24   2.0000      -6.424172      -174.8106
  25   2.0000      -5.714437      -155.4977
  26   2.0000      -5.713434      -155.4704
  27   2.0000      -5.711233      -155.4105
  28   2.0000      -5.710367      -155.3870
  29   2.0000      -5.703485      -155.1997
  30   2.0000      -5.702746      -155.1796
  31   2.0000      -5.662601      -154.0872
  32   2.0000      -5.661012      -154.0440
  33   2.0000      -5.654578      -153.8689
  34   2.0000      -5.654278      -153.8607
  35   2.0000      -5.652591      -153.8148
  36   2.0000      -5.652244      -153.8054
  37   2.0000      -4.647464      -126.4639
  38   2.0000      -4.647117      -126.4545
  39   2.0000      -4.646712      -126.4435
  40   2.0000      -4.645808      -126.4189
  41   2.0000      -4.645429      -126.4085
  42   2.0000      -4.644428      -126.3813
  43   2.0000      -0.989703       -26.9312
  44   2.0000      -0.988836       -26.9076
  45   2.0000      -0.947504       -25.7829
  46   2.0000      -0.946017       -25.7424
  47   2.0000      -0.764383       -20.7999
  48   2.0000      -0.723898       -19.6983
  49   2.0000      -0.711470       -19.3601
  50   2.0000      -0.691680       -18.8216
  51   2.0000      -0.691292       -18.8110
  52   2.0000      -0.675595       -18.3839
  53   2.0000      -0.650096       -17.6900
  54   2.0000      -0.638082       -17.3631
  55   2.0000      -0.599955       -16.3256
  56   2.0000      -0.592217       -16.1150
  57   2.0000      -0.574151       -15.6234
  58   2.0000      -0.570644       -15.5280
  59   2.0000      -0.558304       -15.1922
  60   2.0000      -0.511695       -13.9239
  61   2.0000      -0.499180       -13.5834
  62   2.0000      -0.483629       -13.1602
  63   2.0000      -0.475640       -12.9428
  64   2.0000      -0.458011       -12.4631
  65   2.0000      -0.448397       -12.2015
  66   2.0000      -0.442392       -12.0381
  67   2.0000      -0.437172       -11.8961
  68   2.0000      -0.427816       -11.6415
  69   2.0000      -0.422603       -11.4996
  70   2.0000      -0.406941       -11.0734
  71   2.0000      -0.395064       -10.7502
  72   2.0000      -0.392268       -10.6742
  73   2.0000      -0.381825       -10.3900
  74   2.0000      -0.380896       -10.3647
  75   2.0000      -0.377395       -10.2694
  76   2.0000      -0.366706        -9.9786
  77   2.0000      -0.360788        -9.8175
  78   2.0000      -0.358747        -9.7620
  79   2.0000      -0.355907        -9.6847
  80   2.0000      -0.352220        -9.5844
  81   2.0000      -0.346114        -9.4182
  82   2.0000      -0.343619        -9.3503
  83   2.0000      -0.342824        -9.3287
  84   2.0000      -0.336174        -9.1478
  85   2.0000      -0.320643        -8.7251
  86   2.0000      -0.313133        -8.5208
  87   2.0000      -0.300972        -8.1899
  88   2.0000      -0.297643        -8.0993
  89   2.0000      -0.294000        -8.0001
  90   2.0000      -0.291336        -7.9277
  91   2.0000      -0.281124        -7.6498
  92   2.0000      -0.268669        -7.3109
  93   2.0000      -0.264625        -7.2008
  94   2.0000      -0.259428        -7.0594
  95   2.0000      -0.234574        -6.3831
  96   2.0000      -0.219336        -5.9684
  97   2.0000      -0.212700        -5.7879
  98   2.0000      -0.204926        -5.5763
  99   2.0000      -0.202582        -5.5125
 100   2.0000      -0.201268        -5.4768
 101   0.0000      -0.043390        -1.1807
 102   0.0000      -0.023477        -0.6388
 103   0.0000      -0.003164        -0.0861
 104   0.0000       0.000567         0.0154
 105   0.0000       0.012047         0.3278

MULLIKEN ATOMIC CHARGES
-----------------------
   0 C :   -0.317216
   1 C :   -0.000620
   2 O :   -0.382163
   3 P :    0.596985
   4 S :   -0.312127
   5 O :   -0.346272
   6 C :   -0.025167
   7 C :   -0.284676
   8 S :   -0.087708
   9 C :   -0.382758
  10 S :   -0.061510
  11 P :    0.612136
  12 S :   -0.341598
  13 O :   -0.379933
  14 C :   -0.010492
  15 C :   -0.282058
  16 O :   -0.362554
  17 C :   -0.013160
  18 C :   -0.293320
  19 H :    0.116754
  20 H :    0.130201
  21 H :    0.114681
  22 H :    0.114389
  23 H :    0.105069
  24 H :    0.113257
  25 H :    0.111776
  26 H :    0.120051
  27 H :    0.106370
  28 H :    0.116905
  29 H :    0.194776
  30 H :    0.194873
  31 H :    0.105409
  32 H :    0.107810
  33 H :    0.113161
  34 H :    0.116611
  35 H :    0.117241
  36 H :    0.105107
  37 H :    0.109596
  38 H :    0.129663
  39 H :    0.118644
  40 H :    0.111870
Sum of atomic charges:   -0.0000000

LOEWDIN ATOMIC CHARGES
----------------------
   0 C :   -0.370772
   1 C :   -0.115713
   2 O :   -0.247970
   3 P :    0.572153
   4 S :   -0.308033
   5 O :   -0.230755
   6 C :   -0.116603
   7 C :   -0.357675
   8 S :    0.079176
   9 C :   -0.489573
  10 S :    0.094077
  11 P :    0.568288
  12 S :   -0.325212
  13 O :   -0.250930
  14 C :   -0.119484
  15 C :   -0.350674
  16 O :   -0.241084
  17 C :   -0.116536
  18 C :   -0.354607
  19 H :    0.123050
  20 H :    0.122426
  21 H :    0.131987
  22 H :    0.114111
  23 H :    0.118499
  24 H :    0.119732
  25 H :    0.104015
  26 H :    0.128816
  27 H :    0.127502
  28 H :    0.125066
  29 H :    0.128396
  30 H :    0.128822
  31 H :    0.113111
  32 H :    0.107970
  33 H :    0.131397
  34 H :    0.127279
  35 H :    0.126924
  36 H :    0.115065
  37 H :    0.107800
  38 H :    0.127006
  39 H :    0.121954
  40 H :    0.131000

  Mayer bond orders larger than 0.100000
B(  0-C ,  1-C ) :   1.1666 B(  0-C , 19-H ) :   0.9437 B(  0-C , 20-H ) :   0.9343
B(  0-C , 21-H ) :   0.9367 B(  1-C ,  2-O ) :   0.9046 B(  1-C , 22-H ) :   0.9190
B(  1-C , 23-H ) :   0.9341 B(  2-O ,  3-P ) :   1.0819 B(  3-P ,  4-S ) :   1.6356
B(  3-P ,  5-O ) :   1.1467 B(  3-P ,  8-S ) :   0.9458 B(  4-S ,  8-S ) :   0.1086
B(  5-O ,  6-C ) :   0.8897 B(  6-C ,  7-C ) :   1.1588 B(  6-C , 24-H ) :   0.9321
B(  6-C , 25-H ) :   0.9055 B(  7-C , 26-H ) :   0.9468 B(  7-C , 27-H ) :   0.9413
B(  7-C , 28-H ) :   0.9434 B(  8-S ,  9-C ) :   1.0065 B(  9-C , 10-S ) :   1.0031
B(  9-C , 29-H ) :   0.8693 B(  9-C , 30-H ) :   0.8723 B( 10-S , 11-P ) :   0.9822
B( 10-S , 12-S ) :   0.1084 B( 11-P , 12-S ) :   1.6002 B( 11-P , 13-O ) :   1.1139
B( 11-P , 16-O ) :   1.1321 B( 13-O , 14-C ) :   0.9032 B( 14-C , 15-C ) :   1.1618
B( 14-C , 31-H ) :   0.9315 B( 14-C , 32-H ) :   0.9061 B( 15-C , 33-H ) :   0.9419
B( 15-C , 34-H ) :   0.9511 B( 15-C , 35-H ) :   0.9508 B( 16-O , 17-C ) :   0.8930
B( 17-C , 18-C ) :   1.1699 B( 17-C , 36-H ) :   0.9326 B( 17-C , 37-H ) :   0.9010
B( 18-C , 38-H ) :   0.9419 B( 18-C , 39-H ) :   0.9419 B( 18-C , 40-H ) :   0.9385

Dispersion correction           -0.063960335
FINAL SINGLE POINT ENERGY     -2929.524159214159

DIPOLE MOMENT
-------------

Method             : SCF
Type of density    : Electron Density
Multiplicity       :   1
Irrep              :   0
Energy             : -2929.6445410186693152 Eh
Relativity type    :
Basis              : AO
                                X                 Y                 Z
Electronic contribution:      4.289372945      15.131028506      -7.900933126
Nuclear contribution   :     -4.725835901     -16.444480916       8.603738281
                        -----------------------------------------
Total Dipole Moment    :     -0.436462956      -1.313452410       0.702805155
                        -----------------------------------------
Magnitude (a.u.)       :      1.552286130
Magnitude (Debye)      :      3.945597781

Rotational constants in cm-1:             0.012795             0.004607             0.004408
Rotational constants in MHz :           383.574926           138.117223           132.148105

                             ****ORCA TERMINATED NORMALLY****
TOTAL RUN TIME: 0 days 0 hours 0 minutes 20 seconds 953 msec
