                         Program Version 6.0.0  -   RELEASE  -
|  1> ! r2scan-3c def2/J RI DEFGRID2 scfconv6 printgap
|  2> %output
|  3>     printlevel normal
|  4> end
|  5> * xyz 0 1
|  6> C -0.5746110547 -0.6407071867 -1.2481e-06
|  7> F -1.5158102793 0.3445547782 -6.1263e-06
|  8> Cl 1.0466446712 0.1019009877 -1.986e-07
|  9> H -0.6979767707 -1.2220310295 -0.9150031163
| 10> H -0.6980646431 -1.2218137927 0.9151404543
| 11> *
| 12>
| 13>                          ****END OF INPUT****

CARTESIAN COORDINATES (ANGSTROEM)
---------------------------------
  C     -0.574611   -0.640707   -0.000001
  F     -1.515810    0.344555   -0.000006
  Cl     1.046645    0.101901   -0.000000
  H     -0.697977   -1.222031   -0.915003
  H     -0.698065   -1.221814    0.915140

 Total Charge           Charge          ....    0
 Multiplicity           Mult            ....    1
 Number of Electrons    NEL             ....   34
 Basis Dimension        Dim             ....   80

ORBITAL ENERGIES
----------------

  NO   OCC          E(Eh)            E(eV)
   0   2.0000    -101.222378     -2754.4009
   1   2.0000     -24.502166      -666.7378
   2   2.0000     -10.180850      -277.0350
   3   2.0000      -9.378526      -255.2027
   4   2.0000      -7.124809      -193.8759
   5   2.0000      -7.114825      -193.6042
   6   2.0000      -7.114220      -193.5878
   7   2.0000      -1.192734       -32.4560
   8   2.0000      -0.827934       -22.5292
   9   2.0000      -0.655254       -17.8304
  10   2.0000      -0.497330       -13.5330
  11   2.0000      -0.496912       -13.5217
  12   2.0000      -0.461444       -12.5565
  13   2.0000      -0.351049        -9.5525
  14   2.0000      -0.350376        -9.5342
  15   2.0000      -0.299777        -8.1573
  16   2.0000      -0.284076        -7.7301
  17   0.0000      -0.006176        -0.1681
  18   0.0000       0.054221         1.4754
  19   0.0000       0.099523         2.7082
  20   0.0000       0.148059         4.0289
  21   0.0000       0.171190         4.6583

MULLIKEN ATOMIC CHARGES
-----------------------
   0 C :    0.075264
   1 F :   -0.230727
   2 Cl:   -0.146051
   3 H :    0.150758
   4 H :    0.150756
Sum of atomic charges:    0.0000000

LOEWDIN ATOMIC CHARGES
----------------------
   0 C :   -0.008868
   1 F :   -0.352739
   2 Cl:    0.047636
   3 H :    0.156982
   4 H :    0.156989

  Mayer bond orders larger than 0.100000
B(  0-C ,  1-F ) :   0.8897 B(  0-C ,  2-Cl) :   1.0732 B(  0-C ,  3-H ) :   0.9514
B(  0-C ,  4-H ) :   0.9515

Dispersion correction           -0.000639467
FINAL SINGLE POINT ENERGY      -599.305148059327

DIPOLE MOMENT
-------------

Method             : SCF
Type of density    : Electron Density
Multiplicity       :   1
Irrep              :   0
Energy             :  -599.3112689765318919 Eh
Relativity type    :
Basis              : AO
                                X                 Y                 Z
Electronic contribution:      1.131033597       2.040788202      -0.000129658
Nuclear contribution   :     -1.310095304      -2.748773672       0.000134790
                        -----------------------------------------
Total Dipole Moment    :     -0.179061707      -0.707985470       0.000005132
                        -----------------------------------------
Magnitude (a.u.)       :      0.730278386
Magnitude (Debye)      :      1.856220140

Rotational constants in cm-1:             1.375874             0.189146             0.172015
Rotational constants in MHz :         41247.674680          5670.456915          5156.875857

                             ****ORCA TERMINATED NORMALLY****
TOTAL RUN TIME: 0 days 0 hours 0 minutes 5 seconds 635 msec
