                         Program Version 6.0.0  -   RELEASE  -
|  1> ! r2scan-3c def2/J RI DEFGRID2 scfconv6 printgap
|  2> %output
|  3>     printlevel normal
|  4> end
|  5> * xyz 0 1
|  6> C -1.8633682094 0.0062792225 -0.0001613426
|  7> C -1.1701100178 -1.1935859941 -9.06461e-05
|  8> C 0.2111084985 -1.2036944272 -0.0001298311
|  9> C 0.9155554197 -0.0027899639 3.47984e-05
| 10> C 0.2205530198 1.2011515427 0.0002700601
| 11> C -1.163219867 1.1998488411 0.0001196856
| 12> O 2.2754407041 -0.0596676715 -0.0001011111
| 13> H -2.9422446217 0.0097687785 -0.0003992052
| 14> H -1.7079358013 -2.1294129857 0.0018502986
| 15> H 0.7666133649 -2.128446521 0.0009189614
| 16> H 0.7604199629 2.1372332637 -0.0007315487
| 17> H -1.6948297016 2.139515861 -0.0006851149
| 18> H 2.6538301666 0.8325620529 0.0001424747
| 19> *
| 20>
| 21>                          ****END OF INPUT****

CARTESIAN COORDINATES (ANGSTROEM)
---------------------------------
  C     -1.863368    0.006279   -0.000161
  C     -1.170110   -1.193586   -0.000091
  C      0.211108   -1.203694   -0.000130
  C      0.915555   -0.002790    0.000035
  C      0.220553    1.201152    0.000270
  C     -1.163220    1.199849    0.000120
  O      2.275441   -0.059668   -0.000101
  H     -2.942245    0.009769   -0.000399
  H     -1.707936   -2.129413    0.001850
  H      0.766613   -2.128447    0.000919
  H      0.760420    2.137233   -0.000732
  H     -1.694830    2.139516   -0.000685
  H      2.653830    0.832562    0.000142

 Total Charge           Charge          ....    0
 Multiplicity           Mult            ....    1
 Number of Electrons    NEL             ....   50
 Basis Dimension        Dim             ....  168

ORBITAL ENERGIES
----------------

  NO   OCC          E(Eh)            E(eV)
   0   2.0000     -18.987028      -516.6633
   1   2.0000     -10.098340      -274.7898
   2   2.0000     -10.038053      -273.1493
   3   2.0000     -10.036534      -273.1080
   4   2.0000     -10.036050      -273.0948
   5   2.0000     -10.030823      -272.9526
   6   2.0000     -10.027870      -272.8722
   7   2.0000      -1.030605       -28.0442
   8   2.0000      -0.822881       -22.3917
   9   2.0000      -0.720895       -19.6166
  10   2.0000      -0.709414       -19.3041
  11   2.0000      -0.596073       -16.2200
  12   2.0000      -0.574223       -15.6254
  13   2.0000      -0.518563       -14.1108
  14   2.0000      -0.469827       -12.7846
  15   2.0000      -0.437287       -11.8992
  16   2.0000      -0.409487       -11.1427
  17   2.0000      -0.394170       -10.7259
  18   2.0000      -0.383802       -10.4438
  19   2.0000      -0.358813        -9.7638
  20   2.0000      -0.331040        -9.0080
  21   2.0000      -0.314404        -8.5554
  22   2.0000      -0.308644        -8.3986
  23   2.0000      -0.239680        -6.5220
  24   2.0000      -0.207435        -5.6446
  25   0.0000      -0.033828        -0.9205
  26   0.0000      -0.016736        -0.4554
  27   0.0000       0.056211         1.5296
  28   0.0000       0.088015         2.3950
  29   0.0000       0.125767         3.4223

MULLIKEN ATOMIC CHARGES
-----------------------
   0 C :   -0.191626
   1 C :   -0.111854
   2 C :   -0.291502
   3 C :    0.413706
   4 C :   -0.330258
   5 C :   -0.125115
   6 O :   -0.413398
   7 H :    0.147497
   8 H :    0.148637
   9 H :    0.158013
  10 H :    0.138049
  11 H :    0.147534
  12 H :    0.310317
Sum of atomic charges:    0.0000000

LOEWDIN ATOMIC CHARGES
----------------------
   0 C :   -0.192744
   1 C :   -0.152200
   2 C :   -0.145568
   3 C :    0.181540
   4 C :   -0.175805
   5 C :   -0.153583
   6 O :   -0.496678
   7 H :    0.166661
   8 H :    0.168261
   9 H :    0.179823
  10 H :    0.168130
  11 H :    0.167843
  12 H :    0.284320

  Mayer bond orders larger than 0.100000
B(  0-C ,  1-C ) :   1.4156 B(  0-C ,  5-C ) :   1.4431 B(  0-C ,  7-H ) :   0.9482
B(  1-C ,  2-C ) :   1.4112 B(  1-C ,  8-H ) :   0.9476 B(  2-C ,  3-C ) :   1.4305
B(  2-C ,  9-H ) :   0.9442 B(  3-C ,  4-C ) :   1.3547 B(  3-C ,  6-O ) :   0.9164
B(  4-C ,  5-C ) :   1.4213 B(  4-C , 10-H ) :   0.9374 B(  5-C , 11-H ) :   0.9408
B(  6-O , 12-H ) :   0.8844

Dispersion correction           -0.003780345
FINAL SINGLE POINT ENERGY      -307.399525357265

DIPOLE MOMENT
-------------

Method             : SCF
Type of density    : Electron Density
Multiplicity       :   1
Irrep              :   0
Energy             :  -307.3994581880805868 Eh
Relativity type    :
Basis              : AO
                                X                 Y                 Z
Electronic contribution:      2.047137802      -0.304484597      -0.000641465
Nuclear contribution   :     -1.996591087       0.807089649       0.001026613
                        -----------------------------------------
Total Dipole Moment    :      0.050546715       0.502605052       0.000385148
                        -----------------------------------------
Magnitude (a.u.)       :      0.505140532
Magnitude (Debye)      :      1.283965194

Rotational constants in cm-1:             0.191029             0.088139             0.060312
Rotational constants in MHz :          5726.908741          2642.347377          1808.103716

                             ****ORCA TERMINATED NORMALLY****
TOTAL RUN TIME: 0 days 0 hours 0 minutes 15 seconds 323 msec
