                         Program Version 6.0.0  -   RELEASE  -
|  1> ! r2scan-3c def2/J RI DEFGRID2 scfconv6 printgap
|  2> %output
|  3>     printlevel normal
|  4> end
|  5> %cpcm
|  6>     smd true
|  7>     smdsolvent "water"
|  8> end
|  9> * xyz 0 1
| 10> C -1.8633682094 0.0062792225 -0.0001613426
| 11> C -1.1701100178 -1.1935859941 -9.06461e-05
| 12> C 0.2111084985 -1.2036944272 -0.0001298311
| 13> C 0.9155554197 -0.0027899639 3.47984e-05
| 14> C 0.2205530198 1.2011515427 0.0002700601
| 15> C -1.163219867 1.1998488411 0.0001196856
| 16> O 2.2754407041 -0.0596676715 -0.0001011111
| 17> H -2.9422446217 0.0097687785 -0.0003992052
| 18> H -1.7079358013 -2.1294129857 0.0018502986
| 19> H 0.7666133649 -2.128446521 0.0009189614
| 20> H 0.7604199629 2.1372332637 -0.0007315487
| 21> H -1.6948297016 2.139515861 -0.0006851149
| 22> H 2.6538301666 0.8325620529 0.0001424747
| 23> *
| 24>
| 25>                          ****END OF INPUT****

CARTESIAN COORDINATES (ANGSTROEM)
---------------------------------
  C     -1.863368    0.006279   -0.000161
  C     -1.170110   -1.193586   -0.000091
  C      0.211108   -1.203694   -0.000130
  C      0.915555   -0.002790    0.000035
  C      0.220553    1.201152    0.000270
  C     -1.163220    1.199849    0.000120
  O      2.275441   -0.059668   -0.000101
  H     -2.942245    0.009769   -0.000399
  H     -1.707936   -2.129413    0.001850
  H      0.766613   -2.128447    0.000919
  H      0.760420    2.137233   -0.000732
  H     -1.694830    2.139516   -0.000685
  H      2.653830    0.832562    0.000142

 Total Charge           Charge          ....    0
 Multiplicity           Mult            ....    1
 Number of Electrons    NEL             ....   50
 Basis Dimension        Dim             ....  168

ORBITAL ENERGIES
----------------

  NO   OCC          E(Eh)            E(eV)
   0   2.0000     -18.983091      -516.5562
   1   2.0000     -10.097519      -274.7675
   2   2.0000     -10.035175      -273.0710
   3   2.0000     -10.035041      -273.0673
   4   2.0000     -10.031227      -272.9636
   5   2.0000     -10.030378      -272.9405
   6   2.0000     -10.026188      -272.8264
   7   2.0000      -1.026616       -27.9356
   8   2.0000      -0.822753       -22.3882
   9   2.0000      -0.719315       -19.5736
  10   2.0000      -0.707859       -19.2618
  11   2.0000      -0.591802       -16.1038
  12   2.0000      -0.571358       -15.5475
  13   2.0000      -0.513354       -13.9691
  14   2.0000      -0.465172       -12.6580
  15   2.0000      -0.434917       -11.8347
  16   2.0000      -0.404557       -11.0085
  17   2.0000      -0.389294       -10.5932
  18   2.0000      -0.385471       -10.4892
  19   2.0000      -0.358037        -9.7427
  20   2.0000      -0.326862        -8.8944
  21   2.0000      -0.316621        -8.6157
  22   2.0000      -0.304685        -8.2909
  23   2.0000      -0.241561        -6.5732
  24   2.0000      -0.209308        -5.6956
  25   0.0000      -0.034646        -0.9428
  26   0.0000      -0.018435        -0.5016
  27   0.0000       0.082161         2.2357
  28   0.0000       0.100191         2.7263
  29   0.0000       0.128321         3.4918

MULLIKEN ATOMIC CHARGES
-----------------------
   0 C :   -0.232398
   1 C :   -0.154931
   2 C :   -0.325947
   3 C :    0.365735
   4 C :   -0.327357
   5 C :   -0.154245
   6 O :   -0.456992
   7 H :    0.179432
   8 H :    0.182346
   9 H :    0.185985
  10 H :    0.186493
  11 H :    0.181864
  12 H :    0.370016
Sum of atomic charges:   -0.0000000

LOEWDIN ATOMIC CHARGES
----------------------
   0 C :   -0.207338
   1 C :   -0.165002
   2 C :   -0.162527
   3 C :    0.169699
   4 C :   -0.171575
   5 C :   -0.164709
   6 O :   -0.512925
   7 H :    0.176245
   8 H :    0.178915
   9 H :    0.187551
  10 H :    0.186368
  11 H :    0.178970
  12 H :    0.306329

  Mayer bond orders larger than 0.100000
B(  0-C ,  1-C ) :   1.3798 B(  0-C ,  5-C ) :   1.3921 B(  0-C ,  7-H ) :   0.9563
B(  1-C ,  2-C ) :   1.3897 B(  1-C ,  8-H ) :   0.9522 B(  2-C ,  3-C ) :   1.3738
B(  2-C ,  9-H ) :   0.9510 B(  3-C ,  4-C ) :   1.3510 B(  3-C ,  6-O ) :   0.9228
B(  4-C ,  5-C ) :   1.3745 B(  4-C , 10-H ) :   0.9483 B(  5-C , 11-H ) :   0.9511
B(  6-O , 12-H ) :   0.8529

Dispersion correction           -0.003780345
FINAL SINGLE POINT ENERGY      -307.408705429074

DIPOLE MOMENT
-------------

Method             : SCF
Type of density    : Electron Density
Multiplicity       :   1
Irrep              :   0
Energy             :  -307.4086382598896421 Eh
Relativity type    :
Basis              : AO
                                X                 Y                 Z
Electronic contribution:      2.089214083      -0.040571644      -0.000479638
Nuclear contribution   :     -1.996591087       0.807089649       0.001026613
                        -----------------------------------------
Total Dipole Moment    :      0.092622996       0.766518005       0.000546975
                        -----------------------------------------
Magnitude (a.u.)       :      0.772094017
Magnitude (Debye)      :      1.962507027

Rotational constants in cm-1:             0.191029             0.088139             0.060312
Rotational constants in MHz :          5726.908741          2642.347377          1808.103716

                             ****ORCA TERMINATED NORMALLY****
TOTAL RUN TIME: 0 days 0 hours 0 minutes 18 seconds 520 msec
