                         Program Version 6.0.0  -   RELEASE  -
|  1> ! pbe def2-sv(p) def2/J RI DEFGRID1 loosescf d4 GCP(DFT/SV(P)) printgap
|  2> %output
|  3>     printlevel normal
|  4> end
|  5> * xyz 0 1
|  6> C 0.8854530946 -1.7183880497 2.2934293136
|  7> C 1.9864763463 -1.9994917496 1.2894767696
|  8> O 2.734085591 -0.7998000093 1.0184004876
|  9> P 2.6808044985 -0.02344381 -0.3722710999
| 10> S 2.8819115468 -1.1625253168 -1.9490237625
| 11> O 3.8565899447 1.007882696 -0.2290719084
| 12> C 3.9004000695 2.0994038173 0.7243985188
| 13> C 4.4404532988 1.6499999535 2.0658648104
| 14> S 0.9182327764 1.1980029777 -0.3297012762
| 15> C -0.0302847931 0.3260883604 -1.5936453028
| 16> S -0.9107118359 -1.1264095831 -0.9550353805
| 17> P -2.4821526233 -0.0458026013 -0.0576819021
| 18> S -3.2160774019 1.4786322276 -1.0595185608
| 19> O -1.8142663528 0.2999070129 1.3334758746
| 20> C -2.2950024619 1.3487721906 2.20624224
| 21> C -1.1004176016 2.0887034879 2.7732859818
| 22> O -3.5551669114 -1.1383225711 0.3690169034
| 23> C -4.6304438454 -1.5453454676 -0.4945049187
| 24> C -4.1294186675 -2.2959147298 -1.7115122738
| 25> H 1.3101724989 -1.3137959214 3.2078925706
| 26> H 0.1691747774 -1.0059994579 1.8915639888
| 27> H 0.366782988 -2.6448062989 2.5180904801
| 28> H 1.5838977849 -2.3974363762 0.351987161
| 29> H 2.7149638366 -2.7063255116 1.6923192789
| 30> H 4.5611145391 2.8285926915 0.2524237935
| 31> H 2.8955063209 2.5195974555 0.8204257554
| 32> H 4.5319181297 2.5142593191 2.7163337299
| 33> H 3.7710776489 0.9265980865 2.5221032443
| 34> H 5.4172546437 1.191194279 1.9391501656
| 35> H 0.6483227138 -0.0338946169 -2.3681020038
| 36> H -0.7558711898 1.0352475948 -1.9932801513
| 37> H -2.9389510364 2.0205825227 1.6286504328
| 38> H -2.8825412445 0.8681651497 2.9910266871
| 39> H -1.4505316527 2.8684447704 3.4416887866
| 40> H -0.4627236358 1.4023934906 3.3225384236
| 41> H -0.5240114247 2.5368360998 1.9674523856
| 42> H -5.2528248262 -2.1762965074 0.1413032794
| 43> H -5.18819729 -0.652792744 -0.7956524635
| 44> H -3.4854974596 -3.1185038795 -1.4102104002
| 45> H -4.9754618724 -2.6848694823 -2.2690037615
| 46> H -3.5616482486 -1.6252987975 -2.3557501775
| 47> *
| 48>
| 49>                          ****END OF INPUT****

CARTESIAN COORDINATES (ANGSTROEM)
---------------------------------
  C      0.885453   -1.718388    2.293429
  C      1.986476   -1.999492    1.289477
  O      2.734086   -0.799800    1.018400
  P      2.680804   -0.023444   -0.372271
  S      2.881912   -1.162525   -1.949024
  O      3.856590    1.007883   -0.229072
  C      3.900400    2.099404    0.724399
  C      4.440453    1.650000    2.065865
  S      0.918233    1.198003   -0.329701
  C     -0.030285    0.326088   -1.593645
  S     -0.910712   -1.126410   -0.955035
  P     -2.482153   -0.045803   -0.057682
  S     -3.216077    1.478632   -1.059519
  O     -1.814266    0.299907    1.333476
  C     -2.295002    1.348772    2.206242
  C     -1.100418    2.088703    2.773286
  O     -3.555167   -1.138323    0.369017
  C     -4.630444   -1.545345   -0.494505
  C     -4.129419   -2.295915   -1.711512
  H      1.310172   -1.313796    3.207893
  H      0.169175   -1.005999    1.891564
  H      0.366783   -2.644806    2.518090
  H      1.583898   -2.397436    0.351987
  H      2.714964   -2.706326    1.692319
  H      4.561115    2.828593    0.252424
  H      2.895506    2.519597    0.820426
  H      4.531918    2.514259    2.716334
  H      3.771078    0.926598    2.522103
  H      5.417255    1.191194    1.939150
  H      0.648323   -0.033895   -2.368102
  H     -0.755871    1.035248   -1.993280
  H     -2.938951    2.020583    1.628650
  H     -2.882541    0.868165    2.991027
  H     -1.450532    2.868445    3.441689
  H     -0.462724    1.402393    3.322538
  H     -0.524011    2.536836    1.967452
  H     -5.252825   -2.176297    0.141303
  H     -5.188197   -0.652793   -0.795652
  H     -3.485497   -3.118504   -1.410210
  H     -4.975462   -2.684869   -2.269004
  H     -3.561648   -1.625299   -2.355750

 Total Charge           Charge          ....    0
 Multiplicity           Mult            ....    1
 Number of Electrons    NEL             ....  202
 Basis Dimension        Dim             ....  334

ORBITAL ENERGIES
----------------

  NO   OCC          E(Eh)            E(eV)
   0   2.0000     -88.047238     -2395.8872
   1   2.0000     -88.042116     -2395.7478
   2   2.0000     -87.993429     -2394.4229
   3   2.0000     -87.987038     -2394.2490
   4   2.0000     -76.430959     -2079.7921
   5   2.0000     -76.427356     -2079.6941
   6   2.0000     -18.797388      -511.5029
   7   2.0000     -18.795936      -511.4634
   8   2.0000     -18.795307      -511.4463
   9   2.0000     -18.789853      -511.2979
  10   2.0000      -9.962698      -271.0988
  11   2.0000      -9.955942      -270.9150
  12   2.0000      -9.955472      -270.9022
  13   2.0000      -9.952687      -270.8264
  14   2.0000      -9.948313      -270.7074
  15   2.0000      -9.889616      -269.1101
  16   2.0000      -9.888324      -269.0750
  17   2.0000      -9.886831      -269.0343
  18   2.0000      -9.877816      -268.7890
  19   2.0000      -7.692245      -209.3166
  20   2.0000      -7.686919      -209.1717
  21   2.0000      -7.638292      -207.8485
  22   2.0000      -7.632307      -207.6856
  23   2.0000      -6.428755      -174.9353
  24   2.0000      -6.424963      -174.8321
  25   2.0000      -5.720005      -155.6493
  26   2.0000      -5.716893      -155.5646
  27   2.0000      -5.714725      -155.5056
  28   2.0000      -5.711456      -155.4166
  29   2.0000      -5.709177      -155.3546
  30   2.0000      -5.703984      -155.2133
  31   2.0000      -5.667031      -154.2078
  32   2.0000      -5.661313      -154.0522
  33   2.0000      -5.659008      -153.9894
  34   2.0000      -5.658568      -153.9775
  35   2.0000      -5.652895      -153.8231
  36   2.0000      -5.652357      -153.8084
  37   2.0000      -4.651249      -126.5669
  38   2.0000      -4.650478      -126.5459
  39   2.0000      -4.649255      -126.5127
  40   2.0000      -4.647695      -126.4702
  41   2.0000      -4.646622      -126.4410
  42   2.0000      -4.645365      -126.4068
  43   2.0000      -0.991428       -26.9781
  44   2.0000      -0.988707       -26.9041
  45   2.0000      -0.950312       -25.8593
  46   2.0000      -0.945552       -25.7298
  47   2.0000      -0.766000       -20.8439
  48   2.0000      -0.725768       -19.7492
  49   2.0000      -0.714204       -19.4345
  50   2.0000      -0.690635       -18.7931
  51   2.0000      -0.689431       -18.7604
  52   2.0000      -0.677472       -18.4349
  53   2.0000      -0.651165       -17.7191
  54   2.0000      -0.640445       -17.4274
  55   2.0000      -0.603673       -16.4268
  56   2.0000      -0.593557       -16.1515
  57   2.0000      -0.576993       -15.7008
  58   2.0000      -0.572707       -15.5841
  59   2.0000      -0.558816       -15.2061
  60   2.0000      -0.507681       -13.8147
  61   2.0000      -0.501836       -13.6556
  62   2.0000      -0.481800       -13.1105
  63   2.0000      -0.477098       -12.9825
  64   2.0000      -0.460223       -12.5233
  65   2.0000      -0.448156       -12.1949
  66   2.0000      -0.445302       -12.1173
  67   2.0000      -0.437660       -11.9093
  68   2.0000      -0.430809       -11.7229
  69   2.0000      -0.422290       -11.4911
  70   2.0000      -0.406476       -11.0608
  71   2.0000      -0.396307       -10.7841
  72   2.0000      -0.395116       -10.7516
  73   2.0000      -0.389396       -10.5960
  74   2.0000      -0.384408       -10.4603
  75   2.0000      -0.378255       -10.2928
  76   2.0000      -0.365974        -9.9587
  77   2.0000      -0.359332        -9.7779
  78   2.0000      -0.357469        -9.7272
  79   2.0000      -0.355310        -9.6685
  80   2.0000      -0.349025        -9.4975
  81   2.0000      -0.347256        -9.4493
  82   2.0000      -0.344480        -9.3738
  83   2.0000      -0.340471        -9.2647
  84   2.0000      -0.334637        -9.1059
  85   2.0000      -0.323554        -8.8044
  86   2.0000      -0.316121        -8.6021
  87   2.0000      -0.300422        -8.1749
  88   2.0000      -0.294552        -8.0152
  89   2.0000      -0.291078        -7.9206
  90   2.0000      -0.288760        -7.8576
  91   2.0000      -0.280979        -7.6458
  92   2.0000      -0.278439        -7.5767
  93   2.0000      -0.268270        -7.3000
  94   2.0000      -0.257534        -7.0078
  95   2.0000      -0.236328        -6.4308
  96   2.0000      -0.220270        -5.9938
  97   2.0000      -0.215146        -5.8544
  98   2.0000      -0.207353        -5.6424
  99   2.0000      -0.206003        -5.6056
 100   2.0000      -0.201771        -5.4905
 101   0.0000      -0.046869        -1.2754
 102   0.0000      -0.030381        -0.8267
 103   0.0000      -0.014049        -0.3823
 104   0.0000      -0.000805        -0.0219
 105   0.0000       0.011117         0.3025

MULLIKEN ATOMIC CHARGES
-----------------------
   0 C :   -0.329303
   1 C :   -0.002687
   2 O :   -0.379039
   3 P :    0.611442
   4 S :   -0.307705
   5 O :   -0.355290
   6 C :   -0.023242
   7 C :   -0.295972
   8 S :   -0.123590
   9 C :   -0.361848
  10 S :   -0.071856
  11 P :    0.611581
  12 S :   -0.333875
  13 O :   -0.358713
  14 C :   -0.008447
  15 C :   -0.291618
  16 O :   -0.372828
  17 C :   -0.003345
  18 C :   -0.320286
  19 H :    0.106361
  20 H :    0.158328
  21 H :    0.105173
  22 H :    0.105159
  23 H :    0.104628
  24 H :    0.116251
  25 H :    0.115798
  26 H :    0.110694
  27 H :    0.126726
  28 H :    0.122395
  29 H :    0.199162
  30 H :    0.193115
  31 H :    0.108152
  32 H :    0.105608
  33 H :    0.109976
  34 H :    0.118301
  35 H :    0.126910
  36 H :    0.106536
  37 H :    0.112631
  38 H :    0.119590
  39 H :    0.115651
  40 H :    0.129476
Sum of atomic charges:   -0.0000000

LOEWDIN ATOMIC CHARGES
----------------------
   0 C :   -0.369825
   1 C :   -0.117454
   2 O :   -0.248095
   3 P :    0.570865
   4 S :   -0.300014
   5 O :   -0.233108
   6 C :   -0.110772
   7 C :   -0.361959
   8 S :    0.066715
   9 C :   -0.488703
  10 S :    0.104870
  11 P :    0.572369
  12 S :   -0.321743
  13 O :   -0.236190
  14 C :   -0.115305
  15 C :   -0.354434
  16 O :   -0.245328
  17 C :   -0.118687
  18 C :   -0.369701
  19 H :    0.119907
  20 H :    0.121214
  21 H :    0.128900
  22 H :    0.102548
  23 H :    0.117380
  24 H :    0.124757
  25 H :    0.104946
  26 H :    0.129949
  27 H :    0.125902
  28 H :    0.130611
  29 H :    0.128980
  30 H :    0.128582
  31 H :    0.107656
  32 H :    0.115509
  33 H :    0.129376
  34 H :    0.126123
  35 H :    0.123520
  36 H :    0.119371
  37 H :    0.111487
  38 H :    0.125057
  39 H :    0.132412
  40 H :    0.122313

  Mayer bond orders larger than 0.100000
B(  0-C ,  1-C ) :   1.1644 B(  0-C , 19-H ) :   0.9459 B(  0-C , 20-H ) :   0.9175
B(  0-C , 21-H ) :   0.9394 B(  1-C ,  2-O ) :   0.8970 B(  1-C , 22-H ) :   0.9019
B(  1-C , 23-H ) :   0.9354 B(  2-O ,  3-P ) :   1.0882 B(  3-P ,  4-S ) :   1.6453
B(  3-P ,  5-O ) :   1.1534 B(  3-P ,  8-S ) :   0.9313 B(  4-S ,  8-S ) :   0.1121
B(  5-O ,  6-C ) :   0.8985 B(  6-C ,  7-C ) :   1.1629 B(  6-C , 24-H ) :   0.9357
B(  6-C , 25-H ) :   0.9144 B(  7-C , 26-H ) :   0.9380 B(  7-C , 27-H ) :   0.9381
B(  7-C , 28-H ) :   0.9465 B(  8-S ,  9-C ) :   1.0180 B(  9-C , 10-S ) :   0.9998
B(  9-C , 29-H ) :   0.8600 B(  9-C , 30-H ) :   0.8666 B( 10-S , 11-P ) :   0.9686
B( 10-S , 12-S ) :   0.1068 B( 11-P , 12-S ) :   1.5938 B( 11-P , 13-O ) :   1.1248
B( 11-P , 16-O ) :   1.1176 B( 13-O , 14-C ) :   0.8928 B( 14-C , 15-C ) :   1.1663
B( 14-C , 31-H ) :   0.9036 B( 14-C , 32-H ) :   0.9332 B( 15-C , 33-H ) :   0.9404
B( 15-C , 34-H ) :   0.9500 B( 15-C , 35-H ) :   0.9438 B( 16-O , 17-C ) :   0.9073
B( 17-C , 18-C ) :   1.1640 B( 17-C , 36-H ) :   0.9337 B( 17-C , 37-H ) :   0.9167
B( 18-C , 38-H ) :   0.9448 B( 18-C , 39-H ) :   0.9377 B( 18-C , 40-H ) :   0.9351

Dispersion correction           -0.064534594
FINAL SINGLE POINT ENERGY     -2929.522323948248

DIPOLE MOMENT
-------------

Method             : SCF
Type of density    : Electron Density
Multiplicity       :   1
Irrep              :   0
Energy             : -2929.6430019060180712 Eh
Relativity type    :
Basis              : AO
                                X                 Y                 Z
Electronic contribution:      2.872604435      -0.240376377     -17.847709288
Nuclear contribution   :     -3.441130374       0.371448839      19.508568999
                        -----------------------------------------
Total Dipole Moment    :     -0.568525939       0.131072463       1.660859711
                        -----------------------------------------
Magnitude (a.u.)       :      1.760356985
Magnitude (Debye)      :      4.474471864

Rotational constants in cm-1:             0.012458             0.004884             0.004416
Rotational constants in MHz :           373.483916           146.412104           132.375162

                             ****ORCA TERMINATED NORMALLY****
TOTAL RUN TIME: 0 days 0 hours 0 minutes 21 seconds 184 msec
