                         Program Version 6.0.0  -   RELEASE  -
|  1> ! pbe def2-sv(p) def2/J RI DEFGRID1 loosescf d4 GCP(DFT/SV(P)) printgap
|  2> %output
|  3>     printlevel normal
|  4> end
|  5> * xyz 0 1
|  6> C 5.8036709596 -1.7106495879 -0.9731611707
|  7> C 4.5178754546 -0.980764198 -1.3040948157
|  8> O 3.7528012879 -0.8591506075 -0.086783607
|  9> P 2.5410891354 0.1606923951 0.0195882468
| 10> S 2.9351338682 2.017175609 -0.4517561584
| 11> O 2.0749385341 0.0224508284 1.5133586198
| 12> C 1.7217485233 -1.2365655969 2.1413658463
| 13> C 2.9084992388 -1.8249821512 2.8754400341
| 14> S 1.0429267495 -0.7743653658 -1.1821490322
| 15> C -0.0501455552 0.6617456491 -1.2625550468
| 16> S -0.9593948175 0.9404442093 0.2768836247
| 17> P -2.9285168295 0.3614797195 -0.3543016473
| 18> S -3.1122017282 -0.1801102756 -2.2258494306
| 19> O -3.8308754857 1.611474668 -0.0299110424
| 20> C -3.702062034 2.5101461829 1.0971574782
| 21> C -3.6773160221 1.7849867651 2.4246089553
| 22> O -3.4454443971 -0.7146475125 0.6967009665
| 23> C -3.2489417994 -2.127243108 0.5209022624
| 24> C -1.801134527 -2.5296411424 0.7156812369
| 25> H 6.3956981666 -1.8142936846 -1.876461585
| 26> H 6.3714176737 -1.1504275317 -0.2355545703
| 27> H 5.5810019734 -2.6962629334 -0.5750830487
| 28> H 3.9172144016 -1.5351350198 -2.0301949806
| 29> H 4.7143735661 0.0234702741 -1.6938432811
| 30> H 0.9166842117 -0.9725630914 2.8294568299
| 31> H 1.3501715095 -1.922684846 1.3751195588
| 32> H 2.5945205273 -2.7276446565 3.3901889968
| 33> H 3.7019936626 -2.0683554642 2.1743057081
| 34> H 3.2891127352 -1.1113910336 3.6009319424
| 35> H -0.7638375495 0.4803361305 -2.0700342284
| 36> H 0.5581212671 1.546431623 -1.4551533702
| 37> H -2.7924537205 3.1008514903 0.9593376032
| 38> H -4.5779367068 3.1537571321 1.0025545548
| 39> H -3.6737725365 2.5152048316 3.2280256606
| 40> H -4.5501722594 1.1449148658 2.5209014889
| 41> H -2.7794555411 1.1737723258 2.4978511574
| 42> H -3.8956484549 -2.5758505728 1.2763708366
| 43> H -3.5961391041 -2.4060864788 -0.4791139083
| 44> H -1.7254624671 -3.6120845923 0.7062914315
| 45> H -1.1897889955 -2.1318837438 -0.0936904092
| 46> H -1.4303818247 -2.1506055642 1.6645984181
| 47> *
| 48>
| 49>                          ****END OF INPUT****

CARTESIAN COORDINATES (ANGSTROEM)
---------------------------------
  C      5.803671   -1.710650   -0.973161
  C      4.517875   -0.980764   -1.304095
  O      3.752801   -0.859151   -0.086784
  P      2.541089    0.160692    0.019588
  S      2.935134    2.017176   -0.451756
  O      2.074939    0.022451    1.513359
  C      1.721749   -1.236566    2.141366
  C      2.908499   -1.824982    2.875440
  S      1.042927   -0.774365   -1.182149
  C     -0.050146    0.661746   -1.262555
  S     -0.959395    0.940444    0.276884
  P     -2.928517    0.361480   -0.354302
  S     -3.112202   -0.180110   -2.225849
  O     -3.830875    1.611475   -0.029911
  C     -3.702062    2.510146    1.097157
  C     -3.677316    1.784987    2.424609
  O     -3.445444   -0.714648    0.696701
  C     -3.248942   -2.127243    0.520902
  C     -1.801135   -2.529641    0.715681
  H      6.395698   -1.814294   -1.876462
  H      6.371418   -1.150428   -0.235555
  H      5.581002   -2.696263   -0.575083
  H      3.917214   -1.535135   -2.030195
  H      4.714374    0.023470   -1.693843
  H      0.916684   -0.972563    2.829457
  H      1.350172   -1.922685    1.375120
  H      2.594521   -2.727645    3.390189
  H      3.701994   -2.068355    2.174306
  H      3.289113   -1.111391    3.600932
  H     -0.763838    0.480336   -2.070034
  H      0.558121    1.546432   -1.455153
  H     -2.792454    3.100851    0.959338
  H     -4.577937    3.153757    1.002555
  H     -3.673773    2.515205    3.228026
  H     -4.550172    1.144915    2.520901
  H     -2.779456    1.173772    2.497851
  H     -3.895648   -2.575851    1.276371
  H     -3.596139   -2.406086   -0.479114
  H     -1.725462   -3.612085    0.706291
  H     -1.189789   -2.131884   -0.093690
  H     -1.430382   -2.150606    1.664598

 Total Charge           Charge          ....    0
 Multiplicity           Mult            ....    1
 Number of Electrons    NEL             ....  202
 Basis Dimension        Dim             ....  334

ORBITAL ENERGIES
----------------

  NO   OCC          E(Eh)            E(eV)
   0   2.0000     -88.044827     -2395.8216
   1   2.0000     -88.044194     -2395.8043
   2   2.0000     -87.988683     -2394.2938
   3   2.0000     -87.986289     -2394.2286
   4   2.0000     -76.428301     -2079.7198
   5   2.0000     -76.427939     -2079.7100
   6   2.0000     -18.799965      -511.5731
   7   2.0000     -18.797128      -511.4958
   8   2.0000     -18.793134      -511.3872
   9   2.0000     -18.792454      -511.3687
  10   2.0000      -9.959740      -271.0183
  11   2.0000      -9.958838      -270.9937
  12   2.0000      -9.958481      -270.9840
  13   2.0000      -9.953936      -270.8604
  14   2.0000      -9.949046      -270.7273
  15   2.0000      -9.893487      -269.2155
  16   2.0000      -9.891592      -269.1639
  17   2.0000      -9.890120      -269.1238
  18   2.0000      -9.885969      -269.0109
  19   2.0000      -7.689385      -209.2388
  20   2.0000      -7.688652      -209.2189
  21   2.0000      -7.633842      -207.7274
  22   2.0000      -7.631584      -207.6660
  23   2.0000      -6.425853      -174.8564
  24   2.0000      -6.425801      -174.8549
  25   2.0000      -5.716923      -155.5654
  26   2.0000      -5.716427      -155.5519
  27   2.0000      -5.713963      -155.4848
  28   2.0000      -5.713181      -155.4636
  29   2.0000      -5.706733      -155.2881
  30   2.0000      -5.705824      -155.2634
  31   2.0000      -5.662745      -154.0911
  32   2.0000      -5.660594      -154.0326
  33   2.0000      -5.654535      -153.8677
  34   2.0000      -5.653892      -153.8502
  35   2.0000      -5.652095      -153.8013
  36   2.0000      -5.651725      -153.7912
  37   2.0000      -4.648773      -126.4995
  38   2.0000      -4.648441      -126.4905
  39   2.0000      -4.647612      -126.4679
  40   2.0000      -4.647465      -126.4640
  41   2.0000      -4.646302      -126.4323
  42   2.0000      -4.645906      -126.4215
  43   2.0000      -0.994265       -27.0553
  44   2.0000      -0.988280       -26.8925
  45   2.0000      -0.951981       -25.9047
  46   2.0000      -0.946980       -25.7686
  47   2.0000      -0.762794       -20.7567
  48   2.0000      -0.725109       -19.7312
  49   2.0000      -0.715696       -19.4751
  50   2.0000      -0.697563       -18.9817
  51   2.0000      -0.692972       -18.8567
  52   2.0000      -0.678966       -18.4756
  53   2.0000      -0.650980       -17.7141
  54   2.0000      -0.638913       -17.3857
  55   2.0000      -0.602351       -16.3908
  56   2.0000      -0.593189       -16.1415
  57   2.0000      -0.578731       -15.7481
  58   2.0000      -0.573836       -15.6149
  59   2.0000      -0.563644       -15.3375
  60   2.0000      -0.512299       -13.9404
  61   2.0000      -0.495805       -13.4915
  62   2.0000      -0.486675       -13.2431
  63   2.0000      -0.474480       -12.9113
  64   2.0000      -0.459402       -12.5010
  65   2.0000      -0.450558       -12.2603
  66   2.0000      -0.446997       -12.1634
  67   2.0000      -0.441292       -12.0082
  68   2.0000      -0.436685       -11.8828
  69   2.0000      -0.424490       -11.5509
  70   2.0000      -0.408080       -11.1044
  71   2.0000      -0.401386       -10.9223
  72   2.0000      -0.395649       -10.7662
  73   2.0000      -0.389525       -10.5995
  74   2.0000      -0.382362       -10.4046
  75   2.0000      -0.373075       -10.1519
  76   2.0000      -0.368244       -10.0204
  77   2.0000      -0.361731        -9.8432
  78   2.0000      -0.357591        -9.7305
  79   2.0000      -0.356861        -9.7107
  80   2.0000      -0.354948        -9.6586
  81   2.0000      -0.349941        -9.5224
  82   2.0000      -0.348133        -9.4732
  83   2.0000      -0.344597        -9.3770
  84   2.0000      -0.340004        -9.2520
  85   2.0000      -0.322647        -8.7797
  86   2.0000      -0.312501        -8.5036
  87   2.0000      -0.305491        -8.3128
  88   2.0000      -0.297933        -8.1072
  89   2.0000      -0.295869        -8.0510
  90   2.0000      -0.294366        -8.0101
  91   2.0000      -0.280498        -7.6327
  92   2.0000      -0.273376        -7.4389
  93   2.0000      -0.265706        -7.2302
  94   2.0000      -0.260304        -7.0832
  95   2.0000      -0.234363        -6.3773
  96   2.0000      -0.221886        -6.0378
  97   2.0000      -0.212683        -5.7874
  98   2.0000      -0.205092        -5.5809
  99   2.0000      -0.204465        -5.5638
 100   2.0000      -0.200190        -5.4474
 101   0.0000      -0.044302        -1.2055
 102   0.0000      -0.031690        -0.8623
 103   0.0000      -0.015334        -0.4173
 104   0.0000       0.004663         0.1269
 105   0.0000       0.013702         0.3728

MULLIKEN ATOMIC CHARGES
-----------------------
   0 C :   -0.283519
   1 C :   -0.013463
   2 O :   -0.384427
   3 P :    0.597256
   4 S :   -0.309285
   5 O :   -0.348032
   6 C :   -0.026814
   7 C :   -0.289281
   8 S :   -0.105849
   9 C :   -0.358250
  10 S :   -0.112035
  11 P :    0.598976
  12 S :   -0.307512
  13 O :   -0.358032
  14 C :   -0.004892
  15 C :   -0.316112
  16 O :   -0.373339
  17 C :    0.006045
  18 C :   -0.337831
  19 H :    0.115600
  20 H :    0.123532
  21 H :    0.116399
  22 H :    0.107062
  23 H :    0.110018
  24 H :    0.115279
  25 H :    0.114024
  26 H :    0.109667
  27 H :    0.123175
  28 H :    0.120642
  29 H :    0.194714
  30 H :    0.198162
  31 H :    0.118193
  32 H :    0.113747
  33 H :    0.117368
  34 H :    0.125606
  35 H :    0.123572
  36 H :    0.102917
  37 H :    0.113845
  38 H :    0.110364
  39 H :    0.136720
  40 H :    0.115788
Sum of atomic charges:    0.0000000

LOEWDIN ATOMIC CHARGES
----------------------
   0 C :   -0.350510
   1 C :   -0.119319
   2 O :   -0.248832
   3 P :    0.564313
   4 S :   -0.307164
   5 O :   -0.229820
   6 C :   -0.115244
   7 C :   -0.359890
   8 S :    0.074960
   9 C :   -0.490849
  10 S :    0.070889
  11 P :    0.571801
  12 S :   -0.299307
  13 O :   -0.235506
  14 C :   -0.113811
  15 C :   -0.366699
  16 O :   -0.243538
  17 C :   -0.117369
  18 C :   -0.373069
  19 H :    0.132794
  20 H :    0.130162
  21 H :    0.125747
  22 H :    0.110278
  23 H :    0.112050
  24 H :    0.120499
  25 H :    0.106504
  26 H :    0.129675
  27 H :    0.125947
  28 H :    0.129328
  29 H :    0.125750
  30 H :    0.127589
  31 H :    0.112717
  32 H :    0.124384
  33 H :    0.133282
  34 H :    0.130214
  35 H :    0.117272
  36 H :    0.117864
  37 H :    0.111885
  38 H :    0.129978
  39 H :    0.113636
  40 H :    0.121409

  Mayer bond orders larger than 0.100000
B(  0-C ,  1-C ) :   1.1600 B(  0-C , 19-H ) :   0.9414 B(  0-C , 20-H ) :   0.9507
B(  0-C , 21-H ) :   0.9508 B(  1-C ,  2-O ) :   0.9011 B(  1-C , 22-H ) :   0.9283
B(  1-C , 23-H ) :   0.9108 B(  2-O ,  3-P ) :   1.0827 B(  3-P ,  4-S ) :   1.6552
B(  3-P ,  5-O ) :   1.1504 B(  3-P ,  8-S ) :   0.9493 B(  4-S ,  8-S ) :   0.1088
B(  5-O ,  6-C ) :   0.8892 B(  6-C ,  7-C ) :   1.1607 B(  6-C , 24-H ) :   0.9325
B(  6-C , 25-H ) :   0.9093 B(  7-C , 26-H ) :   0.9398 B(  7-C , 27-H ) :   0.9401
B(  7-C , 28-H ) :   0.9464 B(  8-S ,  9-C ) :   1.0082 B(  9-C , 10-S ) :   1.0077
B(  9-C , 29-H ) :   0.8471 B(  9-C , 30-H ) :   0.8640 B( 10-S , 11-P ) :   0.9386
B( 10-S , 12-S ) :   0.1135 B( 11-P , 12-S ) :   1.6209 B( 11-P , 13-O ) :   1.1505
B( 11-P , 16-O ) :   1.0874 B( 12-S , 29-H ) :   0.1202 B( 13-O , 14-C ) :   0.9016
B( 14-C , 15-C ) :   1.1693 B( 14-C , 31-H ) :   0.9210 B( 14-C , 32-H ) :   0.9334
B( 15-C , 33-H ) :   0.9348 B( 15-C , 34-H ) :   0.9424 B( 15-C , 35-H ) :   0.9373
B( 16-O , 17-C ) :   0.9134 B( 17-C , 18-C ) :   1.1609 B( 17-C , 36-H ) :   0.9332
B( 17-C , 37-H ) :   0.9144 B( 18-C , 38-H ) :   0.9376 B( 18-C , 39-H ) :   0.9261
B( 18-C , 40-H ) :   0.9418

Dispersion correction           -0.062731657
FINAL SINGLE POINT ENERGY     -2929.518469936012

DIPOLE MOMENT
-------------

Method             : SCF
Type of density    : Electron Density
Multiplicity       :   1
Irrep              :   0
Energy             : -2929.6407406202074526 Eh
Relativity type    :
Basis              : AO
                                X                 Y                 Z
Electronic contribution:     -7.896388061      13.972319872     -14.751418697
Nuclear contribution   :      8.222382625     -15.287227727      16.117020404
                        -----------------------------------------
Total Dipole Moment    :      0.325994564      -1.314907855       1.365601707
                        -----------------------------------------
Magnitude (a.u.)       :      1.923570415
Magnitude (Debye)      :      4.889327435

Rotational constants in cm-1:             0.012984             0.004128             0.004083
Rotational constants in MHz :           389.256555           123.745518           122.410629

                             ****ORCA TERMINATED NORMALLY****
TOTAL RUN TIME: 0 days 0 hours 0 minutes 20 seconds 947 msec
