                         Program Version 6.0.0  -   RELEASE  -
|  1> ! pbe def2-sv(p) def2/J RI DEFGRID1 loosescf d4 GCP(DFT/SV(P)) printgap
|  2> %output
|  3>     printlevel normal
|  4> end
|  5> * xyz 0 1
|  6> C 4.0795622086 -0.3138855203 -2.2661867781
|  7> C 4.3550748485 -0.5669701595 -0.7972878743
|  8> O 3.144014184 -0.7066936604 -0.0389683842
|  9> P 2.1895940359 0.5395877984 0.2598241238
| 10> S 3.111956197 2.2393685415 0.5665420875
| 11> O 1.3089377836 -0.0086700275 1.4571342942
| 12> C 1.7104986775 0.1501278865 2.8349971676
| 13> C 2.9491329559 -0.6559300222 3.1626409435
| 14> S 0.7348691385 0.5113266882 -1.2787785995
| 15> C 0.2228196952 -1.2289073781 -1.1434503288
| 16> S -0.952359553 -1.5449949455 0.1945451854
| 17> P -2.4606676951 -0.2043205244 -0.4816488401
| 18> S -2.6848125876 -0.0644602736 -2.4189112155
| 19> O -2.1345863514 1.2175588655 0.1222924014
| 20> C -1.9481089794 1.4569856121 1.5382851027
| 21> C -1.0895892683 2.6950343337 1.6957082553
| 22> O -3.7166591869 -0.6211164445 0.4013623309
| 23> C -4.2299082879 -1.9598098704 0.547035405
| 24> C -4.5262812715 -2.624316179 -0.7806482622
| 25> H 3.458431285 -1.1027413112 -2.6829633538
| 26> H 3.5647501432 0.6391451557 -2.3885413519
| 27> H 5.0197232536 -0.2757002456 -2.807010941
| 28> H 4.9369480762 0.2571758137 -0.3721102558
| 29> H 4.8779347122 -1.5115340355 -0.6410106359
| 30> H 1.880458071 1.2146723649 3.0237463885
| 31> H 0.8436232907 -0.1969003974 3.3990218128
| 32> H 2.8087522227 -1.6946270573 2.8753417844
| 33> H 3.8071445926 -0.2523168127 2.6270172556
| 34> H 3.1419328683 -0.5982972517 4.2293490281
| 35> H 1.0894105286 -1.8578262116 -0.9558248802
| 36> H -0.2524223268 -1.4640555024 -2.0953201204
| 37> H -2.9353624887 1.5957603239 1.9827124093
| 38> H -1.4693747478 0.5788106166 1.9830894041
| 39> H -1.5568267279 3.5379622907 1.194685758
| 40> H -0.9730417606 2.9205509553 2.7508865501
| 41> H -0.1068233891 2.5385122876 1.2531916497
| 42> H -3.5008483503 -2.5421396365 1.1171454438
| 43> H -5.1382369298 -1.821443937 1.1360849671
| 44> H -4.9876413707 -3.5906866641 -0.6048535784
| 45> H -5.1967529898 -2.0063824144 -1.3731484702
| 46> H -3.6054727379 -2.7659876937 -1.3442835464
| 47> *
| 48>
| 49>                          ****END OF INPUT****

CARTESIAN COORDINATES (ANGSTROEM)
---------------------------------
  C      4.079562   -0.313886   -2.266187
  C      4.355075   -0.566970   -0.797288
  O      3.144014   -0.706694   -0.038968
  P      2.189594    0.539588    0.259824
  S      3.111956    2.239369    0.566542
  O      1.308938   -0.008670    1.457134
  C      1.710499    0.150128    2.834997
  C      2.949133   -0.655930    3.162641
  S      0.734869    0.511327   -1.278779
  C      0.222820   -1.228907   -1.143450
  S     -0.952360   -1.544995    0.194545
  P     -2.460668   -0.204321   -0.481649
  S     -2.684813   -0.064460   -2.418911
  O     -2.134586    1.217559    0.122292
  C     -1.948109    1.456986    1.538285
  C     -1.089589    2.695034    1.695708
  O     -3.716659   -0.621116    0.401362
  C     -4.229908   -1.959810    0.547035
  C     -4.526281   -2.624316   -0.780648
  H      3.458431   -1.102741   -2.682963
  H      3.564750    0.639145   -2.388541
  H      5.019723   -0.275700   -2.807011
  H      4.936948    0.257176   -0.372110
  H      4.877935   -1.511534   -0.641011
  H      1.880458    1.214672    3.023746
  H      0.843623   -0.196900    3.399022
  H      2.808752   -1.694627    2.875342
  H      3.807145   -0.252317    2.627017
  H      3.141933   -0.598297    4.229349
  H      1.089411   -1.857826   -0.955825
  H     -0.252422   -1.464056   -2.095320
  H     -2.935362    1.595760    1.982712
  H     -1.469375    0.578811    1.983089
  H     -1.556827    3.537962    1.194686
  H     -0.973042    2.920551    2.750887
  H     -0.106823    2.538512    1.253192
  H     -3.500848   -2.542140    1.117145
  H     -5.138237   -1.821444    1.136085
  H     -4.987641   -3.590687   -0.604854
  H     -5.196753   -2.006382   -1.373148
  H     -3.605473   -2.765988   -1.344284

 Total Charge           Charge          ....    0
 Multiplicity           Mult            ....    1
 Number of Electrons    NEL             ....  202
 Basis Dimension        Dim             ....  334

ORBITAL ENERGIES
----------------

  NO   OCC          E(Eh)            E(eV)
   0   2.0000     -88.043592     -2395.7879
   1   2.0000     -88.043015     -2395.7722
   2   2.0000     -87.993999     -2394.4385
   3   2.0000     -87.981588     -2394.1007
   4   2.0000     -76.430132     -2079.7696
   5   2.0000     -76.424704     -2079.6219
   6   2.0000     -18.798401      -511.5305
   7   2.0000     -18.795510      -511.4518
   8   2.0000     -18.794335      -511.4199
   9   2.0000     -18.785251      -511.1727
  10   2.0000      -9.959472      -271.0110
  11   2.0000      -9.958799      -270.9927
  12   2.0000      -9.958397      -270.9818
  13   2.0000      -9.956615      -270.9333
  14   2.0000      -9.948350      -270.7084
  15   2.0000      -9.889925      -269.1185
  16   2.0000      -9.887346      -269.0484
  17   2.0000      -9.883767      -268.9510
  18   2.0000      -9.878475      -268.8070
  19   2.0000      -7.688346      -209.2105
  20   2.0000      -7.687976      -209.2005
  21   2.0000      -7.638984      -207.8673
  22   2.0000      -7.626925      -207.5392
  23   2.0000      -6.427654      -174.9054
  24   2.0000      -6.421688      -174.7430
  25   2.0000      -5.716644      -155.5578
  26   2.0000      -5.715676      -155.5315
  27   2.0000      -5.712767      -155.4523
  28   2.0000      -5.712441      -155.4434
  29   2.0000      -5.705170      -155.2456
  30   2.0000      -5.705016      -155.2414
  31   2.0000      -5.667884      -154.2310
  32   2.0000      -5.659582      -154.0051
  33   2.0000      -5.659229      -153.9954
  34   2.0000      -5.656011      -153.9079
  35   2.0000      -5.647457      -153.6751
  36   2.0000      -5.646977      -153.6621
  37   2.0000      -4.650055      -126.5344
  38   2.0000      -4.649643      -126.5232
  39   2.0000      -4.648058      -126.4801
  40   2.0000      -4.644504      -126.3834
  41   2.0000      -4.643772      -126.3634
  42   2.0000      -4.641739      -126.3081
  43   2.0000      -0.992116       -26.9968
  44   2.0000      -0.985721       -26.8228
  45   2.0000      -0.951479       -25.8911
  46   2.0000      -0.940888       -25.6029
  47   2.0000      -0.765433       -20.8285
  48   2.0000      -0.723020       -19.6744
  49   2.0000      -0.710670       -19.3383
  50   2.0000      -0.691960       -18.8292
  51   2.0000      -0.687926       -18.7194
  52   2.0000      -0.677350       -18.4316
  53   2.0000      -0.655248       -17.8302
  54   2.0000      -0.638830       -17.3834
  55   2.0000      -0.603143       -16.4124
  56   2.0000      -0.588446       -16.0124
  57   2.0000      -0.577786       -15.7223
  58   2.0000      -0.570176       -15.5153
  59   2.0000      -0.564317       -15.3558
  60   2.0000      -0.505587       -13.7577
  61   2.0000      -0.497873       -13.5478
  62   2.0000      -0.478740       -13.0272
  63   2.0000      -0.473084       -12.8733
  64   2.0000      -0.464551       -12.6411
  65   2.0000      -0.447236       -12.1699
  66   2.0000      -0.445017       -12.1095
  67   2.0000      -0.434418       -11.8211
  68   2.0000      -0.429312       -11.6822
  69   2.0000      -0.418371       -11.3845
  70   2.0000      -0.414398       -11.2763
  71   2.0000      -0.402258       -10.9460
  72   2.0000      -0.399517       -10.8714
  73   2.0000      -0.392613       -10.6835
  74   2.0000      -0.382452       -10.4071
  75   2.0000      -0.372511       -10.1365
  76   2.0000      -0.363995        -9.9048
  77   2.0000      -0.358851        -9.7648
  78   2.0000      -0.353559        -9.6208
  79   2.0000      -0.350134        -9.5276
  80   2.0000      -0.348274        -9.4770
  81   2.0000      -0.346428        -9.4268
  82   2.0000      -0.342132        -9.3099
  83   2.0000      -0.336438        -9.1549
  84   2.0000      -0.331624        -9.0239
  85   2.0000      -0.325266        -8.8509
  86   2.0000      -0.315677        -8.5900
  87   2.0000      -0.299230        -8.1425
  88   2.0000      -0.296878        -8.0785
  89   2.0000      -0.295171        -8.0320
  90   2.0000      -0.290735        -7.9113
  91   2.0000      -0.279082        -7.5942
  92   2.0000      -0.271889        -7.3985
  93   2.0000      -0.269046        -7.3211
  94   2.0000      -0.257522        -7.0075
  95   2.0000      -0.231618        -6.3026
  96   2.0000      -0.219189        -5.9644
  97   2.0000      -0.212724        -5.7885
  98   2.0000      -0.209321        -5.6959
  99   2.0000      -0.199886        -5.4392
 100   2.0000      -0.196376        -5.3437
 101   0.0000      -0.042264        -1.1501
 102   0.0000      -0.026455        -0.7199
 103   0.0000      -0.011221        -0.3054
 104   0.0000      -0.000239        -0.0065
 105   0.0000       0.007611         0.2071

MULLIKEN ATOMIC CHARGES
-----------------------
   0 C :   -0.310798
   1 C :   -0.010243
   2 O :   -0.380088
   3 P :    0.596885
   4 S :   -0.315121
   5 O :   -0.371517
   6 C :   -0.012503
   7 C :   -0.302222
   8 S :   -0.036874
   9 C :   -0.358372
  10 S :   -0.102622
  11 P :    0.595820
  12 S :   -0.308586
  13 O :   -0.349287
  14 C :   -0.015011
  15 C :   -0.292554
  16 O :   -0.382864
  17 C :   -0.010189
  18 C :   -0.307728
  19 H :    0.114516
  20 H :    0.131091
  21 H :    0.114656
  22 H :    0.112859
  23 H :    0.104987
  24 H :    0.114326
  25 H :    0.106704
  26 H :    0.117145
  27 H :    0.123906
  28 H :    0.113072
  29 H :    0.182680
  30 H :    0.195756
  31 H :    0.102977
  32 H :    0.104484
  33 H :    0.119958
  34 H :    0.102022
  35 H :    0.131479
  36 H :    0.110163
  37 H :    0.108722
  38 H :    0.110382
  39 H :    0.128164
  40 H :    0.123826
Sum of atomic charges:    0.0000000

LOEWDIN ATOMIC CHARGES
----------------------
   0 C :   -0.366583
   1 C :   -0.122570
   2 O :   -0.248323
   3 P :    0.565824
   4 S :   -0.315502
   5 O :   -0.242314
   6 C :   -0.116525
   7 C :   -0.364318
   8 S :    0.116815
   9 C :   -0.480042
  10 S :    0.070362
  11 P :    0.564763
  12 S :   -0.309179
  13 O :   -0.232034
  14 C :   -0.117101
  15 C :   -0.354404
  16 O :   -0.248360
  17 C :   -0.114560
  18 C :   -0.369078
  19 H :    0.123653
  20 H :    0.123652
  21 H :    0.131955
  22 H :    0.110044
  23 H :    0.117969
  24 H :    0.112383
  25 H :    0.116761
  26 H :    0.126750
  27 H :    0.123285
  28 H :    0.131267
  29 H :    0.130623
  30 H :    0.133818
  31 H :    0.112722
  32 H :    0.101081
  33 H :    0.130098
  34 H :    0.126081
  35 H :    0.121597
  36 H :    0.106918
  37 H :    0.121022
  38 H :    0.129594
  39 H :    0.131147
  40 H :    0.120711

  Mayer bond orders larger than 0.100000
B(  0-C ,  1-C ) :   1.1642 B(  0-C , 19-H ) :   0.9469 B(  0-C , 20-H ) :   0.9350
B(  0-C , 21-H ) :   0.9384 B(  1-C ,  2-O ) :   0.9077 B(  1-C , 22-H ) :   0.9134
B(  1-C , 23-H ) :   0.9338 B(  2-O ,  3-P ) :   1.0632 B(  3-P ,  4-S ) :   1.6184
B(  3-P ,  5-O ) :   1.1045 B(  3-P ,  8-S ) :   0.9801 B(  5-O ,  6-C ) :   0.9039
B(  6-C ,  7-C ) :   1.1685 B(  6-C , 24-H ) :   0.9177 B(  6-C , 25-H ) :   0.9298
B(  7-C , 26-H ) :   0.9457 B(  7-C , 27-H ) :   0.9369 B(  7-C , 28-H ) :   0.9376
B(  8-S ,  9-C ) :   0.9921 B(  9-C , 10-S ) :   0.9998 B(  9-C , 29-H ) :   0.8914
B(  9-C , 30-H ) :   0.8835 B( 10-S , 11-P ) :   0.9505 B( 10-S , 12-S ) :   0.1104
B( 11-P , 12-S ) :   1.6429 B( 11-P , 13-O ) :   1.1351 B( 11-P , 16-O ) :   1.0843
B( 13-O , 14-C ) :   0.8903 B( 14-C , 15-C ) :   1.1660 B( 14-C , 31-H ) :   0.9306
B( 14-C , 32-H ) :   0.9089 B( 15-C , 33-H ) :   0.9473 B( 15-C , 34-H ) :   0.9401
B( 15-C , 35-H ) :   0.9320 B( 16-O , 17-C ) :   0.9157 B( 17-C , 18-C ) :   1.1666
B( 17-C , 36-H ) :   0.9267 B( 17-C , 37-H ) :   0.9335 B( 18-C , 38-H ) :   0.9349
B( 18-C , 39-H ) :   0.9431 B( 18-C , 40-H ) :   0.9323

Dispersion correction           -0.066654456
FINAL SINGLE POINT ENERGY     -2929.520639769022

DIPOLE MOMENT
-------------

Method             : SCF
Type of density    : Electron Density
Multiplicity       :   1
Irrep              :   0
Energy             : -2929.6402419214896327 Eh
Relativity type    :
Basis              : AO
                                X                 Y                 Z
Electronic contribution:     -5.179310759       6.635911752     -10.389846672
Nuclear contribution   :      5.568922487      -8.213173127      11.858239854
                        -----------------------------------------
Total Dipole Moment    :      0.389611728      -1.577261375       1.468393182
                        -----------------------------------------
Magnitude (a.u.)       :      2.189915360
Magnitude (Debye)      :      5.566322481

Rotational constants in cm-1:             0.012940             0.004982             0.004611
Rotational constants in MHz :           387.932264           149.370098           138.226320

                             ****ORCA TERMINATED NORMALLY****
TOTAL RUN TIME: 0 days 0 hours 0 minutes 21 seconds 420 msec
