                         Program Version 6.0.0  -   RELEASE  -
|  1> ! pbe def2-sv(p) def2/J RI DEFGRID1 loosescf d4 GCP(DFT/SV(P)) printgap
|  2> %output
|  3>     printlevel normal
|  4> end
|  5> * xyz 0 1
|  6> C -1.817790067 -0.04242058 -0.3598542091
|  7> C -1.0510628863 1.2885022548 -0.2545573732
|  8> C 0.2708599028 1.1585457616 0.5134467427
|  9> C 1.0755684467 -0.0121479836 0.0299381634
| 10> O 2.2531080909 0.0721434282 -0.2706513633
| 11> C 0.3133321494 -1.3059315376 -0.0501744038
| 12> C -1.1289222224 -1.1624772322 0.416612732
| 13> H -1.8865967601 -0.3417270119 -1.4068663406
| 14> H -2.8353207036 0.0803913831 0.0108588317
| 15> H -0.8308718318 1.6666802211 -1.2536788457
| 16> H -1.6601773814 2.0393004972 0.2487857669
| 17> H 0.8603885365 2.0717127442 0.4228073639
| 18> H 0.063834458 0.9887666623 1.5722680585
| 19> H 0.3486189944 -1.6401454891 -1.0908204441
| 20> H 0.8526772176 -2.0557556765 0.533041727
| 21> H -1.6603170761 -2.1006851633 0.2538073225
| 22> H -1.1562768329 -0.9489038175 1.4857367043
| 23> *
| 24>
| 25>                          ****END OF INPUT****

CARTESIAN COORDINATES (ANGSTROEM)
---------------------------------
  C     -1.817790   -0.042421   -0.359854
  C     -1.051063    1.288502   -0.254557
  C      0.270860    1.158546    0.513447
  C      1.075568   -0.012148    0.029938
  O      2.253108    0.072143   -0.270651
  C      0.313332   -1.305932   -0.050174
  C     -1.128922   -1.162477    0.416613
  H     -1.886597   -0.341727   -1.406866
  H     -2.835321    0.080391    0.010859
  H     -0.830872    1.666680   -1.253679
  H     -1.660177    2.039300    0.248786
  H      0.860389    2.071713    0.422807
  H      0.063834    0.988767    1.572268
  H      0.348619   -1.640145   -1.090820
  H      0.852677   -2.055756    0.533042
  H     -1.660317   -2.100685    0.253807
  H     -1.156277   -0.948904    1.485737

 Total Charge           Charge          ....    0
 Multiplicity           Mult            ....    1
 Number of Electrons    NEL             ....   54
 Basis Dimension        Dim             ....  118

ORBITAL ENERGIES
----------------

  NO   OCC          E(Eh)            E(eV)
   0   2.0000     -18.729096      -509.6446
   1   2.0000      -9.968024      -271.2437
   2   2.0000      -9.897881      -269.3350
   3   2.0000      -9.896194      -269.2891
   4   2.0000      -9.893899      -269.2267
   5   2.0000      -9.892743      -269.1952
   6   2.0000      -9.891659      -269.1657
   7   2.0000      -0.926685       -25.2164
   8   2.0000      -0.759755       -20.6740
   9   2.0000      -0.682226       -18.5643
  10   2.0000      -0.653658       -17.7869
  11   2.0000      -0.570421       -15.5219
  12   2.0000      -0.526381       -14.3235
  13   2.0000      -0.463345       -12.6083
  14   2.0000      -0.451541       -12.2871
  15   2.0000      -0.420366       -11.4387
  16   2.0000      -0.401585       -10.9277
  17   2.0000      -0.372537       -10.1372
  18   2.0000      -0.369929       -10.0663
  19   2.0000      -0.351036        -9.5522
  20   2.0000      -0.345186        -9.3930
  21   2.0000      -0.334989        -9.1155
  22   2.0000      -0.318042        -8.6544
  23   2.0000      -0.292998        -7.9729
  24   2.0000      -0.284571        -7.7436
  25   2.0000      -0.278189        -7.5699
  26   2.0000      -0.187113        -5.0916
  27   0.0000      -0.049589        -1.3494
  28   0.0000       0.022605         0.6151
  29   0.0000       0.049724         1.3530
  30   0.0000       0.068943         1.8760
  31   0.0000       0.075446         2.0530

MULLIKEN ATOMIC CHARGES
-----------------------
   0 C :   -0.163274
   1 C :   -0.174893
   2 C :   -0.106242
   3 C :   -0.042171
   4 O :   -0.173262
   5 C :   -0.159892
   6 C :   -0.144951
   7 H :    0.083466
   8 H :    0.090346
   9 H :    0.096369
  10 H :    0.092188
  11 H :    0.094019
  12 H :    0.102085
  13 H :    0.112381
  14 H :    0.118466
  15 H :    0.092202
  16 H :    0.083163
Sum of atomic charges:    0.0000000

LOEWDIN ATOMIC CHARGES
----------------------
   0 C :   -0.231380
   1 C :   -0.224661
   2 C :   -0.249788
   3 C :    0.040294
   4 O :   -0.137204
   5 C :   -0.252477
   6 C :   -0.230776
   7 H :    0.119195
   8 H :    0.121475
   9 H :    0.123388
  10 H :    0.123978
  11 H :    0.131676
  12 H :    0.138899
  13 H :    0.143388
  14 H :    0.143915
  15 H :    0.122852
  16 H :    0.117227

  Mayer bond orders larger than 0.100000
B(  0-C ,  1-C ) :   1.1213 B(  0-C ,  6-C ) :   1.1771 B(  0-C ,  7-H ) :   0.9203
B(  0-C ,  8-H ) :   0.9199 B(  1-C ,  2-C ) :   1.1461 B(  1-C ,  9-H ) :   0.9244
B(  1-C , 10-H ) :   0.9156 B(  2-C ,  3-C ) :   1.0720 B(  2-C , 11-H ) :   0.8987
B(  2-C , 12-H ) :   0.8710 B(  3-C ,  4-O ) :   2.1775 B(  3-C ,  5-C ) :   0.9959
B(  5-C ,  6-C ) :   1.1253 B(  5-C , 13-H ) :   0.8907 B(  5-C , 14-H ) :   0.8929
B(  6-C , 15-H ) :   0.9139 B(  6-C , 16-H ) :   0.9011

Dispersion correction           -0.014720283
FINAL SINGLE POINT ENERGY      -309.175416152579

DIPOLE MOMENT
-------------

Method             : SCF
Type of density    : Electron Density
Multiplicity       :   1
Irrep              :   0
Energy             :  -309.2330157353596292 Eh
Relativity type    :
Basis              : AO
                                X                 Y                 Z
Electronic contribution:      6.272412123       0.116793760      -0.480070263
Nuclear contribution   :     -7.381901368      -0.224433370       0.723948206
                        -----------------------------------------
Total Dipole Moment    :     -1.109489245      -0.107639609       0.243877943
                        -----------------------------------------
Magnitude (a.u.)       :      1.141064907
Magnitude (Debye)      :      2.900356498

Rotational constants in cm-1:             0.144702             0.082151             0.059353
Rotational constants in MHz :          4338.057137          2462.810120          1779.349040

                             ****ORCA TERMINATED NORMALLY****
TOTAL RUN TIME: 0 days 0 hours 0 minutes 7 seconds 763 msec
