                         Program Version 6.0.0  -   RELEASE  -
|  1> ! pbe def2-sv(p) def2/J RI DEFGRID1 loosescf d4 GCP(DFT/SV(P)) printgap
|  2> %output
|  3>     printlevel normal
|  4> end
|  5> * xyz 0 1
|  6> C 4.5487647729 -1.5954193615 -0.5153000491
|  7> C 4.57471865 -0.1185710962 -0.1774307297
|  8> O 3.3914931736 0.302342297 0.5219210193
|  9> P 1.9582356328 0.3564258547 -0.1684163337
| 10> S 1.9843561048 0.9292930434 -2.0472633571
| 11> O 1.1591786405 1.2478040139 0.8677565146
| 12> C 1.1040510866 2.6825049176 0.7776703332
| 13> C 2.4517844862 3.3224369527 1.0328561995
| 14> S 1.1632169963 -1.5408428003 0.2628375972
| 15> C -0.005224166 -1.7470192694 -1.1254905365
| 16> S -1.6965818971 -2.0323213752 -0.5688401594
| 17> P -2.1111771809 -0.0555550126 0.0960508525
| 18> S -1.5258983422 1.3843003388 -1.0947757518
| 19> O -1.4512366205 0.1229342477 1.5149461277
| 20> C -1.7002432594 -0.7793095464 2.6258271855
| 21> C -0.5448519121 -0.6520430955 3.5962451199
| 22> O -3.6518460495 -0.1292063751 0.4765188343
| 23> C -4.6932615872 -0.6714191089 -0.3586009274
| 24> C -4.7284429822 -0.0434046503 -1.7357057653
| 25> H 3.7789707418 -1.7922414122 -1.260202652
| 26> H 5.5123047026 -1.8863209256 -0.921187638
| 27> H 4.3370351403 -2.1837269414 0.3738973937
| 28> H 4.6675719815 0.4804592846 -1.0891307135
| 29> H 5.3847455436 0.1232436467 0.5119522266
| 30> H 0.7209073464 2.952735877 -0.2125758146
| 31> H 0.3674168382 2.9603801115 1.5334449788
| 32> H 3.1403239144 3.0699510908 0.227306997
| 33> H 2.3335009362 4.4008714998 1.0700835914
| 34> H 2.8627641899 2.9670261358 1.9742022191
| 35> H 0.2828496074 -2.6350370886 -1.6819474367
| 36> H 0.0347991274 -0.8537425959 -1.75548114
| 37> H -2.6472230546 -0.4847397192 3.0815872431
| 38> H -1.7837225708 -1.7990520071 2.2378754697
| 39> H -0.7170908046 -1.3102778805 4.4415809057
| 40> H 0.3864880262 -0.9296597412 3.1084986546
| 41> H -0.4616251156 0.3728946596 3.9462082975
| 42> H -4.5425014104 -1.7519346265 -0.429634771
| 43> H -5.6055577577 -0.4579604658 0.2010637279
| 44> H -3.8129342223 -0.274849019 -2.2786246378
| 45> H -5.5760651784 -0.4342032876 -2.2892075564
| 46> H -4.815037957 1.0379996003 -1.6586199193
| 47> *
| 48>
| 49>                          ****END OF INPUT****

CARTESIAN COORDINATES (ANGSTROEM)
---------------------------------
  C      4.548765   -1.595419   -0.515300
  C      4.574719   -0.118571   -0.177431
  O      3.391493    0.302342    0.521921
  P      1.958236    0.356426   -0.168416
  S      1.984356    0.929293   -2.047263
  O      1.159179    1.247804    0.867757
  C      1.104051    2.682505    0.777670
  C      2.451784    3.322437    1.032856
  S      1.163217   -1.540843    0.262838
  C     -0.005224   -1.747019   -1.125491
  S     -1.696582   -2.032321   -0.568840
  P     -2.111177   -0.055555    0.096051
  S     -1.525898    1.384300   -1.094776
  O     -1.451237    0.122934    1.514946
  C     -1.700243   -0.779310    2.625827
  C     -0.544852   -0.652043    3.596245
  O     -3.651846   -0.129206    0.476519
  C     -4.693262   -0.671419   -0.358601
  C     -4.728443   -0.043405   -1.735706
  H      3.778971   -1.792241   -1.260203
  H      5.512305   -1.886321   -0.921188
  H      4.337035   -2.183727    0.373897
  H      4.667572    0.480459   -1.089131
  H      5.384746    0.123244    0.511952
  H      0.720907    2.952736   -0.212576
  H      0.367417    2.960380    1.533445
  H      3.140324    3.069951    0.227307
  H      2.333501    4.400871    1.070084
  H      2.862764    2.967026    1.974202
  H      0.282850   -2.635037   -1.681947
  H      0.034799   -0.853743   -1.755481
  H     -2.647223   -0.484740    3.081587
  H     -1.783723   -1.799052    2.237875
  H     -0.717091   -1.310278    4.441581
  H      0.386488   -0.929660    3.108499
  H     -0.461625    0.372895    3.946208
  H     -4.542501   -1.751935   -0.429635
  H     -5.605558   -0.457960    0.201064
  H     -3.812934   -0.274849   -2.278625
  H     -5.576065   -0.434203   -2.289208
  H     -4.815038    1.038000   -1.658620

 Total Charge           Charge          ....    0
 Multiplicity           Mult            ....    1
 Number of Electrons    NEL             ....  202
 Basis Dimension        Dim             ....  334

ORBITAL ENERGIES
----------------

  NO   OCC          E(Eh)            E(eV)
   0   2.0000     -88.046735     -2395.8735
   1   2.0000     -88.041423     -2395.7289
   2   2.0000     -87.982804     -2394.1338
   3   2.0000     -87.978401     -2394.0140
   4   2.0000     -76.423214     -2079.5814
   5   2.0000     -76.420962     -2079.5201
   6   2.0000     -18.794327      -511.4196
   7   2.0000     -18.788437      -511.2594
   8   2.0000     -18.786115      -511.1962
   9   2.0000     -18.778693      -510.9942
  10   2.0000      -9.959721      -271.0178
  11   2.0000      -9.956319      -270.9252
  12   2.0000      -9.950036      -270.7542
  13   2.0000      -9.948755      -270.7194
  14   2.0000      -9.937539      -270.4142
  15   2.0000      -9.882950      -268.9287
  16   2.0000      -9.881477      -268.8887
  17   2.0000      -9.881372      -268.8858
  18   2.0000      -9.875312      -268.7209
  19   2.0000      -7.691792      -209.3043
  20   2.0000      -7.686531      -209.1611
  21   2.0000      -7.627658      -207.5591
  22   2.0000      -7.623358      -207.4421
  23   2.0000      -6.420533      -174.7116
  24   2.0000      -6.418512      -174.6566
  25   2.0000      -5.719492      -155.6353
  26   2.0000      -5.716066      -155.5421
  27   2.0000      -5.714405      -155.4969
  28   2.0000      -5.711077      -155.4063
  29   2.0000      -5.709186      -155.3549
  30   2.0000      -5.703380      -155.1969
  31   2.0000      -5.656549      -153.9225
  32   2.0000      -5.652463      -153.8113
  33   2.0000      -5.648464      -153.7025
  34   2.0000      -5.647695      -153.6816
  35   2.0000      -5.643859      -153.5772
  36   2.0000      -5.643429      -153.5655
  37   2.0000      -4.643333      -126.3515
  38   2.0000      -4.642659      -126.3332
  39   2.0000      -4.640760      -126.2815
  40   2.0000      -4.640465      -126.2735
  41   2.0000      -4.640146      -126.2648
  42   2.0000      -4.639392      -126.2443
  43   2.0000      -0.986560       -26.8456
  44   2.0000      -0.979998       -26.6671
  45   2.0000      -0.942041       -25.6342
  46   2.0000      -0.937364       -25.5070
  47   2.0000      -0.763488       -20.7756
  48   2.0000      -0.719189       -19.5701
  49   2.0000      -0.707132       -19.2420
  50   2.0000      -0.688717       -18.7410
  51   2.0000      -0.682525       -18.5724
  52   2.0000      -0.672274       -18.2935
  53   2.0000      -0.648223       -17.6391
  54   2.0000      -0.632886       -17.2217
  55   2.0000      -0.598199       -16.2778
  56   2.0000      -0.586615       -15.9626
  57   2.0000      -0.567924       -15.4540
  58   2.0000      -0.565487       -15.3877
  59   2.0000      -0.563090       -15.3225
  60   2.0000      -0.505036       -13.7427
  61   2.0000      -0.486193       -13.2300
  62   2.0000      -0.473465       -12.8836
  63   2.0000      -0.465513       -12.6673
  64   2.0000      -0.454155       -12.3582
  65   2.0000      -0.445189       -12.1142
  66   2.0000      -0.434726       -11.8295
  67   2.0000      -0.432782       -11.7766
  68   2.0000      -0.428984       -11.6733
  69   2.0000      -0.415880       -11.3167
  70   2.0000      -0.412329       -11.2200
  71   2.0000      -0.397207       -10.8085
  72   2.0000      -0.385854       -10.4996
  73   2.0000      -0.384956       -10.4752
  74   2.0000      -0.381314       -10.3761
  75   2.0000      -0.377465       -10.2714
  76   2.0000      -0.355695        -9.6790
  77   2.0000      -0.350792        -9.5455
  78   2.0000      -0.348839        -9.4924
  79   2.0000      -0.346001        -9.4152
  80   2.0000      -0.343134        -9.3372
  81   2.0000      -0.341682        -9.2976
  82   2.0000      -0.336752        -9.1635
  83   2.0000      -0.335270        -9.1232
  84   2.0000      -0.331868        -9.0306
  85   2.0000      -0.317691        -8.6448
  86   2.0000      -0.306795        -8.3483
  87   2.0000      -0.296778        -8.0757
  88   2.0000      -0.294025        -8.0008
  89   2.0000      -0.290431        -7.9030
  90   2.0000      -0.275427        -7.4947
  91   2.0000      -0.270210        -7.3528
  92   2.0000      -0.264735        -7.2038
  93   2.0000      -0.263152        -7.1607
  94   2.0000      -0.255027        -6.9396
  95   2.0000      -0.238782        -6.4976
  96   2.0000      -0.219588        -5.9753
  97   2.0000      -0.212213        -5.7746
  98   2.0000      -0.201501        -5.4831
  99   2.0000      -0.192139        -5.2284
 100   2.0000      -0.184157        -5.0112
 101   0.0000      -0.040230        -1.0947
 102   0.0000      -0.030561        -0.8316
 103   0.0000      -0.012886        -0.3507
 104   0.0000       0.013744         0.3740
 105   0.0000       0.021857         0.5948

MULLIKEN ATOMIC CHARGES
-----------------------
   0 C :   -0.308789
   1 C :   -0.003589
   2 O :   -0.375793
   3 P :    0.615131
   4 S :   -0.319782
   5 O :   -0.350712
   6 C :   -0.002160
   7 C :   -0.302039
   8 S :   -0.095104
   9 C :   -0.352593
  10 S :   -0.119544
  11 P :    0.590579
  12 S :   -0.292766
  13 O :   -0.344387
  14 C :   -0.009955
  15 C :   -0.278350
  16 O :   -0.382353
  17 C :   -0.014023
  18 C :   -0.307959
  19 H :    0.120560
  20 H :    0.110973
  21 H :    0.116000
  22 H :    0.109207
  23 H :    0.103316
  24 H :    0.121789
  25 H :    0.101873
  26 H :    0.118783
  27 H :    0.108996
  28 H :    0.111864
  29 H :    0.182719
  30 H :    0.212982
  31 H :    0.104222
  32 H :    0.096540
  33 H :    0.104318
  34 H :    0.125845
  35 H :    0.115532
  36 H :    0.113285
  37 H :    0.109471
  38 H :    0.127482
  39 H :    0.110826
  40 H :    0.127603
Sum of atomic charges:    0.0000000

LOEWDIN ATOMIC CHARGES
----------------------
   0 C :   -0.369262
   1 C :   -0.120280
   2 O :   -0.246002
   3 P :    0.572418
   4 S :   -0.312337
   5 O :   -0.228775
   6 C :   -0.119000
   7 C :   -0.365737
   8 S :    0.088750
   9 C :   -0.477819
  10 S :    0.065017
  11 P :    0.561629
  12 S :   -0.287019
  13 O :   -0.228712
  14 C :   -0.117304
  15 C :   -0.351801
  16 O :   -0.248329
  17 C :   -0.114669
  18 C :   -0.369172
  19 H :    0.119554
  20 H :    0.129757
  21 H :    0.123176
  22 H :    0.109327
  23 H :    0.117692
  24 H :    0.109319
  25 H :    0.117994
  26 H :    0.120685
  27 H :    0.128927
  28 H :    0.123789
  29 H :    0.136825
  30 H :    0.127693
  31 H :    0.113221
  32 H :    0.100604
  33 H :    0.127130
  34 H :    0.123416
  35 H :    0.127117
  36 H :    0.107651
  37 H :    0.121442
  38 H :    0.122167
  39 H :    0.129830
  40 H :    0.131086

  Mayer bond orders larger than 0.100000
B(  0-C ,  1-C ) :   1.1677 B(  0-C , 19-H ) :   0.9369 B(  0-C , 20-H ) :   0.9381
B(  0-C , 21-H ) :   0.9441 B(  1-C ,  2-O ) :   0.9127 B(  1-C , 22-H ) :   0.9142
B(  1-C , 23-H ) :   0.9340 B(  2-O ,  3-P ) :   1.0951 B(  3-P ,  4-S ) :   1.5941
B(  3-P ,  5-O ) :   1.1496 B(  3-P ,  8-S ) :   0.9586 B(  4-S ,  8-S ) :   0.1140
B(  5-O ,  6-C ) :   0.9045 B(  6-C ,  7-C ) :   1.1566 B(  6-C , 24-H ) :   0.9134
B(  6-C , 25-H ) :   0.9355 B(  7-C , 26-H ) :   0.9381 B(  7-C , 27-H ) :   0.9395
B(  7-C , 28-H ) :   0.9450 B(  8-S ,  9-C ) :   0.9931 B(  9-C , 10-S ) :   1.0056
B(  9-C , 29-H ) :   0.9113 B(  9-C , 30-H ) :   0.8452 B( 10-S , 11-P ) :   0.9343
B( 10-S , 12-S ) :   0.1052 B( 11-P , 12-S ) :   1.6586 B( 11-P , 13-O ) :   1.1441
B( 11-P , 16-O ) :   1.0815 B( 13-O , 14-C ) :   0.8888 B( 14-C , 15-C ) :   1.1661
B( 14-C , 31-H ) :   0.9315 B( 14-C , 32-H ) :   0.9098 B( 15-C , 33-H ) :   0.9408
B( 15-C , 34-H ) :   0.9431 B( 15-C , 35-H ) :   0.9494 B( 16-O , 17-C ) :   0.9153
B( 17-C , 18-C ) :   1.1664 B( 17-C , 36-H ) :   0.9267 B( 17-C , 37-H ) :   0.9335
B( 18-C , 38-H ) :   0.9318 B( 18-C , 39-H ) :   0.9348 B( 18-C , 40-H ) :   0.9429

Dispersion correction           -0.068391613
FINAL SINGLE POINT ENERGY     -2929.519495756711

DIPOLE MOMENT
-------------

Method             : SCF
Type of density    : Electron Density
Multiplicity       :   1
Irrep              :   0
Energy             : -2929.6371087630077454 Eh
Relativity type    :
Basis              : AO
                                X                 Y                 Z
Electronic contribution:     -4.041401692      -2.155618324      -7.810286247
Nuclear contribution   :      3.740651069       1.265130076       8.781076188
                        -----------------------------------------
Total Dipole Moment    :     -0.300750622      -0.890488248       0.970789941
                        -----------------------------------------
Magnitude (a.u.)       :      1.351241417
Magnitude (Debye)      :      3.434582732

Rotational constants in cm-1:             0.012610             0.005340             0.005275
Rotational constants in MHz :           378.046080           160.096009           158.145056

                             ****ORCA TERMINATED NORMALLY****
TOTAL RUN TIME: 0 days 0 hours 0 minutes 23 seconds 19 msec
