                         Program Version 6.0.0  -   RELEASE  -
|  1> ! pbe def2-sv(p) def2/J RI DEFGRID1 loosescf d4 GCP(DFT/SV(P)) printgap
|  2> %output
|  3>     printlevel normal
|  4> end
|  5> * xyz 0 1
|  6> C 4.6350879337 -1.6692567515 -0.5352241016
|  7> C 4.6376325185 -0.1769312321 -0.2750279203
|  8> O 3.476872183 0.2450157652 0.4611850029
|  9> P 2.0214586835 0.2752313704 -0.1822712464
| 10> S 2.0092498259 0.7768731385 -2.083673868
| 11> O 1.2475154367 1.146128472 0.889270846
| 12> C 1.6730482909 2.4324712744 1.3846121491
| 13> C 1.8425089635 3.4538847909 0.2796784179
| 14> S 1.2062098533 -1.6201333461 0.2451294517
| 15> C 0.0398148648 -1.7985112255 -1.1450299525
| 16> S -1.6810367948 -1.9426636939 -0.6147377443
| 17> P -1.9570039918 0.0206934384 0.1579231079
| 18> S -1.3552258373 1.5080842793 -0.958781933
| 19> O -1.2740211463 0.0185017649 1.5787177572
| 20> C -1.5100174255 -0.9795691296 2.6035514396
| 21> C -2.6057842315 -0.5384274588 3.5513000681
| 22> O -3.506715481 0.0416254815 0.5172970954
| 23> C -4.5206761948 0.4182099004 -0.4310105415
| 24> C -4.6664206018 -0.5901997997 -1.5520982377
| 25> H 4.4812842992 -2.2147838283 0.3922551826
| 26> H 3.835792196 -1.9231420627 -1.2296850721
| 27> H 5.5855784796 -1.9577063786 -0.9722299923
| 28> H 4.6680389061 0.3770604383 -1.2188704975
| 29> H 5.4727496362 0.1213048164 0.3602950994
| 30> H 0.8687105063 2.715567373 2.0663017428
| 31> H 2.6044588396 2.2917568571 1.9383711295
| 32> H 2.0577737599 4.4254789677 0.7128782443
| 33> H 2.6614515052 3.1664064752 -0.3788932376
| 34> H 0.9315360714 3.5171522188 -0.313639954
| 35> H 0.2685845372 -2.7274925075 -1.6608599315
| 36> H 0.1591367096 -0.9387182531 -1.8110490561
| 37> H -1.761012203 -1.9295750873 2.123157197
| 38> H -0.548545345 -1.0703820675 3.1132012584
| 39> H -2.3628544632 0.4301160639 3.9797702171
| 40> H -3.5525044614 -0.4615724285 3.0236756951
| 41> H -2.6971251692 -1.2703354893 4.3478111055
| 42> H -5.4277348822 0.4832993433 0.171681254
| 43> H -4.2682482127 1.4052542891 -0.8309447288
| 44> H -3.7844712531 -0.5704345648 -2.1902228554
| 45> H -4.7844848033 -1.5922589298 -1.1475611591
| 46> H -5.5362203367 -0.3362783972 -2.1494561506
| 47> *
| 48>
| 49>                          ****END OF INPUT****

CARTESIAN COORDINATES (ANGSTROEM)
---------------------------------
  C      4.635088   -1.669257   -0.535224
  C      4.637633   -0.176931   -0.275028
  O      3.476872    0.245016    0.461185
  P      2.021459    0.275231   -0.182271
  S      2.009250    0.776873   -2.083674
  O      1.247515    1.146128    0.889271
  C      1.673048    2.432471    1.384612
  C      1.842509    3.453885    0.279678
  S      1.206210   -1.620133    0.245129
  C      0.039815   -1.798511   -1.145030
  S     -1.681037   -1.942664   -0.614738
  P     -1.957004    0.020693    0.157923
  S     -1.355226    1.508084   -0.958782
  O     -1.274021    0.018502    1.578718
  C     -1.510017   -0.979569    2.603551
  C     -2.605784   -0.538427    3.551300
  O     -3.506715    0.041625    0.517297
  C     -4.520676    0.418210   -0.431011
  C     -4.666421   -0.590200   -1.552098
  H      4.481284   -2.214784    0.392255
  H      3.835792   -1.923142   -1.229685
  H      5.585578   -1.957706   -0.972230
  H      4.668039    0.377060   -1.218870
  H      5.472750    0.121305    0.360295
  H      0.868711    2.715567    2.066302
  H      2.604459    2.291757    1.938371
  H      2.057774    4.425479    0.712878
  H      2.661452    3.166406   -0.378893
  H      0.931536    3.517152   -0.313640
  H      0.268585   -2.727493   -1.660860
  H      0.159137   -0.938718   -1.811049
  H     -1.761012   -1.929575    2.123157
  H     -0.548545   -1.070382    3.113201
  H     -2.362854    0.430116    3.979770
  H     -3.552504   -0.461572    3.023676
  H     -2.697125   -1.270335    4.347811
  H     -5.427735    0.483299    0.171681
  H     -4.268248    1.405254   -0.830945
  H     -3.784471   -0.570435   -2.190223
  H     -4.784485   -1.592259   -1.147561
  H     -5.536220   -0.336278   -2.149456

 Total Charge           Charge          ....    0
 Multiplicity           Mult            ....    1
 Number of Electrons    NEL             ....  202
 Basis Dimension        Dim             ....  334

ORBITAL ENERGIES
----------------

  NO   OCC          E(Eh)            E(eV)
   0   2.0000     -88.041719     -2395.7370
   1   2.0000     -88.039475     -2395.6759
   2   2.0000     -87.980567     -2394.0730
   3   2.0000     -87.978293     -2394.0111
   4   2.0000     -76.421672     -2079.5394
   5   2.0000     -76.421549     -2079.5361
   6   2.0000     -18.792317      -511.3650
   7   2.0000     -18.791403      -511.3401
   8   2.0000     -18.785906      -511.1905
   9   2.0000     -18.778257      -510.9824
  10   2.0000      -9.952621      -270.8246
  11   2.0000      -9.951393      -270.7912
  12   2.0000      -9.949667      -270.7442
  13   2.0000      -9.949163      -270.7305
  14   2.0000      -9.945339      -270.6264
  15   2.0000      -9.883217      -268.9360
  16   2.0000      -9.883046      -268.9314
  17   2.0000      -9.881611      -268.8923
  18   2.0000      -9.872032      -268.6316
  19   2.0000      -7.686715      -209.1661
  20   2.0000      -7.684590      -209.1083
  21   2.0000      -7.625485      -207.5000
  22   2.0000      -7.623366      -207.4423
  23   2.0000      -6.419072      -174.6718
  24   2.0000      -6.418742      -174.6628
  25   2.0000      -5.714526      -155.5002
  26   2.0000      -5.712445      -155.4435
  27   2.0000      -5.711034      -155.4051
  28   2.0000      -5.709160      -155.3541
  29   2.0000      -5.703944      -155.2122
  30   2.0000      -5.701455      -155.1445
  31   2.0000      -5.654351      -153.8627
  32   2.0000      -5.652308      -153.8071
  33   2.0000      -5.646309      -153.6439
  34   2.0000      -5.645497      -153.6218
  35   2.0000      -5.643868      -153.5775
  36   2.0000      -5.643572      -153.5694
  37   2.0000      -4.641974      -126.3145
  38   2.0000      -4.641525      -126.3023
  39   2.0000      -4.640881      -126.2848
  40   2.0000      -4.640229      -126.2670
  41   2.0000      -4.639327      -126.2425
  42   2.0000      -4.639204      -126.2392
  43   2.0000      -0.984429       -26.7877
  44   2.0000      -0.981794       -26.7160
  45   2.0000      -0.941857       -25.6292
  46   2.0000      -0.936489       -25.4832
  47   2.0000      -0.760158       -20.6850
  48   2.0000      -0.717056       -19.5121
  49   2.0000      -0.705709       -19.2033
  50   2.0000      -0.687870       -18.7179
  51   2.0000      -0.683454       -18.5977
  52   2.0000      -0.671467       -18.2715
  53   2.0000      -0.648378       -17.6433
  54   2.0000      -0.630439       -17.1551
  55   2.0000      -0.596211       -16.2237
  56   2.0000      -0.587868       -15.9967
  57   2.0000      -0.572484       -15.5781
  58   2.0000      -0.570653       -15.5282
  59   2.0000      -0.557785       -15.1781
  60   2.0000      -0.496250       -13.5037
  61   2.0000      -0.490194       -13.3389
  62   2.0000      -0.471675       -12.8349
  63   2.0000      -0.464097       -12.6287
  64   2.0000      -0.449026       -12.2186
  65   2.0000      -0.445179       -12.1139
  66   2.0000      -0.440143       -11.9769
  67   2.0000      -0.428186       -11.6515
  68   2.0000      -0.424822       -11.5600
  69   2.0000      -0.414001       -11.2655
  70   2.0000      -0.410451       -11.1689
  71   2.0000      -0.403286       -10.9740
  72   2.0000      -0.389840       -10.6081
  73   2.0000      -0.382698       -10.4137
  74   2.0000      -0.378000       -10.2859
  75   2.0000      -0.366751        -9.9798
  76   2.0000      -0.362900        -9.8750
  77   2.0000      -0.355215        -9.6659
  78   2.0000      -0.350504        -9.5377
  79   2.0000      -0.349673        -9.5151
  80   2.0000      -0.345267        -9.3952
  81   2.0000      -0.338679        -9.2159
  82   2.0000      -0.336631        -9.1602
  83   2.0000      -0.333990        -9.0883
  84   2.0000      -0.327067        -8.9000
  85   2.0000      -0.313539        -8.5318
  86   2.0000      -0.310542        -8.4503
  87   2.0000      -0.293030        -7.9738
  88   2.0000      -0.292352        -7.9553
  89   2.0000      -0.288151        -7.8410
  90   2.0000      -0.276506        -7.5241
  91   2.0000      -0.271454        -7.3866
  92   2.0000      -0.265270        -7.2184
  93   2.0000      -0.259605        -7.0642
  94   2.0000      -0.255714        -6.9583
  95   2.0000      -0.234647        -6.3851
  96   2.0000      -0.219143        -5.9632
  97   2.0000      -0.211543        -5.7564
  98   2.0000      -0.198409        -5.3990
  99   2.0000      -0.189815        -5.1651
 100   2.0000      -0.182473        -4.9653
 101   0.0000      -0.037342        -1.0161
 102   0.0000      -0.029104        -0.7920
 103   0.0000      -0.008686        -0.2363
 104   0.0000       0.014279         0.3886
 105   0.0000       0.019606         0.5335

MULLIKEN ATOMIC CHARGES
-----------------------
   0 C :   -0.308004
   1 C :   -0.003866
   2 O :   -0.382948
   3 P :    0.625530
   4 S :   -0.312538
   5 O :   -0.351556
   6 C :    0.009700
   7 C :   -0.323110
   8 S :   -0.097502
   9 C :   -0.352494
  10 S :   -0.106618
  11 P :    0.595263
  12 S :   -0.293634
  13 O :   -0.343121
  14 C :   -0.010356
  15 C :   -0.287578
  16 O :   -0.381798
  17 C :   -0.000163
  18 C :   -0.320682
  19 H :    0.114829
  20 H :    0.121065
  21 H :    0.111155
  22 H :    0.110127
  23 H :    0.101313
  24 H :    0.104355
  25 H :    0.101409
  26 H :    0.104711
  27 H :    0.121517
  28 H :    0.138387
  29 H :    0.180882
  30 H :    0.207667
  31 H :    0.100467
  32 H :    0.106531
  33 H :    0.115576
  34 H :    0.121069
  35 H :    0.107401
  36 H :    0.102916
  37 H :    0.111840
  38 H :    0.131927
  39 H :    0.116330
  40 H :    0.114002
Sum of atomic charges:   -0.0000000

LOEWDIN ATOMIC CHARGES
----------------------
   0 C :   -0.368238
   1 C :   -0.121619
   2 O :   -0.248121
   3 P :    0.572637
   4 S :   -0.301873
   5 O :   -0.230602
   6 C :   -0.107936
   7 C :   -0.369910
   8 S :    0.083404
   9 C :   -0.481078
  10 S :    0.076310
  11 P :    0.563786
  12 S :   -0.295140
  13 O :   -0.226616
  14 C :   -0.118829
  15 C :   -0.360377
  16 O :   -0.249226
  17 C :   -0.118444
  18 C :   -0.371791
  19 H :    0.123537
  20 H :    0.119935
  21 H :    0.129954
  22 H :    0.109046
  23 H :    0.116459
  24 H :    0.120215
  25 H :    0.109228
  26 H :    0.126530
  27 H :    0.118967
  28 H :    0.131010
  29 H :    0.136710
  30 H :    0.126136
  31 H :    0.100806
  32 H :    0.117986
  33 H :    0.126650
  34 H :    0.125252
  35 H :    0.128433
  36 H :    0.117318
  37 H :    0.112090
  38 H :    0.123158
  39 H :    0.122590
  40 H :    0.131654

  Mayer bond orders larger than 0.100000
B(  0-C ,  1-C ) :   1.1675 B(  0-C , 19-H ) :   0.9453 B(  0-C , 20-H ) :   0.9365
B(  0-C , 21-H ) :   0.9385 B(  1-C ,  2-O ) :   0.9114 B(  1-C , 22-H ) :   0.9116
B(  1-C , 23-H ) :   0.9332 B(  2-O ,  3-P ) :   1.0822 B(  3-P ,  4-S ) :   1.5993
B(  3-P ,  5-O ) :   1.1443 B(  3-P ,  8-S ) :   0.9580 B(  4-S ,  8-S ) :   0.1207
B(  5-O ,  6-C ) :   0.9075 B(  6-C ,  7-C ) :   1.1663 B(  6-C , 24-H ) :   0.9324
B(  6-C , 25-H ) :   0.9319 B(  7-C , 26-H ) :   0.9360 B(  7-C , 27-H ) :   0.9363
B(  7-C , 28-H ) :   0.9394 B(  8-S ,  9-C ) :   0.9983 B(  9-C , 10-S ) :   0.9985
B(  9-C , 29-H ) :   0.9118 B(  9-C , 30-H ) :   0.8461 B( 10-S , 11-P ) :   0.9424
B( 10-S , 12-S ) :   0.1055 B( 11-P , 12-S ) :   1.6570 B( 11-P , 13-O ) :   1.1435
B( 11-P , 16-O ) :   1.0762 B( 13-O , 14-C ) :   0.8946 B( 14-C , 15-C ) :   1.1626
B( 14-C , 31-H ) :   0.9082 B( 14-C , 32-H ) :   0.9333 B( 15-C , 33-H ) :   0.9477
B( 15-C , 34-H ) :   0.9410 B( 15-C , 35-H ) :   0.9400 B( 16-O , 17-C ) :   0.9076
B( 17-C , 18-C ) :   1.1666 B( 17-C , 36-H ) :   0.9339 B( 17-C , 37-H ) :   0.9154
B( 18-C , 38-H ) :   0.9345 B( 18-C , 39-H ) :   0.9437 B( 18-C , 40-H ) :   0.9374

Dispersion correction           -0.068270292
FINAL SINGLE POINT ENERGY     -2929.516700779150

DIPOLE MOMENT
-------------

Method             : SCF
Type of density    : Electron Density
Multiplicity       :   1
Irrep              :   0
Energy             : -2929.6342549986484300 Eh
Relativity type    :
Basis              : AO
                                X                 Y                 Z
Electronic contribution:      1.026602235      -2.224596491      -6.888348321
Nuclear contribution   :     -1.121969346       1.614799002       7.982772747
                        -----------------------------------------
Total Dipole Moment    :     -0.095367111      -0.609797489       1.094424426
                        -----------------------------------------
Magnitude (a.u.)       :      1.256468339
Magnitude (Debye)      :      3.193688712

Rotational constants in cm-1:             0.012648             0.005341             0.005208
Rotational constants in MHz :           379.172076           160.106749           156.117189

                             ****ORCA TERMINATED NORMALLY****
TOTAL RUN TIME: 0 days 0 hours 0 minutes 21 seconds 564 msec
