                         Program Version 6.0.0  -   RELEASE  -
|  1> ! pbe def2-sv(p) def2/J RI DEFGRID1 loosescf d4 GCP(DFT/SV(P)) printgap
|  2> %output
|  3>     printlevel normal
|  4> end
|  5> * xyz 0 1
|  6> C 4.8549189363 -0.5842159312 -1.8674007594
|  7> C 4.200769232 -1.7893967383 -1.223563759
|  8> O 3.4734299202 -1.4603270717 -0.0266394256
|  9> P 2.3691937233 -0.3275027411 0.1082041573
| 10> S 2.9874153585 1.530627574 0.2846318146
| 11> O 1.5570791672 -0.8666734989 1.3577862517
| 12> C 1.7267138472 -0.321970528 2.6795685588
| 13> C 3.0440006163 -0.7619844338 3.2828063618
| 14> S 1.0389458066 -0.7298992559 -1.4855628596
| 15> C 0.1214610431 0.8311088772 -1.3672965725
| 16> S -0.7794893219 1.0296552495 0.1861097916
| 17> P -2.7545945947 0.4601562705 -0.4232369273
| 18> S -2.9465238477 -0.0028391567 -2.3148777965
| 19> O -3.6594975499 1.6944019316 -0.0380932362
| 20> C -4.1442851701 2.0062310859 1.2902369925
| 21> C -3.0225182555 2.2341368986 2.2806062588
| 22> O -3.2425785705 -0.6384488251 0.6218168551
| 23> C -3.0907034972 -2.0522644849 0.4124992028
| 24> C -1.6387009106 -2.4770884129 0.3464004159
| 25> H 5.4859970797 -0.0652232491 -1.1496529188
| 26> H 5.4589033665 -0.9079111365 -2.7090090349
| 27> H 4.095242539 0.1105350591 -2.2238257987
| 28> H 4.9446421066 -2.5111506259 -0.8811739876
| 29> H 3.5088760382 -2.2719924386 -1.9196845114
| 30> H 1.6693090731 0.7698323223 2.6195734243
| 31> H 0.8734901094 -0.705406329 3.2401339146
| 32> H 3.866163232 -0.3649674755 2.6880692648
| 33> H 3.1244426909 -0.38457207 4.297209312
| 34> H 3.1104712514 -1.8465067732 3.2896269892
| 35> H -0.5851475972 0.8398373407 -2.1990853049
| 36> H 0.8282784445 1.6576739947 -1.4299243827
| 37> H -4.7335574907 2.9108777903 1.133228042
| 38> H -4.7925830678 1.190478257 1.6159914751
| 39> H -3.4462683835 2.5251426972 3.2367393211
| 40> H -2.4459310491 1.3197843794 2.4112476719
| 41> H -2.3560636993 3.0182220341 1.9301913882
| 42> H -3.6017006368 -2.4951873284 1.2689285191
| 43> H -3.6084846914 -2.322796486 -0.5126153392
| 44> H -1.1808813169 -2.0962351587 -0.5657661223
| 45> H -1.0849636459 -2.0986627632 1.2027515909
| 46> H -1.5802109052 -3.5606516007 0.3338695189
| 47> *
| 48>
| 49>                          ****END OF INPUT****

CARTESIAN COORDINATES (ANGSTROEM)
---------------------------------
  C      4.854919   -0.584216   -1.867401
  C      4.200769   -1.789397   -1.223564
  O      3.473430   -1.460327   -0.026639
  P      2.369194   -0.327503    0.108204
  S      2.987415    1.530628    0.284632
  O      1.557079   -0.866673    1.357786
  C      1.726714   -0.321971    2.679569
  C      3.044001   -0.761984    3.282806
  S      1.038946   -0.729899   -1.485563
  C      0.121461    0.831109   -1.367297
  S     -0.779489    1.029655    0.186110
  P     -2.754595    0.460156   -0.423237
  S     -2.946524   -0.002839   -2.314878
  O     -3.659498    1.694402   -0.038093
  C     -4.144285    2.006231    1.290237
  C     -3.022518    2.234137    2.280606
  O     -3.242579   -0.638449    0.621817
  C     -3.090703   -2.052264    0.412499
  C     -1.638701   -2.477088    0.346400
  H      5.485997   -0.065223   -1.149653
  H      5.458903   -0.907911   -2.709009
  H      4.095243    0.110535   -2.223826
  H      4.944642   -2.511151   -0.881174
  H      3.508876   -2.271992   -1.919685
  H      1.669309    0.769832    2.619573
  H      0.873490   -0.705406    3.240134
  H      3.866163   -0.364967    2.688069
  H      3.124443   -0.384572    4.297209
  H      3.110471   -1.846507    3.289627
  H     -0.585148    0.839837   -2.199085
  H      0.828278    1.657674   -1.429924
  H     -4.733557    2.910878    1.133228
  H     -4.792583    1.190478    1.615991
  H     -3.446268    2.525143    3.236739
  H     -2.445931    1.319784    2.411248
  H     -2.356064    3.018222    1.930191
  H     -3.601701   -2.495187    1.268929
  H     -3.608485   -2.322796   -0.512615
  H     -1.180881   -2.096235   -0.565766
  H     -1.084964   -2.098663    1.202752
  H     -1.580211   -3.560652    0.333870

 Total Charge           Charge          ....    0
 Multiplicity           Mult            ....    1
 Number of Electrons    NEL             ....  202
 Basis Dimension        Dim             ....  334

ORBITAL ENERGIES
----------------

  NO   OCC          E(Eh)            E(eV)
   0   2.0000     -88.044422     -2395.8105
   1   2.0000     -88.040193     -2395.6955
   2   2.0000     -87.989306     -2394.3108
   3   2.0000     -87.988075     -2394.2772
   4   2.0000     -76.428717     -2079.7311
   5   2.0000     -76.427431     -2079.6961
   6   2.0000     -18.794859      -511.4341
   7   2.0000     -18.794671      -511.4290
   8   2.0000     -18.790704      -511.3211
   9   2.0000     -18.789127      -511.2781
  10   2.0000      -9.960137      -271.0291
  11   2.0000      -9.958531      -270.9854
  12   2.0000      -9.952826      -270.8302
  13   2.0000      -9.950316      -270.7619
  14   2.0000      -9.949791      -270.7476
  15   2.0000      -9.891610      -269.1644
  16   2.0000      -9.884898      -268.9818
  17   2.0000      -9.882682      -268.9215
  18   2.0000      -9.877090      -268.7693
  19   2.0000      -7.689184      -209.2333
  20   2.0000      -7.684686      -209.1109
  21   2.0000      -7.634187      -207.7368
  22   2.0000      -7.633201      -207.7100
  23   2.0000      -6.425972      -174.8596
  24   2.0000      -6.424840      -174.8288
  25   2.0000      -5.716870      -155.5639
  26   2.0000      -5.713723      -155.4783
  27   2.0000      -5.712647      -155.4490
  28   2.0000      -5.709196      -155.3551
  29   2.0000      -5.706340      -155.2774
  30   2.0000      -5.701679      -155.1506
  31   2.0000      -5.663022      -154.0987
  32   2.0000      -5.662139      -154.0746
  33   2.0000      -5.654863      -153.8766
  34   2.0000      -5.654415      -153.8644
  35   2.0000      -5.653749      -153.8463
  36   2.0000      -5.653382      -153.8363
  37   2.0000      -4.648430      -126.4902
  38   2.0000      -4.647905      -126.4759
  39   2.0000      -4.647787      -126.4727
  40   2.0000      -4.646424      -126.4356
  41   2.0000      -4.646200      -126.4295
  42   2.0000      -4.645368      -126.4069
  43   2.0000      -0.988771       -26.9058
  44   2.0000      -0.988055       -26.8863
  45   2.0000      -0.946683       -25.7606
  46   2.0000      -0.944431       -25.6993
  47   2.0000      -0.762281       -20.7427
  48   2.0000      -0.722159       -19.6509
  49   2.0000      -0.710839       -19.3429
  50   2.0000      -0.690862       -18.7993
  51   2.0000      -0.687867       -18.7178
  52   2.0000      -0.676641       -18.4123
  53   2.0000      -0.653444       -17.7811
  54   2.0000      -0.638902       -17.3854
  55   2.0000      -0.601261       -16.3611
  56   2.0000      -0.595715       -16.2102
  57   2.0000      -0.580683       -15.8012
  58   2.0000      -0.574467       -15.6320
  59   2.0000      -0.558332       -15.1930
  60   2.0000      -0.497519       -13.5382
  61   2.0000      -0.494230       -13.4487
  62   2.0000      -0.471863       -12.8401
  63   2.0000      -0.470004       -12.7895
  64   2.0000      -0.460671       -12.5355
  65   2.0000      -0.450679       -12.2636
  66   2.0000      -0.443458       -12.0671
  67   2.0000      -0.436713       -11.8836
  68   2.0000      -0.428029       -11.6472
  69   2.0000      -0.422082       -11.4854
  70   2.0000      -0.414691       -11.2843
  71   2.0000      -0.402006       -10.9391
  72   2.0000      -0.393210       -10.6998
  73   2.0000      -0.388752       -10.5785
  74   2.0000      -0.380191       -10.3455
  75   2.0000      -0.374157       -10.1813
  76   2.0000      -0.370004       -10.0683
  77   2.0000      -0.358494        -9.7551
  78   2.0000      -0.350491        -9.5373
  79   2.0000      -0.348761        -9.4903
  80   2.0000      -0.348568        -9.4850
  81   2.0000      -0.345121        -9.3912
  82   2.0000      -0.342456        -9.3187
  83   2.0000      -0.340641        -9.2693
  84   2.0000      -0.337234        -9.1766
  85   2.0000      -0.320294        -8.7156
  86   2.0000      -0.308200        -8.3866
  87   2.0000      -0.298506        -8.1228
  88   2.0000      -0.297315        -8.0903
  89   2.0000      -0.295863        -8.0509
  90   2.0000      -0.288012        -7.8372
  91   2.0000      -0.276500        -7.5239
  92   2.0000      -0.274043        -7.4571
  93   2.0000      -0.265546        -7.2259
  94   2.0000      -0.254438        -6.9236
  95   2.0000      -0.229781        -6.2527
  96   2.0000      -0.219305        -5.9676
  97   2.0000      -0.211999        -5.7688
  98   2.0000      -0.204596        -5.5674
  99   2.0000      -0.204196        -5.5565
 100   2.0000      -0.200453        -5.4546
 101   0.0000      -0.044756        -1.2179
 102   0.0000      -0.029109        -0.7921
 103   0.0000      -0.012458        -0.3390
 104   0.0000       0.002664         0.0725
 105   0.0000       0.008123         0.2210

MULLIKEN ATOMIC CHARGES
-----------------------
   0 C :   -0.311342
   1 C :   -0.011474
   2 O :   -0.371608
   3 P :    0.605035
   4 S :   -0.329881
   5 O :   -0.353496
   6 C :   -0.008060
   7 C :   -0.301023
   8 S :   -0.090916
   9 C :   -0.347353
  10 S :   -0.100631
  11 P :    0.615404
  12 S :   -0.311683
  13 O :   -0.363346
  14 C :    0.010686
  15 C :   -0.336403
  16 O :   -0.388942
  17 C :    0.006139
  18 C :   -0.337050
  19 H :    0.126279
  20 H :    0.112811
  21 H :    0.126275
  22 H :    0.110110
  23 H :    0.115458
  24 H :    0.113160
  25 H :    0.102223
  26 H :    0.123272
  27 H :    0.110298
  28 H :    0.114602
  29 H :    0.192182
  30 H :    0.195418
  31 H :    0.112336
  32 H :    0.108862
  33 H :    0.117151
  34 H :    0.127614
  35 H :    0.133641
  36 H :    0.100514
  37 H :    0.111191
  38 H :    0.138759
  39 H :    0.125231
  40 H :    0.108555
Sum of atomic charges:   -0.0000000

LOEWDIN ATOMIC CHARGES
----------------------
   0 C :   -0.369720
   1 C :   -0.113499
   2 O :   -0.243560
   3 P :    0.570502
   4 S :   -0.316209
   5 O :   -0.235633
   6 C :   -0.121296
   7 C :   -0.363504
   8 S :    0.095090
   9 C :   -0.485360
  10 S :    0.084316
  11 P :    0.574257
  12 S :   -0.303728
  13 O :   -0.241001
  14 C :   -0.107549
  15 C :   -0.372322
  16 O :   -0.249951
  17 C :   -0.115025
  18 C :   -0.375664
  19 H :    0.129651
  20 H :    0.130694
  21 H :    0.121476
  22 H :    0.121971
  23 H :    0.110577
  24 H :    0.107962
  25 H :    0.115671
  26 H :    0.123122
  27 H :    0.129557
  28 H :    0.125527
  29 H :    0.127426
  30 H :    0.130325
  31 H :    0.123696
  32 H :    0.114509
  33 H :    0.133328
  34 H :    0.117221
  35 H :    0.129869
  36 H :    0.116501
  37 H :    0.112737
  38 H :    0.113170
  39 H :    0.124727
  40 H :    0.130140

  Mayer bond orders larger than 0.100000
B(  0-C ,  1-C ) :   1.1642 B(  0-C , 19-H ) :   0.9427 B(  0-C , 20-H ) :   0.9350
B(  0-C , 21-H ) :   0.9332 B(  1-C ,  2-O ) :   0.9135 B(  1-C , 22-H ) :   0.9341
B(  1-C , 23-H ) :   0.9280 B(  2-O ,  3-P ) :   1.1162 B(  3-P ,  4-S ) :   1.5929
B(  3-P ,  5-O ) :   1.1239 B(  3-P ,  8-S ) :   0.9572 B(  4-S ,  8-S ) :   0.1084
B(  5-O ,  6-C ) :   0.9050 B(  6-C ,  7-C ) :   1.1641 B(  6-C , 24-H ) :   0.9115
B(  6-C , 25-H ) :   0.9320 B(  7-C , 26-H ) :   0.9360 B(  7-C , 27-H ) :   0.9402
B(  7-C , 28-H ) :   0.9467 B(  8-S ,  9-C ) :   0.9998 B(  9-C , 10-S ) :   1.0203
B(  9-C , 29-H ) :   0.8563 B(  9-C , 30-H ) :   0.8792 B( 10-S , 11-P ) :   0.9426
B( 10-S , 12-S ) :   0.1143 B( 11-P , 12-S ) :   1.6290 B( 11-P , 13-O ) :   1.1371
B( 11-P , 16-O ) :   1.0713 B( 12-S , 29-H ) :   0.1063 B( 13-O , 14-C ) :   0.9029
B( 14-C , 15-C ) :   1.1693 B( 14-C , 31-H ) :   0.9336 B( 14-C , 32-H ) :   0.9279
B( 15-C , 33-H ) :   0.9354 B( 15-C , 34-H ) :   0.9332 B( 15-C , 35-H ) :   0.9406
B( 16-O , 17-C ) :   0.9048 B( 17-C , 18-C ) :   1.1609 B( 17-C , 36-H ) :   0.9340
B( 17-C , 37-H ) :   0.9208 B( 18-C , 38-H ) :   0.9224 B( 18-C , 39-H ) :   0.9401
B( 18-C , 40-H ) :   0.9361

Dispersion correction           -0.065253410
FINAL SINGLE POINT ENERGY     -2929.518041709092

DIPOLE MOMENT
-------------

Method             : SCF
Type of density    : Electron Density
Multiplicity       :   1
Irrep              :   0
Energy             : -2929.6382183054770394 Eh
Relativity type    :
Basis              : AO
                                X                 Y                 Z
Electronic contribution:     -7.263871974       6.212649194     -13.828287877
Nuclear contribution   :      7.391164246      -7.028474761      15.113781921
                        -----------------------------------------
Total Dipole Moment    :      0.127292272      -0.815825567       1.285494044
                        -----------------------------------------
Magnitude (a.u.)       :      1.527831671
Magnitude (Debye)      :      3.883439486

Rotational constants in cm-1:             0.012731             0.004717             0.004347
Rotational constants in MHz :           381.669761           141.403420           130.310349

                             ****ORCA TERMINATED NORMALLY****
TOTAL RUN TIME: 0 days 0 hours 0 minutes 21 seconds 179 msec
