                         Program Version 6.0.0  -   RELEASE  -
|  1> ! pbe def2-sv(p) def2/J RI DEFGRID1 loosescf d4 GCP(DFT/SV(P)) printgap
|  2> %output
|  3>     printlevel normal
|  4> end
|  5> * xyz 0 1
|  6> C 0.2255295603 -2.2148531313 2.5415748037
|  7> C 1.5345243167 -1.8743813741 1.8596830958
|  8> O 1.524616024 -0.4778552272 1.4956284211
|  9> P 2.2893672394 0.1233941686 0.2451007581
| 10> S 3.2248233649 -1.2129910289 -0.8512217835
| 11> O 3.163050157 1.1946655434 1.0212192456
| 12> C 3.761934704 2.3673515212 0.4388807068
| 13> C 4.6386783282 2.0489505172 -0.7548108767
| 14> S 0.8798432452 1.3324951561 -0.7822704766
| 15> C 0.2859031779 0.0527436492 -1.9123401861
| 16> S -0.5187519394 -1.3202769267 -1.0445416195
| 17> P -2.128283139 -0.2098268105 -0.2446868383
| 18> S -2.8737802851 1.1987621973 -1.391531388
| 19> O -1.5637397222 0.2505069705 1.1549171496
| 20> C -2.0576571259 1.3910198497 1.8928475563
| 21> C -0.9106760197 2.3364813398 2.1905253064
| 22> O -3.136734084 -1.353592558 0.2101577431
| 23> C -3.9660434969 -2.0682192417 -0.7296554614
| 24> C -5.3554224267 -1.463322991 -0.7835466658
| 25> H 0.2538519043 -3.2527231924 2.8572108387
| 26> H 0.0813669929 -1.5765081844 3.4083509715
| 27> H -0.6095311976 -2.0723663655 1.8600304261
| 28> H 1.6872316298 -2.4789301655 0.9591174529
| 29> H 2.3799746576 -2.0260507514 2.5352911759
| 30> H 2.9615225363 3.0578268604 0.1584598441
| 31> H 4.3438328181 2.7902182396 1.25980358
| 32> H 4.0349508494 1.6578414788 -1.5725038949
| 33> H 5.1384169916 2.9535516813 -1.086029695
| 34> H 5.383595686 1.3022942863 -0.4897380207
| 35> H 1.1256649109 -0.3778896192 -2.457578231
| 36> H -0.4263535129 0.5338032558 -2.5821934883
| 37> H -2.8360465775 1.888562556 1.3055980227
| 38> H -2.4920542632 0.9883192203 2.8097279161
| 39> H -0.5652191826 2.8119513179 1.27561563
| 40> H -1.2482575951 3.0997330944 2.8840830006
| 41> H -0.0825340469 1.7867154293 2.6314321372
| 42> H -3.4925465356 -2.0524172755 -1.7154083153
| 43> H -3.9910359859 -3.0930739327 -0.3550726353
| 44> H -5.9766001914 -2.0531426262 -1.4497279886
| 45> H -5.7972079155 -1.4549911588 0.2088241558
| 46> H -5.3065680049 -0.4422476703 -1.1555459374
| 47> *
| 48>
| 49>                          ****END OF INPUT****

CARTESIAN COORDINATES (ANGSTROEM)
---------------------------------
  C      0.225530   -2.214853    2.541575
  C      1.534524   -1.874381    1.859683
  O      1.524616   -0.477855    1.495628
  P      2.289367    0.123394    0.245101
  S      3.224823   -1.212991   -0.851222
  O      3.163050    1.194666    1.021219
  C      3.761935    2.367352    0.438881
  C      4.638678    2.048951   -0.754811
  S      0.879843    1.332495   -0.782270
  C      0.285903    0.052744   -1.912340
  S     -0.518752   -1.320277   -1.044542
  P     -2.128283   -0.209827   -0.244687
  S     -2.873780    1.198762   -1.391531
  O     -1.563740    0.250507    1.154917
  C     -2.057657    1.391020    1.892848
  C     -0.910676    2.336481    2.190525
  O     -3.136734   -1.353593    0.210158
  C     -3.966043   -2.068219   -0.729655
  C     -5.355422   -1.463323   -0.783547
  H      0.253852   -3.252723    2.857211
  H      0.081367   -1.576508    3.408351
  H     -0.609531   -2.072366    1.860030
  H      1.687232   -2.478930    0.959117
  H      2.379975   -2.026051    2.535291
  H      2.961523    3.057827    0.158460
  H      4.343833    2.790218    1.259804
  H      4.034951    1.657841   -1.572504
  H      5.138417    2.953552   -1.086030
  H      5.383596    1.302294   -0.489738
  H      1.125665   -0.377890   -2.457578
  H     -0.426354    0.533803   -2.582193
  H     -2.836047    1.888563    1.305598
  H     -2.492054    0.988319    2.809728
  H     -0.565219    2.811951    1.275616
  H     -1.248258    3.099733    2.884083
  H     -0.082534    1.786715    2.631432
  H     -3.492547   -2.052417   -1.715408
  H     -3.991036   -3.093074   -0.355073
  H     -5.976600   -2.053143   -1.449728
  H     -5.797208   -1.454991    0.208824
  H     -5.306568   -0.442248   -1.155546

 Total Charge           Charge          ....    0
 Multiplicity           Mult            ....    1
 Number of Electrons    NEL             ....  202
 Basis Dimension        Dim             ....  334

ORBITAL ENERGIES
----------------

  NO   OCC          E(Eh)            E(eV)
   0   2.0000     -88.046964     -2395.8797
   1   2.0000     -88.044920     -2395.8241
   2   2.0000     -87.991127     -2394.3603
   3   2.0000     -87.985881     -2394.2176
   4   2.0000     -76.429630     -2079.7560
   5   2.0000     -76.426920     -2079.6822
   6   2.0000     -18.795867      -511.4615
   7   2.0000     -18.792963      -511.3825
   8   2.0000     -18.790658      -511.3198
   9   2.0000     -18.785093      -511.1684
  10   2.0000      -9.957931      -270.9691
  11   2.0000      -9.956504      -270.9303
  12   2.0000      -9.956454      -270.9289
  13   2.0000      -9.951414      -270.7917
  14   2.0000      -9.944018      -270.5905
  15   2.0000      -9.883101      -268.9329
  16   2.0000      -9.882983      -268.9296
  17   2.0000      -9.879633      -268.8385
  18   2.0000      -9.876887      -268.7638
  19   2.0000      -7.691838      -209.3056
  20   2.0000      -7.689608      -209.2449
  21   2.0000      -7.636067      -207.7879
  22   2.0000      -7.630879      -207.6468
  23   2.0000      -6.426956      -174.8864
  24   2.0000      -6.423904      -174.8033
  25   2.0000      -5.719643      -155.6394
  26   2.0000      -5.717388      -155.5780
  27   2.0000      -5.716373      -155.5504
  28   2.0000      -5.714113      -155.4889
  29   2.0000      -5.708878      -155.3465
  30   2.0000      -5.706701      -155.2872
  31   2.0000      -5.664825      -154.1477
  32   2.0000      -5.659729      -154.0091
  33   2.0000      -5.656762      -153.9283
  34   2.0000      -5.656324      -153.9164
  35   2.0000      -5.651490      -153.7849
  36   2.0000      -5.651127      -153.7750
  37   2.0000      -4.649425      -126.5173
  38   2.0000      -4.648770      -126.4995
  39   2.0000      -4.647495      -126.4648
  40   2.0000      -4.646256      -126.4311
  41   2.0000      -4.645894      -126.4212
  42   2.0000      -4.644411      -126.3809
  43   2.0000      -0.988317       -26.8935
  44   2.0000      -0.984858       -26.7994
  45   2.0000      -0.946370       -25.7520
  46   2.0000      -0.941147       -25.6099
  47   2.0000      -0.768575       -20.9140
  48   2.0000      -0.722920       -19.6717
  49   2.0000      -0.710297       -19.3282
  50   2.0000      -0.686286       -18.6748
  51   2.0000      -0.683673       -18.6037
  52   2.0000      -0.674009       -18.3407
  53   2.0000      -0.650659       -17.7053
  54   2.0000      -0.640780       -17.4365
  55   2.0000      -0.599153       -16.3038
  56   2.0000      -0.591740       -16.1021
  57   2.0000      -0.575147       -15.6506
  58   2.0000      -0.566602       -15.4180
  59   2.0000      -0.557285       -15.1645
  60   2.0000      -0.507308       -13.8045
  61   2.0000      -0.498890       -13.5755
  62   2.0000      -0.479919       -13.0593
  63   2.0000      -0.470070       -12.7912
  64   2.0000      -0.460256       -12.5242
  65   2.0000      -0.442457       -12.0399
  66   2.0000      -0.438364       -11.9285
  67   2.0000      -0.430598       -11.7172
  68   2.0000      -0.424536       -11.5522
  69   2.0000      -0.416698       -11.3389
  70   2.0000      -0.409693       -11.1483
  71   2.0000      -0.400889       -10.9088
  72   2.0000      -0.395052       -10.7499
  73   2.0000      -0.385922       -10.5015
  74   2.0000      -0.382403       -10.4057
  75   2.0000      -0.376726       -10.2512
  76   2.0000      -0.363948        -9.9035
  77   2.0000      -0.353034        -9.6065
  78   2.0000      -0.350135        -9.5277
  79   2.0000      -0.348490        -9.4829
  80   2.0000      -0.346523        -9.4294
  81   2.0000      -0.343921        -9.3586
  82   2.0000      -0.339948        -9.2505
  83   2.0000      -0.335578        -9.1315
  84   2.0000      -0.329296        -8.9606
  85   2.0000      -0.323483        -8.8024
  86   2.0000      -0.308841        -8.4040
  87   2.0000      -0.300351        -8.1730
  88   2.0000      -0.296703        -8.0737
  89   2.0000      -0.290818        -7.9136
  90   2.0000      -0.282743        -7.6938
  91   2.0000      -0.279587        -7.6079
  92   2.0000      -0.271885        -7.3984
  93   2.0000      -0.267055        -7.2669
  94   2.0000      -0.254573        -6.9273
  95   2.0000      -0.234488        -6.3807
  96   2.0000      -0.221284        -6.0214
  97   2.0000      -0.213792        -5.8176
  98   2.0000      -0.208319        -5.6686
  99   2.0000      -0.200330        -5.4512
 100   2.0000      -0.199363        -5.4249
 101   0.0000      -0.049135        -1.3370
 102   0.0000      -0.026291        -0.7154
 103   0.0000      -0.005252        -0.1429
 104   0.0000      -0.001918        -0.0522
 105   0.0000       0.004613         0.1255

MULLIKEN ATOMIC CHARGES
-----------------------
   0 C :   -0.288517
   1 C :   -0.005515
   2 O :   -0.360106
   3 P :    0.616930
   4 S :   -0.335015
   5 O :   -0.366181
   6 C :   -0.012611
   7 C :   -0.307878
   8 S :   -0.098791
   9 C :   -0.355514
  10 S :   -0.078406
  11 P :    0.612425
  12 S :   -0.329659
  13 O :   -0.358433
  14 C :   -0.004122
  15 C :   -0.296742
  16 O :   -0.377729
  17 C :   -0.009296
  18 C :   -0.289902
  19 H :    0.103447
  20 H :    0.108563
  21 H :    0.125751
  22 H :    0.112928
  23 H :    0.100563
  24 H :    0.114076
  25 H :    0.109777
  26 H :    0.124194
  27 H :    0.110939
  28 H :    0.126486
  29 H :    0.193098
  30 H :    0.192075
  31 H :    0.105817
  32 H :    0.103286
  33 H :    0.125113
  34 H :    0.104679
  35 H :    0.124901
  36 H :    0.102643
  37 H :    0.107908
  38 H :    0.108634
  39 H :    0.112284
  40 H :    0.127900
Sum of atomic charges:    0.0000000

LOEWDIN ATOMIC CHARGES
----------------------
   0 C :   -0.355155
   1 C :   -0.118011
   2 O :   -0.236620
   3 P :    0.571650
   4 S :   -0.318084
   5 O :   -0.240918
   6 C :   -0.115010
   7 C :   -0.368850
   8 S :    0.090787
   9 C :   -0.481672
  10 S :    0.096790
  11 P :    0.566601
  12 S :   -0.322614
  13 O :   -0.229621
  14 C :   -0.111622
  15 C :   -0.360151
  16 O :   -0.249472
  17 C :   -0.116274
  18 C :   -0.361753
  19 H :    0.127060
  20 H :    0.123114
  21 H :    0.117446
  22 H :    0.104245
  23 H :    0.112023
  24 H :    0.108134
  25 H :    0.121729
  26 H :    0.120717
  27 H :    0.129745
  28 H :    0.130085
  29 H :    0.130646
  30 H :    0.131125
  31 H :    0.107135
  32 H :    0.115630
  33 H :    0.120638
  34 H :    0.126687
  35 H :    0.127234
  36 H :    0.107943
  37 H :    0.119026
  38 H :    0.129258
  39 H :    0.125270
  40 H :    0.125108

  Mayer bond orders larger than 0.100000
B(  0-C ,  1-C ) :   1.1632 B(  0-C , 19-H ) :   0.9399 B(  0-C , 20-H ) :   0.9488
B(  0-C , 21-H ) :   0.9382 B(  1-C ,  2-O ) :   0.8965 B(  1-C , 22-H ) :   0.9042
B(  1-C , 23-H ) :   0.9347 B(  2-O ,  3-P ) :   1.1286 B(  3-P ,  4-S ) :   1.6007
B(  3-P ,  5-O ) :   1.1269 B(  3-P ,  8-S ) :   0.9359 B(  4-S ,  8-S ) :   0.1085
B(  5-O ,  6-C ) :   0.9159 B(  6-C ,  7-C ) :   1.1638 B(  6-C , 24-H ) :   0.9257
B(  6-C , 25-H ) :   0.9340 B(  7-C , 26-H ) :   0.9337 B(  7-C , 27-H ) :   0.9355
B(  7-C , 28-H ) :   0.9432 B(  8-S ,  9-C ) :   1.0119 B(  9-C , 10-S ) :   1.0019
B(  9-C , 29-H ) :   0.8793 B(  9-C , 30-H ) :   0.8817 B( 10-S , 11-P ) :   0.9634
B( 10-S , 12-S ) :   0.1067 B( 11-P , 12-S ) :   1.5951 B( 11-P , 13-O ) :   1.1324
B( 11-P , 16-O ) :   1.0972 B( 13-O , 14-C ) :   0.8959 B( 14-C , 15-C ) :   1.1690
B( 14-C , 31-H ) :   0.9057 B( 14-C , 32-H ) :   0.9342 B( 15-C , 33-H ) :   0.9423
B( 15-C , 34-H ) :   0.9391 B( 15-C , 35-H ) :   0.9441 B( 16-O , 17-C ) :   0.9023
B( 17-C , 18-C ) :   1.1676 B( 17-C , 36-H ) :   0.9146 B( 17-C , 37-H ) :   0.9352
B( 18-C , 38-H ) :   0.9399 B( 18-C , 39-H ) :   0.9477 B( 18-C , 40-H ) :   0.9339

Dispersion correction           -0.067395157
FINAL SINGLE POINT ENERGY     -2929.524852319527

DIPOLE MOMENT
-------------

Method             : SCF
Type of density    : Electron Density
Multiplicity       :   1
Irrep              :   0
Energy             : -2929.6425202825826091 Eh
Relativity type    :
Basis              : AO
                                X                 Y                 Z
Electronic contribution:      4.897230271      -1.786000317     -10.047306304
Nuclear contribution   :     -5.262333157       1.938974318      10.766647038
                        -----------------------------------------
Total Dipole Moment    :     -0.365102886       0.152974001       0.719340733
                        -----------------------------------------
Magnitude (a.u.)       :      0.821067752
Magnitude (Debye)      :      2.086988369

Rotational constants in cm-1:             0.013259             0.005141             0.004958
Rotational constants in MHz :           397.487061           154.114398           148.623924

                             ****ORCA TERMINATED NORMALLY****
TOTAL RUN TIME: 0 days 0 hours 0 minutes 21 seconds 847 msec
