                         Program Version 6.0.0  -   RELEASE  -
|  1> ! pbe def2-sv(p) def2/J RI DEFGRID1 loosescf d4 GCP(DFT/SV(P)) printgap
|  2> %output
|  3>     printlevel normal
|  4> end
|  5> * xyz 0 1
|  6> C 3.2818143233 -0.1316906274 -2.9532484953
|  7> C 1.8367962201 0.1136582585 -2.5767389509
|  8> O 1.4258422509 -0.667243197 -1.4346302484
|  9> P 2.0876960832 -0.4771411574 -0.0057710586
| 10> S 2.6568255618 1.3273718368 0.5178365537
| 11> O 3.2724542061 -1.5355980985 -0.0958099934
| 12> C 4.3765692652 -1.5431171925 0.8240786232
| 13> C 3.9525089239 -1.9125326136 2.2310682536
| 14> S 0.6561926427 -1.4513131805 1.2063270862
| 15> C 0.0310377426 -0.0347425861 2.1753707289
| 16> S -1.7746412517 0.0946345881 2.1518372178
| 17> P -2.0492206305 0.4243419514 0.0930696773
| 18> S -0.7617935271 1.6209005445 -0.7911092463
| 19> O -3.557879898 0.9071037099 0.0056790387
| 20> C -3.9461863826 2.2527317242 0.3487069994
| 21> C -5.3311600286 2.4947922001 -0.2163184153
| 22> O -2.1502863906 -1.0578781105 -0.4427004503
| 23> C -1.9593698331 -1.4196400907 -1.825489759
| 24> C -2.9923736659 -0.7754828172 -2.724735922
| 25> H 3.5029788853 0.3926764042 -3.8776432428
| 26> H 3.9391825303 0.2425805934 -2.1693069912
| 27> H 3.4590667701 -1.1959529405 -3.0854634399
| 28> H 1.1547730788 -0.2023282162 -3.3678781281
| 29> H 1.661422184 1.1703488014 -2.3479529278
| 30> H 5.0619797138 -2.2797584718 0.4029456144
| 31> H 4.8402492898 -0.551414691 0.8134831657
| 32> H 3.3276625586 -1.1237709038 2.6482594001
| 33> H 3.3889026184 -2.8420555621 2.2251808613
| 34> H 4.834701256 -2.0276547424 2.8525812279
| 35> H 0.4791053848 0.8822156048 1.782007822
| 36> H 0.2986013723 -0.1846762578 3.218182465
| 37> H -3.9375103663 2.3431291719 1.4382147639
| 38> H -3.2109211722 2.9463566803 -0.0733869403
| 39> H -5.3161401564 2.4071065677 -1.298933278
| 40> H -6.0262049101 1.7643939812 0.1871907265
| 41> H -5.6573274676 3.4926533498 0.0576843542
| 42> H -0.9457274108 -1.1305549342 -2.1192391558
| 43> H -2.04306295 -2.5073361928 -1.8184845594
| 44> H -2.8670546509 -1.1397670674 -3.7396381294
| 45> H -3.9931235753 -1.0127610442 -2.3733850041
| 46> H -2.8634167222 0.3066772492 -2.7166687528
| 47> *
| 48>
| 49>                          ****END OF INPUT****

CARTESIAN COORDINATES (ANGSTROEM)
---------------------------------
  C      3.281814   -0.131691   -2.953248
  C      1.836796    0.113658   -2.576739
  O      1.425842   -0.667243   -1.434630
  P      2.087696   -0.477141   -0.005771
  S      2.656826    1.327372    0.517837
  O      3.272454   -1.535598   -0.095810
  C      4.376569   -1.543117    0.824079
  C      3.952509   -1.912533    2.231068
  S      0.656193   -1.451313    1.206327
  C      0.031038   -0.034743    2.175371
  S     -1.774641    0.094635    2.151837
  P     -2.049221    0.424342    0.093070
  S     -0.761794    1.620901   -0.791109
  O     -3.557880    0.907104    0.005679
  C     -3.946186    2.252732    0.348707
  C     -5.331160    2.494792   -0.216318
  O     -2.150286   -1.057878   -0.442700
  C     -1.959370   -1.419640   -1.825490
  C     -2.992374   -0.775483   -2.724736
  H      3.502979    0.392676   -3.877643
  H      3.939183    0.242581   -2.169307
  H      3.459067   -1.195953   -3.085463
  H      1.154773   -0.202328   -3.367878
  H      1.661422    1.170349   -2.347953
  H      5.061980   -2.279758    0.402946
  H      4.840249   -0.551415    0.813483
  H      3.327663   -1.123771    2.648259
  H      3.388903   -2.842056    2.225181
  H      4.834701   -2.027655    2.852581
  H      0.479105    0.882216    1.782008
  H      0.298601   -0.184676    3.218182
  H     -3.937510    2.343129    1.438215
  H     -3.210921    2.946357   -0.073387
  H     -5.316140    2.407107   -1.298933
  H     -6.026205    1.764394    0.187191
  H     -5.657327    3.492653    0.057684
  H     -0.945727   -1.130555   -2.119239
  H     -2.043063   -2.507336   -1.818485
  H     -2.867055   -1.139767   -3.739638
  H     -3.993124   -1.012761   -2.373385
  H     -2.863417    0.306677   -2.716669

 Total Charge           Charge          ....    0
 Multiplicity           Mult            ....    1
 Number of Electrons    NEL             ....  202
 Basis Dimension        Dim             ....  334

ORBITAL ENERGIES
----------------

  NO   OCC          E(Eh)            E(eV)
   0   2.0000     -88.040734     -2395.7102
   1   2.0000     -88.039850     -2395.6861
   2   2.0000     -87.986413     -2394.2320
   3   2.0000     -87.982116     -2394.1151
   4   2.0000     -76.424014     -2079.6032
   5   2.0000     -76.423216     -2079.5814
   6   2.0000     -18.792131      -511.3599
   7   2.0000     -18.789204      -511.2802
   8   2.0000     -18.786036      -511.1940
   9   2.0000     -18.785904      -511.1904
  10   2.0000      -9.952973      -270.8342
  11   2.0000      -9.951754      -270.8010
  12   2.0000      -9.950092      -270.7558
  13   2.0000      -9.947170      -270.6763
  14   2.0000      -9.946758      -270.6650
  15   2.0000      -9.887994      -269.0660
  16   2.0000      -9.882386      -268.9134
  17   2.0000      -9.881039      -268.8768
  18   2.0000      -9.880322      -268.8572
  19   2.0000      -7.686542      -209.1614
  20   2.0000      -7.684764      -209.1131
  21   2.0000      -7.631326      -207.6590
  22   2.0000      -7.626746      -207.5343
  23   2.0000      -6.421434      -174.7361
  24   2.0000      -6.420763      -174.7178
  25   2.0000      -5.714470      -155.4986
  26   2.0000      -5.712657      -155.4493
  27   2.0000      -5.710950      -155.4029
  28   2.0000      -5.709438      -155.3617
  29   2.0000      -5.703456      -155.1989
  30   2.0000      -5.701535      -155.1466
  31   2.0000      -5.660196      -154.0218
  32   2.0000      -5.655521      -153.8945
  33   2.0000      -5.652155      -153.8030
  34   2.0000      -5.651331      -153.7805
  35   2.0000      -5.647458      -153.6752
  36   2.0000      -5.646990      -153.6624
  37   2.0000      -4.643685      -126.3611
  38   2.0000      -4.643140      -126.3463
  39   2.0000      -4.643062      -126.3441
  40   2.0000      -4.642598      -126.3315
  41   2.0000      -4.642333      -126.3243
  42   2.0000      -4.641326      -126.2969
  43   2.0000      -0.984781       -26.7972
  44   2.0000      -0.983326       -26.7577
  45   2.0000      -0.943411       -25.6715
  46   2.0000      -0.941087       -25.6083
  47   2.0000      -0.760567       -20.6961
  48   2.0000      -0.719868       -19.5886
  49   2.0000      -0.706562       -19.2265
  50   2.0000      -0.686981       -18.6937
  51   2.0000      -0.684278       -18.6201
  52   2.0000      -0.672536       -18.3006
  53   2.0000      -0.649485       -17.6734
  54   2.0000      -0.633264       -17.2320
  55   2.0000      -0.601909       -16.3788
  56   2.0000      -0.592568       -16.1246
  57   2.0000      -0.569391       -15.4939
  58   2.0000      -0.565025       -15.3751
  59   2.0000      -0.559459       -15.2237
  60   2.0000      -0.501963       -13.6591
  61   2.0000      -0.489061       -13.3080
  62   2.0000      -0.472574       -12.8594
  63   2.0000      -0.468316       -12.7435
  64   2.0000      -0.447490       -12.1768
  65   2.0000      -0.446391       -12.1469
  66   2.0000      -0.437327       -11.9003
  67   2.0000      -0.434105       -11.8126
  68   2.0000      -0.427437       -11.6312
  69   2.0000      -0.416462       -11.3325
  70   2.0000      -0.406309       -11.0562
  71   2.0000      -0.396716       -10.7952
  72   2.0000      -0.389139       -10.5890
  73   2.0000      -0.387360       -10.5406
  74   2.0000      -0.379573       -10.3287
  75   2.0000      -0.375780       -10.2255
  76   2.0000      -0.371183       -10.1004
  77   2.0000      -0.356048        -9.6885
  78   2.0000      -0.351368        -9.5612
  79   2.0000      -0.347286        -9.4501
  80   2.0000      -0.344635        -9.3780
  81   2.0000      -0.341741        -9.2992
  82   2.0000      -0.339176        -9.2295
  83   2.0000      -0.334683        -9.1072
  84   2.0000      -0.332699        -9.0532
  85   2.0000      -0.314071        -8.5463
  86   2.0000      -0.309931        -8.4336
  87   2.0000      -0.299501        -8.1498
  88   2.0000      -0.292656        -7.9636
  89   2.0000      -0.282827        -7.6961
  90   2.0000      -0.280591        -7.6353
  91   2.0000      -0.271579        -7.3900
  92   2.0000      -0.269045        -7.3211
  93   2.0000      -0.263346        -7.1660
  94   2.0000      -0.258753        -7.0410
  95   2.0000      -0.231563        -6.3012
  96   2.0000      -0.219238        -5.9658
  97   2.0000      -0.214814        -5.8454
  98   2.0000      -0.203024        -5.5246
  99   2.0000      -0.195680        -5.3247
 100   2.0000      -0.188527        -5.1301
 101   0.0000      -0.039587        -1.0772
 102   0.0000      -0.032165        -0.8752
 103   0.0000      -0.005334        -0.1451
 104   0.0000       0.017193         0.4678
 105   0.0000       0.023903         0.6504

MULLIKEN ATOMIC CHARGES
-----------------------
   0 C :   -0.299320
   1 C :   -0.007715
   2 O :   -0.363171
   3 P :    0.615479
   4 S :   -0.316653
   5 O :   -0.373445
   6 C :   -0.002096
   7 C :   -0.309483
   8 S :   -0.085282
   9 C :   -0.361864
  10 S :   -0.091329
  11 P :    0.612266
  12 S :   -0.329089
  13 O :   -0.376109
  14 C :   -0.012067
  15 C :   -0.281239
  16 O :   -0.357832
  17 C :   -0.018861
  18 C :   -0.312611
  19 H :    0.110158
  20 H :    0.122877
  21 H :    0.114709
  22 H :    0.100786
  23 H :    0.122646
  24 H :    0.103658
  25 H :    0.108662
  26 H :    0.118422
  27 H :    0.119293
  28 H :    0.111227
  29 H :    0.211539
  30 H :    0.180718
  31 H :    0.102832
  32 H :    0.106613
  33 H :    0.119075
  34 H :    0.117267
  35 H :    0.112361
  36 H :    0.136480
  37 H :    0.104316
  38 H :    0.108770
  39 H :    0.116247
  40 H :    0.121766
Sum of atomic charges:   -0.0000000

LOEWDIN ATOMIC CHARGES
----------------------
   0 C :   -0.366561
   1 C :   -0.117482
   2 O :   -0.238346
   3 P :    0.576063
   4 S :   -0.305438
   5 O :   -0.245942
   6 C :   -0.119660
   7 C :   -0.368948
   8 S :    0.088931
   9 C :   -0.478075
  10 S :    0.080608
  11 P :    0.564410
  12 S :   -0.311248
  13 O :   -0.247419
  14 C :   -0.120665
  15 C :   -0.350222
  16 O :   -0.234701
  17 C :   -0.115166
  18 C :   -0.368079
  19 H :    0.129969
  20 H :    0.121534
  21 H :    0.125317
  22 H :    0.114183
  23 H :    0.111197
  24 H :    0.117974
  25 H :    0.109026
  26 H :    0.118747
  27 H :    0.124510
  28 H :    0.129777
  29 H :    0.125332
  30 H :    0.134543
  31 H :    0.109979
  32 H :    0.108629
  33 H :    0.127833
  34 H :    0.127224
  35 H :    0.131013
  36 H :    0.116434
  37 H :    0.119979
  38 H :    0.128724
  39 H :    0.125667
  40 H :    0.120352

  Mayer bond orders larger than 0.100000
B(  0-C ,  1-C ) :   1.1640 B(  0-C , 19-H ) :   0.9378 B(  0-C , 20-H ) :   0.9345
B(  0-C , 21-H ) :   0.9442 B(  1-C ,  2-O ) :   0.9011 B(  1-C , 22-H ) :   0.9310
B(  1-C , 23-H ) :   0.9168 B(  2-O ,  3-P ) :   1.1259 B(  3-P ,  4-S ) :   1.5875
B(  3-P ,  5-O ) :   1.0976 B(  3-P ,  8-S ) :   0.9643 B(  4-S ,  8-S ) :   0.1187
B(  5-O ,  6-C ) :   0.9144 B(  6-C ,  7-C ) :   1.1671 B(  6-C , 24-H ) :   0.9340
B(  6-C , 25-H ) :   0.9152 B(  7-C , 26-H ) :   0.9377 B(  7-C , 27-H ) :   0.9431
B(  7-C , 28-H ) :   0.9378 B(  8-S ,  9-C ) :   0.9964 B(  9-C , 10-S ) :   1.0037
B(  9-C , 29-H ) :   0.8499 B(  9-C , 30-H ) :   0.9112 B( 10-S , 11-P ) :   0.9623
B( 10-S , 12-S ) :   0.1097 B( 11-P , 12-S ) :   1.6125 B( 11-P , 13-O ) :   1.1029
B( 11-P , 16-O ) :   1.1418 B( 13-O , 14-C ) :   0.9042 B( 14-C , 15-C ) :   1.1599
B( 14-C , 31-H ) :   0.9291 B( 14-C , 32-H ) :   0.9092 B( 15-C , 33-H ) :   0.9517
B( 15-C , 34-H ) :   0.9504 B( 15-C , 35-H ) :   0.9420 B( 16-O , 17-C ) :   0.8986
B( 17-C , 18-C ) :   1.1623 B( 17-C , 36-H ) :   0.9103 B( 17-C , 37-H ) :   0.9345
B( 18-C , 38-H ) :   0.9385 B( 18-C , 39-H ) :   0.9444 B( 18-C , 40-H ) :   0.9322

Dispersion correction           -0.067027105
FINAL SINGLE POINT ENERGY     -2929.522636305771

DIPOLE MOMENT
-------------

Method             : SCF
Type of density    : Electron Density
Multiplicity       :   1
Irrep              :   0
Energy             : -2929.6409469204140805 Eh
Relativity type    :
Basis              : AO
                                X                 Y                 Z
Electronic contribution:      0.731957932      -0.221300850      12.357987502
Nuclear contribution   :     -0.927299163      -0.268195575     -12.732525628
                        -----------------------------------------
Total Dipole Moment    :     -0.195341231      -0.489496425      -0.374538126
                        -----------------------------------------
Magnitude (a.u.)       :      0.646563032
Magnitude (Debye)      :      1.643432621

Rotational constants in cm-1:             0.013358             0.005133             0.004607
Rotational constants in MHz :           400.474422           153.883379           138.102778

                             ****ORCA TERMINATED NORMALLY****
TOTAL RUN TIME: 0 days 0 hours 0 minutes 21 seconds 433 msec
