                         Program Version 6.0.0  -   RELEASE  -
|  1> ! r2scan-3c def2/J RI DEFGRID2 scfconv6 printgap
|  2> %output
|  3>     printlevel normal
|  4> end
|  5> * xyz 0 1
|  6> C 0.845158416 -1.9207956222 2.9247299746
|  7> C 2.0860366463 -1.2039213285 2.4342440136
|  8> O 1.698008993 -0.2019763219 1.4597481284
|  9> P 2.4501100107 -0.016293322 0.0836341069
| 10> S 3.2262912561 -1.6358451723 -0.7112574359
| 11> O 3.5009538089 1.117216072 0.4468252579
| 12> C 4.5545582589 1.5134917777 -0.4544021761
| 13> C 5.7198678063 2.0135777365 0.375733277
| 14> S 0.9986280199 0.9887101334 -1.0746779696
| 15> C 0.1473638779 -0.5082077517 -1.6490309025
| 16> S -0.9482598527 -1.2027615883 -0.39571219
| 17> P -2.4174705762 0.3455776996 -0.4959242989
| 18> S -2.6950863112 1.1030825119 -2.2793453176
| 19> O -2.0274871541 1.4582673678 0.542365771
| 20> C -1.4804689546 1.2785216147 1.8720769558
| 21> C -2.3322886943 0.3808844058 2.7429115393
| 22> O -3.7006047528 -0.3292197449 0.1480688691
| 23> C -4.4708794667 -1.309896693 -0.5761784598
| 24> C -5.8312610957 -1.4117297837 0.0833295119
| 25> H 0.1677527548 -1.2180600585 3.3997785793
| 26> H 0.3346176469 -2.3965966627 2.0906874224
| 27> H 1.1383068201 -2.6792056709 3.6434042393
| 28> H 2.7832200519 -1.9024250375 1.9601425719
| 29> H 2.5937281886 -0.674565477 3.2423819634
| 30> H 4.8404405043 0.6487094936 -1.062862975
| 31> H 4.1611284666 2.2975169678 -1.1061589002
| 32> H 6.5093186276 2.3520662243 -0.2872256897
| 33> H 5.3988821599 2.8385058128 1.0050509765
| 34> H 6.0995970115 1.2148357261 1.0067242882
| 35> H 0.8856533504 -1.2711368522 -1.8986333034
| 36> H -0.4424410428 -0.2189002971 -2.5196649804
| 37> H -0.4642894557 0.8864207116 1.7729451978
| 38> H -1.4411612396 2.2982416238 2.2587158353
| 39> H -2.3074929249 -0.6417486249 2.3723646827
| 40> H -1.9471688343 0.4033379846 3.7581188384
| 41> H -3.3615763866 0.7299916489 2.744274282
| 42> H -4.5537046266 -0.9885748824 -1.6199137459
| 43> H -3.9338129259 -2.2612498428 -0.5361187515
| 44> H -6.3370079156 -0.4510973231 0.0440095189
| 45> H -6.426590026 -2.1510393502 -0.4422118306
| 46> H -5.7205297472 -1.7102831609 1.1214957594
| 47> *
| 48>
| 49>                          ****END OF INPUT****

CARTESIAN COORDINATES (ANGSTROEM)
---------------------------------
  C      0.845158   -1.920796    2.924730
  C      2.086037   -1.203921    2.434244
  O      1.698009   -0.201976    1.459748
  P      2.450110   -0.016293    0.083634
  S      3.226291   -1.635845   -0.711257
  O      3.500954    1.117216    0.446825
  C      4.554558    1.513492   -0.454402
  C      5.719868    2.013578    0.375733
  S      0.998628    0.988710   -1.074678
  C      0.147364   -0.508208   -1.649031
  S     -0.948260   -1.202762   -0.395712
  P     -2.417471    0.345578   -0.495924
  S     -2.695086    1.103083   -2.279345
  O     -2.027487    1.458267    0.542366
  C     -1.480469    1.278522    1.872077
  C     -2.332289    0.380884    2.742912
  O     -3.700605   -0.329220    0.148069
  C     -4.470879   -1.309897   -0.576178
  C     -5.831261   -1.411730    0.083330
  H      0.167753   -1.218060    3.399779
  H      0.334618   -2.396597    2.090687
  H      1.138307   -2.679206    3.643404
  H      2.783220   -1.902425    1.960143
  H      2.593728   -0.674565    3.242382
  H      4.840441    0.648709   -1.062863
  H      4.161128    2.297517   -1.106159
  H      6.509319    2.352066   -0.287226
  H      5.398882    2.838506    1.005051
  H      6.099597    1.214836    1.006724
  H      0.885653   -1.271137   -1.898633
  H     -0.442441   -0.218900   -2.519665
  H     -0.464289    0.886421    1.772945
  H     -1.441161    2.298242    2.258716
  H     -2.307493   -0.641749    2.372365
  H     -1.947169    0.403338    3.758119
  H     -3.361576    0.729992    2.744274
  H     -4.553705   -0.988575   -1.619914
  H     -3.933813   -2.261250   -0.536119
  H     -6.337008   -0.451097    0.044010
  H     -6.426590   -2.151039   -0.442212
  H     -5.720530   -1.710283    1.121496

 Total Charge           Charge          ....    0
 Multiplicity           Mult            ....    1
 Number of Electrons    NEL             ....  202
 Basis Dimension        Dim             ....  539

ORBITAL ENERGIES
----------------

  NO   OCC          E(Eh)            E(eV)
   0   2.0000     -88.577680     -2410.3212
   1   2.0000     -88.575536     -2410.2629
   2   2.0000     -88.523490     -2408.8466
   3   2.0000     -88.515885     -2408.6397
   4   2.0000     -76.916854     -2093.0140
   5   2.0000     -76.913270     -2092.9165
   6   2.0000     -18.996661      -516.9254
   7   2.0000     -18.995797      -516.9019
   8   2.0000     -18.993914      -516.8507
   9   2.0000     -18.990756      -516.7648
  10   2.0000     -10.103085      -274.9189
  11   2.0000     -10.102284      -274.8971
  12   2.0000     -10.100759      -274.8556
  13   2.0000     -10.099637      -274.8251
  14   2.0000     -10.099471      -274.8206
  15   2.0000     -10.035548      -273.0812
  16   2.0000     -10.034799      -273.0608
  17   2.0000     -10.034328      -273.0479
  18   2.0000     -10.034314      -273.0476
  19   2.0000      -7.871684      -214.1994
  20   2.0000      -7.869899      -214.1508
  21   2.0000      -7.818359      -212.7484
  22   2.0000      -7.810738      -212.5410
  23   2.0000      -6.595558      -179.4743
  24   2.0000      -6.591705      -179.3694
  25   2.0000      -5.818556      -158.3310
  26   2.0000      -5.816625      -158.2784
  27   2.0000      -5.815546      -158.2491
  28   2.0000      -5.813706      -158.1990
  29   2.0000      -5.808865      -158.0672
  30   2.0000      -5.807221      -158.0225
  31   2.0000      -5.765866      -156.8972
  32   2.0000      -5.758629      -156.7003
  33   2.0000      -5.758481      -156.6962
  34   2.0000      -5.758448      -156.6953
  35   2.0000      -5.750970      -156.4919
  36   2.0000      -5.750703      -156.4846
  37   2.0000      -4.741038      -129.0102
  38   2.0000      -4.740469      -128.9947
  39   2.0000      -4.739260      -128.9618
  40   2.0000      -4.737374      -128.9105
  41   2.0000      -4.736858      -128.8965
  42   2.0000      -4.735076      -128.8480
  43   2.0000      -1.054064       -28.6825
  44   2.0000      -1.050733       -28.5919
  45   2.0000      -1.014972       -27.6188
  46   2.0000      -1.011569       -27.5262
  47   2.0000      -0.803037       -21.8518
  48   2.0000      -0.763598       -20.7786
  49   2.0000      -0.754678       -20.5358
  50   2.0000      -0.738014       -20.0824
  51   2.0000      -0.736963       -20.0538
  52   2.0000      -0.711773       -19.3683
  53   2.0000      -0.683881       -18.6093
  54   2.0000      -0.668557       -18.1924
  55   2.0000      -0.630811       -17.1652
  56   2.0000      -0.625735       -17.0271
  57   2.0000      -0.606526       -16.5044
  58   2.0000      -0.603014       -16.4088
  59   2.0000      -0.593738       -16.1564
  60   2.0000      -0.538554       -14.6548
  61   2.0000      -0.526811       -14.3353
  62   2.0000      -0.504510       -13.7284
  63   2.0000      -0.495713       -13.4890
  64   2.0000      -0.477578       -12.9956
  65   2.0000      -0.464666       -12.6442
  66   2.0000      -0.460545       -12.5321
  67   2.0000      -0.455794       -12.4028
  68   2.0000      -0.453105       -12.3296
  69   2.0000      -0.436286       -11.8719
  70   2.0000      -0.425794       -11.5864
  71   2.0000      -0.417373       -11.3573
  72   2.0000      -0.412187       -11.2162
  73   2.0000      -0.399943       -10.8830
  74   2.0000      -0.395159       -10.7528
  75   2.0000      -0.392840       -10.6897
  76   2.0000      -0.382871       -10.4184
  77   2.0000      -0.378588       -10.3019
  78   2.0000      -0.374768       -10.1980
  79   2.0000      -0.369906       -10.0657
  80   2.0000      -0.368107       -10.0167
  81   2.0000      -0.363579        -9.8935
  82   2.0000      -0.360220        -9.8021
  83   2.0000      -0.357994        -9.7415
  84   2.0000      -0.351406        -9.5622
  85   2.0000      -0.334611        -9.1052
  86   2.0000      -0.325922        -8.8688
  87   2.0000      -0.317392        -8.6367
  88   2.0000      -0.315502        -8.5853
  89   2.0000      -0.308578        -8.3968
  90   2.0000      -0.306024        -8.3273
  91   2.0000      -0.297320        -8.0905
  92   2.0000      -0.286898        -7.8069
  93   2.0000      -0.279796        -7.6136
  94   2.0000      -0.273977        -7.4553
  95   2.0000      -0.250258        -6.8099
  96   2.0000      -0.234308        -6.3759
  97   2.0000      -0.226348        -6.1593
  98   2.0000      -0.217782        -5.9262
  99   2.0000      -0.214049        -5.8246
 100   2.0000      -0.211837        -5.7644
 101   0.0000      -0.046921        -1.2768
 102   0.0000      -0.026515        -0.7215
 103   0.0000      -0.002121        -0.0577
 104   0.0000       0.002146         0.0584
 105   0.0000       0.014156         0.3852

MULLIKEN ATOMIC CHARGES
-----------------------
   0 C :   -0.466034
   1 C :   -0.123237
   2 O :   -0.265488
   3 P :    0.689622
   4 S :   -0.496757
   5 O :   -0.298420
   6 C :   -0.139899
   7 C :   -0.445144
   8 S :   -0.117622
   9 C :   -0.239153
  10 S :   -0.182001
  11 P :    0.676728
  12 S :   -0.463401
  13 O :   -0.257622
  14 C :   -0.164759
  15 C :   -0.449901
  16 O :   -0.263943
  17 C :   -0.157620
  18 C :   -0.439959
  19 H :    0.150058
  20 H :    0.173140
  21 H :    0.147164
  22 H :    0.171598
  23 H :    0.150077
  24 H :    0.169701
  25 H :    0.151487
  26 H :    0.147817
  27 H :    0.154111
  28 H :    0.156742
  29 H :    0.213390
  30 H :    0.221962
  31 H :    0.188934
  32 H :    0.152951
  33 H :    0.163677
  34 H :    0.149215
  35 H :    0.161082
  36 H :    0.173177
  37 H :    0.150947
  38 H :    0.160106
  39 H :    0.147371
  40 H :    0.149900
Sum of atomic charges:   -0.0000000

LOEWDIN ATOMIC CHARGES
----------------------
   0 C :   -0.393463
   1 C :    0.024221
   2 O :   -0.681986
   3 P :    0.370582
   4 S :   -0.145817
   5 O :   -0.660896
   6 C :    0.022719
   7 C :   -0.386060
   8 S :    0.180473
   9 C :   -0.424042
  10 S :    0.133525
  11 P :    0.379743
  12 S :   -0.111680
  13 O :   -0.647130
  14 C :    0.022903
  15 C :   -0.405621
  16 O :   -0.674063
  17 C :    0.019188
  18 C :   -0.385528
  19 H :    0.158099
  20 H :    0.166596
  21 H :    0.159845
  22 H :    0.183758
  23 H :    0.173079
  24 H :    0.181498
  25 H :    0.172477
  26 H :    0.160521
  27 H :    0.159843
  28 H :    0.160524
  29 H :    0.193383
  30 H :    0.194444
  31 H :    0.194067
  32 H :    0.183227
  33 H :    0.162494
  34 H :    0.158789
  35 H :    0.165644
  36 H :    0.182317
  37 H :    0.171436
  38 H :    0.162369
  39 H :    0.160429
  40 H :    0.158094

  Mayer bond orders larger than 0.100000
B(  0-C ,  1-C ) :   0.9565 B(  0-C , 19-H ) :   0.9669 B(  0-C , 20-H ) :   0.9671
B(  0-C , 21-H ) :   0.9635 B(  1-C ,  2-O ) :   0.7612 B(  1-C , 22-H ) :   0.9546
B(  1-C , 23-H ) :   0.9511 B(  2-O ,  3-P ) :   1.1621 B(  3-P ,  4-S ) :   1.7371
B(  3-P ,  5-O ) :   1.0932 B(  3-P ,  8-S ) :   1.0844 B(  5-O ,  6-C ) :   0.7709
B(  6-C ,  7-C ) :   0.9594 B(  6-C , 24-H ) :   0.9528 B(  6-C , 25-H ) :   0.9458
B(  7-C , 26-H ) :   0.9645 B(  7-C , 27-H ) :   0.9716 B(  7-C , 28-H ) :   0.9718
B(  8-S ,  9-C ) :   0.9204 B(  9-C , 10-S ) :   0.9194 B(  9-C , 29-H ) :   0.8999
B(  9-C , 30-H ) :   0.9017 B( 10-S , 11-P ) :   0.9641 B( 11-P , 12-S ) :   1.8086
B( 11-P , 13-O ) :   1.2002 B( 11-P , 16-O ) :   1.0571 B( 13-O , 14-C ) :   0.8053
B( 14-C , 15-C ) :   0.8984 B( 14-C , 31-H ) :   0.9563 B( 14-C , 32-H ) :   0.9625
B( 15-C , 33-H ) :   0.9666 B( 15-C , 34-H ) :   0.9605 B( 15-C , 35-H ) :   0.9623
B( 16-O , 17-C ) :   0.7776 B( 17-C , 18-C ) :   0.9562 B( 17-C , 36-H ) :   0.9510
B( 17-C , 37-H ) :   0.9425 B( 18-C , 38-H ) :   0.9715 B( 18-C , 39-H ) :   0.9641
B( 18-C , 40-H ) :   0.9717

Dispersion correction           -0.021077346
FINAL SINGLE POINT ENERGY     -2932.464231619990

DIPOLE MOMENT
-------------

Method             : SCF
Type of density    : Electron Density
Multiplicity       :   1
Irrep              :   0
Energy             : -2932.4896833118932591 Eh
Relativity type    :
Basis              : AO
                                X                 Y                 Z
Electronic contribution:      2.154643812       4.458655274     -18.452020344
Nuclear contribution   :     -1.951877959      -4.834914940      20.188148932
                        -----------------------------------------
Total Dipole Moment    :      0.202765853      -0.376259666       1.736128588
                        -----------------------------------------
Magnitude (a.u.)       :      1.787967506
Magnitude (Debye)      :      4.544652230

Rotational constants in cm-1:             0.013722             0.004443             0.004115
Rotational constants in MHz :           411.382377           133.194602           123.351854

                             ****ORCA TERMINATED NORMALLY****
TOTAL RUN TIME: 0 days 0 hours 1 minutes 21 seconds 452 msec
