                         Program Version 6.0.0  -   RELEASE  -
|  1> ! r2scan-3c def2/J RI DEFGRID2 scfconv6 printgap
|  2> %output
|  3>     printlevel normal
|  4> end
|  5> %cpcm
|  6>     smd true
|  7>     smdsolvent "water"
|  8> end
|  9> * xyz 0 1
| 10> C 0.845158416 -1.9207956222 2.9247299746
| 11> C 2.0860366463 -1.2039213285 2.4342440136
| 12> O 1.698008993 -0.2019763219 1.4597481284
| 13> P 2.4501100107 -0.016293322 0.0836341069
| 14> S 3.2262912561 -1.6358451723 -0.7112574359
| 15> O 3.5009538089 1.117216072 0.4468252579
| 16> C 4.5545582589 1.5134917777 -0.4544021761
| 17> C 5.7198678063 2.0135777365 0.375733277
| 18> S 0.9986280199 0.9887101334 -1.0746779696
| 19> C 0.1473638779 -0.5082077517 -1.6490309025
| 20> S -0.9482598527 -1.2027615883 -0.39571219
| 21> P -2.4174705762 0.3455776996 -0.4959242989
| 22> S -2.6950863112 1.1030825119 -2.2793453176
| 23> O -2.0274871541 1.4582673678 0.542365771
| 24> C -1.4804689546 1.2785216147 1.8720769558
| 25> C -2.3322886943 0.3808844058 2.7429115393
| 26> O -3.7006047528 -0.3292197449 0.1480688691
| 27> C -4.4708794667 -1.309896693 -0.5761784598
| 28> C -5.8312610957 -1.4117297837 0.0833295119
| 29> H 0.1677527548 -1.2180600585 3.3997785793
| 30> H 0.3346176469 -2.3965966627 2.0906874224
| 31> H 1.1383068201 -2.6792056709 3.6434042393
| 32> H 2.7832200519 -1.9024250375 1.9601425719
| 33> H 2.5937281886 -0.674565477 3.2423819634
| 34> H 4.8404405043 0.6487094936 -1.062862975
| 35> H 4.1611284666 2.2975169678 -1.1061589002
| 36> H 6.5093186276 2.3520662243 -0.2872256897
| 37> H 5.3988821599 2.8385058128 1.0050509765
| 38> H 6.0995970115 1.2148357261 1.0067242882
| 39> H 0.8856533504 -1.2711368522 -1.8986333034
| 40> H -0.4424410428 -0.2189002971 -2.5196649804
| 41> H -0.4642894557 0.8864207116 1.7729451978
| 42> H -1.4411612396 2.2982416238 2.2587158353
| 43> H -2.3074929249 -0.6417486249 2.3723646827
| 44> H -1.9471688343 0.4033379846 3.7581188384
| 45> H -3.3615763866 0.7299916489 2.744274282
| 46> H -4.5537046266 -0.9885748824 -1.6199137459
| 47> H -3.9338129259 -2.2612498428 -0.5361187515
| 48> H -6.3370079156 -0.4510973231 0.0440095189
| 49> H -6.426590026 -2.1510393502 -0.4422118306
| 50> H -5.7205297472 -1.7102831609 1.1214957594
| 51> *
| 52>
| 53>                          ****END OF INPUT****

CARTESIAN COORDINATES (ANGSTROEM)
---------------------------------
  C      0.845158   -1.920796    2.924730
  C      2.086037   -1.203921    2.434244
  O      1.698009   -0.201976    1.459748
  P      2.450110   -0.016293    0.083634
  S      3.226291   -1.635845   -0.711257
  O      3.500954    1.117216    0.446825
  C      4.554558    1.513492   -0.454402
  C      5.719868    2.013578    0.375733
  S      0.998628    0.988710   -1.074678
  C      0.147364   -0.508208   -1.649031
  S     -0.948260   -1.202762   -0.395712
  P     -2.417471    0.345578   -0.495924
  S     -2.695086    1.103083   -2.279345
  O     -2.027487    1.458267    0.542366
  C     -1.480469    1.278522    1.872077
  C     -2.332289    0.380884    2.742912
  O     -3.700605   -0.329220    0.148069
  C     -4.470879   -1.309897   -0.576178
  C     -5.831261   -1.411730    0.083330
  H      0.167753   -1.218060    3.399779
  H      0.334618   -2.396597    2.090687
  H      1.138307   -2.679206    3.643404
  H      2.783220   -1.902425    1.960143
  H      2.593728   -0.674565    3.242382
  H      4.840441    0.648709   -1.062863
  H      4.161128    2.297517   -1.106159
  H      6.509319    2.352066   -0.287226
  H      5.398882    2.838506    1.005051
  H      6.099597    1.214836    1.006724
  H      0.885653   -1.271137   -1.898633
  H     -0.442441   -0.218900   -2.519665
  H     -0.464289    0.886421    1.772945
  H     -1.441161    2.298242    2.258716
  H     -2.307493   -0.641749    2.372365
  H     -1.947169    0.403338    3.758119
  H     -3.361576    0.729992    2.744274
  H     -4.553705   -0.988575   -1.619914
  H     -3.933813   -2.261250   -0.536119
  H     -6.337008   -0.451097    0.044010
  H     -6.426590   -2.151039   -0.442212
  H     -5.720530   -1.710283    1.121496

 Total Charge           Charge          ....    0
 Multiplicity           Mult            ....    1
 Number of Electrons    NEL             ....  202
 Basis Dimension        Dim             ....  539

ORBITAL ENERGIES
----------------

  NO   OCC          E(Eh)            E(eV)
   0   2.0000     -88.582748     -2410.4591
   1   2.0000     -88.579733     -2410.3771
   2   2.0000     -88.529434     -2409.0084
   3   2.0000     -88.528514     -2408.9833
   4   2.0000     -76.921184     -2093.1318
   5   2.0000     -76.920440     -2093.1116
   6   2.0000     -18.996849      -516.9305
   7   2.0000     -18.996698      -516.9264
   8   2.0000     -18.996595      -516.9236
   9   2.0000     -18.994935      -516.8785
  10   2.0000     -10.104396      -274.9546
  11   2.0000     -10.091569      -274.6055
  12   2.0000     -10.090839      -274.5857
  13   2.0000     -10.090249      -274.5696
  14   2.0000     -10.089806      -274.5576
  15   2.0000     -10.020227      -272.6642
  16   2.0000     -10.019921      -272.6559
  17   2.0000     -10.019560      -272.6461
  18   2.0000     -10.018143      -272.6075
  19   2.0000      -7.876882      -214.3408
  20   2.0000      -7.874012      -214.2628
  21   2.0000      -7.824578      -212.9176
  22   2.0000      -7.823744      -212.8949
  23   2.0000      -6.599680      -179.5864
  24   2.0000      -6.599133      -179.5715
  25   2.0000      -5.823701      -158.4710
  26   2.0000      -5.820775      -158.3913
  27   2.0000      -5.820722      -158.3899
  28   2.0000      -5.817842      -158.3115
  29   2.0000      -5.814133      -158.2106
  30   2.0000      -5.811283      -158.1331
  31   2.0000      -5.772031      -157.0649
  32   2.0000      -5.771317      -157.0455
  33   2.0000      -5.764858      -156.8698
  34   2.0000      -5.764692      -156.8652
  35   2.0000      -5.763987      -156.8461
  36   2.0000      -5.763762      -156.8399
  37   2.0000      -4.745313      -129.1265
  38   2.0000      -4.744760      -129.1115
  39   2.0000      -4.744529      -129.1052
  40   2.0000      -4.744046      -129.0921
  41   2.0000      -4.743197      -129.0689
  42   2.0000      -4.742958      -129.0625
  43   2.0000      -1.054830       -28.7034
  44   2.0000      -1.053362       -28.6634
  45   2.0000      -1.015126       -27.6230
  46   2.0000      -1.013428       -27.5768
  47   2.0000      -0.806488       -21.9457
  48   2.0000      -0.759166       -20.6580
  49   2.0000      -0.747992       -20.3539
  50   2.0000      -0.728177       -19.8147
  51   2.0000      -0.724263       -19.7082
  52   2.0000      -0.710769       -19.3410
  53   2.0000      -0.687534       -18.7087
  54   2.0000      -0.674999       -18.3677
  55   2.0000      -0.627827       -17.0840
  56   2.0000      -0.620698       -16.8900
  57   2.0000      -0.598447       -16.2846
  58   2.0000      -0.594680       -16.1821
  59   2.0000      -0.590289       -16.0626
  60   2.0000      -0.533514       -14.5176
  61   2.0000      -0.524111       -14.2618
  62   2.0000      -0.498784       -13.5726
  63   2.0000      -0.493255       -13.4222
  64   2.0000      -0.478388       -13.0176
  65   2.0000      -0.459615       -12.5068
  66   2.0000      -0.455491       -12.3945
  67   2.0000      -0.446775       -12.1574
  68   2.0000      -0.445163       -12.1135
  69   2.0000      -0.436718       -11.8837
  70   2.0000      -0.422859       -11.5066
  71   2.0000      -0.413560       -11.2535
  72   2.0000      -0.406924       -11.0730
  73   2.0000      -0.396161       -10.7801
  74   2.0000      -0.390330       -10.6214
  75   2.0000      -0.388008       -10.5582
  76   2.0000      -0.382118       -10.3980
  77   2.0000      -0.370161       -10.0726
  78   2.0000      -0.364142        -9.9088
  79   2.0000      -0.358702        -9.7608
  80   2.0000      -0.356106        -9.6901
  81   2.0000      -0.353419        -9.6170
  82   2.0000      -0.352694        -9.5973
  83   2.0000      -0.347841        -9.4652
  84   2.0000      -0.344519        -9.3748
  85   2.0000      -0.328914        -8.9502
  86   2.0000      -0.319189        -8.6856
  87   2.0000      -0.313778        -8.5383
  88   2.0000      -0.312079        -8.4921
  89   2.0000      -0.305393        -8.3102
  90   2.0000      -0.304280        -8.2799
  91   2.0000      -0.292669        -7.9639
  92   2.0000      -0.285474        -7.7682
  93   2.0000      -0.278719        -7.5843
  94   2.0000      -0.275739        -7.5032
  95   2.0000      -0.254444        -6.9238
  96   2.0000      -0.241140        -6.5617
  97   2.0000      -0.234693        -6.3863
  98   2.0000      -0.227072        -6.1789
  99   2.0000      -0.224776        -6.1165
 100   2.0000      -0.221939        -6.0393
 101   0.0000      -0.052770        -1.4359
 102   0.0000      -0.033178        -0.9028
 103   0.0000      -0.005756        -0.1566
 104   0.0000      -0.003519        -0.0958
 105   0.0000       0.013505         0.3675

MULLIKEN ATOMIC CHARGES
-----------------------
   0 C :   -0.505314
   1 C :   -0.110576
   2 O :   -0.283113
   3 P :    0.716783
   4 S :   -0.539650
   5 O :   -0.321295
   6 C :   -0.134859
   7 C :   -0.484995
   8 S :   -0.142874
   9 C :   -0.245926
  10 S :   -0.170266
  11 P :    0.684914
  12 S :   -0.521114
  13 O :   -0.292464
  14 C :   -0.159513
  15 C :   -0.475614
  16 O :   -0.281829
  17 C :   -0.145332
  18 C :   -0.481178
  19 H :    0.171933
  20 H :    0.170347
  21 H :    0.168767
  22 H :    0.169928
  23 H :    0.174244
  24 H :    0.170183
  25 H :    0.172774
  26 H :    0.169759
  27 H :    0.166094
  28 H :    0.166489
  29 H :    0.231208
  30 H :    0.235269
  31 H :    0.187006
  32 H :    0.177919
  33 H :    0.169669
  34 H :    0.177108
  35 H :    0.168890
  36 H :    0.173001
  37 H :    0.171201
  38 H :    0.166772
  39 H :    0.169765
  40 H :    0.165886
Sum of atomic charges:   -0.0000000

LOEWDIN ATOMIC CHARGES
----------------------
   0 C :   -0.396061
   1 C :    0.031289
   2 O :   -0.686283
   3 P :    0.375431
   4 S :   -0.173960
   5 O :   -0.672117
   6 C :    0.026748
   7 C :   -0.389933
   8 S :    0.163506
   9 C :   -0.420615
  10 S :    0.145635
  11 P :    0.380836
  12 S :   -0.157615
  13 O :   -0.669476
  14 C :    0.028890
  15 C :   -0.404449
  16 O :   -0.681666
  17 C :    0.024428
  18 C :   -0.388641
  19 H :    0.164965
  20 H :    0.163886
  21 H :    0.167924
  22 H :    0.183467
  23 H :    0.183661
  24 H :    0.181931
  25 H :    0.180828
  26 H :    0.168988
  27 H :    0.163239
  28 H :    0.162525
  29 H :    0.198432
  30 H :    0.197851
  31 H :    0.194341
  32 H :    0.193352
  33 H :    0.163802
  34 H :    0.170726
  35 H :    0.166425
  36 H :    0.182084
  37 H :    0.180041
  38 H :    0.163251
  39 H :    0.169218
  40 H :    0.163116

  Mayer bond orders larger than 0.100000
B(  0-C ,  1-C ) :   0.9489 B(  0-C , 19-H ) :   0.9638 B(  0-C , 20-H ) :   0.9665
B(  0-C , 21-H ) :   0.9586 B(  1-C ,  2-O ) :   0.7502 B(  1-C , 22-H ) :   0.9533
B(  1-C , 23-H ) :   0.9410 B(  2-O ,  3-P ) :   1.1779 B(  3-P ,  4-S ) :   1.7057
B(  3-P ,  5-O ) :   1.1006 B(  3-P ,  8-S ) :   1.0899 B(  5-O ,  6-C ) :   0.7624
B(  6-C ,  7-C ) :   0.9548 B(  6-C , 24-H ) :   0.9501 B(  6-C , 25-H ) :   0.9374
B(  7-C , 26-H ) :   0.9589 B(  7-C , 27-H ) :   0.9687 B(  7-C , 28-H ) :   0.9692
B(  8-S ,  9-C ) :   0.9077 B(  9-C , 10-S ) :   0.9108 B(  9-C , 29-H ) :   0.8972
B(  9-C , 30-H ) :   0.8982 B( 10-S , 11-P ) :   0.9846 B( 11-P , 12-S ) :   1.7842
B( 11-P , 13-O ) :   1.2030 B( 11-P , 16-O ) :   1.0678 B( 13-O , 14-C ) :   0.7946
B( 14-C , 15-C ) :   0.8971 B( 14-C , 31-H ) :   0.9498 B( 14-C , 32-H ) :   0.9511
B( 15-C , 33-H ) :   0.9612 B( 15-C , 34-H ) :   0.9514 B( 15-C , 35-H ) :   0.9643
B( 16-O , 17-C ) :   0.7690 B( 17-C , 18-C ) :   0.9541 B( 17-C , 36-H ) :   0.9486
B( 17-C , 37-H ) :   0.9328 B( 18-C , 38-H ) :   0.9696 B( 18-C , 39-H ) :   0.9581
B( 18-C , 40-H ) :   0.9682

Dispersion correction           -0.021077346
FINAL SINGLE POINT ENERGY     -2932.473699533814

DIPOLE MOMENT
-------------

Method             : SCF
Type of density    : Electron Density
Multiplicity       :   1
Irrep              :   0
Energy             : -2932.4991512257174691 Eh
Relativity type    :
Basis              : AO
                                X                 Y                 Z
Electronic contribution:      2.287849253       4.103361682     -17.819355087
Nuclear contribution   :     -1.951877959      -4.834914940      20.188148932
                        -----------------------------------------
Total Dipole Moment    :      0.335971294      -0.731553258       2.368793845
                        -----------------------------------------
Magnitude (a.u.)       :      2.501845551
Magnitude (Debye)      :      6.359186017

Rotational constants in cm-1:             0.013722             0.004443             0.004115
Rotational constants in MHz :           411.382377           133.194602           123.351854

                             ****ORCA TERMINATED NORMALLY****
TOTAL RUN TIME: 0 days 0 hours 1 minutes 54 seconds 794 msec
