                         Program Version 6.0.0  -   RELEASE  -
|  1> ! pbe def2-sv(p) def2/J RI DEFGRID1 loosescf d4 GCP(DFT/SV(P)) printgap
|  2> %output
|  3>     printlevel normal
|  4> end
|  5> * xyz 0 1
|  6> C 1.5204614704 -2.0896182531 1.827291439
|  7> C 2.9849810136 -1.8446488278 1.5271880587
|  8> O 3.2330368201 -0.4926771161 1.1034478687
|  9> P 2.7855718678 0.052552257 -0.3237149785
| 10> S 2.9752461967 -1.2220840851 -1.793898511
| 11> O 3.7134524344 1.3100611774 -0.5242082755
| 12> C 3.7128230659 2.5008745357 0.2988353446
| 13> C 4.5626157608 2.3276191512 1.540701861
| 14> S 0.8341299725 0.9058771812 -0.0405899077
| 15> C -0.074869759 0.0157323593 -1.3282948148
| 16> S -1.2282410608 -1.2053195027 -0.6617403748
| 17> P -2.7422568054 0.2018704901 -0.1310637417
| 18> S -3.0917892732 1.6071183923 -1.4452039076
| 19> O -2.2912330909 0.7998489358 1.2533051833
| 20> C -2.0223045439 -0.0171926251 2.4235049207
| 21> C -1.0565538455 0.745443488 3.306213254
| 22> O -3.9799747965 -0.7059901825 0.2838871664
| 23> C -4.9610065002 -1.1734968025 -0.6597299582
| 24> C -4.3721698712 -2.124006583 -1.6817436203
| 25> H 1.1490144157 -1.3431579572 2.5244886398
| 26> H 0.9363724108 -2.0461498566 0.9085323102
| 27> H 1.4051919827 -3.0769547397 2.2626731009
| 28> H 3.3383275401 -2.5235916984 0.7448900905
| 29> H 3.6021928951 -1.9553173028 2.4199260014
| 30> H 4.1219109774 3.2695820728 -0.3593057583
| 31> H 2.679069076 2.7483983452 0.5564987829
| 32> H 4.1288977642 1.5796855633 2.1981096885
| 33> H 5.5653086664 2.0133180003 1.2638131191
| 34> H 4.6171251481 3.2768387006 2.064780048
| 35> H 0.6381625079 -0.5210444904 -1.9587693528
| 36> H -0.6424405243 0.7488573907 -1.90296998
| 37> H -2.975198863 -0.1955476027 2.9246926373
| 38> H -1.602917691 -0.9727897602 2.0947575375
| 39> H -1.4924229028 1.6960862366 3.5989153354
| 40> H -0.8440442007 0.1580135722 4.193751922
| 41> H -0.1340127598 0.9423861024 2.7657453589
| 42> H -5.7062004482 -1.6661813932 -0.0335274867
| 43> H -5.4050523298 -0.3040587508 -1.1539186034
| 44> H -3.8286543319 -2.9249984286 -1.1867063072
| 45> H -5.1727340513 -2.547109296 -2.2799838534
| 46> H -3.6884516515 -1.5889976533 -2.3394117307
| 47> *
| 48>
| 49>                          ****END OF INPUT****

CARTESIAN COORDINATES (ANGSTROEM)
---------------------------------
  C      1.520461   -2.089618    1.827291
  C      2.984981   -1.844649    1.527188
  O      3.233037   -0.492677    1.103448
  P      2.785572    0.052552   -0.323715
  S      2.975246   -1.222084   -1.793899
  O      3.713452    1.310061   -0.524208
  C      3.712823    2.500875    0.298835
  C      4.562616    2.327619    1.540702
  S      0.834130    0.905877   -0.040590
  C     -0.074870    0.015732   -1.328295
  S     -1.228241   -1.205320   -0.661740
  P     -2.742257    0.201870   -0.131064
  S     -3.091789    1.607118   -1.445204
  O     -2.291233    0.799849    1.253305
  C     -2.022305   -0.017193    2.423505
  C     -1.056554    0.745443    3.306213
  O     -3.979975   -0.705990    0.283887
  C     -4.961007   -1.173497   -0.659730
  C     -4.372170   -2.124007   -1.681744
  H      1.149014   -1.343158    2.524489
  H      0.936372   -2.046150    0.908532
  H      1.405192   -3.076955    2.262673
  H      3.338328   -2.523592    0.744890
  H      3.602193   -1.955317    2.419926
  H      4.121911    3.269582   -0.359306
  H      2.679069    2.748398    0.556499
  H      4.128898    1.579686    2.198110
  H      5.565309    2.013318    1.263813
  H      4.617125    3.276839    2.064780
  H      0.638163   -0.521044   -1.958769
  H     -0.642441    0.748857   -1.902970
  H     -2.975199   -0.195548    2.924693
  H     -1.602918   -0.972790    2.094758
  H     -1.492423    1.696086    3.598915
  H     -0.844044    0.158014    4.193752
  H     -0.134013    0.942386    2.765745
  H     -5.706200   -1.666181   -0.033527
  H     -5.405052   -0.304059   -1.153919
  H     -3.828654   -2.924998   -1.186706
  H     -5.172734   -2.547109   -2.279984
  H     -3.688452   -1.588998   -2.339412

 Total Charge           Charge          ....    0
 Multiplicity           Mult            ....    1
 Number of Electrons    NEL             ....  202
 Basis Dimension        Dim             ....  334

ORBITAL ENERGIES
----------------

  NO   OCC          E(Eh)            E(eV)
   0   2.0000     -88.045595     -2395.8424
   1   2.0000     -88.043860     -2395.7952
   2   2.0000     -87.992133     -2394.3877
   3   2.0000     -87.987913     -2394.2728
   4   2.0000     -76.429765     -2079.7596
   5   2.0000     -76.427779     -2079.7056
   6   2.0000     -18.797337      -511.5015
   7   2.0000     -18.796069      -511.4670
   8   2.0000     -18.794635      -511.4280
   9   2.0000     -18.793881      -511.4075
  10   2.0000      -9.960394      -271.0361
  11   2.0000      -9.957307      -270.9521
  12   2.0000      -9.956939      -270.9421
  13   2.0000      -9.956127      -270.9200
  14   2.0000      -9.949936      -270.7515
  15   2.0000      -9.889321      -269.1021
  16   2.0000      -9.889098      -269.0960
  17   2.0000      -9.887628      -269.0560
  18   2.0000      -9.886780      -269.0330
  19   2.0000      -7.689962      -209.2545
  20   2.0000      -7.688371      -209.2112
  21   2.0000      -7.637273      -207.8208
  22   2.0000      -7.633146      -207.7085
  23   2.0000      -6.427471      -174.9004
  24   2.0000      -6.425523      -174.8474
  25   2.0000      -5.717563      -155.5828
  26   2.0000      -5.716123      -155.5436
  27   2.0000      -5.714554      -155.5009
  28   2.0000      -5.712923      -155.4565
  29   2.0000      -5.707235      -155.3018
  30   2.0000      -5.705502      -155.2546
  31   2.0000      -5.666176      -154.1845
  32   2.0000      -5.662111      -154.0739
  33   2.0000      -5.657928      -153.9600
  34   2.0000      -5.657370      -153.9449
  35   2.0000      -5.653713      -153.8454
  36   2.0000      -5.653292      -153.8339
  37   2.0000      -4.650189      -126.5381
  38   2.0000      -4.649030      -126.5065
  39   2.0000      -4.648450      -126.4907
  40   2.0000      -4.647965      -126.4775
  41   2.0000      -4.647160      -126.4557
  42   2.0000      -4.645742      -126.4171
  43   2.0000      -0.991421       -26.9779
  44   2.0000      -0.990744       -26.9595
  45   2.0000      -0.949108       -25.8265
  46   2.0000      -0.948164       -25.8008
  47   2.0000      -0.763141       -20.7661
  48   2.0000      -0.725103       -19.7311
  49   2.0000      -0.715481       -19.4692
  50   2.0000      -0.693818       -18.8797
  51   2.0000      -0.692305       -18.8386
  52   2.0000      -0.679482       -18.4896
  53   2.0000      -0.653032       -17.7699
  54   2.0000      -0.640497       -17.4288
  55   2.0000      -0.602143       -16.3851
  56   2.0000      -0.594624       -16.1805
  57   2.0000      -0.579118       -15.7586
  58   2.0000      -0.574779       -15.6405
  59   2.0000      -0.559997       -15.2383
  60   2.0000      -0.509472       -13.8634
  61   2.0000      -0.500988       -13.6326
  62   2.0000      -0.478872       -13.0308
  63   2.0000      -0.477337       -12.9890
  64   2.0000      -0.460835       -12.5399
  65   2.0000      -0.451458       -12.2848
  66   2.0000      -0.443010       -12.0549
  67   2.0000      -0.439659       -11.9637
  68   2.0000      -0.434100       -11.8125
  69   2.0000      -0.430859       -11.7243
  70   2.0000      -0.411648       -11.2015
  71   2.0000      -0.398312       -10.8386
  72   2.0000      -0.394071       -10.7232
  73   2.0000      -0.389374       -10.5954
  74   2.0000      -0.378974       -10.3124
  75   2.0000      -0.374400       -10.1880
  76   2.0000      -0.366931        -9.9847
  77   2.0000      -0.362612        -9.8672
  78   2.0000      -0.358855        -9.7649
  79   2.0000      -0.355865        -9.6836
  80   2.0000      -0.352889        -9.6026
  81   2.0000      -0.349571        -9.5123
  82   2.0000      -0.345874        -9.4117
  83   2.0000      -0.341746        -9.2994
  84   2.0000      -0.338220        -9.2034
  85   2.0000      -0.320475        -8.7206
  86   2.0000      -0.315927        -8.5968
  87   2.0000      -0.305119        -8.3027
  88   2.0000      -0.300369        -8.1735
  89   2.0000      -0.297399        -8.0926
  90   2.0000      -0.293771        -7.9939
  91   2.0000      -0.277896        -7.5619
  92   2.0000      -0.272441        -7.4135
  93   2.0000      -0.266707        -7.2575
  94   2.0000      -0.259249        -7.0545
  95   2.0000      -0.234113        -6.3705
  96   2.0000      -0.221714        -6.0332
  97   2.0000      -0.214544        -5.8380
  98   2.0000      -0.208539        -5.6746
  99   2.0000      -0.207169        -5.6374
 100   2.0000      -0.201132        -5.4731
 101   0.0000      -0.043787        -1.1915
 102   0.0000      -0.033460        -0.9105
 103   0.0000      -0.018346        -0.4992
 104   0.0000       0.002849         0.0775
 105   0.0000       0.013871         0.3775

MULLIKEN ATOMIC CHARGES
-----------------------
   0 C :   -0.341420
   1 C :    0.004661
   2 O :   -0.379238
   3 P :    0.610947
   4 S :   -0.305814
   5 O :   -0.354347
   6 C :   -0.021308
   7 C :   -0.296388
   8 S :   -0.111733
   9 C :   -0.359169
  10 S :   -0.098970
  11 P :    0.598073
  12 S :   -0.306898
  13 O :   -0.356007
  14 C :   -0.017149
  15 C :   -0.292093
  16 O :   -0.385303
  17 C :    0.001200
  18 C :   -0.323046
  19 H :    0.121920
  20 H :    0.135691
  21 H :    0.111674
  22 H :    0.114423
  23 H :    0.103853
  24 H :    0.115375
  25 H :    0.114626
  26 H :    0.122942
  27 H :    0.121249
  28 H :    0.111949
  29 H :    0.196127
  30 H :    0.196327
  31 H :    0.108707
  32 H :    0.109452
  33 H :    0.120513
  34 H :    0.108291
  35 H :    0.133859
  36 H :    0.105763
  37 H :    0.114085
  38 H :    0.118436
  39 H :    0.116016
  40 H :    0.132725
Sum of atomic charges:   -0.0000000

LOEWDIN ATOMIC CHARGES
----------------------
   0 C :   -0.372789
   1 C :   -0.116936
   2 O :   -0.246815
   3 P :    0.571760
   4 S :   -0.294502
   5 O :   -0.234733
   6 C :   -0.113280
   7 C :   -0.362376
   8 S :    0.073128
   9 C :   -0.491189
  10 S :    0.088820
  11 P :    0.568747
  12 S :   -0.306931
  13 O :   -0.236501
  14 C :   -0.114603
  15 C :   -0.356258
  16 O :   -0.249363
  17 C :   -0.114826
  18 C :   -0.371634
  19 H :    0.123788
  20 H :    0.113427
  21 H :    0.131048
  22 H :    0.112147
  23 H :    0.118031
  24 H :    0.124527
  25 H :    0.105298
  26 H :    0.124589
  27 H :    0.129887
  28 H :    0.130394
  29 H :    0.125883
  30 H :    0.127669
  31 H :    0.116370
  32 H :    0.104123
  33 H :    0.129871
  34 H :    0.128323
  35 H :    0.121645
  36 H :    0.119121
  37 H :    0.114420
  38 H :    0.123493
  39 H :    0.132706
  40 H :    0.123522

  Mayer bond orders larger than 0.100000
B(  0-C ,  1-C ) :   1.1614 B(  0-C , 19-H ) :   0.9380 B(  0-C , 20-H ) :   0.9265
B(  0-C , 21-H ) :   0.9367 B(  1-C ,  2-O ) :   0.9104 B(  1-C , 22-H ) :   0.9149
B(  1-C , 23-H ) :   0.9331 B(  2-O ,  3-P ) :   1.0833 B(  3-P ,  4-S ) :   1.6270
B(  3-P ,  5-O ) :   1.1493 B(  3-P ,  8-S ) :   0.9417 B(  4-S ,  8-S ) :   0.1141
B(  4-S , 29-H ) :   0.1185 B(  5-O ,  6-C ) :   0.9014 B(  6-C ,  7-C ) :   1.1615
B(  6-C , 24-H ) :   0.9358 B(  6-C , 25-H ) :   0.9135 B(  7-C , 26-H ) :   0.9394
B(  7-C , 27-H ) :   0.9468 B(  7-C , 28-H ) :   0.9384 B(  8-S ,  9-C ) :   1.0064
B(  9-C , 10-S ) :   1.0060 B(  9-C , 29-H ) :   0.8482 B(  9-C , 30-H ) :   0.8641
B( 10-S , 11-P ) :   0.9472 B( 10-S , 12-S ) :   0.1069 B( 11-P , 12-S ) :   1.6413
B( 11-P , 13-O ) :   1.1432 B( 11-P , 16-O ) :   1.0908 B( 13-O , 14-C ) :   0.8858
B( 14-C , 15-C ) :   1.1702 B( 14-C , 31-H ) :   0.9309 B( 14-C , 32-H ) :   0.9078
B( 15-C , 33-H ) :   0.9461 B( 15-C , 34-H ) :   0.9389 B( 15-C , 35-H ) :   0.9338
B( 16-O , 17-C ) :   0.9057 B( 17-C , 18-C ) :   1.1657 B( 17-C , 36-H ) :   0.9344
B( 17-C , 37-H ) :   0.9200 B( 18-C , 38-H ) :   0.9434 B( 18-C , 39-H ) :   0.9368
B( 18-C , 40-H ) :   0.9345

Dispersion correction           -0.063614420
FINAL SINGLE POINT ENERGY     -2929.519627430636

DIPOLE MOMENT
-------------

Method             : SCF
Type of density    : Electron Density
Multiplicity       :   1
Irrep              :   0
Energy             : -2929.6412414518072183 Eh
Relativity type    :
Basis              : AO
                                X                 Y                 Z
Electronic contribution:     -0.788736705       4.566359148     -16.847652472
Nuclear contribution   :      0.632897338      -5.125512570      18.665051158
                        -----------------------------------------
Total Dipole Moment    :     -0.155839366      -0.559153422       1.817398685
                        -----------------------------------------
Magnitude (a.u.)       :      1.907846021
Magnitude (Debye)      :      4.849359200

Rotational constants in cm-1:             0.012809             0.004340             0.004198
Rotational constants in MHz :           384.012874           130.115863           125.863244

                             ****ORCA TERMINATED NORMALLY****
TOTAL RUN TIME: 0 days 0 hours 0 minutes 21 seconds 56 msec
