                         Program Version 6.0.0  -   RELEASE  -
|  1> ! pbe def2-sv(p) def2/J RI DEFGRID1 loosescf d4 GCP(DFT/SV(P)) printgap
|  2> %output
|  3>     printlevel normal
|  4> end
|  5> * xyz 0 1
|  6> C 3.3337768191 0.2264206077 -2.9256454163
|  7> C 1.8845766185 0.4328574095 -2.5415409331
|  8> O 1.455071148 -0.4891644261 -1.5193428036
|  9> P 2.0800800233 -0.5036249058 -0.0650636175
| 10> S 2.6912307182 1.1955791853 0.7071358699
| 11> O 3.231733941 -1.5839628579 -0.2593581087
| 12> C 4.2969109863 -1.7626769848 0.6880588508
| 13> C 3.8002762795 -2.2883208108 2.0196633473
| 14> S 0.556857127 -1.5653810112 0.9587246818
| 15> C 0.0500653189 -0.3014832119 2.1788436045
| 16> S -1.747052864 -0.1072368616 2.2848817751
| 17> P -2.1362004186 0.6381023505 0.3474292021
| 18> S -0.7440999808 1.6946261077 -0.5485998269
| 19> O -3.4532429868 1.4125138949 0.7471482295
| 20> C -4.0328795354 2.4521129563 -0.0676795413
| 21> C -4.8474189247 1.8815429564 -1.2103453352
| 22> O -2.6939159112 -0.5922344126 -0.4956805929
| 23> C -1.9845588704 -1.3170684503 -1.515206901
| 24> C -2.5604399162 -0.9908731142 -2.8799391791
| 25> H 3.503418882 -0.8105374548 -3.203739291
| 26> H 3.5780071552 0.8731679306 -3.7625079839
| 27> H 3.9798664707 0.4776518578 -2.0850693803
| 28> H 1.2100788981 0.226786588 -3.3738317961
| 29> H 1.7118803221 1.4510941044 -2.177219607
| 30> H 4.965757407 -2.4717098018 0.198565994
| 31> H 4.8036153242 -0.8015844865 0.8222812328
| 32> H 3.1923588783 -1.5302192392 2.5125020386
| 33> H 3.1993655378 -3.1823865915 1.8738150588
| 34> H 4.64998785 -2.5224221804 2.6529253055
| 35> H 0.5206306814 0.6481358487 1.9096747761
| 36> H 0.3643595416 -0.6268803975 3.167282211
| 37> H -4.6569770693 3.0144220314 0.628817844
| 38> H -3.2264884884 3.0929340484 -0.4405753209
| 39> H -5.5778522477 1.173669377 -0.8280457869
| 40> H -5.3606530957 2.6899143223 -1.7218819187
| 41> H -4.1970540933 1.369911084 -1.9159639561
| 42> H -0.9218341762 -1.0628834761 -1.479544508
| 43> H -2.1120326314 -2.372068455 -1.2655929662
| 44> H -2.0799672794 -1.6165531509 -3.6252552643
| 45> H -3.6306482504 -1.1776514914 -2.8898314124
| 46> H -2.3753299179 0.0536222797 -3.1231140053
| 47> *
| 48>
| 49>                          ****END OF INPUT****

CARTESIAN COORDINATES (ANGSTROEM)
---------------------------------
  C      3.333777    0.226421   -2.925645
  C      1.884577    0.432857   -2.541541
  O      1.455071   -0.489164   -1.519343
  P      2.080080   -0.503625   -0.065064
  S      2.691231    1.195579    0.707136
  O      3.231734   -1.583963   -0.259358
  C      4.296911   -1.762677    0.688059
  C      3.800276   -2.288321    2.019663
  S      0.556857   -1.565381    0.958725
  C      0.050065   -0.301483    2.178844
  S     -1.747053   -0.107237    2.284882
  P     -2.136200    0.638102    0.347429
  S     -0.744100    1.694626   -0.548600
  O     -3.453243    1.412514    0.747148
  C     -4.032880    2.452113   -0.067680
  C     -4.847419    1.881543   -1.210345
  O     -2.693916   -0.592234   -0.495681
  C     -1.984559   -1.317068   -1.515207
  C     -2.560440   -0.990873   -2.879939
  H      3.503419   -0.810537   -3.203739
  H      3.578007    0.873168   -3.762508
  H      3.979866    0.477652   -2.085069
  H      1.210079    0.226787   -3.373832
  H      1.711880    1.451094   -2.177220
  H      4.965757   -2.471710    0.198566
  H      4.803615   -0.801584    0.822281
  H      3.192359   -1.530219    2.512502
  H      3.199366   -3.182387    1.873815
  H      4.649988   -2.522422    2.652925
  H      0.520631    0.648136    1.909675
  H      0.364360   -0.626880    3.167282
  H     -4.656977    3.014422    0.628818
  H     -3.226488    3.092934   -0.440575
  H     -5.577852    1.173669   -0.828046
  H     -5.360653    2.689914   -1.721882
  H     -4.197054    1.369911   -1.915964
  H     -0.921834   -1.062883   -1.479545
  H     -2.112033   -2.372068   -1.265593
  H     -2.079967   -1.616553   -3.625255
  H     -3.630648   -1.177651   -2.889831
  H     -2.375330    0.053622   -3.123114

 Total Charge           Charge          ....    0
 Multiplicity           Mult            ....    1
 Number of Electrons    NEL             ....  202
 Basis Dimension        Dim             ....  334

ORBITAL ENERGIES
----------------

  NO   OCC          E(Eh)            E(eV)
   0   2.0000     -88.042824     -2395.7670
   1   2.0000     -88.037990     -2395.6355
   2   2.0000     -87.989899     -2394.3269
   3   2.0000     -87.984853     -2394.1896
   4   2.0000     -76.427163     -2079.6888
   5   2.0000     -76.423456     -2079.5880
   6   2.0000     -18.790950      -511.3277
   7   2.0000     -18.790180      -511.3068
   8   2.0000     -18.788594      -511.2636
   9   2.0000     -18.784159      -511.1430
  10   2.0000      -9.952887      -270.8318
  11   2.0000      -9.952311      -270.8162
  12   2.0000      -9.951745      -270.8008
  13   2.0000      -9.950187      -270.7583
  14   2.0000      -9.943787      -270.5842
  15   2.0000      -9.885052      -268.9859
  16   2.0000      -9.884779      -268.9785
  17   2.0000      -9.882745      -268.9232
  18   2.0000      -9.882463      -268.9155
  19   2.0000      -7.687335      -209.1830
  20   2.0000      -7.683787      -209.0865
  21   2.0000      -7.634768      -207.7526
  22   2.0000      -7.629480      -207.6087
  23   2.0000      -6.424475      -174.8188
  24   2.0000      -6.420952      -174.7230
  25   2.0000      -5.715167      -155.5176
  26   2.0000      -5.712037      -155.4324
  27   2.0000      -5.711843      -155.4272
  28   2.0000      -5.708316      -155.3312
  29   2.0000      -5.704205      -155.2193
  30   2.0000      -5.700450      -155.1171
  31   2.0000      -5.663605      -154.1145
  32   2.0000      -5.658253      -153.9689
  33   2.0000      -5.655618      -153.8972
  34   2.0000      -5.654791      -153.8747
  35   2.0000      -5.650388      -153.7549
  36   2.0000      -5.649522      -153.7313
  37   2.0000      -4.646708      -126.4433
  38   2.0000      -4.646136      -126.4278
  39   2.0000      -4.645375      -126.4071
  40   2.0000      -4.643315      -126.3510
  41   2.0000      -4.642670      -126.3335
  42   2.0000      -4.641664      -126.3061
  43   2.0000      -0.986797       -26.8521
  44   2.0000      -0.981463       -26.7070
  45   2.0000      -0.944644       -25.7051
  46   2.0000      -0.939981       -25.5782
  47   2.0000      -0.759825       -20.6759
  48   2.0000      -0.721637       -19.6368
  49   2.0000      -0.707409       -19.2496
  50   2.0000      -0.686732       -18.6869
  51   2.0000      -0.684980       -18.6392
  52   2.0000      -0.672602       -18.3024
  53   2.0000      -0.651191       -17.7198
  54   2.0000      -0.635842       -17.3021
  55   2.0000      -0.604877       -16.4595
  56   2.0000      -0.594438       -16.1755
  57   2.0000      -0.572320       -15.5736
  58   2.0000      -0.566933       -15.4270
  59   2.0000      -0.557399       -15.1676
  60   2.0000      -0.497403       -13.5350
  61   2.0000      -0.489074       -13.3084
  62   2.0000      -0.475210       -12.9311
  63   2.0000      -0.471110       -12.8196
  64   2.0000      -0.449436       -12.2298
  65   2.0000      -0.446910       -12.1610
  66   2.0000      -0.439946       -11.9715
  67   2.0000      -0.429966       -11.7000
  68   2.0000      -0.427720       -11.6389
  69   2.0000      -0.418263       -11.3815
  70   2.0000      -0.400373       -10.8947
  71   2.0000      -0.397382       -10.8133
  72   2.0000      -0.390610       -10.6290
  73   2.0000      -0.384119       -10.4524
  74   2.0000      -0.381815       -10.3897
  75   2.0000      -0.381020       -10.3681
  76   2.0000      -0.372623       -10.1396
  77   2.0000      -0.356714        -9.7067
  78   2.0000      -0.353438        -9.6175
  79   2.0000      -0.349294        -9.5048
  80   2.0000      -0.347623        -9.4593
  81   2.0000      -0.341735        -9.2991
  82   2.0000      -0.337770        -9.1912
  83   2.0000      -0.336159        -9.1473
  84   2.0000      -0.333586        -9.0773
  85   2.0000      -0.315359        -8.5814
  86   2.0000      -0.312093        -8.4925
  87   2.0000      -0.295650        -8.0451
  88   2.0000      -0.292720        -7.9653
  89   2.0000      -0.283729        -7.7206
  90   2.0000      -0.279709        -7.6113
  91   2.0000      -0.275701        -7.5022
  92   2.0000      -0.270297        -7.3552
  93   2.0000      -0.265326        -7.2199
  94   2.0000      -0.258112        -7.0236
  95   2.0000      -0.230662        -6.2766
  96   2.0000      -0.220023        -5.9871
  97   2.0000      -0.215906        -5.8751
  98   2.0000      -0.202680        -5.5152
  99   2.0000      -0.200195        -5.4476
 100   2.0000      -0.191000        -5.1974
 101   0.0000      -0.043705        -1.1893
 102   0.0000      -0.036218        -0.9855
 103   0.0000      -0.004537        -0.1235
 104   0.0000       0.012610         0.3431
 105   0.0000       0.018970         0.5162

MULLIKEN ATOMIC CHARGES
-----------------------
   0 C :   -0.305135
   1 C :   -0.000827
   2 O :   -0.361164
   3 P :    0.621286
   4 S :   -0.312255
   5 O :   -0.371052
   6 C :   -0.001916
   7 C :   -0.311767
   8 S :   -0.107386
   9 C :   -0.360146
  10 S :   -0.087365
  11 P :    0.633528
  12 S :   -0.333906
  13 O :   -0.375571
  14 C :   -0.003102
  15 C :   -0.314479
  16 O :   -0.377062
  17 C :   -0.039842
  18 C :   -0.292932
  19 H :    0.115526
  20 H :    0.112049
  21 H :    0.123589
  22 H :    0.101803
  23 H :    0.122640
  24 H :    0.104607
  25 H :    0.109207
  26 H :    0.118984
  27 H :    0.120219
  28 H :    0.112549
  29 H :    0.212719
  30 H :    0.181536
  31 H :    0.107157
  32 H :    0.110091
  33 H :    0.118385
  34 H :    0.110782
  35 H :    0.129373
  36 H :    0.143357
  37 H :    0.100739
  38 H :    0.107936
  39 H :    0.115010
  40 H :    0.122832
Sum of atomic charges:    0.0000000

LOEWDIN ATOMIC CHARGES
----------------------
   0 C :   -0.366584
   1 C :   -0.114716
   2 O :   -0.235051
   3 P :    0.577219
   4 S :   -0.299849
   5 O :   -0.245643
   6 C :   -0.119269
   7 C :   -0.368826
   8 S :    0.081814
   9 C :   -0.478776
  10 S :    0.086202
  11 P :    0.566804
  12 S :   -0.309701
  13 O :   -0.245310
  14 C :   -0.113715
  15 C :   -0.362133
  16 O :   -0.248675
  17 C :   -0.124842
  18 C :   -0.358775
  19 H :    0.125775
  20 H :    0.130711
  21 H :    0.121843
  22 H :    0.117544
  23 H :    0.112049
  24 H :    0.118536
  25 H :    0.109487
  26 H :    0.118824
  27 H :    0.124873
  28 H :    0.130386
  29 H :    0.124851
  30 H :    0.134236
  31 H :    0.119763
  32 H :    0.109870
  33 H :    0.127955
  34 H :    0.130114
  35 H :    0.125156
  36 H :    0.107988
  37 H :    0.115313
  38 H :    0.128549
  39 H :    0.123668
  40 H :    0.122334

  Mayer bond orders larger than 0.100000
B(  0-C ,  1-C ) :   1.1630 B(  0-C , 19-H ) :   0.9444 B(  0-C , 20-H ) :   0.9382
B(  0-C , 21-H ) :   0.9344 B(  1-C ,  2-O ) :   0.8975 B(  1-C , 22-H ) :   0.9352
B(  1-C , 23-H ) :   0.9179 B(  2-O ,  3-P ) :   1.1264 B(  3-P ,  4-S ) :   1.5921
B(  3-P ,  5-O ) :   1.1002 B(  3-P ,  8-S ) :   0.9494 B(  4-S ,  8-S ) :   0.1181
B(  5-O ,  6-C ) :   0.9149 B(  6-C ,  7-C ) :   1.1662 B(  6-C , 24-H ) :   0.9340
B(  6-C , 25-H ) :   0.9162 B(  7-C , 26-H ) :   0.9376 B(  7-C , 27-H ) :   0.9428
B(  7-C , 28-H ) :   0.9378 B(  8-S ,  9-C ) :   0.9813 B(  9-C , 10-S ) :   1.0179
B(  9-C , 29-H ) :   0.8512 B(  9-C , 30-H ) :   0.9104 B( 10-S , 11-P ) :   0.9410
B( 10-S , 12-S ) :   0.1079 B( 11-P , 12-S ) :   1.6148 B( 11-P , 13-O ) :   1.1306
B( 11-P , 16-O ) :   1.1078 B( 13-O , 14-C ) :   0.9107 B( 14-C , 15-C ) :   1.1616
B( 14-C , 31-H ) :   0.9359 B( 14-C , 32-H ) :   0.9124 B( 15-C , 33-H ) :   0.9463
B( 15-C , 34-H ) :   0.9385 B( 15-C , 35-H ) :   0.9369 B( 16-O , 17-C ) :   0.9000
B( 17-C , 18-C ) :   1.1679 B( 17-C , 36-H ) :   0.8921 B( 17-C , 37-H ) :   0.9343
B( 18-C , 38-H ) :   0.9393 B( 18-C , 39-H ) :   0.9446 B( 18-C , 40-H ) :   0.9339

Dispersion correction           -0.067117176
FINAL SINGLE POINT ENERGY     -2929.522871609573

DIPOLE MOMENT
-------------

Method             : SCF
Type of density    : Electron Density
Multiplicity       :   1
Irrep              :   0
Energy             : -2929.6410180384882551 Eh
Relativity type    :
Basis              : AO
                                X                 Y                 Z
Electronic contribution:     -1.406699416       2.454066210      16.602708198
Nuclear contribution   :      1.451848583      -3.085655041     -17.378988076
                        -----------------------------------------
Total Dipole Moment    :      0.045149167      -0.631588831      -0.776279878
                        -----------------------------------------
Magnitude (a.u.)       :      1.001775099
Magnitude (Debye)      :      2.546309942

Rotational constants in cm-1:             0.012945             0.005235             0.004668
Rotational constants in MHz :           388.083696           156.933279           139.942730

                             ****ORCA TERMINATED NORMALLY****
TOTAL RUN TIME: 0 days 0 hours 0 minutes 21 seconds 667 msec
