                         Program Version 6.0.0  -   RELEASE  -
|  1> ! r2scan-3c def2/J RI DEFGRID2 scfconv6 printgap
|  2> %output
|  3>     printlevel normal
|  4> end
|  5> * xyz 0 1
|  6> C 5.5573576083 -0.4192199006 -1.7329120718
|  7> C 4.4584577355 -1.2537633691 -1.1062357325
|  8> O 3.1818136157 -0.58040922 -1.2102993006
|  9> P 2.6192344232 0.3168598688 -0.0267253029
| 10> S 3.7726160465 1.7333069767 0.6802018033
| 11> O 2.2457442452 -0.8068900176 1.0471897616
| 12> C 2.1288368694 -0.515252864 2.4483575184
| 13> C 0.9226355929 0.3489601519 2.7524394123
| 14> S 0.8319591267 0.9349650137 -0.9541548875
| 15> C 0.164398404 -0.6914415754 -1.4364903861
| 16> S -0.7261738738 -1.5316639803 -0.1069171894
| 17> P -2.3812041668 -0.2177377515 -0.0667732924
| 18> S -2.9732942051 0.4500597689 -1.8190145975
| 19> O -1.8963606891 0.8860136577 0.9569917542
| 20> C -2.4058667075 2.2327413283 0.929850202
| 21> C -3.846357672 2.2820779204 1.3927953661
| 22> O -3.4373222959 -1.0055250547 0.8201890782
| 23> C -4.1029613866 -2.2037306567 0.3733107701
| 24> C -5.3948129254 -1.8776974921 -0.3512677122
| 25> H 5.3088553004 -0.1896288111 -2.765365058
| 26> H 5.6797707025 0.5141410663 -1.1874954244
| 27> H 6.4900200346 -0.9733991136 -1.701198215
| 28> H 4.6705852899 -1.4618350705 -0.054455813
| 29> H 4.317292527 -2.1934384908 -1.6434182709
| 30> H 2.051915696 -1.4971606972 2.9166761514
| 31> H 3.0453348235 -0.0114152278 2.7726655766
| 32> H 0.0071550048 -0.1323361667 2.4171771848
| 33> H 0.86444166 0.52361471 3.8218871522
| 34> H 1.0220471312 1.3080333536 2.2426361263
| 35> H 0.9771522227 -1.3391309649 -1.7491537599
| 36> H -0.5272344078 -0.4926336762 -2.2562095065
| 37> H -1.7412787145 2.7816294218 1.5980786434
| 38> H -2.3081174765 2.6229211045 -0.0885347017
| 39> H -3.9396398067 1.8305175076 2.3767837782
| 40> H -4.1798918883 3.3141855389 1.4322753915
| 41> H -4.473767814 1.7321288255 0.6919185931
| 42> H -3.4249850265 -2.7745569337 -0.2676342083
| 43> H -4.2934493297 -2.7636205476 1.2908094792
| 44> H -5.189409828 -1.3039655292 -1.2522996726
| 45> H -5.8931214952 -2.801490741 -0.6268792621
| 46> H -6.0486691038 -1.2958927474 0.2924789983
| 47> *
| 48>
| 49>                          ****END OF INPUT****

CARTESIAN COORDINATES (ANGSTROEM)
---------------------------------
  C      5.557358   -0.419220   -1.732912
  C      4.458458   -1.253763   -1.106236
  O      3.181814   -0.580409   -1.210299
  P      2.619234    0.316860   -0.026725
  S      3.772616    1.733307    0.680202
  O      2.245744   -0.806890    1.047190
  C      2.128837   -0.515253    2.448358
  C      0.922636    0.348960    2.752439
  S      0.831959    0.934965   -0.954155
  C      0.164398   -0.691442   -1.436490
  S     -0.726174   -1.531664   -0.106917
  P     -2.381204   -0.217738   -0.066773
  S     -2.973294    0.450060   -1.819015
  O     -1.896361    0.886014    0.956992
  C     -2.405867    2.232741    0.929850
  C     -3.846358    2.282078    1.392795
  O     -3.437322   -1.005525    0.820189
  C     -4.102961   -2.203731    0.373311
  C     -5.394813   -1.877697   -0.351268
  H      5.308855   -0.189629   -2.765365
  H      5.679771    0.514141   -1.187495
  H      6.490020   -0.973399   -1.701198
  H      4.670585   -1.461835   -0.054456
  H      4.317293   -2.193438   -1.643418
  H      2.051916   -1.497161    2.916676
  H      3.045335   -0.011415    2.772666
  H      0.007155   -0.132336    2.417177
  H      0.864442    0.523615    3.821887
  H      1.022047    1.308033    2.242636
  H      0.977152   -1.339131   -1.749154
  H     -0.527234   -0.492634   -2.256210
  H     -1.741279    2.781629    1.598079
  H     -2.308117    2.622921   -0.088535
  H     -3.939640    1.830518    2.376784
  H     -4.179892    3.314186    1.432275
  H     -4.473768    1.732129    0.691919
  H     -3.424985   -2.774557   -0.267634
  H     -4.293449   -2.763621    1.290809
  H     -5.189410   -1.303966   -1.252300
  H     -5.893121   -2.801491   -0.626879
  H     -6.048669   -1.295893    0.292479

 Total Charge           Charge          ....    0
 Multiplicity           Mult            ....    1
 Number of Electrons    NEL             ....  202
 Basis Dimension        Dim             ....  539

ORBITAL ENERGIES
----------------

  NO   OCC          E(Eh)            E(eV)
   0   2.0000     -88.579039     -2410.3582
   1   2.0000     -88.574807     -2410.2430
   2   2.0000     -88.526203     -2408.9204
   3   2.0000     -88.519603     -2408.7408
   4   2.0000     -76.918930     -2093.0705
   5   2.0000     -76.913602     -2092.9255
   6   2.0000     -18.998580      -516.9776
   7   2.0000     -18.992723      -516.8183
   8   2.0000     -18.990139      -516.7480
   9   2.0000     -18.988804      -516.7116
  10   2.0000     -10.107511      -275.0394
  11   2.0000     -10.106306      -275.0066
  12   2.0000     -10.101451      -274.8744
  13   2.0000     -10.097799      -274.7751
  14   2.0000     -10.092686      -274.6360
  15   2.0000     -10.030140      -272.9340
  16   2.0000     -10.029382      -272.9134
  17   2.0000     -10.025306      -272.8025
  18   2.0000     -10.019156      -272.6351
  19   2.0000      -7.873512      -214.2492
  20   2.0000      -7.868796      -214.1208
  21   2.0000      -7.820941      -212.8186
  22   2.0000      -7.814287      -212.6376
  23   2.0000      -6.597399      -179.5244
  24   2.0000      -6.591759      -179.3709
  25   2.0000      -5.820310      -158.3787
  26   2.0000      -5.817320      -158.2973
  27   2.0000      -5.816170      -158.2660
  28   2.0000      -5.812360      -158.1624
  29   2.0000      -5.810716      -158.1176
  30   2.0000      -5.805760      -157.9828
  31   2.0000      -5.768508      -156.9691
  32   2.0000      -5.761958      -156.7909
  33   2.0000      -5.761220      -156.7708
  34   2.0000      -5.761040      -156.7659
  35   2.0000      -5.754774      -156.5954
  36   2.0000      -5.754076      -156.5764
  37   2.0000      -4.742826      -129.0588
  38   2.0000      -4.742350      -129.0459
  39   2.0000      -4.741179      -129.0140
  40   2.0000      -4.737269      -128.9076
  41   2.0000      -4.736778      -128.8943
  42   2.0000      -4.735456      -128.8583
  43   2.0000      -1.054960       -28.7069
  44   2.0000      -1.048319       -28.5262
  45   2.0000      -1.015642       -27.6370
  46   2.0000      -1.007865       -27.4254
  47   2.0000      -0.803173       -21.8554
  48   2.0000      -0.760582       -20.6965
  49   2.0000      -0.748294       -20.3621
  50   2.0000      -0.733444       -19.9580
  51   2.0000      -0.726384       -19.7659
  52   2.0000      -0.712098       -19.3772
  53   2.0000      -0.691235       -18.8095
  54   2.0000      -0.670753       -18.2521
  55   2.0000      -0.632699       -17.2166
  56   2.0000      -0.621003       -16.8984
  57   2.0000      -0.606868       -16.5137
  58   2.0000      -0.605651       -16.4806
  59   2.0000      -0.593805       -16.1582
  60   2.0000      -0.528698       -14.3866
  61   2.0000      -0.524555       -14.2739
  62   2.0000      -0.498632       -13.5685
  63   2.0000      -0.485683       -13.2161
  64   2.0000      -0.480503       -13.0751
  65   2.0000      -0.462627       -12.5887
  66   2.0000      -0.461722       -12.5641
  67   2.0000      -0.453800       -12.3485
  68   2.0000      -0.445737       -12.1291
  69   2.0000      -0.431572       -11.7437
  70   2.0000      -0.426338       -11.6013
  71   2.0000      -0.415979       -11.3194
  72   2.0000      -0.412148       -11.2151
  73   2.0000      -0.409873       -11.1532
  74   2.0000      -0.398715       -10.8496
  75   2.0000      -0.390649       -10.6301
  76   2.0000      -0.384701       -10.4682
  77   2.0000      -0.371249       -10.1022
  78   2.0000      -0.368011       -10.0141
  79   2.0000      -0.365205        -9.9377
  80   2.0000      -0.364469        -9.9177
  81   2.0000      -0.355745        -9.6803
  82   2.0000      -0.352672        -9.5967
  83   2.0000      -0.352532        -9.5929
  84   2.0000      -0.345512        -9.4019
  85   2.0000      -0.334744        -9.1088
  86   2.0000      -0.323188        -8.7944
  87   2.0000      -0.316175        -8.6036
  88   2.0000      -0.308716        -8.4006
  89   2.0000      -0.306379        -8.3370
  90   2.0000      -0.303475        -8.2580
  91   2.0000      -0.293131        -7.9765
  92   2.0000      -0.291049        -7.9198
  93   2.0000      -0.285439        -7.7672
  94   2.0000      -0.271388        -7.3848
  95   2.0000      -0.246237        -6.7005
  96   2.0000      -0.231554        -6.3009
  97   2.0000      -0.224609        -6.1119
  98   2.0000      -0.221161        -6.0181
  99   2.0000      -0.219078        -5.9614
 100   2.0000      -0.213563        -5.8114
 101   0.0000      -0.044581        -1.2131
 102   0.0000      -0.021650        -0.5891
 103   0.0000      -0.015265        -0.4154
 104   0.0000       0.004268         0.1161
 105   0.0000       0.006205         0.1688

MULLIKEN ATOMIC CHARGES
-----------------------
   0 C :   -0.432408
   1 C :   -0.145133
   2 O :   -0.318615
   3 P :    0.685606
   4 S :   -0.460734
   5 O :   -0.274134
   6 C :   -0.146139
   7 C :   -0.456290
   8 S :   -0.110691
   9 C :   -0.254574
  10 S :   -0.115900
  11 P :    0.656176
  12 S :   -0.478690
  13 O :   -0.259806
  14 C :   -0.143035
  15 C :   -0.443548
  16 O :   -0.296076
  17 C :   -0.138393
  18 C :   -0.451200
  19 H :    0.151984
  20 H :    0.179372
  21 H :    0.143455
  22 H :    0.151481
  23 H :    0.147335
  24 H :    0.145564
  25 H :    0.166203
  26 H :    0.175617
  27 H :    0.142916
  28 H :    0.167375
  29 H :    0.210955
  30 H :    0.215465
  31 H :    0.155758
  32 H :    0.173608
  33 H :    0.156219
  34 H :    0.148834
  35 H :    0.166458
  36 H :    0.153199
  37 H :    0.151595
  38 H :    0.181591
  39 H :    0.145963
  40 H :    0.152636
Sum of atomic charges:   -0.0000000

LOEWDIN ATOMIC CHARGES
----------------------
   0 C :   -0.398692
   1 C :    0.027480
   2 O :   -0.691885
   3 P :    0.367030
   4 S :   -0.112184
   5 O :   -0.677586
   6 C :    0.014908
   7 C :   -0.407765
   8 S :    0.194333
   9 C :   -0.410536
  10 S :    0.165963
  11 P :    0.375714
  12 S :   -0.131353
  13 O :   -0.673625
  14 C :    0.020436
  15 C :   -0.398583
  16 O :   -0.657708
  17 C :    0.023556
  18 C :   -0.401691
  19 H :    0.159817
  20 H :    0.169413
  21 H :    0.157726
  22 H :    0.175347
  23 H :    0.177337
  24 H :    0.178880
  25 H :    0.179415
  26 H :    0.170029
  27 H :    0.157333
  28 H :    0.166061
  29 H :    0.194428
  30 H :    0.195538
  31 H :    0.181900
  32 H :    0.181679
  33 H :    0.160373
  34 H :    0.160309
  35 H :    0.164807
  36 H :    0.175343
  37 H :    0.179915
  38 H :    0.169312
  39 H :    0.158535
  40 H :    0.158689

  Mayer bond orders larger than 0.100000
B(  0-C ,  1-C ) :   0.9583 B(  0-C , 19-H ) :   0.9721 B(  0-C , 20-H ) :   0.9550
B(  0-C , 21-H ) :   0.9657 B(  1-C ,  2-O ) :   0.7746 B(  1-C , 22-H ) :   0.9655
B(  1-C , 23-H ) :   0.9631 B(  2-O ,  3-P ) :   1.1361 B(  3-P ,  4-S ) :   1.8028
B(  3-P ,  5-O ) :   1.0275 B(  3-P ,  8-S ) :   1.0918 B(  5-O ,  6-C ) :   0.8003
B(  6-C ,  7-C ) :   0.9322 B(  6-C , 24-H ) :   0.9601 B(  6-C , 25-H ) :   0.9576
B(  7-C , 26-H ) :   0.9595 B(  7-C , 27-H ) :   0.9617 B(  7-C , 28-H ) :   0.9607
B(  8-S ,  9-C ) :   0.9077 B(  9-C , 10-S ) :   0.9204 B(  9-C , 29-H ) :   0.9109
B(  9-C , 30-H ) :   0.9089 B( 10-S , 11-P ) :   1.1014 B( 11-P , 12-S ) :   1.7477
B( 11-P , 13-O ) :   1.1481 B( 11-P , 16-O ) :   1.0729 B( 13-O , 14-C ) :   0.7848
B( 14-C , 15-C ) :   0.9233 B( 14-C , 31-H ) :   0.9609 B( 14-C , 32-H ) :   0.9617
B( 15-C , 33-H ) :   0.9726 B( 15-C , 34-H ) :   0.9629 B( 15-C , 35-H ) :   0.9588
B( 16-O , 17-C ) :   0.7826 B( 17-C , 18-C ) :   0.9539 B( 17-C , 36-H ) :   0.9627
B( 17-C , 37-H ) :   0.9631 B( 18-C , 38-H ) :   0.9559 B( 18-C , 39-H ) :   0.9639
B( 18-C , 40-H ) :   0.9743

Dispersion correction           -0.021269657
FINAL SINGLE POINT ENERGY     -2932.463213663018

DIPOLE MOMENT
-------------

Method             : SCF
Type of density    : Electron Density
Multiplicity       :   1
Irrep              :   0
Energy             : -2932.4885742549336101 Eh
Relativity type    :
Basis              : AO
                                X                 Y                 Z
Electronic contribution:      6.785264707       3.084630699      -7.235904651
Nuclear contribution   :     -7.353519243      -4.475529298       7.921123160
                        -----------------------------------------
Total Dipole Moment    :     -0.568254535      -1.390898599       0.685218509
                        -----------------------------------------
Magnitude (a.u.)       :      1.651374135
Magnitude (Debye)      :      4.197459474

Rotational constants in cm-1:             0.014758             0.004261             0.004037
Rotational constants in MHz :           442.420942           127.729431           121.034573

                             ****ORCA TERMINATED NORMALLY****
TOTAL RUN TIME: 0 days 0 hours 1 minutes 17 seconds 672 msec
