                         Program Version 6.0.0  -   RELEASE  -
|  1> ! r2scan-3c def2/J RI DEFGRID2 scfconv6 printgap
|  2> %output
|  3>     printlevel normal
|  4> end
|  5> %cpcm
|  6>     smd true
|  7>     smdsolvent "water"
|  8> end
|  9> * xyz 0 1
| 10> C 5.5573576083 -0.4192199006 -1.7329120718
| 11> C 4.4584577355 -1.2537633691 -1.1062357325
| 12> O 3.1818136157 -0.58040922 -1.2102993006
| 13> P 2.6192344232 0.3168598688 -0.0267253029
| 14> S 3.7726160465 1.7333069767 0.6802018033
| 15> O 2.2457442452 -0.8068900176 1.0471897616
| 16> C 2.1288368694 -0.515252864 2.4483575184
| 17> C 0.9226355929 0.3489601519 2.7524394123
| 18> S 0.8319591267 0.9349650137 -0.9541548875
| 19> C 0.164398404 -0.6914415754 -1.4364903861
| 20> S -0.7261738738 -1.5316639803 -0.1069171894
| 21> P -2.3812041668 -0.2177377515 -0.0667732924
| 22> S -2.9732942051 0.4500597689 -1.8190145975
| 23> O -1.8963606891 0.8860136577 0.9569917542
| 24> C -2.4058667075 2.2327413283 0.929850202
| 25> C -3.846357672 2.2820779204 1.3927953661
| 26> O -3.4373222959 -1.0055250547 0.8201890782
| 27> C -4.1029613866 -2.2037306567 0.3733107701
| 28> C -5.3948129254 -1.8776974921 -0.3512677122
| 29> H 5.3088553004 -0.1896288111 -2.765365058
| 30> H 5.6797707025 0.5141410663 -1.1874954244
| 31> H 6.4900200346 -0.9733991136 -1.701198215
| 32> H 4.6705852899 -1.4618350705 -0.054455813
| 33> H 4.317292527 -2.1934384908 -1.6434182709
| 34> H 2.051915696 -1.4971606972 2.9166761514
| 35> H 3.0453348235 -0.0114152278 2.7726655766
| 36> H 0.0071550048 -0.1323361667 2.4171771848
| 37> H 0.86444166 0.52361471 3.8218871522
| 38> H 1.0220471312 1.3080333536 2.2426361263
| 39> H 0.9771522227 -1.3391309649 -1.7491537599
| 40> H -0.5272344078 -0.4926336762 -2.2562095065
| 41> H -1.7412787145 2.7816294218 1.5980786434
| 42> H -2.3081174765 2.6229211045 -0.0885347017
| 43> H -3.9396398067 1.8305175076 2.3767837782
| 44> H -4.1798918883 3.3141855389 1.4322753915
| 45> H -4.473767814 1.7321288255 0.6919185931
| 46> H -3.4249850265 -2.7745569337 -0.2676342083
| 47> H -4.2934493297 -2.7636205476 1.2908094792
| 48> H -5.189409828 -1.3039655292 -1.2522996726
| 49> H -5.8931214952 -2.801490741 -0.6268792621
| 50> H -6.0486691038 -1.2958927474 0.2924789983
| 51> *
| 52>
| 53>                          ****END OF INPUT****

CARTESIAN COORDINATES (ANGSTROEM)
---------------------------------
  C      5.557358   -0.419220   -1.732912
  C      4.458458   -1.253763   -1.106236
  O      3.181814   -0.580409   -1.210299
  P      2.619234    0.316860   -0.026725
  S      3.772616    1.733307    0.680202
  O      2.245744   -0.806890    1.047190
  C      2.128837   -0.515253    2.448358
  C      0.922636    0.348960    2.752439
  S      0.831959    0.934965   -0.954155
  C      0.164398   -0.691442   -1.436490
  S     -0.726174   -1.531664   -0.106917
  P     -2.381204   -0.217738   -0.066773
  S     -2.973294    0.450060   -1.819015
  O     -1.896361    0.886014    0.956992
  C     -2.405867    2.232741    0.929850
  C     -3.846358    2.282078    1.392795
  O     -3.437322   -1.005525    0.820189
  C     -4.102961   -2.203731    0.373311
  C     -5.394813   -1.877697   -0.351268
  H      5.308855   -0.189629   -2.765365
  H      5.679771    0.514141   -1.187495
  H      6.490020   -0.973399   -1.701198
  H      4.670585   -1.461835   -0.054456
  H      4.317293   -2.193438   -1.643418
  H      2.051916   -1.497161    2.916676
  H      3.045335   -0.011415    2.772666
  H      0.007155   -0.132336    2.417177
  H      0.864442    0.523615    3.821887
  H      1.022047    1.308033    2.242636
  H      0.977152   -1.339131   -1.749154
  H     -0.527234   -0.492634   -2.256210
  H     -1.741279    2.781629    1.598079
  H     -2.308117    2.622921   -0.088535
  H     -3.939640    1.830518    2.376784
  H     -4.179892    3.314186    1.432275
  H     -4.473768    1.732129    0.691919
  H     -3.424985   -2.774557   -0.267634
  H     -4.293449   -2.763621    1.290809
  H     -5.189410   -1.303966   -1.252300
  H     -5.893121   -2.801491   -0.626879
  H     -6.048669   -1.295893    0.292479

 Total Charge           Charge          ....    0
 Multiplicity           Mult            ....    1
 Number of Electrons    NEL             ....  202
 Basis Dimension        Dim             ....  539

ORBITAL ENERGIES
----------------

  NO   OCC          E(Eh)            E(eV)
   0   2.0000     -88.580593     -2410.4005
   1   2.0000     -88.580470     -2410.3971
   2   2.0000     -88.530330     -2409.0327
   3   2.0000     -88.529637     -2409.0139
   4   2.0000     -76.921035     -2093.1278
   5   2.0000     -76.920120     -2093.1029
   6   2.0000     -18.997524      -516.9489
   7   2.0000     -18.994000      -516.8530
   8   2.0000     -18.992207      -516.8042
   9   2.0000     -18.991855      -516.7946
  10   2.0000     -10.106165      -275.0027
  11   2.0000     -10.092535      -274.6318
  12   2.0000     -10.090605      -274.5793
  13   2.0000     -10.089589      -274.5517
  14   2.0000     -10.087124      -274.4846
  15   2.0000     -10.018796      -272.6253
  16   2.0000     -10.017024      -272.5771
  17   2.0000     -10.016695      -272.5681
  18   2.0000     -10.015444      -272.5341
  19   2.0000      -7.874900      -214.2869
  20   2.0000      -7.874705      -214.2816
  21   2.0000      -7.825338      -212.9383
  22   2.0000      -7.824678      -212.9203
  23   2.0000      -6.599559      -179.5831
  24   2.0000      -6.598311      -179.5492
  25   2.0000      -5.822005      -158.4248
  26   2.0000      -5.821704      -158.4166
  27   2.0000      -5.818718      -158.3354
  28   2.0000      -5.818193      -158.3211
  29   2.0000      -5.812100      -158.1553
  30   2.0000      -5.811814      -158.1475
  31   2.0000      -5.772851      -157.0873
  32   2.0000      -5.772249      -157.0709
  33   2.0000      -5.765604      -156.8900
  34   2.0000      -5.765454      -156.8860
  35   2.0000      -5.765140      -156.8774
  36   2.0000      -5.764525      -156.8607
  37   2.0000      -4.744946      -129.1165
  38   2.0000      -4.744514      -129.1048
  39   2.0000      -4.743741      -129.0837
  40   2.0000      -4.743398      -129.0744
  41   2.0000      -4.743318      -129.0722
  42   2.0000      -4.742138      -129.0401
  43   2.0000      -1.054757       -28.7014
  44   2.0000      -1.050416       -28.5833
  45   2.0000      -1.014856       -27.6156
  46   2.0000      -1.009483       -27.4694
  47   2.0000      -0.804367       -21.8879
  48   2.0000      -0.757607       -20.6155
  49   2.0000      -0.742450       -20.2031
  50   2.0000      -0.723481       -19.6869
  51   2.0000      -0.721251       -19.6262
  52   2.0000      -0.711099       -19.3500
  53   2.0000      -0.694393       -18.8954
  54   2.0000      -0.676142       -18.3988
  55   2.0000      -0.629456       -17.1284
  56   2.0000      -0.619674       -16.8622
  57   2.0000      -0.601008       -16.3543
  58   2.0000      -0.598610       -16.2890
  59   2.0000      -0.591728       -16.1017
  60   2.0000      -0.523989       -14.2585
  61   2.0000      -0.520093       -14.1525
  62   2.0000      -0.493746       -13.4355
  63   2.0000      -0.483666       -13.1612
  64   2.0000      -0.478875       -13.0309
  65   2.0000      -0.457898       -12.4601
  66   2.0000      -0.454872       -12.3777
  67   2.0000      -0.453389       -12.3373
  68   2.0000      -0.440243       -11.9796
  69   2.0000      -0.430099       -11.7036
  70   2.0000      -0.420345       -11.4382
  71   2.0000      -0.411808       -11.2059
  72   2.0000      -0.410449       -11.1689
  73   2.0000      -0.404589       -11.0094
  74   2.0000      -0.396111       -10.7787
  75   2.0000      -0.386041       -10.5047
  76   2.0000      -0.384742       -10.4694
  77   2.0000      -0.365428        -9.9438
  78   2.0000      -0.364157        -9.9092
  79   2.0000      -0.359942        -9.7945
  80   2.0000      -0.353752        -9.6261
  81   2.0000      -0.350554        -9.5391
  82   2.0000      -0.348607        -9.4861
  83   2.0000      -0.346018        -9.4156
  84   2.0000      -0.342969        -9.3327
  85   2.0000      -0.333221        -9.0674
  86   2.0000      -0.321737        -8.7549
  87   2.0000      -0.307555        -8.3690
  88   2.0000      -0.305208        -8.3051
  89   2.0000      -0.303939        -8.2706
  90   2.0000      -0.300190        -8.1686
  91   2.0000      -0.291249        -7.9253
  92   2.0000      -0.289640        -7.8815
  93   2.0000      -0.284991        -7.7550
  94   2.0000      -0.272537        -7.4161
  95   2.0000      -0.248941        -6.7740
  96   2.0000      -0.238288        -6.4842
  97   2.0000      -0.231385        -6.2963
  98   2.0000      -0.228679        -6.2227
  99   2.0000      -0.225043        -6.1237
 100   2.0000      -0.222272        -6.0483
 101   0.0000      -0.047387        -1.2895
 102   0.0000      -0.028410        -0.7731
 103   0.0000      -0.019287        -0.5248
 104   0.0000       0.000544         0.0148
 105   0.0000       0.003427         0.0933

MULLIKEN ATOMIC CHARGES
-----------------------
   0 C :   -0.477596
   1 C :   -0.138661
   2 O :   -0.337241
   3 P :    0.707949
   4 S :   -0.516355
   5 O :   -0.288472
   6 C :   -0.142476
   7 C :   -0.489499
   8 S :   -0.145629
   9 C :   -0.261589
  10 S :   -0.117021
  11 P :    0.687455
  12 S :   -0.523476
  13 O :   -0.286420
  14 C :   -0.139994
  15 C :   -0.484625
  16 O :   -0.324291
  17 C :   -0.129487
  18 C :   -0.489762
  19 H :    0.165418
  20 H :    0.169324
  21 H :    0.169542
  22 H :    0.169198
  23 H :    0.175711
  24 H :    0.174421
  25 H :    0.171127
  26 H :    0.174157
  27 H :    0.170208
  28 H :    0.166071
  29 H :    0.244328
  30 H :    0.230895
  31 H :    0.179528
  32 H :    0.176231
  33 H :    0.170803
  34 H :    0.172908
  35 H :    0.166507
  36 H :    0.164200
  37 H :    0.177629
  38 H :    0.170944
  39 H :    0.170088
  40 H :    0.167954
Sum of atomic charges:   -0.0000000

LOEWDIN ATOMIC CHARGES
----------------------
   0 C :   -0.404239
   1 C :    0.033536
   2 O :   -0.699068
   3 P :    0.370125
   4 S :   -0.151184
   5 O :   -0.681335
   6 C :    0.020514
   7 C :   -0.411229
   8 S :    0.173197
   9 C :   -0.402877
  10 S :    0.169169
  11 P :    0.380501
  12 S :   -0.159281
  13 O :   -0.687639
  14 C :    0.023109
  15 C :   -0.401932
  16 O :   -0.669494
  17 C :    0.030019
  18 C :   -0.405792
  19 H :    0.162424
  20 H :    0.162396
  21 H :    0.167745
  22 H :    0.181792
  23 H :    0.189678
  24 H :    0.190438
  25 H :    0.181414
  26 H :    0.168026
  27 H :    0.166993
  28 H :    0.162430
  29 H :    0.206293
  30 H :    0.200490
  31 H :    0.191075
  32 H :    0.182175
  33 H :    0.164203
  34 H :    0.169102
  35 H :    0.162596
  36 H :    0.180179
  37 H :    0.191214
  38 H :    0.163064
  39 H :    0.167613
  40 H :    0.162559

  Mayer bond orders larger than 0.100000
B(  0-C ,  1-C ) :   0.9420 B(  0-C , 19-H ) :   0.9711 B(  0-C , 20-H ) :   0.9613
B(  0-C , 21-H ) :   0.9599 B(  1-C ,  2-O ) :   0.7624 B(  1-C , 22-H ) :   0.9586
B(  1-C , 23-H ) :   0.9525 B(  2-O ,  3-P ) :   1.1467 B(  3-P ,  4-S ) :   1.7657
B(  3-P ,  5-O ) :   1.0356 B(  3-P ,  8-S ) :   1.1048 B(  5-O ,  6-C ) :   0.7892
B(  6-C ,  7-C ) :   0.9197 B(  6-C , 24-H ) :   0.9508 B(  6-C , 25-H ) :   0.9565
B(  7-C , 26-H ) :   0.9592 B(  7-C , 27-H ) :   0.9564 B(  7-C , 28-H ) :   0.9630
B(  8-S ,  9-C ) :   0.9016 B(  9-C , 10-S ) :   0.9189 B(  9-C , 29-H ) :   0.8991
B(  9-C , 30-H ) :   0.9037 B( 10-S , 11-P ) :   1.1127 B( 11-P , 12-S ) :   1.7097
B( 11-P , 13-O ) :   1.1514 B( 11-P , 16-O ) :   1.0798 B( 13-O , 14-C ) :   0.7727
B( 14-C , 15-C ) :   0.9140 B( 14-C , 31-H ) :   0.9517 B( 14-C , 32-H ) :   0.9578
B( 15-C , 33-H ) :   0.9712 B( 15-C , 34-H ) :   0.9571 B( 15-C , 35-H ) :   0.9584
B( 16-O , 17-C ) :   0.7718 B( 17-C , 18-C ) :   0.9427 B( 17-C , 36-H ) :   0.9559
B( 17-C , 37-H ) :   0.9532 B( 18-C , 38-H ) :   0.9605 B( 18-C , 39-H ) :   0.9588
B( 18-C , 40-H ) :   0.9720

Dispersion correction           -0.021269657
FINAL SINGLE POINT ENERGY     -2932.471415501490

DIPOLE MOMENT
-------------

Method             : SCF
Type of density    : Electron Density
Multiplicity       :   1
Irrep              :   0
Energy             : -2932.4967760934064245 Eh
Relativity type    :
Basis              : AO
                                X                 Y                 Z
Electronic contribution:      6.703935621       2.376378848      -6.974548287
Nuclear contribution   :     -7.353519243      -4.475529298       7.921123160
                        -----------------------------------------
Total Dipole Moment    :     -0.649583622      -2.099150450       0.946574872
                        -----------------------------------------
Magnitude (a.u.)       :      2.392570894
Magnitude (Debye)      :      6.081431913

Rotational constants in cm-1:             0.014758             0.004261             0.004037
Rotational constants in MHz :           442.420942           127.729431           121.034573

                             ****ORCA TERMINATED NORMALLY****
TOTAL RUN TIME: 0 days 0 hours 1 minutes 55 seconds 30 msec
