                         Program Version 6.0.0  -   RELEASE  -
|  1> ! pbe def2-sv(p) def2/J RI DEFGRID1 loosescf d4 GCP(DFT/SV(P)) printgap
|  2> %output
|  3>     printlevel normal
|  4> end
|  5> * xyz 0 1
|  6> C 3.5300698818 2.1607100573 -0.9157424363
|  7> C 2.1784823984 1.4821569073 -0.9711934202
|  8> O 1.7616264299 1.0688972903 0.3549095848
|  9> P 1.9616069088 -0.3921058378 0.9068698563
| 10> S 1.5800048269 -0.5442430379 2.8161278808
| 11> O 3.453528535 -0.7268161863 0.47855611
| 12> C 4.072860798 -1.9715553559 0.8649790299
| 13> C 5.5676028227 -1.8291959874 0.6627405345
| 14> S 0.838885563 -1.6966404398 -0.3584789947
| 15> C -0.6927702778 -1.6711380056 0.6172389286
| 16> S -1.3376332945 -0.0108500068 0.9309868169
| 17> P -2.1663575765 0.3518092942 -1.01161451
| 18> S -0.8983595696 0.5425845559 -2.4896130379
| 19> O -3.1168275302 1.6038717094 -0.7837134849
| 20> C -2.6329838607 2.9521240016 -0.9117249725
| 21> C -1.722714263 3.3385136569 0.23631773
| 22> O -3.1776669461 -0.834250222 -1.2625000838
| 23> C -4.5458952032 -0.9017654602 -0.7866427914
| 24> C -4.642382287 -0.9746302164 0.7226209449
| 25> H 4.2904504685 1.4582235645 -0.5854306103
| 26> H 3.7814076023 2.5244816299 -1.907012614
| 27> H 3.4968122338 2.9961188827 -0.2218578896
| 28> H 2.190146421 0.6108433473 -1.631750776
| 29> H 1.3981993873 2.1673904394 -1.3087685128
| 30> H 3.8253869365 -2.1712317294 1.9127623964
| 31> H 3.6575003057 -2.7670879019 0.2402807682
| 32> H 5.7828811391 -1.6062424081 -0.3783392613
| 33> H 5.9534969806 -1.0260363257 1.2842559567
| 34> H 6.0530751139 -2.7594908369 0.9383808644
| 35> H -0.4931993342 -2.1013151915 1.5980273178
| 36> H -1.4197394842 -2.2590292505 0.0606557551
| 37> H -2.1094619836 3.0422531007 -1.8691795358
| 38> H -3.5405726451 3.5571041524 -0.9246786392
| 39> H -1.4517748979 4.3854224311 0.1448967104
| 40> H -2.2210988752 3.176906656 1.1888048732
| 41> H -0.8142346808 2.7365976379 0.217772573
| 42> H -5.0815558106 -0.0312271185 -1.1684003862
| 43> H -4.9252273869 -1.8093739516 -1.2590452566
| 44> H -4.269741296 -0.0568127457 1.1717615375
| 45> H -5.683725976 -1.1055066505 1.000465429
| 46> H -4.0659010325 -1.8126642953 1.1065593911
| 47> *
| 48>
| 49>                          ****END OF INPUT****

CARTESIAN COORDINATES (ANGSTROEM)
---------------------------------
  C      3.530070    2.160710   -0.915742
  C      2.178482    1.482157   -0.971193
  O      1.761626    1.068897    0.354910
  P      1.961607   -0.392106    0.906870
  S      1.580005   -0.544243    2.816128
  O      3.453529   -0.726816    0.478556
  C      4.072861   -1.971555    0.864979
  C      5.567603   -1.829196    0.662741
  S      0.838886   -1.696640   -0.358479
  C     -0.692770   -1.671138    0.617239
  S     -1.337633   -0.010850    0.930987
  P     -2.166358    0.351809   -1.011615
  S     -0.898360    0.542585   -2.489613
  O     -3.116828    1.603872   -0.783713
  C     -2.632984    2.952124   -0.911725
  C     -1.722714    3.338514    0.236318
  O     -3.177667   -0.834250   -1.262500
  C     -4.545895   -0.901765   -0.786643
  C     -4.642382   -0.974630    0.722621
  H      4.290450    1.458224   -0.585431
  H      3.781408    2.524482   -1.907013
  H      3.496812    2.996119   -0.221858
  H      2.190146    0.610843   -1.631751
  H      1.398199    2.167390   -1.308769
  H      3.825387   -2.171232    1.912762
  H      3.657500   -2.767088    0.240281
  H      5.782881   -1.606242   -0.378339
  H      5.953497   -1.026036    1.284256
  H      6.053075   -2.759491    0.938381
  H     -0.493199   -2.101315    1.598027
  H     -1.419739   -2.259029    0.060656
  H     -2.109462    3.042253   -1.869180
  H     -3.540573    3.557104   -0.924679
  H     -1.451775    4.385422    0.144897
  H     -2.221099    3.176907    1.188805
  H     -0.814235    2.736598    0.217773
  H     -5.081556   -0.031227   -1.168400
  H     -4.925227   -1.809374   -1.259045
  H     -4.269741   -0.056813    1.171762
  H     -5.683726   -1.105507    1.000465
  H     -4.065901   -1.812664    1.106559

 Total Charge           Charge          ....    0
 Multiplicity           Mult            ....    1
 Number of Electrons    NEL             ....  202
 Basis Dimension        Dim             ....  334

ORBITAL ENERGIES
----------------

  NO   OCC          E(Eh)            E(eV)
   0   2.0000     -88.038947     -2395.6615
   1   2.0000     -88.033539     -2395.5144
   2   2.0000     -87.981023     -2394.0853
   3   2.0000     -87.980782     -2394.0788
   4   2.0000     -76.425953     -2079.6559
   5   2.0000     -76.421870     -2079.5448
   6   2.0000     -18.798410      -511.5308
   7   2.0000     -18.793936      -511.4090
   8   2.0000     -18.792766      -511.3772
   9   2.0000     -18.786714      -511.2125
  10   2.0000      -9.960258      -271.0324
  11   2.0000      -9.955703      -270.9085
  12   2.0000      -9.954187      -270.8672
  13   2.0000      -9.952292      -270.8156
  14   2.0000      -9.944928      -270.6152
  15   2.0000      -9.889927      -269.1186
  16   2.0000      -9.888571      -269.0817
  17   2.0000      -9.886080      -269.0139
  18   2.0000      -9.879241      -268.8278
  19   2.0000      -7.683135      -209.0687
  20   2.0000      -7.678676      -208.9474
  21   2.0000      -7.626144      -207.5179
  22   2.0000      -7.626136      -207.5177
  23   2.0000      -6.423397      -174.7895
  24   2.0000      -6.419286      -174.6777
  25   2.0000      -5.710951      -155.4029
  26   2.0000      -5.707900      -155.3198
  27   2.0000      -5.706464      -155.2808
  28   2.0000      -5.703287      -155.1943
  29   2.0000      -5.700037      -155.1059
  30   2.0000      -5.695643      -154.9863
  31   2.0000      -5.655126      -153.8838
  32   2.0000      -5.655063      -153.8821
  33   2.0000      -5.647005      -153.6628
  34   2.0000      -5.646702      -153.6546
  35   2.0000      -5.646257      -153.6425
  36   2.0000      -5.645998      -153.6354
  37   2.0000      -4.646777      -126.4452
  38   2.0000      -4.644978      -126.3963
  39   2.0000      -4.643275      -126.3499
  40   2.0000      -4.642236      -126.3217
  41   2.0000      -4.641048      -126.2893
  42   2.0000      -4.639424      -126.2451
  43   2.0000      -0.991623       -26.9834
  44   2.0000      -0.985950       -26.8291
  45   2.0000      -0.948729       -25.8162
  46   2.0000      -0.941960       -25.6320
  47   2.0000      -0.759628       -20.6705
  48   2.0000      -0.719682       -19.5835
  49   2.0000      -0.709891       -19.3171
  50   2.0000      -0.693770       -18.8784
  51   2.0000      -0.688817       -18.7437
  52   2.0000      -0.671275       -18.2663
  53   2.0000      -0.646936       -17.6040
  54   2.0000      -0.634980       -17.2787
  55   2.0000      -0.595416       -16.2021
  56   2.0000      -0.584814       -15.9136
  57   2.0000      -0.583135       -15.8679
  58   2.0000      -0.564831       -15.3698
  59   2.0000      -0.561631       -15.2828
  60   2.0000      -0.505989       -13.7687
  61   2.0000      -0.498765       -13.5721
  62   2.0000      -0.476782       -12.9739
  63   2.0000      -0.475150       -12.9295
  64   2.0000      -0.460763       -12.5380
  65   2.0000      -0.448888       -12.2149
  66   2.0000      -0.441688       -12.0189
  67   2.0000      -0.431195       -11.7334
  68   2.0000      -0.429370       -11.6838
  69   2.0000      -0.418250       -11.3812
  70   2.0000      -0.407453       -11.0874
  71   2.0000      -0.399370       -10.8674
  72   2.0000      -0.385845       -10.4994
  73   2.0000      -0.380014       -10.3407
  74   2.0000      -0.377523       -10.2729
  75   2.0000      -0.373484       -10.1630
  76   2.0000      -0.365737        -9.9522
  77   2.0000      -0.359828        -9.7914
  78   2.0000      -0.355685        -9.6787
  79   2.0000      -0.354013        -9.6332
  80   2.0000      -0.349088        -9.4992
  81   2.0000      -0.345458        -9.4004
  82   2.0000      -0.342746        -9.3266
  83   2.0000      -0.339372        -9.2348
  84   2.0000      -0.330447        -8.9919
  85   2.0000      -0.323489        -8.8026
  86   2.0000      -0.313169        -8.5218
  87   2.0000      -0.300624        -8.1804
  88   2.0000      -0.298719        -8.1285
  89   2.0000      -0.295570        -8.0429
  90   2.0000      -0.288077        -7.8390
  91   2.0000      -0.274557        -7.4711
  92   2.0000      -0.270000        -7.3471
  93   2.0000      -0.261143        -7.1061
  94   2.0000      -0.254512        -6.9256
  95   2.0000      -0.236718        -6.4414
  96   2.0000      -0.214498        -5.8368
  97   2.0000      -0.205818        -5.6006
  98   2.0000      -0.200277        -5.4498
  99   2.0000      -0.193778        -5.2730
 100   2.0000      -0.184438        -5.0188
 101   0.0000      -0.041903        -1.1402
 102   0.0000      -0.025621        -0.6972
 103   0.0000      -0.005359        -0.1458
 104   0.0000       0.005317         0.1447
 105   0.0000       0.017138         0.4663

MULLIKEN ATOMIC CHARGES
-----------------------
   0 C :   -0.284332
   1 C :   -0.020506
   2 O :   -0.350162
   3 P :    0.602478
   4 S :   -0.322476
   5 O :   -0.384568
   6 C :   -0.010144
   7 C :   -0.283525
   8 S :   -0.087926
   9 C :   -0.353423
  10 S :   -0.079636
  11 P :    0.604279
  12 S :   -0.311461
  13 O :   -0.384772
  14 C :   -0.002537
  15 C :   -0.344752
  16 O :   -0.373725
  17 C :    0.006419
  18 C :   -0.317606
  19 H :    0.119169
  20 H :    0.108447
  21 H :    0.114498
  22 H :    0.110414
  23 H :    0.114568
  24 H :    0.105509
  25 H :    0.104057
  26 H :    0.116781
  27 H :    0.122386
  28 H :    0.113127
  29 H :    0.192810
  30 H :    0.180692
  31 H :    0.111539
  32 H :    0.104833
  33 H :    0.115708
  34 H :    0.120950
  35 H :    0.157803
  36 H :    0.111261
  37 H :    0.110711
  38 H :    0.130938
  39 H :    0.113676
  40 H :    0.118499
Sum of atomic charges:   -0.0000000

LOEWDIN ATOMIC CHARGES
----------------------
   0 C :   -0.360107
   1 C :   -0.116452
   2 O :   -0.230468
   3 P :    0.568171
   4 S :   -0.319931
   5 O :   -0.248868
   6 C :   -0.120780
   7 C :   -0.350908
   8 S :    0.064388
   9 C :   -0.480933
  10 S :    0.094524
  11 P :    0.567771
  12 S :   -0.307665
  13 O :   -0.246639
  14 C :   -0.119686
  15 C :   -0.372300
  16 O :   -0.244765
  17 C :   -0.107220
  18 C :   -0.368476
  19 H :    0.123930
  20 H :    0.129096
  21 H :    0.126456
  22 H :    0.107634
  23 H :    0.113538
  24 H :    0.109567
  25 H :    0.108866
  26 H :    0.126113
  27 H :    0.129209
  28 H :    0.131456
  29 H :    0.132527
  30 H :    0.129656
  31 H :    0.110300
  32 H :    0.118398
  33 H :    0.132973
  34 H :    0.126715
  35 H :    0.127327
  36 H :    0.116205
  37 H :    0.122035
  38 H :    0.121749
  39 H :    0.131467
  40 H :    0.125127

  Mayer bond orders larger than 0.100000
B(  0-C ,  1-C ) :   1.1569 B(  0-C , 19-H ) :   0.9414 B(  0-C , 20-H ) :   0.9409
B(  0-C , 21-H ) :   0.9464 B(  1-C ,  2-O ) :   0.8868 B(  1-C , 22-H ) :   0.9187
B(  1-C , 23-H ) :   0.9231 B(  2-O ,  3-P ) :   1.1430 B(  3-P ,  4-S ) :   1.6340
B(  3-P ,  5-O ) :   1.0757 B(  3-P ,  8-S ) :   0.9608 B(  4-S ,  8-S ) :   0.1117
B(  5-O ,  6-C ) :   0.9051 B(  6-C ,  7-C ) :   1.1591 B(  6-C , 24-H ) :   0.9102
B(  6-C , 25-H ) :   0.9269 B(  7-C , 26-H ) :   0.9506 B(  7-C , 27-H ) :   0.9506
B(  7-C , 28-H ) :   0.9419 B(  8-S ,  9-C ) :   1.0006 B(  9-C , 10-S ) :   1.0038
B(  9-C , 29-H ) :   0.8889 B(  9-C , 30-H ) :   0.8950 B( 10-S , 11-P ) :   0.9441
B( 10-S , 12-S ) :   0.1129 B( 11-P , 12-S ) :   1.6724 B( 11-P , 13-O ) :   1.0705
B( 11-P , 16-O ) :   1.1074 B( 13-O , 14-C ) :   0.9039 B( 14-C , 15-C ) :   1.1635
B( 14-C , 31-H ) :   0.9121 B( 14-C , 32-H ) :   0.9326 B( 15-C , 33-H ) :   0.9380
B( 15-C , 34-H ) :   0.9439 B( 15-C , 35-H ) :   0.9245 B( 16-O , 17-C ) :   0.8950
B( 17-C , 18-C ) :   1.1698 B( 17-C , 36-H ) :   0.9273 B( 17-C , 37-H ) :   0.9357
B( 18-C , 38-H ) :   0.9368 B( 18-C , 39-H ) :   0.9353 B( 18-C , 40-H ) :   0.9457

Dispersion correction           -0.065600492
FINAL SINGLE POINT ENERGY     -2929.517097945162

DIPOLE MOMENT
-------------

Method             : SCF
Type of density    : Electron Density
Multiplicity       :   1
Irrep              :   0
Energy             : -2929.6364284194337415 Eh
Relativity type    :
Basis              : AO
                                X                 Y                 Z
Electronic contribution:     -4.782166048      -6.764976568       0.036833297
Nuclear contribution   :      4.245643564       6.809238519      -0.316132220
                        -----------------------------------------
Total Dipole Moment    :     -0.536522484       0.044261952      -0.279298923
                        -----------------------------------------
Magnitude (a.u.)       :      0.606484447
Magnitude (Debye)      :      1.541560955

Rotational constants in cm-1:             0.013086             0.004961             0.004510
Rotational constants in MHz :           392.297792           148.738592           135.201720

                             ****ORCA TERMINATED NORMALLY****
TOTAL RUN TIME: 0 days 0 hours 0 minutes 21 seconds 320 msec
