                         Program Version 6.0.0  -   RELEASE  -
|  1> ! wb97x-v def2-tzvp def2/J RIJCOSX DEFGRID2 scfconv7 GCP(DFT/TZ) printgap
|  2> %output
|  3>     printlevel normal
|  4> end
|  5> * xyz 0 1
|  6> C -0.9873693373790313 0.7115340741227619 6.702301354346519e-05
|  7> C -0.9867377255856711 -0.7124099129000128 0.00013695684606535103
|  8> C 0.330889387938879 -1.1228564340953717 9.392381517030624e-05
|  9> N 1.117304340087671 0.0004934027096937692 9.08473909616969e-05
| 10> C 0.3298942281143968 1.12314784398806 5.9087115543236856e-05
| 11> H -1.8524457023402363 1.3597357814012887 5.33985241885528e-05
| 12> H -1.8512393680343127 -1.3613817728854603 0.00016692542184840506
| 13> H 0.7665712622003318 -2.1114201370066215 0.00011106704529956709
| 14> H 2.1256140307895697 0.0009416951108822001 5.124208544057671e-05
| 15> H 0.764702186407778 2.112096618683632 3.454971000847129e-05
| 16> *
| 17>
| 18>                          ****END OF INPUT****

CARTESIAN COORDINATES (ANGSTROEM)
---------------------------------
  C     -0.987369    0.711534    0.000067
  C     -0.986738   -0.712410    0.000137
  C      0.330889   -1.122856    0.000094
  N      1.117304    0.000493    0.000091
  C      0.329894    1.123148    0.000059
  H     -1.852446    1.359736    0.000053
  H     -1.851239   -1.361382    0.000167
  H      0.766571   -2.111420    0.000111
  H      2.125614    0.000942    0.000051
  H      0.764702    2.112097    0.000035

 Total Charge           Charge          ....    0
 Multiplicity           Mult            ....    1
 Number of Electrons    NEL             ....   36
 Basis Dimension        Dim             ....  185

ORBITAL ENERGIES
----------------

  NO   OCC          E(Eh)            E(eV)
   0   2.0000     -16.571303      -450.9281
   1   2.0000     -12.064347      -328.2876
   2   2.0000     -12.063883      -328.2750
   3   2.0000     -12.028229      -327.3048
   4   2.0000     -12.026381      -327.2545
   5   2.0000      -1.555215       -42.3196
   6   2.0000      -1.307280       -35.5729
   7   2.0000      -1.253389       -34.1064
   8   2.0000      -1.094039       -29.7703
   9   2.0000      -1.069884       -29.1130
  10   2.0000      -1.009079       -27.4584
  11   2.0000      -0.903069       -24.5738
  12   2.0000      -0.890110       -24.2211
  13   2.0000      -0.865372       -23.5480
  14   2.0000      -0.848396       -23.0860
  15   2.0000      -0.838503       -22.8168
  16   2.0000      -0.659592       -17.9484
  17   2.0000      -0.601178       -16.3589
  18   0.0000      -0.218994        -5.9591
  19   0.0000      -0.139638        -3.7997
  20   0.0000      -0.065610        -1.7853
  21   0.0000      -0.019277        -0.5246
  22   0.0000      -0.018416        -0.5011

MULLIKEN ATOMIC CHARGES
-----------------------
   0 C :   -0.173341
   1 C :   -0.173344
   2 C :   -0.090435
   3 N :   -0.200973
   4 C :   -0.090454
   5 H :    0.116655
   6 H :    0.116655
   7 H :    0.134861
   8 H :    0.225516
   9 H :    0.134861
Sum of atomic charges:   -0.0000000

LOEWDIN ATOMIC CHARGES
----------------------
   0 C :   -0.201463
   1 C :   -0.201463
   2 C :   -0.236570
   3 N :    0.173915
   4 C :   -0.236569
   5 H :    0.132070
   6 H :    0.132071
   7 H :    0.126769
   8 H :    0.184471
   9 H :    0.126769

  Mayer bond orders larger than 0.100000
B(  0-C ,  1-C ) :   1.3389 B(  0-C ,  4-C ) :   1.6313 B(  0-C ,  5-H ) :   0.9745
B(  1-C ,  2-C ) :   1.6314 B(  1-C ,  6-H ) :   0.9745 B(  2-C ,  3-N ) :   1.1918
B(  2-C ,  7-H ) :   0.9570 B(  3-N ,  4-C ) :   1.1917 B(  3-N ,  8-H ) :   0.9275
B(  4-C ,  9-H ) :   0.9570

FINAL SINGLE POINT ENERGY      -210.180837096739

DIPOLE MOMENT
-------------

Method             : SCF
Type of density    : Electron Density
Multiplicity       :   1
Irrep              :   0
Energy             :  -210.1857877560391330 Eh
Relativity type    :
Basis              : AO
                                X                 Y                 Z
Electronic contribution:      0.794785731       0.000353896       0.000002032
Nuclear contribution   :     -0.025752480      -0.000013822      -0.000026769
                        -----------------------------------------
Total Dipole Moment    :      0.769033251       0.000340074      -0.000024737
                        -----------------------------------------
Magnitude (a.u.)       :      0.769033327
Magnitude (Debye)      :      1.954727371

Rotational constants in cm-1:             0.305425             0.300164             0.151386
Rotational constants in MHz :          9156.408102          8998.700425          4538.434644

                             ****ORCA TERMINATED NORMALLY****
TOTAL RUN TIME: 0 days 0 hours 0 minutes 51 seconds 641 msec
