                         Program Version 6.0.0  -   RELEASE  -
|  1> ! wb97x-v def2-tzvp def2/J RIJCOSX DEFGRID2 scfconv7 GCP(DFT/TZ) printgap
|  2> %output
|  3>     printlevel normal
|  4> end
|  5> %cpcm
|  6>     smd true
|  7>     smdsolvent "water"
|  8> end
|  9> * xyz 0 1
| 10> C -0.9873693373790313 0.7115340741227619 6.702301354346519e-05
| 11> C -0.9867377255856711 -0.7124099129000128 0.00013695684606535103
| 12> C 0.330889387938879 -1.1228564340953717 9.392381517030624e-05
| 13> N 1.117304340087671 0.0004934027096937692 9.08473909616969e-05
| 14> C 0.3298942281143968 1.12314784398806 5.9087115543236856e-05
| 15> H -1.8524457023402363 1.3597357814012887 5.33985241885528e-05
| 16> H -1.8512393680343127 -1.3613817728854603 0.00016692542184840506
| 17> H 0.7665712622003318 -2.1114201370066215 0.00011106704529956709
| 18> H 2.1256140307895697 0.0009416951108822001 5.124208544057671e-05
| 19> H 0.764702186407778 2.112096618683632 3.454971000847129e-05
| 20> *
| 21>
| 22>                          ****END OF INPUT****

CARTESIAN COORDINATES (ANGSTROEM)
---------------------------------
  C     -0.987369    0.711534    0.000067
  C     -0.986738   -0.712410    0.000137
  C      0.330889   -1.122856    0.000094
  N      1.117304    0.000493    0.000091
  C      0.329894    1.123148    0.000059
  H     -1.852446    1.359736    0.000053
  H     -1.851239   -1.361382    0.000167
  H      0.766571   -2.111420    0.000111
  H      2.125614    0.000942    0.000051
  H      0.764702    2.112097    0.000035

 Total Charge           Charge          ....    0
 Multiplicity           Mult            ....    1
 Number of Electrons    NEL             ....   36
 Basis Dimension        Dim             ....  185

ORBITAL ENERGIES
----------------

  NO   OCC          E(Eh)            E(eV)
   0   2.0000     -16.566517      -450.7979
   1   2.0000     -12.063842      -328.2738
   2   2.0000     -12.063384      -328.2614
   3   2.0000     -12.030382      -327.3633
   4   2.0000     -12.028551      -327.3135
   5   2.0000      -1.552838       -42.2549
   6   2.0000      -1.308625       -35.6095
   7   2.0000      -1.253453       -34.1082
   8   2.0000      -1.089995       -29.6603
   9   2.0000      -1.070174       -29.1209
  10   2.0000      -1.007144       -27.4058
  11   2.0000      -0.902945       -24.5704
  12   2.0000      -0.886866       -24.1329
  13   2.0000      -0.863971       -23.5098
  14   2.0000      -0.849687       -23.1212
  15   2.0000      -0.839594       -22.8465
  16   2.0000      -0.663971       -18.0676
  17   2.0000      -0.604474       -16.4486
  18   0.0000      -0.220978        -6.0131
  19   0.0000      -0.145423        -3.9572
  20   0.0000      -0.048786        -1.3275
  21   0.0000      -0.017388        -0.4732
  22   0.0000      -0.006308        -0.1716

MULLIKEN ATOMIC CHARGES
-----------------------
   0 C :   -0.251887
   1 C :   -0.251901
   2 C :   -0.139348
   3 N :   -0.200311
   4 C :   -0.139372
   5 H :    0.163999
   6 H :    0.163998
   7 H :    0.183585
   8 H :    0.287651
   9 H :    0.183586
Sum of atomic charges:   -0.0000000

LOEWDIN ATOMIC CHARGES
----------------------
   0 C :   -0.232318
   1 C :   -0.232320
   2 C :   -0.242047
   3 N :    0.186151
   4 C :   -0.242046
   5 H :    0.138750
   6 H :    0.138751
   7 H :    0.139302
   8 H :    0.206474
   9 H :    0.139302

  Mayer bond orders larger than 0.100000
B(  0-C ,  1-C ) :   1.3024 B(  0-C ,  4-C ) :   1.5981 B(  0-C ,  5-H ) :   0.9692
B(  1-C ,  2-C ) :   1.5982 B(  1-C ,  6-H ) :   0.9692 B(  2-C ,  3-N ) :   1.2126
B(  2-C ,  7-H ) :   0.9586 B(  3-N ,  4-C ) :   1.2126 B(  3-N ,  8-H ) :   0.8972
B(  4-C ,  9-H ) :   0.9586

FINAL SINGLE POINT ENERGY      -210.187799217427

DIPOLE MOMENT
-------------

Method             : SCF
Type of density    : Electron Density
Multiplicity       :   1
Irrep              :   0
Energy             :  -210.1927498767272766 Eh
Relativity type    :
Basis              : AO
                                X                 Y                 Z
Electronic contribution:      1.122167398       0.000504002      -0.000007222
Nuclear contribution   :     -0.025752480      -0.000013822      -0.000026769
                        -----------------------------------------
Total Dipole Moment    :      1.096414917       0.000490180      -0.000033990
                        -----------------------------------------
Magnitude (a.u.)       :      1.096415027
Magnitude (Debye)      :      2.786865524

Rotational constants in cm-1:             0.305425             0.300164             0.151386
Rotational constants in MHz :          9156.408102          8998.700425          4538.434644

                             ****ORCA TERMINATED NORMALLY****
TOTAL RUN TIME: 0 days 0 hours 0 minutes 52 seconds 48 msec
