                         Program Version 6.0.0  -   RELEASE  -
|  1> ! pbe def2-sv(p) def2/J RI DEFGRID1 loosescf d4 GCP(DFT/SV(P)) printgap
|  2> %output
|  3>     printlevel normal
|  4> end
|  5> * xyz 0 1
|  6> C 4.0876448714 -1.8463592832 -2.2743961319
|  7> C 4.4322646508 -0.4029786403 -1.9686328474
|  8> O 3.9268917027 0.0219767983 -0.6912029537
|  9> P 2.3744094268 0.1678536374 -0.3869994926
| 10> S 1.3256716842 0.9120124733 -1.8621162197
| 11> O 2.3527368429 1.1257394919 0.8650415339
| 12> C 2.7143060861 0.7926163642 2.2270792457
| 13> C 4.0986934531 0.1931569158 2.3408366746
| 14> S 1.7989668079 -1.7661067386 0.3069608108
| 15> C 0.0204404879 -1.5538624713 0.143475738
| 16> S -0.5842769855 -0.3183490335 1.3648255742
| 17> P -2.3286070595 0.3186111821 0.3707039937
| 18> S -3.2251352247 1.840955374 1.2130531714
| 19> O -3.171504832 -1.0250383869 0.185259105
| 20> C -3.8409111846 -1.6529357708 1.2961219122
| 21> C -5.2780162409 -1.181578974 1.4022129775
| 22> O -1.806797792 0.5243997658 -1.1060939169
| 23> C -2.3927404543 1.4884626606 -2.0004958953
| 24> C -3.7385728399 1.0120040057 -2.502298624
| 25> H 4.6053581038 -2.1530128131 -3.1775985764
| 26> H 4.38495253 -2.4901499317 -1.450741297
| 27> H 3.015251812 -1.9481294572 -2.4319801999
| 28> H 4.027071119 0.2607899683 -2.7390867504
| 29> H 5.5096492829 -0.2554907055 -1.8821305967
| 30> H 2.643963443 1.752127171 2.7416567914
| 31> H 1.9529970348 0.1123457221 2.6212669191
| 32> H 4.8318866384 0.8498493488 1.8799750813
| 33> H 4.3402025071 0.0645914967 3.3914160368
| 34> H 4.1333451989 -0.7761895058 1.8477409736
| 35> H -0.4347745711 -2.5189230149 0.3480833202
| 36> H -0.2144643679 -1.189413945 -0.8562714429
| 37> H -3.7907990242 -2.7220283527 1.0804413886
| 38> H -3.2896598623 -1.4369088232 2.2175271415
| 39> H -5.3097409417 -0.1137607963 1.6078261
| 40> H -5.8041707376 -1.376361899 0.4718746958
| 41> H -5.7694075298 -1.7120497324 2.2113870154
| 42> H -2.4878675512 2.4433790962 -1.4734047128
| 43> H -1.6555220093 1.5824679177 -2.8001477854
| 44> H -3.6415576632 0.0343082534 -2.9665256973
| 45> H -4.4332245388 0.9404228125 -1.6657975722
| 46> H -4.1252462202 1.7220572107 -3.2263544847
| 47> *
| 48>
| 49>                          ****END OF INPUT****

CARTESIAN COORDINATES (ANGSTROEM)
---------------------------------
  C      4.087645   -1.846359   -2.274396
  C      4.432265   -0.402979   -1.968633
  O      3.926892    0.021977   -0.691203
  P      2.374409    0.167854   -0.386999
  S      1.325672    0.912012   -1.862116
  O      2.352737    1.125739    0.865042
  C      2.714306    0.792616    2.227079
  C      4.098693    0.193157    2.340837
  S      1.798967   -1.766107    0.306961
  C      0.020440   -1.553862    0.143476
  S     -0.584277   -0.318349    1.364826
  P     -2.328607    0.318611    0.370704
  S     -3.225135    1.840955    1.213053
  O     -3.171505   -1.025038    0.185259
  C     -3.840911   -1.652936    1.296122
  C     -5.278016   -1.181579    1.402213
  O     -1.806798    0.524400   -1.106094
  C     -2.392740    1.488463   -2.000496
  C     -3.738573    1.012004   -2.502299
  H      4.605358   -2.153013   -3.177599
  H      4.384953   -2.490150   -1.450741
  H      3.015252   -1.948129   -2.431980
  H      4.027071    0.260790   -2.739087
  H      5.509649   -0.255491   -1.882131
  H      2.643963    1.752127    2.741657
  H      1.952997    0.112346    2.621267
  H      4.831887    0.849849    1.879975
  H      4.340203    0.064591    3.391416
  H      4.133345   -0.776190    1.847741
  H     -0.434775   -2.518923    0.348083
  H     -0.214464   -1.189414   -0.856271
  H     -3.790799   -2.722028    1.080441
  H     -3.289660   -1.436909    2.217527
  H     -5.309741   -0.113761    1.607826
  H     -5.804171   -1.376362    0.471875
  H     -5.769408   -1.712050    2.211387
  H     -2.487868    2.443379   -1.473405
  H     -1.655522    1.582468   -2.800148
  H     -3.641558    0.034308   -2.966526
  H     -4.433225    0.940423   -1.665798
  H     -4.125246    1.722057   -3.226354

 Total Charge           Charge          ....    0
 Multiplicity           Mult            ....    1
 Number of Electrons    NEL             ....  202
 Basis Dimension        Dim             ....  334

ORBITAL ENERGIES
----------------

  NO   OCC          E(Eh)            E(eV)
   0   2.0000     -88.052235     -2396.0231
   1   2.0000     -88.040248     -2395.6970
   2   2.0000     -87.985442     -2394.2056
   3   2.0000     -87.982884     -2394.1360
   4   2.0000     -76.427431     -2079.6961
   5   2.0000     -76.423122     -2079.5789
   6   2.0000     -18.794905      -511.4354
   7   2.0000     -18.789008      -511.2749
   8   2.0000     -18.788766      -511.2683
   9   2.0000     -18.785872      -511.1896
  10   2.0000      -9.957441      -270.9558
  11   2.0000      -9.954588      -270.8781
  12   2.0000      -9.954155      -270.8663
  13   2.0000      -9.954055      -270.8636
  14   2.0000      -9.944983      -270.6167
  15   2.0000      -9.887606      -269.0554
  16   2.0000      -9.886854      -269.0350
  17   2.0000      -9.880302      -268.8567
  18   2.0000      -9.878947      -268.8198
  19   2.0000      -7.696881      -209.4428
  20   2.0000      -7.685165      -209.1240
  21   2.0000      -7.630585      -207.6388
  22   2.0000      -7.628032      -207.5693
  23   2.0000      -6.424597      -174.8222
  24   2.0000      -6.420971      -174.7235
  25   2.0000      -5.724636      -155.7753
  26   2.0000      -5.721350      -155.6859
  27   2.0000      -5.714092      -155.4884
  28   2.0000      -5.713543      -155.4734
  29   2.0000      -5.709458      -155.3622
  30   2.0000      -5.701905      -155.1567
  31   2.0000      -5.659596      -154.0054
  32   2.0000      -5.657007      -153.9350
  33   2.0000      -5.651226      -153.7777
  34   2.0000      -5.650645      -153.7619
  35   2.0000      -5.648602      -153.7063
  36   2.0000      -5.648148      -153.6939
  37   2.0000      -4.647327      -126.4602
  38   2.0000      -4.646506      -126.4379
  39   2.0000      -4.644839      -126.3925
  40   2.0000      -4.643277      -126.3500
  41   2.0000      -4.642973      -126.3417
  42   2.0000      -4.641457      -126.3005
  43   2.0000      -0.987057       -26.8592
  44   2.0000      -0.984000       -26.7760
  45   2.0000      -0.945365       -25.7247
  46   2.0000      -0.942300       -25.6413
  47   2.0000      -0.765125       -20.8201
  48   2.0000      -0.720714       -19.6116
  49   2.0000      -0.709757       -19.3135
  50   2.0000      -0.691587       -18.8190
  51   2.0000      -0.683433       -18.5972
  52   2.0000      -0.674510       -18.3543
  53   2.0000      -0.652911       -17.7666
  54   2.0000      -0.637757       -17.3542
  55   2.0000      -0.598665       -16.2905
  56   2.0000      -0.591737       -16.1020
  57   2.0000      -0.577587       -15.7169
  58   2.0000      -0.566844       -15.4246
  59   2.0000      -0.562514       -15.3068
  60   2.0000      -0.499640       -13.5959
  61   2.0000      -0.492752       -13.4085
  62   2.0000      -0.472200       -12.8492
  63   2.0000      -0.471943       -12.8422
  64   2.0000      -0.453934       -12.3522
  65   2.0000      -0.444712       -12.1012
  66   2.0000      -0.443668       -12.0728
  67   2.0000      -0.436498       -11.8777
  68   2.0000      -0.431717       -11.7476
  69   2.0000      -0.419827       -11.4241
  70   2.0000      -0.411750       -11.2043
  71   2.0000      -0.399186       -10.8624
  72   2.0000      -0.397580       -10.8187
  73   2.0000      -0.385290       -10.4843
  74   2.0000      -0.380386       -10.3508
  75   2.0000      -0.373494       -10.1633
  76   2.0000      -0.366014        -9.9598
  77   2.0000      -0.356882        -9.7113
  78   2.0000      -0.355226        -9.6662
  79   2.0000      -0.352894        -9.6027
  80   2.0000      -0.347729        -9.4622
  81   2.0000      -0.345565        -9.4033
  82   2.0000      -0.339293        -9.2326
  83   2.0000      -0.335059        -9.1174
  84   2.0000      -0.328347        -8.9348
  85   2.0000      -0.318425        -8.6648
  86   2.0000      -0.313746        -8.5375
  87   2.0000      -0.295361        -8.0372
  88   2.0000      -0.293318        -7.9816
  89   2.0000      -0.291635        -7.9358
  90   2.0000      -0.284431        -7.7398
  91   2.0000      -0.275373        -7.4933
  92   2.0000      -0.269994        -7.3469
  93   2.0000      -0.263793        -7.1782
  94   2.0000      -0.258018        -7.0210
  95   2.0000      -0.237609        -6.4657
  96   2.0000      -0.220716        -6.0060
  97   2.0000      -0.205612        -5.5950
  98   2.0000      -0.201830        -5.4921
  99   2.0000      -0.200206        -5.4479
 100   2.0000      -0.197010        -5.3609
 101   0.0000      -0.045717        -1.2440
 102   0.0000      -0.023801        -0.6477
 103   0.0000      -0.016462        -0.4480
 104   0.0000       0.002430         0.0661
 105   0.0000       0.015028         0.4089

MULLIKEN ATOMIC CHARGES
-----------------------
   0 C :   -0.318469
   1 C :   -0.000978
   2 O :   -0.373497
   3 P :    0.603181
   4 S :   -0.309921
   5 O :   -0.349692
   6 C :   -0.004252
   7 C :   -0.306507
   8 S :   -0.112950
   9 C :   -0.348602
  10 S :   -0.093782
  11 P :    0.617134
  12 S :   -0.320203
  13 O :   -0.380889
  14 C :   -0.012987
  15 C :   -0.291730
  16 O :   -0.363802
  17 C :   -0.004630
  18 C :   -0.303356
  19 H :    0.114860
  20 H :    0.115706
  21 H :    0.127502
  22 H :    0.113942
  23 H :    0.105438
  24 H :    0.113485
  25 H :    0.114225
  26 H :    0.123126
  27 H :    0.114086
  28 H :    0.116356
  29 H :    0.179429
  30 H :    0.212577
  31 H :    0.102650
  32 H :    0.099713
  33 H :    0.130694
  34 H :    0.112999
  35 H :    0.106511
  36 H :    0.115542
  37 H :    0.110966
  38 H :    0.113839
  39 H :    0.120988
  40 H :    0.111298
Sum of atomic charges:    0.0000000

LOEWDIN ATOMIC CHARGES
----------------------
   0 C :   -0.371150
   1 C :   -0.117737
   2 O :   -0.242068
   3 P :    0.572470
   4 S :   -0.304998
   5 O :   -0.230041
   6 C :   -0.114635
   7 C :   -0.366661
   8 S :    0.082940
   9 C :   -0.474541
  10 S :    0.077172
  11 P :    0.566819
  12 S :   -0.315776
  13 O :   -0.253085
  14 C :   -0.118755
  15 C :   -0.364183
  16 O :   -0.229456
  17 C :   -0.114812
  18 C :   -0.363966
  19 H :    0.131997
  20 H :    0.122555
  21 H :    0.121216
  22 H :    0.113025
  23 H :    0.119015
  24 H :    0.125085
  25 H :    0.102449
  26 H :    0.129114
  27 H :    0.131730
  28 H :    0.116052
  29 H :    0.132499
  30 H :    0.130269
  31 H :    0.115853
  32 H :    0.105963
  33 H :    0.124773
  34 H :    0.124903
  35 H :    0.128252
  36 H :    0.112443
  37 H :    0.118203
  38 H :    0.125193
  39 H :    0.121782
  40 H :    0.130091

  Mayer bond orders larger than 0.100000
B(  0-C ,  1-C ) :   1.1654 B(  0-C , 19-H ) :   0.9376 B(  0-C , 20-H ) :   0.9447
B(  0-C , 21-H ) :   0.9348 B(  1-C ,  2-O ) :   0.9056 B(  1-C , 22-H ) :   0.9154
B(  1-C , 23-H ) :   0.9338 B(  2-O ,  3-P ) :   1.0931 B(  3-P ,  4-S ) :   1.6437
B(  3-P ,  5-O ) :   1.1519 B(  3-P ,  8-S ) :   0.9207 B(  4-S ,  8-S ) :   0.1093
B(  5-O ,  6-C ) :   0.8999 B(  6-C ,  7-C ) :   1.1687 B(  6-C , 24-H ) :   0.9338
B(  6-C , 25-H ) :   0.9132 B(  7-C , 26-H ) :   0.9428 B(  7-C , 27-H ) :   0.9361
B(  7-C , 28-H ) :   0.9383 B(  8-S ,  9-C ) :   1.0197 B(  9-C , 10-S ) :   0.9578
B(  9-C , 29-H ) :   0.9091 B(  9-C , 30-H ) :   0.8628 B( 10-S , 11-P ) :   0.9754
B( 11-P , 12-S ) :   1.6399 B( 11-P , 13-O ) :   1.0721 B( 11-P , 16-O ) :   1.1251
B( 13-O , 14-C ) :   0.9114 B( 14-C , 15-C ) :   1.1686 B( 14-C , 31-H ) :   0.9356
B( 14-C , 32-H ) :   0.9118 B( 15-C , 33-H ) :   0.9308 B( 15-C , 34-H ) :   0.9465
B( 15-C , 35-H ) :   0.9395 B( 16-O , 17-C ) :   0.8982 B( 17-C , 18-C ) :   1.1616
B( 17-C , 36-H ) :   0.9164 B( 17-C , 37-H ) :   0.9295 B( 18-C , 38-H ) :   0.9470
B( 18-C , 39-H ) :   0.9357 B( 18-C , 40-H ) :   0.9398

Dispersion correction           -0.064584319
FINAL SINGLE POINT ENERGY     -2929.516809410464

DIPOLE MOMENT
-------------

Method             : SCF
Type of density    : Electron Density
Multiplicity       :   1
Irrep              :   0
Energy             : -2929.6376759868931003 Eh
Relativity type    :
Basis              : AO
                                X                 Y                 Z
Electronic contribution:      2.085146125       7.376123110       3.989821043
Nuclear contribution   :     -1.420117530      -8.822376263      -4.014129608
                        -----------------------------------------
Total Dipole Moment    :      0.665028595      -1.446253153      -0.024308565
                        -----------------------------------------
Magnitude (a.u.)       :      1.592011973
Magnitude (Debye)      :      4.046572849

Rotational constants in cm-1:             0.013538             0.004508             0.004185
Rotational constants in MHz :           405.861073           135.149247           125.464650

                             ****ORCA TERMINATED NORMALLY****
TOTAL RUN TIME: 0 days 0 hours 0 minutes 20 seconds 843 msec
