                         Program Version 6.0.0  -   RELEASE  -
|  1> ! wb97x-v def2-tzvp def2/J RIJCOSX DEFGRID2 scfconv7 GCP(DFT/TZ) printgap
|  2> %output
|  3>     printlevel normal
|  4> end
|  5> * xyz 0 1
|  6> C 0.7102320892947361 -0.5550881317187669 -0.21580996701815514
|  7> C -0.5780107100358686 0.1670483844160701 0.31064657184907535
|  8> F -0.47657860371432337 0.2789939321047216 1.648349105188213
|  9> Cl -2.0051876232552157 -0.8368668668897716 -0.08342301249281643
| 10> Cl -0.7328749303020665 1.78415158110835 -0.4178060661774555
| 11> F 0.7685408448152562 -1.7799013760251905 0.33092297572751933
| 12> F 0.6462977289860915 -0.6850066001157521 -1.546753422202851
| 13> Cl 2.183425597335506 0.35387710071554684 0.23619038976929813
| 14> *
| 15>
| 16>                          ****END OF INPUT****

CARTESIAN COORDINATES (ANGSTROEM)
---------------------------------
  C      0.710232   -0.555088   -0.215810
  C     -0.578011    0.167048    0.310647
  F     -0.476579    0.278994    1.648349
  Cl    -2.005188   -0.836867   -0.083423
  Cl    -0.732875    1.784152   -0.417806
  F      0.768541   -1.779901    0.330923
  F      0.646298   -0.685007   -1.546753
  Cl     2.183426    0.353877    0.236190

 Total Charge           Charge          ....    0
 Multiplicity           Mult            ....    1
 Number of Electrons    NEL             ....   90
 Basis Dimension        Dim             ....  266

ORBITAL ENERGIES
----------------

  NO   OCC          E(Eh)            E(eV)
   0   2.0000    -107.184105     -2916.6278
   1   2.0000    -107.182630     -2916.5876
   2   2.0000    -107.180371     -2916.5262
   3   2.0000     -27.630242      -751.8571
   4   2.0000     -27.629517      -751.8374
   5   2.0000     -27.628557      -751.8113
   6   2.0000     -12.320962      -335.2704
   7   2.0000     -12.298350      -334.6551
   8   2.0000     -11.337679      -308.5139
   9   2.0000     -11.336149      -308.4723
  10   2.0000     -11.334120      -308.4171
  11   2.0000      -9.129547      -248.4276
  12   2.0000      -9.127709      -248.3776
  13   2.0000      -9.126224      -248.3372
  14   2.0000      -9.126130      -248.3346
  15   2.0000      -9.125458      -248.3163
  16   2.0000      -9.124538      -248.2913
  17   2.0000      -9.124363      -248.2865
  18   2.0000      -9.122609      -248.2388
  19   2.0000      -9.122520      -248.2364
  20   2.0000      -2.078159       -56.5496
  21   2.0000      -2.057554       -55.9889
  22   2.0000      -2.043286       -55.6006
  23   2.0000      -1.500998       -40.8442
  24   2.0000      -1.460055       -39.7301
  25   2.0000      -1.427356       -38.8403
  26   2.0000      -1.369536       -37.2670
  27   2.0000      -1.324102       -36.0306
  28   2.0000      -1.279512       -34.8173
  29   2.0000      -1.234710       -33.5982
  30   2.0000      -1.209554       -32.9136
  31   2.0000      -1.197479       -32.5851
  32   2.0000      -1.194845       -32.5134
  33   2.0000      -1.187475       -32.3128
  34   2.0000      -1.178246       -32.0617
  35   2.0000      -1.132726       -30.8230
  36   2.0000      -1.029257       -28.0075
  37   2.0000      -0.966773       -26.3072
  38   2.0000      -0.948282       -25.8041
  39   2.0000      -0.847997       -23.0752
  40   2.0000      -0.840757       -22.8782
  41   2.0000      -0.837547       -22.7908
  42   2.0000      -0.830954       -22.6114
  43   2.0000      -0.826235       -22.4830
  44   2.0000      -0.819181       -22.2911
  45   0.0000      -0.378229       -10.2921
  46   0.0000      -0.353571        -9.6212
  47   0.0000      -0.333061        -9.0630
  48   0.0000      -0.323138        -8.7930
  49   0.0000      -0.226754        -6.1703

MULLIKEN ATOMIC CHARGES
-----------------------
   0 C :    0.293115
   1 C :    0.191517
   2 F :   -0.121067
   3 Cl:   -0.036215
   4 Cl:   -0.029313
   5 F :   -0.126082
   6 F :   -0.125908
   7 Cl:   -0.046045
Sum of atomic charges:    0.0000000

LOEWDIN ATOMIC CHARGES
----------------------
   0 C :   -0.840374
   1 C :   -0.930065
   2 F :    0.197794
   3 Cl:    0.382732
   4 Cl:    0.389005
   5 F :    0.207807
   6 F :    0.211721
   7 Cl:    0.381378

  Mayer bond orders larger than 0.100000
B(  0-C ,  1-C ) :   0.9524 B(  0-C ,  5-F ) :   1.1604 B(  0-C ,  6-F ) :   1.1666
B(  0-C ,  7-Cl) :   1.1655 B(  1-C ,  2-F ) :   1.1411 B(  1-C ,  3-Cl) :   1.1526
B(  1-C ,  4-Cl) :   1.1636

FINAL SINGLE POINT ENERGY     -1756.195323847299

DIPOLE MOMENT
-------------

Method             : SCF
Type of density    : Electron Density
Multiplicity       :   1
Irrep              :   0
Energy             : -1756.2090886366993345 Eh
Relativity type    :
Basis              : AO
                                X                 Y                 Z
Electronic contribution:      0.087609847      -0.120126616      -0.017994371
Nuclear contribution   :     -0.133986164       0.276763690      -0.046471729
                        -----------------------------------------
Total Dipole Moment    :     -0.046376317       0.156637075      -0.064466100
                        -----------------------------------------
Magnitude (a.u.)       :      0.175618376
Magnitude (Debye)      :      0.446386437

Rotational constants in cm-1:             0.051715             0.035606             0.029019
Rotational constants in MHz :          1550.386593          1067.429846           869.965743

                             ****ORCA TERMINATED NORMALLY****
TOTAL RUN TIME: 0 days 0 hours 1 minutes 23 seconds 793 msec
