                         Program Version 6.0.0  -   RELEASE  -
|  1> ! wb97x-v def2-tzvp def2/J RIJCOSX DEFGRID2 scfconv7 GCP(DFT/TZ) printgap
|  2> %output
|  3>     printlevel normal
|  4> end
|  5> %cpcm
|  6>     smd true
|  7>     smdsolvent "water"
|  8> end
|  9> * xyz 0 1
| 10> C 0.7102320892947361 -0.5550881317187669 -0.21580996701815514
| 11> C -0.5780107100358686 0.1670483844160701 0.31064657184907535
| 12> F -0.47657860371432337 0.2789939321047216 1.648349105188213
| 13> Cl -2.0051876232552157 -0.8368668668897716 -0.08342301249281643
| 14> Cl -0.7328749303020665 1.78415158110835 -0.4178060661774555
| 15> F 0.7685408448152562 -1.7799013760251905 0.33092297572751933
| 16> F 0.6462977289860915 -0.6850066001157521 -1.546753422202851
| 17> Cl 2.183425597335506 0.35387710071554684 0.23619038976929813
| 18> *
| 19>
| 20>                          ****END OF INPUT****

CARTESIAN COORDINATES (ANGSTROEM)
---------------------------------
  C      0.710232   -0.555088   -0.215810
  C     -0.578011    0.167048    0.310647
  F     -0.476579    0.278994    1.648349
  Cl    -2.005188   -0.836867   -0.083423
  Cl    -0.732875    1.784152   -0.417806
  F      0.768541   -1.779901    0.330923
  F      0.646298   -0.685007   -1.546753
  Cl     2.183426    0.353877    0.236190

 Total Charge           Charge          ....    0
 Multiplicity           Mult            ....    1
 Number of Electrons    NEL             ....   90
 Basis Dimension        Dim             ....  266

ORBITAL ENERGIES
----------------

  NO   OCC          E(Eh)            E(eV)
   0   2.0000    -107.183409     -2916.6088
   1   2.0000    -107.182163     -2916.5749
   2   2.0000    -107.180210     -2916.5218
   3   2.0000     -27.630692      -751.8693
   4   2.0000     -27.629751      -751.8437
   5   2.0000     -27.629038      -751.8243
   6   2.0000     -12.320882      -335.2683
   7   2.0000     -12.297691      -334.6372
   8   2.0000     -11.336933      -308.4936
   9   2.0000     -11.335641      -308.4585
  10   2.0000     -11.333912      -308.4114
  11   2.0000      -9.128843      -248.4084
  12   2.0000      -9.127152      -248.3624
  13   2.0000      -9.125539      -248.3185
  14   2.0000      -9.125455      -248.3162
  15   2.0000      -9.125137      -248.3076
  16   2.0000      -9.124022      -248.2773
  17   2.0000      -9.123826      -248.2719
  18   2.0000      -9.122391      -248.2329
  19   2.0000      -9.122291      -248.2301
  20   2.0000      -2.078634       -56.5625
  21   2.0000      -2.057893       -55.9981
  22   2.0000      -2.043830       -55.6154
  23   2.0000      -1.500591       -40.8332
  24   2.0000      -1.459788       -39.7229
  25   2.0000      -1.426638       -38.8208
  26   2.0000      -1.369747       -37.2727
  27   2.0000      -1.324365       -36.0378
  28   2.0000      -1.280222       -34.8366
  29   2.0000      -1.235061       -33.6077
  30   2.0000      -1.210063       -32.9275
  31   2.0000      -1.197900       -32.5965
  32   2.0000      -1.195262       -32.5247
  33   2.0000      -1.188086       -32.3295
  34   2.0000      -1.178846       -32.0780
  35   2.0000      -1.132685       -30.8219
  36   2.0000      -1.028819       -27.9956
  37   2.0000      -0.966113       -26.2893
  38   2.0000      -0.947750       -25.7896
  39   2.0000      -0.847386       -23.0585
  40   2.0000      -0.840305       -22.8659
  41   2.0000      -0.837131       -22.7795
  42   2.0000      -0.830372       -22.5956
  43   2.0000      -0.825750       -22.4698
  44   2.0000      -0.818557       -22.2741
  45   0.0000      -0.377322       -10.2675
  46   0.0000      -0.352845        -9.6014
  47   0.0000      -0.332592        -9.0503
  48   0.0000      -0.322989        -8.7890
  49   0.0000      -0.226467        -6.1625

MULLIKEN ATOMIC CHARGES
-----------------------
   0 C :    0.295904
   1 C :    0.190648
   2 F :   -0.124514
   3 Cl:   -0.034149
   4 Cl:   -0.025726
   5 F :   -0.129596
   6 F :   -0.128755
   7 Cl:   -0.043811
Sum of atomic charges:    0.0000000

LOEWDIN ATOMIC CHARGES
----------------------
   0 C :   -0.839656
   1 C :   -0.930860
   2 F :    0.195587
   3 Cl:    0.384251
   4 Cl:    0.391479
   5 F :    0.205853
   6 F :    0.210162
   7 Cl:    0.383183

  Mayer bond orders larger than 0.100000
B(  0-C ,  1-C ) :   0.9519 B(  0-C ,  5-F ) :   1.1561 B(  0-C ,  6-F ) :   1.1629
B(  0-C ,  7-Cl) :   1.1669 B(  1-C ,  2-F ) :   1.1365 B(  1-C ,  3-Cl) :   1.1533
B(  1-C ,  4-Cl) :   1.1661

FINAL SINGLE POINT ENERGY     -1756.190654710299

DIPOLE MOMENT
-------------

Method             : SCF
Type of density    : Electron Density
Multiplicity       :   1
Irrep              :   0
Energy             : -1756.2044194996990427 Eh
Relativity type    :
Basis              : AO
                                X                 Y                 Z
Electronic contribution:      0.083560667      -0.097347431      -0.029708981
Nuclear contribution   :     -0.133986164       0.276763690      -0.046471729
                        -----------------------------------------
Total Dipole Moment    :     -0.050425497       0.179416259      -0.076180710
                        -----------------------------------------
Magnitude (a.u.)       :      0.201336597
Magnitude (Debye)      :      0.511756959

Rotational constants in cm-1:             0.051715             0.035606             0.029019
Rotational constants in MHz :          1550.386593          1067.429846           869.965743

                             ****ORCA TERMINATED NORMALLY****
TOTAL RUN TIME: 0 days 0 hours 1 minutes 28 seconds 207 msec
