                         Program Version 6.0.0  -   RELEASE  -
|  1> ! pbe def2-sv(p) def2/J RI DEFGRID1 loosescf d4 GCP(DFT/SV(P)) printgap
|  2> %output
|  3>     printlevel normal
|  4> end
|  5> * xyz 0 1
|  6> C 5.5784277444 -0.7214529328 -0.9221855671
|  7> C 4.2938468054 -1.4803171912 -1.1835614914
|  8> O 3.2482513878 -0.5884577857 -1.6459756711
|  9> P 2.1757560017 0.0789017991 -0.7036889491
| 10> S 0.9800603952 1.2050701348 -1.7653420113
| 11> O 3.0734397556 0.7876180479 0.3924788135
| 12> C 2.5743684533 1.6937594889 1.3936708061
| 13> C 3.7573326602 2.4611937021 1.9467131092
| 14> S 1.2848892738 -1.5570124454 0.3363265454
| 15> C -0.0901420707 -1.8653437218 -0.8183770095
| 16> S -1.7018311843 -1.9693332863 -0.0035991172
| 17> P -2.046528329 0.0959125091 0.4114626205
| 18> S -0.756759525 1.0179174334 1.5540511951
| 19> O -3.5207036457 0.04062371 0.9970393352
| 20> C -3.7799441549 -0.4630621566 2.324544346
| 21> C -5.1459191012 0.0332436774 2.7526444681
| 22> O -2.2244995565 0.8021615965 -0.9795296902
| 23> C -3.1858865006 0.3922342991 -1.9846143933
| 24> C -4.4599210712 1.2023970026 -1.8672713514
| 25> H 6.3584957374 -1.4275935281 -0.6552116507
| 26> H 5.8762640649 -0.1768829731 -1.8139771196
| 27> H 5.4409889179 -0.0137498817 -0.1094171809
| 28> H 3.9457234088 -1.9960298849 -0.2839952062
| 29> H 4.4140753268 -2.1960337943 -1.9986876665
| 30> H 1.8381410808 2.3601854938 0.9334211225
| 31> H 2.070379031 1.1127873961 2.1705390492
| 32> H 3.4043642377 3.1502865954 2.706602373
| 33> H 4.4723290549 1.7736246669 2.3890494127
| 34> H 4.2441444591 3.0202856962 1.1523843494
| 35> H 0.0633647895 -2.8329039079 -1.2885713569
| 36> H -0.1030448634 -1.0563211829 -1.5540569807
| 37> H -3.743458419 -1.554743909 2.284551345
| 38> H -2.9925643983 -0.1008744208 2.9937396784
| 39> H -5.9054881282 -0.3246527718 2.0637827653
| 40> H -5.3614459814 -0.3377419852 3.7491501982
| 41> H -5.161465511 1.1195610868 2.7638572189
| 42> H -2.6770253103 0.5804423382 -2.9322876657
| 43> H -3.3844010127 -0.6773311333 -1.871329173
| 44> H -4.2330610388 2.2626726917 -1.9388880814
| 45> H -5.1319306498 0.9235411341 -2.6728657685
| 46> H -4.9413927268 1.0098840011 -0.9123436876
| 47> *
| 48>
| 49>                          ****END OF INPUT****

CARTESIAN COORDINATES (ANGSTROEM)
---------------------------------
  C      5.578428   -0.721453   -0.922186
  C      4.293847   -1.480317   -1.183561
  O      3.248251   -0.588458   -1.645976
  P      2.175756    0.078902   -0.703689
  S      0.980060    1.205070   -1.765342
  O      3.073440    0.787618    0.392479
  C      2.574368    1.693759    1.393671
  C      3.757333    2.461194    1.946713
  S      1.284889   -1.557012    0.336327
  C     -0.090142   -1.865344   -0.818377
  S     -1.701831   -1.969333   -0.003599
  P     -2.046528    0.095913    0.411463
  S     -0.756760    1.017917    1.554051
  O     -3.520704    0.040624    0.997039
  C     -3.779944   -0.463062    2.324544
  C     -5.145919    0.033244    2.752644
  O     -2.224500    0.802162   -0.979530
  C     -3.185887    0.392234   -1.984614
  C     -4.459921    1.202397   -1.867271
  H      6.358496   -1.427594   -0.655212
  H      5.876264   -0.176883   -1.813977
  H      5.440989   -0.013750   -0.109417
  H      3.945723   -1.996030   -0.283995
  H      4.414075   -2.196034   -1.998688
  H      1.838141    2.360185    0.933421
  H      2.070379    1.112787    2.170539
  H      3.404364    3.150287    2.706602
  H      4.472329    1.773625    2.389049
  H      4.244144    3.020286    1.152384
  H      0.063365   -2.832904   -1.288571
  H     -0.103045   -1.056321   -1.554057
  H     -3.743458   -1.554744    2.284551
  H     -2.992564   -0.100874    2.993740
  H     -5.905488   -0.324653    2.063783
  H     -5.361446   -0.337742    3.749150
  H     -5.161466    1.119561    2.763857
  H     -2.677025    0.580442   -2.932288
  H     -3.384401   -0.677331   -1.871329
  H     -4.233061    2.262673   -1.938888
  H     -5.131931    0.923541   -2.672866
  H     -4.941393    1.009884   -0.912344

 Total Charge           Charge          ....    0
 Multiplicity           Mult            ....    1
 Number of Electrons    NEL             ....  202
 Basis Dimension        Dim             ....  334

ORBITAL ENERGIES
----------------

  NO   OCC          E(Eh)            E(eV)
   0   2.0000     -88.040789     -2395.7117
   1   2.0000     -88.033860     -2395.5231
   2   2.0000     -87.975727     -2393.9412
   3   2.0000     -87.975446     -2393.9336
   4   2.0000     -76.421618     -2079.5380
   5   2.0000     -76.418243     -2079.4461
   6   2.0000     -18.792338      -511.3655
   7   2.0000     -18.790350      -511.3114
   8   2.0000     -18.789040      -511.2758
   9   2.0000     -18.782573      -511.0998
  10   2.0000      -9.953826      -270.8574
  11   2.0000      -9.952936      -270.8332
  12   2.0000      -9.952439      -270.8196
  13   2.0000      -9.951257      -270.7875
  14   2.0000      -9.944508      -270.6038
  15   2.0000      -9.889696      -269.1123
  16   2.0000      -9.883469      -268.9429
  17   2.0000      -9.883146      -268.9341
  18   2.0000      -9.882745      -268.9232
  19   2.0000      -7.685887      -209.1436
  20   2.0000      -7.678879      -208.9529
  21   2.0000      -7.621027      -207.3787
  22   2.0000      -7.620679      -207.3692
  23   2.0000      -6.419192      -174.6751
  24   2.0000      -6.415959      -174.5871
  25   2.0000      -5.713504      -155.4724
  26   2.0000      -5.710338      -155.3862
  27   2.0000      -5.706702      -155.2873
  28   2.0000      -5.703525      -155.2008
  29   2.0000      -5.703193      -155.1918
  30   2.0000      -5.695786      -154.9902
  31   2.0000      -5.650112      -153.7474
  32   2.0000      -5.649648      -153.7347
  33   2.0000      -5.641855      -153.5227
  34   2.0000      -5.641181      -153.5043
  35   2.0000      -5.640824      -153.4946
  36   2.0000      -5.640749      -153.4926
  37   2.0000      -4.642211      -126.3210
  38   2.0000      -4.641117      -126.2912
  39   2.0000      -4.639073      -126.2356
  40   2.0000      -4.638785      -126.2278
  41   2.0000      -4.637674      -126.1975
  42   2.0000      -4.636184      -126.1570
  43   2.0000      -0.987146       -26.8616
  44   2.0000      -0.982721       -26.7412
  45   2.0000      -0.944842       -25.7105
  46   2.0000      -0.939468       -25.5642
  47   2.0000      -0.757138       -20.6028
  48   2.0000      -0.719015       -19.5654
  49   2.0000      -0.710038       -19.3211
  50   2.0000      -0.691785       -18.8244
  51   2.0000      -0.687767       -18.7151
  52   2.0000      -0.669676       -18.2228
  53   2.0000      -0.643922       -17.5220
  54   2.0000      -0.630428       -17.1548
  55   2.0000      -0.587484       -15.9863
  56   2.0000      -0.583414       -15.8755
  57   2.0000      -0.570401       -15.5214
  58   2.0000      -0.566453       -15.4140
  59   2.0000      -0.559878       -15.2350
  60   2.0000      -0.510045       -13.8790
  61   2.0000      -0.500043       -13.6069
  62   2.0000      -0.481005       -13.0888
  63   2.0000      -0.476739       -12.9727
  64   2.0000      -0.446730       -12.1561
  65   2.0000      -0.443307       -12.0630
  66   2.0000      -0.439946       -11.9715
  67   2.0000      -0.436357       -11.8739
  68   2.0000      -0.429359       -11.6835
  69   2.0000      -0.418393       -11.3850
  70   2.0000      -0.405557       -11.0358
  71   2.0000      -0.388756       -10.5786
  72   2.0000      -0.385907       -10.5011
  73   2.0000      -0.383231       -10.4283
  74   2.0000      -0.380639       -10.3577
  75   2.0000      -0.363658        -9.8956
  76   2.0000      -0.359452        -9.7812
  77   2.0000      -0.355555        -9.6751
  78   2.0000      -0.352954        -9.6044
  79   2.0000      -0.350186        -9.5291
  80   2.0000      -0.348787        -9.4910
  81   2.0000      -0.343810        -9.3555
  82   2.0000      -0.340480        -9.2649
  83   2.0000      -0.338392        -9.2081
  84   2.0000      -0.333471        -9.0742
  85   2.0000      -0.316147        -8.6028
  86   2.0000      -0.310009        -8.4358
  87   2.0000      -0.299484        -8.1494
  88   2.0000      -0.293422        -7.9844
  89   2.0000      -0.288967        -7.8632
  90   2.0000      -0.285434        -7.7671
  91   2.0000      -0.271601        -7.3906
  92   2.0000      -0.267474        -7.2783
  93   2.0000      -0.258838        -7.0433
  94   2.0000      -0.254423        -6.9232
  95   2.0000      -0.240261        -6.5378
  96   2.0000      -0.220619        -6.0033
  97   2.0000      -0.199959        -5.4412
  98   2.0000      -0.197211        -5.3664
  99   2.0000      -0.183535        -4.9943
 100   2.0000      -0.180503        -4.9117
 101   0.0000      -0.035434        -0.9642
 102   0.0000      -0.025908        -0.7050
 103   0.0000      -0.008761        -0.2384
 104   0.0000       0.005954         0.1620
 105   0.0000       0.028624         0.7789

MULLIKEN ATOMIC CHARGES
-----------------------
   0 C :   -0.293740
   1 C :   -0.010838
   2 O :   -0.356496
   3 P :    0.602572
   4 S :   -0.297793
   5 O :   -0.384945
   6 C :   -0.030070
   7 C :   -0.277477
   8 S :   -0.096938
   9 C :   -0.344903
  10 S :   -0.120298
  11 P :    0.612864
  12 S :   -0.315306
  13 O :   -0.384811
  14 C :   -0.013057
  15 C :   -0.283954
  16 O :   -0.343166
  17 C :   -0.014200
  18 C :   -0.291351
  19 H :    0.107100
  20 H :    0.118930
  21 H :    0.124955
  22 H :    0.098777
  23 H :    0.105792
  24 H :    0.123871
  25 H :    0.119812
  26 H :    0.114323
  27 H :    0.112909
  28 H :    0.118320
  29 H :    0.181007
  30 H :    0.188713
  31 H :    0.105029
  32 H :    0.106858
  33 H :    0.116163
  34 H :    0.113229
  35 H :    0.123553
  36 H :    0.113414
  37 H :    0.098532
  38 H :    0.122284
  39 H :    0.108255
  40 H :    0.122081
Sum of atomic charges:   -0.0000000

LOEWDIN ATOMIC CHARGES
----------------------
   0 C :   -0.360966
   1 C :   -0.116662
   2 O :   -0.241338
   3 P :    0.567412
   4 S :   -0.297510
   5 O :   -0.242852
   6 C :   -0.119849
   7 C :   -0.351620
   8 S :    0.061571
   9 C :   -0.481240
  10 S :    0.058222
  11 P :    0.567023
  12 S :   -0.305444
  13 O :   -0.250446
  14 C :   -0.120499
  15 C :   -0.350956
  16 O :   -0.222727
  17 C :   -0.115112
  18 C :   -0.359801
  19 H :    0.128113
  20 H :    0.128459
  21 H :    0.125850
  22 H :    0.101286
  23 H :    0.119298
  24 H :    0.113718
  25 H :    0.111073
  26 H :    0.132157
  27 H :    0.123623
  28 H :    0.127516
  29 H :    0.135234
  30 H :    0.120684
  31 H :    0.109700
  32 H :    0.109814
  33 H :    0.125536
  34 H :    0.131569
  35 H :    0.130235
  36 H :    0.122407
  37 H :    0.102394
  38 H :    0.129837
  39 H :    0.128961
  40 H :    0.125330

  Mayer bond orders larger than 0.100000
B(  0-C ,  1-C ) :   1.1625 B(  0-C , 19-H ) :   0.9397 B(  0-C , 20-H ) :   0.9469
B(  0-C , 21-H ) :   0.9409 B(  1-C ,  2-O ) :   0.9012 B(  1-C , 22-H ) :   0.9100
B(  1-C , 23-H ) :   0.9371 B(  2-O ,  3-P ) :   1.1291 B(  3-P ,  4-S ) :   1.6459
B(  3-P ,  5-O ) :   1.0984 B(  3-P ,  8-S ) :   0.9494 B(  4-S ,  8-S ) :   0.1151
B(  4-S , 30-H ) :   0.1134 B(  5-O ,  6-C ) :   0.8976 B(  6-C ,  7-C ) :   1.1516
B(  6-C , 24-H ) :   0.9152 B(  6-C , 25-H ) :   0.9268 B(  7-C , 26-H ) :   0.9425
B(  7-C , 27-H ) :   0.9494 B(  7-C , 28-H ) :   0.9499 B(  8-S ,  9-C ) :   0.9960
B(  9-C , 10-S ) :   0.9982 B(  9-C , 29-H ) :   0.9123 B(  9-C , 30-H ) :   0.8524
B( 10-S , 11-P ) :   0.9479 B( 10-S , 12-S ) :   0.1136 B( 11-P , 12-S ) :   1.6731
B( 11-P , 13-O ) :   1.0730 B( 11-P , 16-O ) :   1.1477 B( 13-O , 14-C ) :   0.9052
B( 14-C , 15-C ) :   1.1604 B( 14-C , 31-H ) :   0.9295 B( 14-C , 32-H ) :   0.9065
B( 15-C , 33-H ) :   0.9509 B( 15-C , 34-H ) :   0.9415 B( 15-C , 35-H ) :   0.9506
B( 16-O , 17-C ) :   0.8933 B( 17-C , 18-C ) :   1.1670 B( 17-C , 36-H ) :   0.9328
B( 17-C , 37-H ) :   0.9095 B( 18-C , 38-H ) :   0.9470 B( 18-C , 39-H ) :   0.9397
B( 18-C , 40-H ) :   0.9411

Dispersion correction           -0.063697288
FINAL SINGLE POINT ENERGY     -2929.513233965447

DIPOLE MOMENT
-------------

Method             : SCF
Type of density    : Electron Density
Multiplicity       :   1
Irrep              :   0
Energy             : -2929.6334649805285153 Eh
Relativity type    :
Basis              : AO
                                X                 Y                 Z
Electronic contribution:      1.197179413      -5.150744873      -4.781963499
Nuclear contribution   :     -1.515154689       4.229826101       5.094742859
                        -----------------------------------------
Total Dipole Moment    :     -0.317975277      -0.920918772       0.312779360
                        -----------------------------------------
Magnitude (a.u.)       :      1.023245126
Magnitude (Debye)      :      2.600882415

Rotational constants in cm-1:             0.013508             0.004506             0.004286
Rotational constants in MHz :           404.947793           135.089144           128.489530

                             ****ORCA TERMINATED NORMALLY****
TOTAL RUN TIME: 0 days 0 hours 0 minutes 20 seconds 536 msec
