                         Program Version 6.0.0  -   RELEASE  -
|  1> ! pbe def2-sv(p) def2/J RI DEFGRID1 loosescf d4 GCP(DFT/SV(P)) printgap
|  2> %output
|  3>     printlevel normal
|  4> end
|  5> * xyz 0 1
|  6> C 6.113977136 0.1740238137 -1.4644455063
|  7> C 4.696218511 0.6410729385 -1.2039778211
|  8> O 3.9723052561 -0.4564475702 -0.6086193264
|  9> P 2.6354679837 -0.1969390407 0.1885746563
| 10> S 2.7217411247 1.1568028 1.6092790449
| 11> O 2.4441583131 -1.6927520022 0.6563448038
| 12> C 1.4233063787 -2.1081284948 1.5845826042
| 13> C 0.3341414739 -2.8749252316 0.8594798298
| 14> S 1.2115447222 0.2131555117 -1.3500547923
| 15> C 0.2009799815 1.4286099518 -0.4569134632
| 16> S -0.8542696225 0.7041878218 0.8244409328
| 17> P -2.4668136157 0.1393966324 -0.4651597747
| 18> S -2.0426519776 -1.1070756986 -1.9108066519
| 19> O -3.0185944879 1.509542363 -1.0144476683
| 20> C -3.5436820968 2.5643218242 -0.1667539696
| 21> C -5.049751179 2.4585234163 -0.0473343138
| 22> O -3.6001106724 -0.3396338778 0.5367942593
| 23> C -3.5858698118 -1.6425872873 1.1519028709
| 24> C -2.9504992871 -1.5841270162 2.5272944609
| 25> H 6.5917538102 -0.1038724427 -0.5293281476
| 26> H 6.1029770943 -0.6893820199 -2.1231207299
| 27> H 6.6746935386 0.9775492628 -1.930529416
| 28> H 4.1911691165 0.9205486998 -2.1331084107
| 29> H 4.6769714 1.4917381836 -0.5133897054
| 30> H 1.9376648363 -2.7487537221 2.3038473691
| 31> H 1.0245998895 -1.2303099168 2.105815019
| 32> H 0.7703110555 -3.7046492389 0.3107138797
| 33> H -0.3778164914 -3.2574947775 1.5836017541
| 34> H -0.1875093741 -2.2363267991 0.1481529281
| 35> H -0.4148695898 1.9229947714 -1.2048895974
| 36> H 0.8583038573 2.1317607066 0.0546989136
| 37> H -3.0629020234 2.5054787141 0.8132667359
| 38> H -3.2507031369 3.4878411036 -0.6698074927
| 39> H -5.5029215196 2.4681154716 -1.0348916605
| 40> H -5.325129669 1.5359104685 0.455668525
| 41> H -5.4193638853 3.3038071496 0.5248858106
| 42> H -4.6371129245 -1.9296009935 1.2143169172
| 43> H -3.0590590075 -2.3388830282 0.4916172334
| 44> H -3.4881126912 -0.8810412033 3.1569576763
| 45> H -2.9895336469 -2.5698455486 2.9795541671
| 46> H -1.9135236065 -1.2630807967 2.4561199903
| 47> *
| 48>
| 49>                          ****END OF INPUT****

CARTESIAN COORDINATES (ANGSTROEM)
---------------------------------
  C      6.113977    0.174024   -1.464446
  C      4.696219    0.641073   -1.203978
  O      3.972305   -0.456448   -0.608619
  P      2.635468   -0.196939    0.188575
  S      2.721741    1.156803    1.609279
  O      2.444158   -1.692752    0.656345
  C      1.423306   -2.108128    1.584583
  C      0.334141   -2.874925    0.859480
  S      1.211545    0.213156   -1.350055
  C      0.200980    1.428610   -0.456913
  S     -0.854270    0.704188    0.824441
  P     -2.466814    0.139397   -0.465160
  S     -2.042652   -1.107076   -1.910807
  O     -3.018594    1.509542   -1.014448
  C     -3.543682    2.564322   -0.166754
  C     -5.049751    2.458523   -0.047334
  O     -3.600111   -0.339634    0.536794
  C     -3.585870   -1.642587    1.151903
  C     -2.950499   -1.584127    2.527294
  H      6.591754   -0.103872   -0.529328
  H      6.102977   -0.689382   -2.123121
  H      6.674694    0.977549   -1.930529
  H      4.191169    0.920549   -2.133108
  H      4.676971    1.491738   -0.513390
  H      1.937665   -2.748754    2.303847
  H      1.024600   -1.230310    2.105815
  H      0.770311   -3.704649    0.310714
  H     -0.377816   -3.257495    1.583602
  H     -0.187509   -2.236327    0.148153
  H     -0.414870    1.922995   -1.204890
  H      0.858304    2.131761    0.054699
  H     -3.062902    2.505479    0.813267
  H     -3.250703    3.487841   -0.669807
  H     -5.502922    2.468115   -1.034892
  H     -5.325130    1.535910    0.455669
  H     -5.419364    3.303807    0.524886
  H     -4.637113   -1.929601    1.214317
  H     -3.059059   -2.338883    0.491617
  H     -3.488113   -0.881041    3.156958
  H     -2.989534   -2.569846    2.979554
  H     -1.913524   -1.263081    2.456120

 Total Charge           Charge          ....    0
 Multiplicity           Mult            ....    1
 Number of Electrons    NEL             ....  202
 Basis Dimension        Dim             ....  334

ORBITAL ENERGIES
----------------

  NO   OCC          E(Eh)            E(eV)
   0   2.0000     -88.046716     -2395.8729
   1   2.0000     -88.039328     -2395.6719
   2   2.0000     -87.988186     -2394.2803
   3   2.0000     -87.986558     -2394.2360
   4   2.0000     -76.430452     -2079.7783
   5   2.0000     -76.424057     -2079.6043
   6   2.0000     -18.802272      -511.6358
   7   2.0000     -18.800395      -511.5848
   8   2.0000     -18.789277      -511.2822
   9   2.0000     -18.786564      -511.2084
  10   2.0000      -9.961675      -271.0710
  11   2.0000      -9.961285      -271.0604
  12   2.0000      -9.956662      -270.9346
  13   2.0000      -9.951288      -270.7883
  14   2.0000      -9.947985      -270.6984
  15   2.0000      -9.894950      -269.2553
  16   2.0000      -9.890631      -269.1378
  17   2.0000      -9.885607      -269.0010
  18   2.0000      -9.875602      -268.7288
  19   2.0000      -7.690937      -209.2810
  20   2.0000      -7.684125      -209.0957
  21   2.0000      -7.633201      -207.7100
  22   2.0000      -7.631599      -207.6664
  23   2.0000      -6.427922      -174.9127
  24   2.0000      -6.421673      -174.7426
  25   2.0000      -5.718552      -155.6097
  26   2.0000      -5.715527      -155.5274
  27   2.0000      -5.711957      -155.4302
  28   2.0000      -5.708603      -155.3390
  29   2.0000      -5.708223      -155.3287
  30   2.0000      -5.701238      -155.1386
  31   2.0000      -5.661938      -154.0692
  32   2.0000      -5.660637      -154.0338
  33   2.0000      -5.653983      -153.8527
  34   2.0000      -5.653389      -153.8365
  35   2.0000      -5.652276      -153.8062
  36   2.0000      -5.651593      -153.7877
  37   2.0000      -4.651018      -126.5606
  38   2.0000      -4.649735      -126.5257
  39   2.0000      -4.647813      -126.4734
  40   2.0000      -4.643900      -126.3669
  41   2.0000      -4.643681      -126.3610
  42   2.0000      -4.642129      -126.3188
  43   2.0000      -0.996452       -27.1148
  44   2.0000      -0.987474       -26.8705
  45   2.0000      -0.954277       -25.9672
  46   2.0000      -0.942585       -25.6490
  47   2.0000      -0.763046       -20.7635
  48   2.0000      -0.724289       -19.7089
  49   2.0000      -0.714218       -19.4349
  50   2.0000      -0.698848       -19.0166
  51   2.0000      -0.682019       -18.5587
  52   2.0000      -0.675019       -18.3682
  53   2.0000      -0.650466       -17.7001
  54   2.0000      -0.638290       -17.3688
  55   2.0000      -0.599679       -16.3181
  56   2.0000      -0.594109       -16.1665
  57   2.0000      -0.580901       -15.8071
  58   2.0000      -0.564618       -15.3640
  59   2.0000      -0.556114       -15.1326
  60   2.0000      -0.510912       -13.9026
  61   2.0000      -0.502896       -13.6845
  62   2.0000      -0.487866       -13.2755
  63   2.0000      -0.474808       -12.9202
  64   2.0000      -0.464031       -12.6269
  65   2.0000      -0.451804       -12.2942
  66   2.0000      -0.440100       -11.9757
  67   2.0000      -0.437537       -11.9060
  68   2.0000      -0.431575       -11.7437
  69   2.0000      -0.417229       -11.3534
  70   2.0000      -0.406639       -11.0652
  71   2.0000      -0.397981       -10.8296
  72   2.0000      -0.394647       -10.7389
  73   2.0000      -0.390104       -10.6153
  74   2.0000      -0.379781       -10.3344
  75   2.0000      -0.371780       -10.1166
  76   2.0000      -0.365988        -9.9590
  77   2.0000      -0.363982        -9.9045
  78   2.0000      -0.360987        -9.8230
  79   2.0000      -0.355167        -9.6646
  80   2.0000      -0.354454        -9.6452
  81   2.0000      -0.348417        -9.4809
  82   2.0000      -0.343491        -9.3469
  83   2.0000      -0.334483        -9.1017
  84   2.0000      -0.331397        -9.0178
  85   2.0000      -0.325984        -8.8705
  86   2.0000      -0.315326        -8.5805
  87   2.0000      -0.302531        -8.2323
  88   2.0000      -0.299476        -8.1492
  89   2.0000      -0.298727        -8.1288
  90   2.0000      -0.290066        -7.8931
  91   2.0000      -0.279360        -7.6018
  92   2.0000      -0.267993        -7.2925
  93   2.0000      -0.265401        -7.2219
  94   2.0000      -0.257598        -7.0096
  95   2.0000      -0.242393        -6.5958
  96   2.0000      -0.217663        -5.9229
  97   2.0000      -0.211188        -5.7467
  98   2.0000      -0.207231        -5.6391
  99   2.0000      -0.202280        -5.5043
 100   2.0000      -0.193384        -5.2623
 101   0.0000      -0.042776        -1.1640
 102   0.0000      -0.030578        -0.8321
 103   0.0000      -0.009588        -0.2609
 104   0.0000       0.003468         0.0944
 105   0.0000       0.011490         0.3127

MULLIKEN ATOMIC CHARGES
-----------------------
   0 C :   -0.278776
   1 C :   -0.010116
   2 O :   -0.360081
   3 P :    0.591063
   4 S :   -0.337292
   5 O :   -0.351475
   6 C :   -0.011794
   7 C :   -0.315641
   8 S :   -0.073256
   9 C :   -0.347549
  10 S :   -0.104172
  11 P :    0.586599
  12 S :   -0.288165
  13 O :   -0.361512
  14 C :   -0.014065
  15 C :   -0.290254
  16 O :   -0.378826
  17 C :   -0.012226
  18 C :   -0.320563
  19 H :    0.121099
  20 H :    0.119223
  21 H :    0.110797
  22 H :    0.102457
  23 H :    0.102937
  24 H :    0.104712
  25 H :    0.111415
  26 H :    0.114272
  27 H :    0.103338
  28 H :    0.136562
  29 H :    0.184863
  30 H :    0.194139
  31 H :    0.104093
  32 H :    0.109587
  33 H :    0.121633
  34 H :    0.123381
  35 H :    0.111459
  36 H :    0.111043
  37 H :    0.112895
  38 H :    0.117852
  39 H :    0.117557
  40 H :    0.142786
Sum of atomic charges:    0.0000000

LOEWDIN ATOMIC CHARGES
----------------------
   0 C :   -0.349851
   1 C :   -0.120622
   2 O :   -0.236467
   3 P :    0.565369
   4 S :   -0.323319
   5 O :   -0.231630
   6 C :   -0.116596
   7 C :   -0.368666
   8 S :    0.084026
   9 C :   -0.484290
  10 S :    0.080383
  11 P :    0.562729
  12 S :   -0.298760
  13 O :   -0.237856
  14 C :   -0.115956
  15 C :   -0.358966
  16 O :   -0.244059
  17 C :   -0.116626
  18 C :   -0.364506
  19 H :    0.129440
  20 H :    0.128283
  21 H :    0.130248
  22 H :    0.108924
  23 H :    0.107259
  24 H :    0.117930
  25 H :    0.100967
  26 H :    0.127388
  27 H :    0.123320
  28 H :    0.114536
  29 H :    0.133239
  30 H :    0.128689
  31 H :    0.105281
  32 H :    0.120577
  33 H :    0.129637
  34 H :    0.126545
  35 H :    0.130579
  36 H :    0.121393
  37 H :    0.111132
  38 H :    0.127440
  39 H :    0.132799
  40 H :    0.120058

  Mayer bond orders larger than 0.100000
B(  0-C ,  1-C ) :   1.1619 B(  0-C , 19-H ) :   0.9509 B(  0-C , 20-H ) :   0.9506
B(  0-C , 21-H ) :   0.9419 B(  1-C ,  2-O ) :   0.9076 B(  1-C , 22-H ) :   0.9268
B(  1-C , 23-H ) :   0.9097 B(  2-O ,  3-P ) :   1.1312 B(  3-P ,  4-S ) :   1.6020
B(  3-P ,  5-O ) :   1.1432 B(  3-P ,  8-S ) :   0.9445 B(  4-S ,  8-S ) :   0.1230
B(  5-O ,  6-C ) :   0.9050 B(  6-C ,  7-C ) :   1.1651 B(  6-C , 24-H ) :   0.9340
B(  6-C , 25-H ) :   0.9028 B(  7-C , 26-H ) :   0.9437 B(  7-C , 27-H ) :   0.9345
B(  7-C , 28-H ) :   0.9196 B(  8-S ,  9-C ) :   1.0172 B(  9-C , 10-S ) :   0.9850
B(  9-C , 29-H ) :   0.8921 B(  9-C , 30-H ) :   0.8709 B( 10-S , 11-P ) :   0.9469
B( 10-S , 12-S ) :   0.1097 B( 11-P , 12-S ) :   1.6775 B( 11-P , 13-O ) :   1.1204
B( 11-P , 16-O ) :   1.0805 B( 13-O , 14-C ) :   0.8883 B( 14-C , 15-C ) :   1.1685
B( 14-C , 31-H ) :   0.9096 B( 14-C , 32-H ) :   0.9352 B( 15-C , 33-H ) :   0.9470
B( 15-C , 34-H ) :   0.9416 B( 15-C , 35-H ) :   0.9394 B( 16-O , 17-C ) :   0.9015
B( 17-C , 18-C ) :   1.1691 B( 17-C , 36-H ) :   0.9334 B( 17-C , 37-H ) :   0.9054
B( 18-C , 38-H ) :   0.9455 B( 18-C , 39-H ) :   0.9378 B( 18-C , 40-H ) :   0.9277

Dispersion correction           -0.064165180
FINAL SINGLE POINT ENERGY     -2929.523503211748

DIPOLE MOMENT
-------------

Method             : SCF
Type of density    : Electron Density
Multiplicity       :   1
Irrep              :   0
Energy             : -2929.6434354506495765 Eh
Relativity type    :
Basis              : AO
                                X                 Y                 Z
Electronic contribution:      5.763457894       2.507285394      -7.581770787
Nuclear contribution   :     -6.563362938      -2.062093545       8.201782243
                        -----------------------------------------
Total Dipole Moment    :     -0.799905044       0.445191850       0.620011456
                        -----------------------------------------
Magnitude (a.u.)       :      1.105648257
Magnitude (Debye)      :      2.810334528

Rotational constants in cm-1:             0.013625             0.004394             0.004105
Rotational constants in MHz :           408.477462           131.731110           123.067046

                             ****ORCA TERMINATED NORMALLY****
TOTAL RUN TIME: 0 days 0 hours 0 minutes 20 seconds 805 msec
