                         Program Version 6.0.0  -   RELEASE  -
|  1> ! pbe def2-sv(p) def2/J RI DEFGRID1 loosescf d4 GCP(DFT/SV(P)) printgap
|  2> %output
|  3>     printlevel normal
|  4> end
|  5> * xyz 0 1
|  6> C 4.1694808905 0.6696857013 -2.3773485047
|  7> C 2.7980892588 0.0518669182 -2.5482872313
|  8> O 2.4336184118 -0.7556692169 -1.4085731843
|  9> P 2.0669559214 -0.1238876185 -0.0057124958
| 10> S 1.2926601775 1.6831920762 -0.0641469987
| 11> O 3.452771559 -0.1593546342 0.7761220039
| 12> C 3.6684250247 0.5788134232 1.9883095973
| 13> C 2.8303379891 0.0444414039 3.1323624405
| 14> S 1.0791091485 -1.7966674015 0.8299360459
| 15> C -0.1542949953 -2.1593063802 -0.4692109418
| 16> S -0.8723792658 -0.7050086423 -1.2634877611
| 17> P -2.0844004702 -0.0077390736 0.3601463283
| 18> S -1.2729230934 0.3398325807 2.1035605892
| 19> O -3.1908556621 -1.1214703779 0.4876729163
| 20> C -4.0779390139 -1.5178136602 -0.5894791576
| 21> C -5.3920705169 -0.7690658469 -0.5075223047
| 22> O -2.8678835576 1.2109303766 -0.2856203206
| 23> C -2.2960069232 2.518186726 -0.4828165874
| 24> C -1.8051005997 2.6803600728 -1.9072243865
| 25> H 4.4479057316 1.1878701296 -3.2895061255
| 26> H 4.1519202406 1.383849405 -1.5550054123
| 27> H 4.9039088466 -0.1003813095 -2.1569022326
| 28> H 2.7668592038 -0.6474944567 -3.3844009153
| 29> H 2.0372796996 0.827691904 -2.6805558174
| 30> H 4.7358601235 0.4640372756 2.1811275911
| 31> H 3.4326851844 1.6320693111 1.8015223014
| 32> H 1.7698409073 0.2055038935 2.9295535145
| 33> H 2.9997232616 -1.0220176654 3.2606826882
| 34> H 3.0902604405 0.5653311708 4.0482129518
| 35> H -0.9343461515 -2.741652069 0.0187796965
| 36> H 0.3268005083 -2.7279228793 -1.261768955
| 37> H -3.5785486035 -1.3386931315 -1.5453894419
| 38> H -4.2236253363 -2.5891491927 -0.4392119086
| 39> H -6.0599265341 -1.1400887049 -1.2787473017
| 40> H -5.8476489179 -0.9226295439 0.4669194854
| 41> H -5.2299866778 0.2952999247 -0.653323655
| 42> H -3.1087387587 3.2119511136 -0.2606338075
| 43> H -1.4826193058 2.6696183182 0.2338432042
| 44> H -2.6068778264 2.4671277406 -2.6081036207
| 45> H -1.45999759 3.6995119327 -2.046754853
| 46> H -0.9749854305 2.0038102351 -2.0988042678
| 47> *
| 48>
| 49>                          ****END OF INPUT****

CARTESIAN COORDINATES (ANGSTROEM)
---------------------------------
  C      4.169481    0.669686   -2.377349
  C      2.798089    0.051867   -2.548287
  O      2.433618   -0.755669   -1.408573
  P      2.066956   -0.123888   -0.005712
  S      1.292660    1.683192   -0.064147
  O      3.452772   -0.159355    0.776122
  C      3.668425    0.578813    1.988310
  C      2.830338    0.044441    3.132362
  S      1.079109   -1.796667    0.829936
  C     -0.154295   -2.159306   -0.469211
  S     -0.872379   -0.705009   -1.263488
  P     -2.084400   -0.007739    0.360146
  S     -1.272923    0.339833    2.103561
  O     -3.190856   -1.121470    0.487673
  C     -4.077939   -1.517814   -0.589479
  C     -5.392071   -0.769066   -0.507522
  O     -2.867884    1.210930   -0.285620
  C     -2.296007    2.518187   -0.482817
  C     -1.805101    2.680360   -1.907224
  H      4.447906    1.187870   -3.289506
  H      4.151920    1.383849   -1.555005
  H      4.903909   -0.100381   -2.156902
  H      2.766859   -0.647494   -3.384401
  H      2.037280    0.827692   -2.680556
  H      4.735860    0.464037    2.181128
  H      3.432685    1.632069    1.801522
  H      1.769841    0.205504    2.929554
  H      2.999723   -1.022018    3.260683
  H      3.090260    0.565331    4.048213
  H     -0.934346   -2.741652    0.018780
  H      0.326801   -2.727923   -1.261769
  H     -3.578549   -1.338693   -1.545389
  H     -4.223625   -2.589149   -0.439212
  H     -6.059927   -1.140089   -1.278747
  H     -5.847649   -0.922630    0.466919
  H     -5.229987    0.295300   -0.653324
  H     -3.108739    3.211951   -0.260634
  H     -1.482619    2.669618    0.233843
  H     -2.606878    2.467128   -2.608104
  H     -1.459998    3.699512   -2.046755
  H     -0.974985    2.003810   -2.098804

 Total Charge           Charge          ....    0
 Multiplicity           Mult            ....    1
 Number of Electrons    NEL             ....  202
 Basis Dimension        Dim             ....  334

ORBITAL ENERGIES
----------------

  NO   OCC          E(Eh)            E(eV)
   0   2.0000     -88.043335     -2395.7810
   1   2.0000     -88.033267     -2395.5070
   2   2.0000     -87.980176     -2394.0623
   3   2.0000     -87.974281     -2393.9019
   4   2.0000     -76.422151     -2079.5525
   5   2.0000     -76.422054     -2079.5498
   6   2.0000     -18.792295      -511.3643
   7   2.0000     -18.790856      -511.3252
   8   2.0000     -18.789213      -511.2805
   9   2.0000     -18.786047      -511.1943
  10   2.0000      -9.958923      -270.9961
  11   2.0000      -9.955217      -270.8952
  12   2.0000      -9.949775      -270.7471
  13   2.0000      -9.948380      -270.7092
  14   2.0000      -9.945303      -270.6254
  15   2.0000      -9.885386      -268.9950
  16   2.0000      -9.881854      -268.8989
  17   2.0000      -9.880940      -268.8740
  18   2.0000      -9.876000      -268.7396
  19   2.0000      -7.687471      -209.1867
  20   2.0000      -7.678521      -208.9432
  21   2.0000      -7.624943      -207.4852
  22   2.0000      -7.619373      -207.3337
  23   2.0000      -6.419359      -174.6796
  24   2.0000      -6.419315      -174.6784
  25   2.0000      -5.715279      -155.5206
  26   2.0000      -5.711954      -155.4302
  27   2.0000      -5.706788      -155.2896
  28   2.0000      -5.704609      -155.2303
  29   2.0000      -5.703137      -155.1902
  30   2.0000      -5.694928      -154.9669
  31   2.0000      -5.653757      -153.8465
  32   2.0000      -5.648537      -153.7045
  33   2.0000      -5.645618      -153.6251
  34   2.0000      -5.645153      -153.6124
  35   2.0000      -5.639882      -153.4690
  36   2.0000      -5.639376      -153.4552
  37   2.0000      -4.642402      -126.3262
  38   2.0000      -4.641974      -126.3145
  39   2.0000      -4.641247      -126.2947
  40   2.0000      -4.641173      -126.2928
  41   2.0000      -4.639693      -126.2525
  42   2.0000      -4.639258      -126.2406
  43   2.0000      -0.986785       -26.8518
  44   2.0000      -0.982649       -26.7392
  45   2.0000      -0.944356       -25.6972
  46   2.0000      -0.943151       -25.6644
  47   2.0000      -0.760740       -20.7008
  48   2.0000      -0.716958       -19.5094
  49   2.0000      -0.706651       -19.2289
  50   2.0000      -0.688851       -18.7446
  51   2.0000      -0.682059       -18.5598
  52   2.0000      -0.667179       -18.1549
  53   2.0000      -0.649091       -17.6627
  54   2.0000      -0.633348       -17.2343
  55   2.0000      -0.595527       -16.2051
  56   2.0000      -0.585894       -15.9430
  57   2.0000      -0.573886       -15.6162
  58   2.0000      -0.568587       -15.4720
  59   2.0000      -0.560057       -15.2399
  60   2.0000      -0.502543       -13.6749
  61   2.0000      -0.488999       -13.3063
  62   2.0000      -0.478685       -13.0257
  63   2.0000      -0.468889       -12.7591
  64   2.0000      -0.456363       -12.4183
  65   2.0000      -0.444736       -12.1019
  66   2.0000      -0.435926       -11.8622
  67   2.0000      -0.432172       -11.7600
  68   2.0000      -0.427140       -11.6231
  69   2.0000      -0.412513       -11.2251
  70   2.0000      -0.403924       -10.9913
  71   2.0000      -0.391716       -10.6591
  72   2.0000      -0.390839       -10.6353
  73   2.0000      -0.385685       -10.4950
  74   2.0000      -0.382212       -10.4005
  75   2.0000      -0.370938       -10.0937
  76   2.0000      -0.364925        -9.9301
  77   2.0000      -0.358842        -9.7646
  78   2.0000      -0.351076        -9.5533
  79   2.0000      -0.350740        -9.5441
  80   2.0000      -0.347579        -9.4581
  81   2.0000      -0.343915        -9.3584
  82   2.0000      -0.341314        -9.2876
  83   2.0000      -0.334676        -9.1070
  84   2.0000      -0.327113        -8.9012
  85   2.0000      -0.318790        -8.6747
  86   2.0000      -0.309231        -8.4146
  87   2.0000      -0.293502        -7.9866
  88   2.0000      -0.290389        -7.9019
  89   2.0000      -0.287818        -7.8319
  90   2.0000      -0.280036        -7.6202
  91   2.0000      -0.273322        -7.4375
  92   2.0000      -0.267997        -7.2926
  93   2.0000      -0.258093        -7.0231
  94   2.0000      -0.256617        -6.9829
  95   2.0000      -0.245894        -6.6911
  96   2.0000      -0.221290        -6.0216
  97   2.0000      -0.207696        -5.6517
  98   2.0000      -0.188654        -5.1335
  99   2.0000      -0.180232        -4.9044
 100   2.0000      -0.179030        -4.8717
 101   0.0000      -0.049111        -1.3364
 102   0.0000      -0.026797        -0.7292
 103   0.0000      -0.010954        -0.2981
 104   0.0000       0.002432         0.0662
 105   0.0000       0.020908         0.5689

MULLIKEN ATOMIC CHARGES
-----------------------
   0 C :   -0.302569
   1 C :   -0.007882
   2 O :   -0.372648
   3 P :    0.620450
   4 S :   -0.328520
   5 O :   -0.370125
   6 C :   -0.002503
   7 C :   -0.340301
   8 S :   -0.085480
   9 C :   -0.312255
  10 S :   -0.126878
  11 P :    0.604961
  12 S :   -0.281320
  13 O :   -0.361536
  14 C :   -0.014459
  15 C :   -0.288311
  16 O :   -0.381987
  17 C :   -0.010090
  18 C :   -0.313078
  19 H :    0.109818
  20 H :    0.122329
  21 H :    0.117004
  22 H :    0.100299
  23 H :    0.114134
  24 H :    0.102262
  25 H :    0.109403
  26 H :    0.153469
  27 H :    0.119141
  28 H :    0.112905
  29 H :    0.180235
  30 H :    0.186470
  31 H :    0.099949
  32 H :    0.105013
  33 H :    0.107722
  34 H :    0.120375
  35 H :    0.123645
  36 H :    0.104703
  37 H :    0.124583
  38 H :    0.107273
  39 H :    0.111616
  40 H :    0.142185
Sum of atomic charges:    0.0000000

LOEWDIN ATOMIC CHARGES
----------------------
   0 C :   -0.363772
   1 C :   -0.119334
   2 O :   -0.243887
   3 P :    0.571554
   4 S :   -0.312937
   5 O :   -0.244133
   6 C :   -0.122198
   7 C :   -0.373571
   8 S :    0.088821
   9 C :   -0.470680
  10 S :    0.075780
  11 P :    0.563416
  12 S :   -0.294879
  13 O :   -0.239152
  14 C :   -0.118427
  15 C :   -0.359120
  16 O :   -0.244174
  17 C :   -0.116217
  18 C :   -0.365423
  19 H :    0.129313
  20 H :    0.123377
  21 H :    0.126765
  22 H :    0.116303
  23 H :    0.109279
  24 H :    0.117201
  25 H :    0.108527
  26 H :    0.126693
  27 H :    0.123918
  28 H :    0.131662
  29 H :    0.132937
  30 H :    0.135305
  31 H :    0.102050
  32 H :    0.118253
  33 H :    0.128618
  34 H :    0.129037
  35 H :    0.126711
  36 H :    0.117978
  37 H :    0.112448
  38 H :    0.121542
  39 H :    0.131910
  40 H :    0.118507

  Mayer bond orders larger than 0.100000
B(  0-C ,  1-C ) :   1.1660 B(  0-C , 19-H ) :   0.9394 B(  0-C , 20-H ) :   0.9361
B(  0-C , 21-H ) :   0.9462 B(  1-C ,  2-O ) :   0.9038 B(  1-C , 22-H ) :   0.9344
B(  1-C , 23-H ) :   0.9134 B(  2-O ,  3-P ) :   1.1120 B(  3-P ,  4-S ) :   1.5816
B(  3-P ,  5-O ) :   1.1062 B(  3-P ,  8-S ) :   0.9784 B(  4-S ,  8-S ) :   0.1169
B(  5-O ,  6-C ) :   0.9092 B(  6-C ,  7-C ) :   1.1645 B(  6-C , 24-H ) :   0.9326
B(  6-C , 25-H ) :   0.9128 B(  7-C , 26-H ) :   0.9264 B(  7-C , 27-H ) :   0.9433
B(  7-C , 28-H ) :   0.9377 B(  8-S ,  9-C ) :   0.9849 B(  9-C , 10-S ) :   1.0072
B(  9-C , 29-H ) :   0.9051 B(  9-C , 30-H ) :   0.9086 B( 10-S , 11-P ) :   0.9192
B( 10-S , 12-S ) :   0.1163 B( 11-P , 12-S ) :   1.7106 B( 11-P , 13-O ) :   1.1176
B( 11-P , 16-O ) :   1.0891 B( 13-O , 14-C ) :   0.8950 B( 14-C , 15-C ) :   1.1677
B( 14-C , 31-H ) :   0.9083 B( 14-C , 32-H ) :   0.9357 B( 15-C , 33-H ) :   0.9397
B( 15-C , 34-H ) :   0.9471 B( 15-C , 35-H ) :   0.9413 B( 16-O , 17-C ) :   0.8956
B( 17-C , 18-C ) :   1.1719 B( 17-C , 36-H ) :   0.9344 B( 17-C , 37-H ) :   0.9034
B( 18-C , 38-H ) :   0.9469 B( 18-C , 39-H ) :   0.9401 B( 18-C , 40-H ) :   0.9276

Dispersion correction           -0.068556299
FINAL SINGLE POINT ENERGY     -2929.512148383685

DIPOLE MOMENT
-------------

Method             : SCF
Type of density    : Electron Density
Multiplicity       :   1
Irrep              :   0
Energy             : -2929.6280247035283537 Eh
Relativity type    :
Basis              : AO
                                X                 Y                 Z
Electronic contribution:      0.637515905      -7.335036904       8.678410860
Nuclear contribution   :     -0.785579410       7.046364143     -10.050042673
                        -----------------------------------------
Total Dipole Moment    :     -0.148063505      -0.288672761      -1.371631813
                        -----------------------------------------
Magnitude (a.u.)       :      1.409478129
Magnitude (Debye)      :      3.582608689

Rotational constants in cm-1:             0.012584             0.005458             0.005146
Rotational constants in MHz :           377.269536           163.625718           154.278133

                             ****ORCA TERMINATED NORMALLY****
TOTAL RUN TIME: 0 days 0 hours 0 minutes 22 seconds 108 msec
