                         Program Version 6.0.1  -  RELEASE   -
|  1> ! pbe def2-sv(p) def2/J RI DEFGRID1 loosescf d4 GCP(DFT/SV(P)) printgap
|  2> %output
|  3>     printlevel normal
|  4> end
|  5> * xyz 0 1
|  6> C 3.6201472581 -4.011687661 -2.3546421977
|  7> C 3.342802059 -3.9194789297 -0.8626035224
|  8> O 3.3341034389 -2.5473691995 -0.421392656
|  9> C 2.212480932 -1.8626619378 -0.5225908574
| 10> O 1.1666575454 -2.3104517166 -0.940085685
| 11> C 2.3929002051 -0.4405971381 -0.0303636451
| 12> C 1.0753224564 0.3106597692 -0.0906945987
| 13> H 0.5937407337 0.1239117648 -1.0634349637
| 14> C 1.218771287 1.8155453557 0.023578304
| 15> O 2.2265792353 2.4127649024 -0.2772637964
| 16> O 0.1031878628 2.3752560609 0.441191981
| 17> C 0.0490243711 3.815537631 0.5229565267
| 18> C -0.9835853631 4.2035138437 1.5622329668
| 19> S -0.0852294813 -0.3144528148 1.166922303
| 20> P -1.8868324145 0.2011918445 0.1625690738
| 21> S -1.7708041956 0.7631667816 -1.7090801628
| 22> O -2.7909982443 -1.1023895138 0.3991088966
| 23> C -2.4962981071 -2.3198068557 -0.2928077945
| 24> O -2.6412638384 1.2494895388 1.0676208849
| 25> C -2.8957742874 0.9993564362 2.4651074803
| 26> H 4.554596682 -3.5114615373 -2.593610742
| 27> H 3.6885142174 -5.0553323169 -2.6431604682
| 28> H 2.8143388208 -3.5430945261 -2.9153673351
| 29> H 4.1378069248 -4.3855555286 -0.2807347042
| 30> H 2.3761259399 -4.3697940378 -0.6203222422
| 31> H 3.1268378822 0.068161531 -0.6596054184
| 32> H 2.787305888 -0.4681613931 0.9863941849
| 33> H 1.0500200623 4.1771084571 0.7763765194
| 34> H -0.2232411563 4.1866521652 -0.4694509198
| 35> H -1.0400355191 5.2854325858 1.6184835726
| 36> H -1.9542167024 3.8071156949 1.2781209323
| 37> H -0.7069784793 3.8066172163 2.5347154096
| 38> H -2.6438950425 -2.1836464243 -1.3647728957
| 39> H -3.1915523476 -3.0565135902 0.1002558396
| 40> H -1.4649863511 -2.6256745238 -0.10895808
| 41> H -1.9687105124 0.7219315351 2.9671772427
| 42> H -3.6289585903 0.2021680138 2.568879061
| 43> H -3.283462542 1.9354709562 2.8583563837
| 44> *
| 45>
| 46>                          ****END OF INPUT****

CARTESIAN COORDINATES (ANGSTROEM)
---------------------------------
  C      3.620147   -4.011688   -2.354642
  C      3.342802   -3.919479   -0.862604
  O      3.334103   -2.547369   -0.421393
  C      2.212481   -1.862662   -0.522591
  O      1.166658   -2.310452   -0.940086
  C      2.392900   -0.440597   -0.030364
  C      1.075322    0.310660   -0.090695
  H      0.593741    0.123912   -1.063435
  C      1.218771    1.815545    0.023578
  O      2.226579    2.412765   -0.277264
  O      0.103188    2.375256    0.441192
  C      0.049024    3.815538    0.522957
  C     -0.983585    4.203514    1.562233
  S     -0.085229   -0.314453    1.166922
  P     -1.886832    0.201192    0.162569
  S     -1.770804    0.763167   -1.709080
  O     -2.790998   -1.102390    0.399109
  C     -2.496298   -2.319807   -0.292808
  O     -2.641264    1.249490    1.067621
  C     -2.895774    0.999356    2.465107
  H      4.554597   -3.511462   -2.593611
  H      3.688514   -5.055332   -2.643160
  H      2.814339   -3.543095   -2.915367
  H      4.137807   -4.385556   -0.280735
  H      2.376126   -4.369794   -0.620322
  H      3.126838    0.068162   -0.659605
  H      2.787306   -0.468161    0.986394
  H      1.050020    4.177108    0.776377
  H     -0.223241    4.186652   -0.469451
  H     -1.040036    5.285433    1.618484
  H     -1.954217    3.807116    1.278121
  H     -0.706978    3.806617    2.534715
  H     -2.643895   -2.183646   -1.364773
  H     -3.191552   -3.056514    0.100256
  H     -1.464986   -2.625675   -0.108958
  H     -1.968711    0.721932    2.967177
  H     -3.628959    0.202168    2.568879
  H     -3.283463    1.935471    2.858356

 Total Charge           Charge          ....    0
 Multiplicity           Mult            ....    1
 Number of Electrons    NEL             ....  174
 Basis Dimension        Dim             ....  316

ORBITAL ENERGIES
----------------

  NO   OCC          E(Eh)            E(eV)
   0   2.0000     -88.036423     -2395.5928
   1   2.0000     -87.981151     -2394.0888
   2   2.0000     -76.422044     -2079.5495
   3   2.0000     -18.806608      -511.7538
   4   2.0000     -18.805454      -511.7224
   5   2.0000     -18.794750      -511.4312
   6   2.0000     -18.786895      -511.2174
   7   2.0000     -18.745386      -510.0879
   8   2.0000     -18.737729      -509.8795
   9   2.0000     -10.015658      -272.5399
  10   2.0000     -10.012366      -272.4503
  11   2.0000      -9.952652      -270.8254
  12   2.0000      -9.951465      -270.7931
  13   2.0000      -9.945919      -270.6422
  14   2.0000      -9.939140      -270.4578
  15   2.0000      -9.935177      -270.3499
  16   2.0000      -9.913500      -269.7600
  17   2.0000      -9.890445      -269.1327
  18   2.0000      -9.885917      -269.0095
  19   2.0000      -7.681127      -209.0141
  20   2.0000      -7.626358      -207.5238
  21   2.0000      -6.419514      -174.6839
  22   2.0000      -5.708861      -155.3460
  23   2.0000      -5.705973      -155.2674
  24   2.0000      -5.697966      -155.0495
  25   2.0000      -5.655518      -153.8945
  26   2.0000      -5.646987      -153.6623
  27   2.0000      -5.646228      -153.6417
  28   2.0000      -4.642218      -126.3212
  29   2.0000      -4.641314      -126.2966
  30   2.0000      -4.639853      -126.2568
  31   2.0000      -1.015486       -27.6328
  32   2.0000      -1.012768       -27.5588
  33   2.0000      -0.985595       -26.8194
  34   2.0000      -0.940337       -25.5879
  35   2.0000      -0.921810       -25.0837
  36   2.0000      -0.917837       -24.9756
  37   2.0000      -0.763395       -20.7730
  38   2.0000      -0.717017       -19.5110
  39   2.0000      -0.702476       -19.1153
  40   2.0000      -0.694185       -18.8897
  41   2.0000      -0.659336       -17.9415
  42   2.0000      -0.632557       -17.2128
  43   2.0000      -0.620310       -16.8795
  44   2.0000      -0.614374       -16.7180
  45   2.0000      -0.598130       -16.2759
  46   2.0000      -0.558035       -15.1849
  47   2.0000      -0.513388       -13.9700
  48   2.0000      -0.508196       -13.8287
  49   2.0000      -0.498647       -13.5689
  50   2.0000      -0.475923       -12.9505
  51   2.0000      -0.471950       -12.8424
  52   2.0000      -0.463725       -12.6186
  53   2.0000      -0.446556       -12.1514
  54   2.0000      -0.439820       -11.9681
  55   2.0000      -0.431767       -11.7490
  56   2.0000      -0.429542       -11.6884
  57   2.0000      -0.420245       -11.4355
  58   2.0000      -0.410267       -11.1639
  59   2.0000      -0.409649       -11.1471
  60   2.0000      -0.401160       -10.9161
  61   2.0000      -0.399986       -10.8842
  62   2.0000      -0.391700       -10.6587
  63   2.0000      -0.385046       -10.4776
  64   2.0000      -0.375977       -10.2309
  65   2.0000      -0.362413        -9.8618
  66   2.0000      -0.359239        -9.7754
  67   2.0000      -0.351730        -9.5710
  68   2.0000      -0.346744        -9.4354
  69   2.0000      -0.343537        -9.3481
  70   2.0000      -0.334631        -9.1058
  71   2.0000      -0.331096        -9.0096
  72   2.0000      -0.322020        -8.7626
  73   2.0000      -0.312145        -8.4939
  74   2.0000      -0.308741        -8.4013
  75   2.0000      -0.299655        -8.1540
  76   2.0000      -0.293446        -7.9851
  77   2.0000      -0.292178        -7.9506
  78   2.0000      -0.270427        -7.3587
  79   2.0000      -0.266671        -7.2565
  80   2.0000      -0.262287        -7.1372
  81   2.0000      -0.255047        -6.9402
  82   2.0000      -0.245919        -6.6918
  83   2.0000      -0.227249        -6.1837
  84   2.0000      -0.205431        -5.5900
  85   2.0000      -0.202417        -5.5081
  86   2.0000      -0.194572        -5.2946
  87   0.0000      -0.040968        -1.1148
  88   0.0000      -0.029118        -0.7923
  89   0.0000      -0.020696        -0.5632
  90   0.0000       0.012604         0.3430
  91   0.0000       0.019690         0.5358

MULLIKEN ATOMIC CHARGES
-----------------------
   0 C :   -0.305947
   1 C :   -0.011403
   2 O :   -0.229898
   3 C :    0.140594
   4 O :   -0.198986
   5 C :   -0.115232
   6 C :   -0.354415
   7 H :    0.170188
   8 C :    0.248525
   9 O :   -0.197026
  10 O :   -0.225563
  11 C :   -0.019848
  12 C :   -0.296563
  13 S :   -0.111180
  14 P :    0.630143
  15 S :   -0.315858
  16 O :   -0.392418
  17 C :   -0.111867
  18 O :   -0.362597
  19 C :   -0.111016
  20 H :    0.116737
  21 H :    0.114516
  22 H :    0.129204
  23 H :    0.104722
  24 H :    0.108408
  25 H :    0.142026
  26 H :    0.123687
  27 H :    0.111758
  28 H :    0.112028
  29 H :    0.109926
  30 H :    0.136516
  31 H :    0.109236
  32 H :    0.120290
  33 H :    0.117727
  34 H :    0.133056
  35 H :    0.121279
  36 H :    0.128910
  37 H :    0.130341
Sum of atomic charges:    0.0000000

LOEWDIN ATOMIC CHARGES
----------------------
   0 C :   -0.356018
   1 C :   -0.109654
   2 O :   -0.059817
   3 C :    0.036242
   4 O :   -0.163907
   5 C :   -0.250730
   6 C :   -0.279174
   7 H :    0.143120
   8 C :    0.021402
   9 O :   -0.158972
  10 O :   -0.057519
  11 C :   -0.103392
  12 C :   -0.355144
  13 S :    0.093724
  14 P :    0.583058
  15 S :   -0.303672
  16 O :   -0.263464
  17 C :   -0.219722
  18 O :   -0.237016
  19 C :   -0.211061
  20 H :    0.126141
  21 H :    0.131491
  22 H :    0.131509
  23 H :    0.118852
  24 H :    0.119733
  25 H :    0.158271
  26 H :    0.143671
  27 H :    0.118532
  28 H :    0.121518
  29 H :    0.129981
  30 H :    0.130803
  31 H :    0.123302
  32 H :    0.114695
  33 H :    0.118670
  34 H :    0.113646
  35 H :    0.108634
  36 H :    0.118457
  37 H :    0.123811

  Mayer bond orders larger than 0.100000
B(  0-C ,  1-C ) :   1.1743 B(  0-C , 20-H ) :   0.9486 B(  0-C , 21-H ) :   0.9439
B(  0-C , 22-H ) :   0.9460 B(  1-C ,  2-O ) :   0.9136 B(  1-C , 23-H ) :   0.9371
B(  1-C , 24-H ) :   0.9149 B(  2-O ,  3-C ) :   1.2445 B(  3-C ,  4-O ) :   2.0083
B(  3-C ,  5-C ) :   1.0018 B(  5-C ,  6-C ) :   1.0887 B(  5-C , 25-H ) :   0.8714
B(  5-C , 26-H ) :   0.8957 B(  6-C ,  7-H ) :   0.8144 B(  6-C ,  8-C ) :   0.8873
B(  6-C , 13-S ) :   1.0099 B(  7-H , 15-S ) :   0.1012 B(  8-C ,  9-O ) :   2.0733
B(  8-C , 10-O ) :   1.2538 B(  9-O , 10-O ) :   0.1000 B( 10-O , 11-C ) :   0.8964
B( 11-C , 12-C ) :   1.1641 B( 11-C , 27-H ) :   0.9201 B( 11-C , 28-H ) :   0.9325
B( 12-C , 29-H ) :   0.9414 B( 12-C , 30-H ) :   0.9371 B( 12-C , 31-H ) :   0.9513
B( 13-S , 14-P ) :   0.9516 B( 13-S , 15-S ) :   0.1168 B( 14-P , 15-S ) :   1.6337
B( 14-P , 16-O ) :   1.0714 B( 14-P , 18-O ) :   1.1227 B( 16-O , 17-C ) :   0.9275
B( 17-C , 32-H ) :   0.9445 B( 17-C , 33-H ) :   0.9575 B( 17-C , 34-H ) :   0.9324
B( 18-O , 19-C ) :   0.9172 B( 19-C , 35-H ) :   0.9356 B( 19-C , 36-H ) :   0.9487
B( 19-C , 37-H ) :   0.9568

Dispersion correction           -0.051217005
FINAL SINGLE POINT ENERGY     -1979.023674448951

DIPOLE MOMENT
-------------

Method             : SCF
Type of density    : Electron Density
Multiplicity       :   1
Irrep              :   0
Energy             : -1979.1547861528838439 Eh
Relativity type    :
Basis              : AO
                                X                 Y                 Z
Electronic contribution:     -6.255405871       3.983710825      -1.452840609
Nuclear contribution   :      6.473004127      -4.774262740       2.660175910
                        -----------------------------------------
Total Dipole Moment    :      0.217598256      -0.790551915       1.207335301
                        -----------------------------------------
Magnitude (a.u.)       :      1.459445052
Magnitude (Debye)      :      3.709614514

Rotational constants in cm-1:             0.013805             0.006571             0.005230
Rotational constants in MHz :           413.854753           196.982358           156.791915

                             ****ORCA TERMINATED NORMALLY****
TOTAL RUN TIME: 0 days 0 hours 0 minutes 32 seconds 882 msec
