                         Program Version 6.0.0  -   RELEASE  -
|  1> ! pbe def2-sv(p) def2/J RI DEFGRID1 loosescf d4 GCP(DFT/SV(P)) printgap
|  2> %output
|  3>     printlevel normal
|  4> end
|  5> * xyz 0 1
|  6> C 1.5372344144 -0.8515854889 -2.792965043
|  7> C 2.166133295 0.4156390563 -2.2478579781
|  8> O 2.9441837307 0.1508244605 -1.0723780898
|  9> P 2.3530242954 0.1178614266 0.3959207667
| 10> S 1.1006080255 1.5748775589 0.8184653968
| 11> O 3.7660959059 0.1495276625 1.1001728524
| 12> C 4.0394899466 -0.3300461143 2.4297841649
| 13> C 3.1564200157 0.3155314399 3.4783536928
| 14> S 1.6151997166 -1.8462620515 0.7708894475
| 15> C -0.1006985223 -1.4781160571 1.2226020969
| 16> S -1.3004325687 -1.7878252224 -0.1190247225
| 17> P -2.1146670604 0.1191048242 -0.5273129885
| 18> S -1.3269308997 1.3057747705 -1.8845112994
| 19> O -2.2198765823 0.6749360861 0.9490656196
| 20> C -2.5781378445 2.0488242765 1.2159765606
| 21> C -2.1122222796 2.3884333734 2.6157544115
| 22> O -3.6408551878 -0.2105559368 -0.8523884267
| 23> C -4.0938912799 -0.4744820745 -2.1883128025
| 24> C -3.5553302338 -1.7917833788 -2.7077241493
| 25> H 2.2973178998 -1.6127065847 -2.9452378716
| 26> H 0.7873455718 -1.2361996583 -2.1032760999
| 27> H 1.0506242446 -0.6246802735 -3.7363176774
| 28> H 1.3998266941 1.165644974 -2.0213288764
| 29> H 2.8806149619 0.8374759617 -2.9566350173
| 30> H 3.9196591 -1.4169176926 2.4350025915
| 31> H 5.0894589336 -0.0737962345 2.5812340578
| 32> H 3.4688289486 -0.0119615502 4.4646997096
| 33> H 3.2286653566 1.3990863707 3.4185010649
| 34> H 2.1167425437 0.0308097643 3.3216763934
| 35> H -0.1742832198 -0.4316632138 1.5253458901
| 36> H -0.3623469144 -2.1535233892 2.0316632391
| 37> H -2.0930772603 2.6874249378 0.4695543841
| 38> H -3.6626691938 2.1358974451 1.1164443827
| 39> H -1.0277526346 2.3286526923 2.6670507654
| 40> H -2.4235024762 3.3992097994 2.8574130803
| 41> H -2.5446160135 1.6941053849 3.3300875794
| 42> H -5.1812049639 -0.4838531749 -2.1038824856
| 43> H -3.77553855 0.3528909014 -2.8316003777
| 44> H -3.970317183 -1.9922988792 -3.6900768783
| 45> H -2.4690932476 -1.7371360583 -2.7855965561
| 46> H -3.8147465447 -2.6010551669 -2.0302655723
| 47> *
| 48>
| 49>                          ****END OF INPUT****

CARTESIAN COORDINATES (ANGSTROEM)
---------------------------------
  C      1.537234   -0.851585   -2.792965
  C      2.166133    0.415639   -2.247858
  O      2.944184    0.150824   -1.072378
  P      2.353024    0.117861    0.395921
  S      1.100608    1.574878    0.818465
  O      3.766096    0.149528    1.100173
  C      4.039490   -0.330046    2.429784
  C      3.156420    0.315531    3.478354
  S      1.615200   -1.846262    0.770889
  C     -0.100699   -1.478116    1.222602
  S     -1.300433   -1.787825   -0.119025
  P     -2.114667    0.119105   -0.527313
  S     -1.326931    1.305775   -1.884511
  O     -2.219877    0.674936    0.949066
  C     -2.578138    2.048824    1.215977
  C     -2.112222    2.388433    2.615754
  O     -3.640855   -0.210556   -0.852388
  C     -4.093891   -0.474482   -2.188313
  C     -3.555330   -1.791783   -2.707724
  H      2.297318   -1.612707   -2.945238
  H      0.787346   -1.236200   -2.103276
  H      1.050624   -0.624680   -3.736318
  H      1.399827    1.165645   -2.021329
  H      2.880615    0.837476   -2.956635
  H      3.919659   -1.416918    2.435003
  H      5.089459   -0.073796    2.581234
  H      3.468829   -0.011962    4.464700
  H      3.228665    1.399086    3.418501
  H      2.116743    0.030810    3.321676
  H     -0.174283   -0.431663    1.525346
  H     -0.362347   -2.153523    2.031663
  H     -2.093077    2.687425    0.469554
  H     -3.662669    2.135897    1.116444
  H     -1.027753    2.328653    2.667051
  H     -2.423502    3.399210    2.857413
  H     -2.544616    1.694105    3.330088
  H     -5.181205   -0.483853   -2.103882
  H     -3.775539    0.352891   -2.831600
  H     -3.970317   -1.992299   -3.690077
  H     -2.469093   -1.737136   -2.785597
  H     -3.814747   -2.601055   -2.030266

 Total Charge           Charge          ....    0
 Multiplicity           Mult            ....    1
 Number of Electrons    NEL             ....  202
 Basis Dimension        Dim             ....  334

ORBITAL ENERGIES
----------------

  NO   OCC          E(Eh)            E(eV)
   0   2.0000     -88.048850     -2395.9310
   1   2.0000     -88.044608     -2395.8156
   2   2.0000     -87.987963     -2394.2742
   3   2.0000     -87.982882     -2394.1359
   4   2.0000     -76.426805     -2079.6791
   5   2.0000     -76.425592     -2079.6461
   6   2.0000     -18.792436      -511.3682
   7   2.0000     -18.789925      -511.2999
   8   2.0000     -18.789381      -511.2850
   9   2.0000     -18.783073      -511.1134
  10   2.0000      -9.959587      -271.0141
  11   2.0000      -9.957094      -270.9463
  12   2.0000      -9.949811      -270.7481
  13   2.0000      -9.949404      -270.7371
  14   2.0000      -9.936447      -270.3845
  15   2.0000      -9.886039      -269.0128
  16   2.0000      -9.885879      -269.0085
  17   2.0000      -9.882181      -268.9078
  18   2.0000      -9.868670      -268.5402
  19   2.0000      -7.693632      -209.3544
  20   2.0000      -7.689523      -209.2426
  21   2.0000      -7.632645      -207.6948
  22   2.0000      -7.627652      -207.5589
  23   2.0000      -6.423911      -174.8035
  24   2.0000      -6.423307      -174.7871
  25   2.0000      -5.721428      -155.6880
  26   2.0000      -5.717912      -155.5923
  27   2.0000      -5.717742      -155.5877
  28   2.0000      -5.713803      -155.4805
  29   2.0000      -5.710968      -155.4033
  30   2.0000      -5.706350      -155.2777
  31   2.0000      -5.661384      -154.0541
  32   2.0000      -5.656486      -153.9208
  33   2.0000      -5.653282      -153.8336
  34   2.0000      -5.652966      -153.8250
  35   2.0000      -5.648418      -153.7013
  36   2.0000      -5.647754      -153.6832
  37   2.0000      -4.646237      -126.4305
  38   2.0000      -4.645917      -126.4218
  39   2.0000      -4.645910      -126.4216
  40   2.0000      -4.645137      -126.4006
  41   2.0000      -4.644394      -126.3804
  42   2.0000      -4.643645      -126.3600
  43   2.0000      -0.986492       -26.8438
  44   2.0000      -0.986368       -26.8404
  45   2.0000      -0.945183       -25.7197
  46   2.0000      -0.940256       -25.5857
  47   2.0000      -0.762819       -20.7574
  48   2.0000      -0.721328       -19.6283
  49   2.0000      -0.709979       -19.3195
  50   2.0000      -0.686921       -18.6921
  51   2.0000      -0.681033       -18.5319
  52   2.0000      -0.672515       -18.3001
  53   2.0000      -0.652876       -17.7657
  54   2.0000      -0.635256       -17.2862
  55   2.0000      -0.599288       -16.3075
  56   2.0000      -0.592334       -16.1182
  57   2.0000      -0.570527       -15.5248
  58   2.0000      -0.568391       -15.4667
  59   2.0000      -0.557791       -15.1783
  60   2.0000      -0.503004       -13.6874
  61   2.0000      -0.492773       -13.4090
  62   2.0000      -0.472517       -12.8579
  63   2.0000      -0.464448       -12.6383
  64   2.0000      -0.456632       -12.4256
  65   2.0000      -0.448635       -12.2080
  66   2.0000      -0.436716       -11.8836
  67   2.0000      -0.430137       -11.7046
  68   2.0000      -0.426463       -11.6046
  69   2.0000      -0.419243       -11.4082
  70   2.0000      -0.412053       -11.2125
  71   2.0000      -0.407817       -11.0973
  72   2.0000      -0.394131       -10.7248
  73   2.0000      -0.387625       -10.5478
  74   2.0000      -0.378001       -10.2859
  75   2.0000      -0.372042       -10.1238
  76   2.0000      -0.365709        -9.9515
  77   2.0000      -0.354563        -9.6481
  78   2.0000      -0.351685        -9.5698
  79   2.0000      -0.349041        -9.4979
  80   2.0000      -0.344873        -9.3845
  81   2.0000      -0.339765        -9.2455
  82   2.0000      -0.337544        -9.1850
  83   2.0000      -0.332321        -9.0429
  84   2.0000      -0.327725        -8.9179
  85   2.0000      -0.315315        -8.5802
  86   2.0000      -0.308920        -8.4061
  87   2.0000      -0.297687        -8.1005
  88   2.0000      -0.296767        -8.0754
  89   2.0000      -0.289079        -7.8662
  90   2.0000      -0.281087        -7.6488
  91   2.0000      -0.273402        -7.4396
  92   2.0000      -0.267234        -7.2718
  93   2.0000      -0.262862        -7.1528
  94   2.0000      -0.257930        -7.0186
  95   2.0000      -0.236390        -6.4325
  96   2.0000      -0.224183        -6.1003
  97   2.0000      -0.216724        -5.8973
  98   2.0000      -0.206625        -5.6226
  99   2.0000      -0.197684        -5.3793
 100   2.0000      -0.185070        -5.0360
 101   0.0000      -0.043614        -1.1868
 102   0.0000      -0.034639        -0.9426
 103   0.0000      -0.032353        -0.8804
 104   0.0000       0.002335         0.0635
 105   0.0000       0.010786         0.2935

MULLIKEN ATOMIC CHARGES
-----------------------
   0 C :   -0.311201
   1 C :   -0.020185
   2 O :   -0.351021
   3 P :    0.600797
   4 S :   -0.318293
   5 O :   -0.356019
   6 C :   -0.003479
   7 C :   -0.310925
   8 S :   -0.112217
   9 C :   -0.347879
  10 S :   -0.101188
  11 P :    0.624918
  12 S :   -0.322098
  13 O :   -0.374600
  14 C :   -0.006871
  15 C :   -0.292659
  16 O :   -0.375347
  17 C :   -0.004347
  18 C :   -0.327575
  19 H :    0.105484
  20 H :    0.129379
  21 H :    0.108096
  22 H :    0.133561
  23 H :    0.099657
  24 H :    0.110551
  25 H :    0.110967
  26 H :    0.111271
  27 H :    0.127857
  28 H :    0.117250
  29 H :    0.215586
  30 H :    0.184405
  31 H :    0.113986
  32 H :    0.103236
  33 H :    0.134134
  34 H :    0.109972
  35 H :    0.111473
  36 H :    0.104419
  37 H :    0.110819
  38 H :    0.116292
  39 H :    0.129689
  40 H :    0.122107
Sum of atomic charges:    0.0000000

LOEWDIN ATOMIC CHARGES
----------------------
   0 C :   -0.368004
   1 C :   -0.123989
   2 O :   -0.229751
   3 P :    0.567898
   4 S :   -0.292149
   5 O :   -0.232020
   6 C :   -0.115833
   7 C :   -0.368403
   8 S :    0.075000
   9 C :   -0.479358
  10 S :    0.086122
  11 P :    0.571722
  12 S :   -0.303481
  13 O :   -0.240507
  14 C :   -0.115978
  15 C :   -0.355416
  16 O :   -0.246473
  17 C :   -0.123974
  18 C :   -0.370412
  19 H :    0.120830
  20 H :    0.110421
  21 H :    0.129144
  22 H :    0.105951
  23 H :    0.116334
  24 H :    0.106765
  25 H :    0.122465
  26 H :    0.129710
  27 H :    0.130767
  28 H :    0.116956
  29 H :    0.128133
  30 H :    0.137782
  31 H :    0.111227
  32 H :    0.112811
  33 H :    0.124767
  34 H :    0.130483
  35 H :    0.124639
  36 H :    0.118544
  37 H :    0.108219
  38 H :    0.132813
  39 H :    0.120487
  40 H :    0.125756

  Mayer bond orders larger than 0.100000
B(  0-C ,  1-C ) :   1.1695 B(  0-C , 19-H ) :   0.9449 B(  0-C , 20-H ) :   0.9271
B(  0-C , 21-H ) :   0.9391 B(  1-C ,  2-O ) :   0.9048 B(  1-C , 22-H ) :   0.8989
B(  1-C , 23-H ) :   0.9332 B(  2-O ,  3-P ) :   1.1455 B(  3-P ,  4-S ) :   1.6143
B(  3-P ,  5-O ) :   1.1304 B(  3-P ,  8-S ) :   0.9227 B(  4-S ,  8-S ) :   0.1225
B(  5-O ,  6-C ) :   0.9191 B(  6-C ,  7-C ) :   1.1628 B(  6-C , 24-H ) :   0.9232
B(  6-C , 25-H ) :   0.9335 B(  7-C , 26-H ) :   0.9358 B(  7-C , 27-H ) :   0.9431
B(  7-C , 28-H ) :   0.9364 B(  8-S ,  9-C ) :   1.0095 B(  9-C , 10-S ) :   0.9951
B(  9-C , 29-H ) :   0.8433 B(  9-C , 30-H ) :   0.9087 B( 10-S , 11-P ) :   0.9628
B( 10-S , 12-S ) :   0.1054 B( 11-P , 12-S ) :   1.6228 B( 11-P , 13-O ) :   1.1216
B( 11-P , 16-O ) :   1.0921 B( 13-O , 14-C ) :   0.8892 B( 14-C , 15-C ) :   1.1639
B( 14-C , 31-H ) :   0.9092 B( 14-C , 32-H ) :   0.9322 B( 15-C , 33-H ) :   0.9407
B( 15-C , 34-H ) :   0.9406 B( 15-C , 35-H ) :   0.9494 B( 16-O , 17-C ) :   0.9155
B( 17-C , 18-C ) :   1.1621 B( 17-C , 36-H ) :   0.9316 B( 17-C , 37-H ) :   0.9100
B( 18-C , 38-H ) :   0.9385 B( 18-C , 39-H ) :   0.9321 B( 18-C , 40-H ) :   0.9439

Dispersion correction           -0.066807959
FINAL SINGLE POINT ENERGY     -2929.517523973459

DIPOLE MOMENT
-------------

Method             : SCF
Type of density    : Electron Density
Multiplicity       :   1
Irrep              :   0
Energy             : -2929.6359401212544071 Eh
Relativity type    :
Basis              : AO
                                X                 Y                 Z
Electronic contribution:      4.705091095      -1.950341633      -2.246742008
Nuclear contribution   :     -5.137795315       1.374460635       2.959309744
                        -----------------------------------------
Total Dipole Moment    :     -0.432704220      -0.575880998       0.712567736
                        -----------------------------------------
Magnitude (a.u.)       :      1.013224874
Magnitude (Debye)      :      2.575412958

Rotational constants in cm-1:             0.011763             0.005572             0.004944
Rotational constants in MHz :           352.635795           167.035431           148.202889

                             ****ORCA TERMINATED NORMALLY****
TOTAL RUN TIME: 0 days 0 hours 0 minutes 21 seconds 701 msec
