                         Program Version 6.0.0  -   RELEASE  -
|  1> ! r2scan-3c def2/J RI DEFGRID2 scfconv6 printgap
|  2> %output
|  3>     printlevel normal
|  4> end
|  5> * xyz 0 1
|  6> C 4.0655321562 -0.8137143942 -2.9184159729
|  7> C 4.235311179 -1.2284464703 -1.4707158632
|  8> O 3.9545673819 -0.1003022217 -0.6005483375
|  9> P 2.7241018063 -0.0543522707 0.3836076559
| 10> S 2.6675590164 1.6259741471 1.3771480341
| 11> O 2.9595249814 -1.3672526682 1.254549253
| 12> C 2.3401556194 -1.5699518803 2.5362187437
| 13> C 0.8783008257 -1.9483070976 2.4087171852
| 14> S 1.0367840544 -0.5392256061 -0.8445762964
| 15> C 0.3423462824 1.1265282668 -0.985701516
| 16> S -0.7734734454 1.5524064478 0.3815121787
| 17> P -2.3423745731 0.2670282294 -0.2114216222
| 18> S -2.6694047819 0.0856535095 -2.1400982206
| 19> O -3.5934309817 0.7398722031 0.6464652443
| 20> C -4.5218258767 1.7315992545 0.1762805173
| 21> C -3.8945044472 3.1083855487 0.0938461772
| 22> O -1.907457716 -1.0517261529 0.5487669138
| 23> C -2.374963026 -2.3580423816 0.1535600458
| 24> C -3.8591228916 -2.5240363233 0.4028390175
| 25> H 4.6728403007 0.0626135227 -3.1268691195
| 26> H 4.380728221 -1.6296010976 -3.5609577655
| 27> H 3.024580597 -0.5794397371 -3.1279567064
| 28> H 5.2678082889 -1.5054151306 -1.2534427429
| 29> H 3.5704952833 -2.0555155762 -1.2122243996
| 30> H 2.9234259219 -2.3766660383 2.9830880335
| 31> H 2.4563143411 -0.6558435201 3.1274133057
| 32> H 0.4953641576 -2.2301274757 3.3843214051
| 33> H 0.2956262583 -1.1071356019 2.0361212655
| 34> H 0.7679738565 -2.783674988 1.7215186107
| 35> H -0.2147776829 1.1559964513 -1.9221852956
| 36> H 1.1439578292 1.8622139582 -0.9708631454
| 37> H -4.89289187 1.4202266136 -0.8056844967
| 38> H -5.3310851977 1.7008124737 0.9070646859
| 39> H -3.4282541601 3.36897049 1.0409093721
| 40> H -3.1336975757 3.1259182365 -0.6856555091
| 41> H -4.6600075431 3.8396006312 -0.1453470774
| 42> H -2.1387476657 -2.502856629 -0.9054094949
| 43> H -1.783236078 -3.0418931312 0.7629277699
| 44> H -4.0945557034 -2.2874765505 1.4371372007
| 45> H -4.4209354713 -1.8548954032 -0.2478805498
| 46> H -4.1484533426 -3.5481938725 0.1891826549
| 47> *
| 48>
| 49>                          ****END OF INPUT****

CARTESIAN COORDINATES (ANGSTROEM)
---------------------------------
  C      4.065532   -0.813714   -2.918416
  C      4.235311   -1.228446   -1.470716
  O      3.954567   -0.100302   -0.600548
  P      2.724102   -0.054352    0.383608
  S      2.667559    1.625974    1.377148
  O      2.959525   -1.367253    1.254549
  C      2.340156   -1.569952    2.536219
  C      0.878301   -1.948307    2.408717
  S      1.036784   -0.539226   -0.844576
  C      0.342346    1.126528   -0.985702
  S     -0.773473    1.552406    0.381512
  P     -2.342375    0.267028   -0.211422
  S     -2.669405    0.085654   -2.140098
  O     -3.593431    0.739872    0.646465
  C     -4.521826    1.731599    0.176281
  C     -3.894504    3.108386    0.093846
  O     -1.907458   -1.051726    0.548767
  C     -2.374963   -2.358042    0.153560
  C     -3.859123   -2.524036    0.402839
  H      4.672840    0.062614   -3.126869
  H      4.380728   -1.629601   -3.560958
  H      3.024581   -0.579440   -3.127957
  H      5.267808   -1.505415   -1.253443
  H      3.570495   -2.055516   -1.212224
  H      2.923426   -2.376666    2.983088
  H      2.456314   -0.655844    3.127413
  H      0.495364   -2.230127    3.384321
  H      0.295626   -1.107136    2.036121
  H      0.767974   -2.783675    1.721519
  H     -0.214778    1.155996   -1.922185
  H      1.143958    1.862214   -0.970863
  H     -4.892892    1.420227   -0.805684
  H     -5.331085    1.700812    0.907065
  H     -3.428254    3.368970    1.040909
  H     -3.133698    3.125918   -0.685656
  H     -4.660008    3.839601   -0.145347
  H     -2.138748   -2.502857   -0.905409
  H     -1.783236   -3.041893    0.762928
  H     -4.094556   -2.287477    1.437137
  H     -4.420935   -1.854895   -0.247881
  H     -4.148453   -3.548194    0.189183

 Total Charge           Charge          ....    0
 Multiplicity           Mult            ....    1
 Number of Electrons    NEL             ....  202
 Basis Dimension        Dim             ....  539

ORBITAL ENERGIES
----------------

  NO   OCC          E(Eh)            E(eV)
   0   2.0000     -88.573704     -2410.2130
   1   2.0000     -88.573215     -2410.1997
   2   2.0000     -88.523066     -2408.8351
   3   2.0000     -88.521151     -2408.7830
   4   2.0000     -76.913882     -2092.9331
   5   2.0000     -76.913511     -2092.9230
   6   2.0000     -18.994557      -516.8682
   7   2.0000     -18.992322      -516.8074
   8   2.0000     -18.990257      -516.7512
   9   2.0000     -18.988722      -516.7094
  10   2.0000     -10.103902      -274.9412
  11   2.0000     -10.103778      -274.9378
  12   2.0000     -10.100036      -274.8360
  13   2.0000     -10.098721      -274.8002
  14   2.0000     -10.097304      -274.7616
  15   2.0000     -10.030736      -272.9502
  16   2.0000     -10.030207      -272.9358
  17   2.0000     -10.028881      -272.8997
  18   2.0000     -10.025284      -272.8019
  19   2.0000      -7.867712      -214.0913
  20   2.0000      -7.867505      -214.0857
  21   2.0000      -7.817871      -212.7351
  22   2.0000      -7.815893      -212.6813
  23   2.0000      -6.592643      -179.3949
  24   2.0000      -6.591910      -179.3750
  25   2.0000      -5.814613      -158.2237
  26   2.0000      -5.814340      -158.2162
  27   2.0000      -5.811665      -158.1434
  28   2.0000      -5.811450      -158.1376
  29   2.0000      -5.804763      -157.9556
  30   2.0000      -5.804572      -157.9504
  31   2.0000      -5.765381      -156.8840
  32   2.0000      -5.763675      -156.8376
  33   2.0000      -5.758160      -156.6875
  34   2.0000      -5.757997      -156.6831
  35   2.0000      -5.756066      -156.6305
  36   2.0000      -5.755870      -156.6252
  37   2.0000      -4.738043      -128.9287
  38   2.0000      -4.737613      -128.9170
  39   2.0000      -4.737479      -128.9133
  40   2.0000      -4.736794      -128.8947
  41   2.0000      -4.736516      -128.8872
  42   2.0000      -4.735525      -128.8602
  43   2.0000      -1.051420       -28.6106
  44   2.0000      -1.049954       -28.5707
  45   2.0000      -1.012836       -27.5607
  46   2.0000      -1.008977       -27.4557
  47   2.0000      -0.799677       -21.7603
  48   2.0000      -0.758526       -20.6406
  49   2.0000      -0.750217       -20.4144
  50   2.0000      -0.732636       -19.9360
  51   2.0000      -0.731947       -19.9173
  52   2.0000      -0.712003       -19.3746
  53   2.0000      -0.686302       -18.6752
  54   2.0000      -0.669582       -18.2202
  55   2.0000      -0.634529       -17.2664
  56   2.0000      -0.621776       -16.9194
  57   2.0000      -0.608500       -16.5581
  58   2.0000      -0.606959       -16.5162
  59   2.0000      -0.588435       -16.0121
  60   2.0000      -0.529039       -14.3959
  61   2.0000      -0.518567       -14.1109
  62   2.0000      -0.494358       -13.4522
  63   2.0000      -0.493455       -13.4276
  64   2.0000      -0.477421       -12.9913
  65   2.0000      -0.461507       -12.5582
  66   2.0000      -0.459759       -12.5107
  67   2.0000      -0.458289       -12.4707
  68   2.0000      -0.448701       -12.2098
  69   2.0000      -0.436297       -11.8722
  70   2.0000      -0.424459       -11.5501
  71   2.0000      -0.413287       -11.2461
  72   2.0000      -0.411205       -11.1895
  73   2.0000      -0.404065       -10.9952
  74   2.0000      -0.392701       -10.6859
  75   2.0000      -0.386901       -10.5281
  76   2.0000      -0.382591       -10.4108
  77   2.0000      -0.374547       -10.1919
  78   2.0000      -0.371828       -10.1180
  79   2.0000      -0.368845       -10.0368
  80   2.0000      -0.364259        -9.9120
  81   2.0000      -0.361341        -9.8326
  82   2.0000      -0.358769        -9.7626
  83   2.0000      -0.353399        -9.6165
  84   2.0000      -0.347377        -9.4526
  85   2.0000      -0.329991        -8.9795
  86   2.0000      -0.325222        -8.8498
  87   2.0000      -0.316327        -8.6077
  88   2.0000      -0.310655        -8.4533
  89   2.0000      -0.308452        -8.3934
  90   2.0000      -0.300077        -8.1655
  91   2.0000      -0.290327        -7.9002
  92   2.0000      -0.286112        -7.7855
  93   2.0000      -0.280095        -7.6218
  94   2.0000      -0.273844        -7.4517
  95   2.0000      -0.243943        -6.6380
  96   2.0000      -0.230902        -6.2832
  97   2.0000      -0.226204        -6.1553
  98   2.0000      -0.220291        -5.9944
  99   2.0000      -0.217032        -5.9057
 100   2.0000      -0.212199        -5.7742
 101   0.0000      -0.044514        -1.2113
 102   0.0000      -0.029436        -0.8010
 103   0.0000      -0.007977        -0.2171
 104   0.0000       0.005381         0.1464
 105   0.0000       0.014682         0.3995

MULLIKEN ATOMIC CHARGES
-----------------------
   0 C :   -0.446852
   1 C :   -0.118189
   2 O :   -0.270508
   3 P :    0.637780
   4 S :   -0.423918
   5 O :   -0.279304
   6 C :   -0.170688
   7 C :   -0.445404
   8 S :   -0.154461
   9 C :   -0.257885
  10 S :   -0.082729
  11 P :    0.688544
  12 S :   -0.494944
  13 O :   -0.306359
  14 C :   -0.150476
  15 C :   -0.453258
  16 O :   -0.282215
  17 C :   -0.146457
  18 C :   -0.444304
  19 H :    0.157622
  20 H :    0.145784
  21 H :    0.167896
  22 H :    0.155553
  23 H :    0.149120
  24 H :    0.146841
  25 H :    0.174518
  26 H :    0.145603
  27 H :    0.192524
  28 H :    0.144719
  29 H :    0.219214
  30 H :    0.204855
  31 H :    0.170445
  32 H :    0.148663
  33 H :    0.157831
  34 H :    0.176932
  35 H :    0.148013
  36 H :    0.172759
  37 H :    0.150126
  38 H :    0.157385
  39 H :    0.168209
  40 H :    0.147016
Sum of atomic charges:    0.0000000

LOEWDIN ATOMIC CHARGES
----------------------
   0 C :   -0.396532
   1 C :    0.022968
   2 O :   -0.654019
   3 P :    0.383819
   4 S :   -0.085239
   5 O :   -0.670375
   6 C :    0.022661
   7 C :   -0.408810
   8 S :    0.144102
   9 C :   -0.423198
  10 S :    0.170554
  11 P :    0.376306
  12 S :   -0.140252
  13 O :   -0.660612
  14 C :    0.020111
  15 C :   -0.406316
  16 O :   -0.679569
  17 C :    0.018670
  18 C :   -0.399164
  19 H :    0.161936
  20 H :    0.158865
  21 H :    0.163111
  22 H :    0.180327
  23 H :    0.174444
  24 H :    0.178655
  25 H :    0.181448
  26 H :    0.158850
  27 H :    0.174887
  28 H :    0.157624
  29 H :    0.191745
  30 H :    0.191280
  31 H :    0.179159
  32 H :    0.179749
  33 H :    0.161288
  34 H :    0.165733
  35 H :    0.159502
  36 H :    0.180493
  37 H :    0.180002
  38 H :    0.161402
  39 H :    0.165036
  40 H :    0.159359

  Mayer bond orders larger than 0.100000
B(  0-C ,  1-C ) :   0.9548 B(  0-C , 19-H ) :   0.9708 B(  0-C , 20-H ) :   0.9661
B(  0-C , 21-H ) :   0.9645 B(  1-C ,  2-O ) :   0.7282 B(  1-C , 22-H ) :   0.9564
B(  1-C , 23-H ) :   0.9673 B(  2-O ,  3-P ) :   1.1825 B(  3-P ,  4-S ) :   1.8397
B(  3-P ,  5-O ) :   1.0523 B(  3-P ,  8-S ) :   0.9876 B(  5-O ,  6-C ) :   0.8102
B(  6-C ,  7-C ) :   0.9318 B(  6-C , 24-H ) :   0.9637 B(  6-C , 25-H ) :   0.9669
B(  7-C , 26-H ) :   0.9578 B(  7-C , 27-H ) :   0.9531 B(  7-C , 28-H ) :   0.9673
B(  8-S ,  9-C ) :   0.8871 B(  9-C , 10-S ) :   0.9248 B(  9-C , 29-H ) :   0.9076
B(  9-C , 30-H ) :   0.9106 B( 10-S , 11-P ) :   1.1024 B( 11-P , 12-S ) :   1.7309
B( 11-P , 13-O ) :   1.0615 B( 11-P , 16-O ) :   1.1456 B( 13-O , 14-C ) :   0.8142
B( 14-C , 15-C ) :   0.9232 B( 14-C , 31-H ) :   0.9666 B( 14-C , 32-H ) :   0.9582
B( 15-C , 33-H ) :   0.9683 B( 15-C , 34-H ) :   0.9619 B( 15-C , 35-H ) :   0.9586
B( 16-O , 17-C ) :   0.7883 B( 17-C , 18-C ) :   0.9230 B( 17-C , 36-H ) :   0.9648
B( 17-C , 37-H ) :   0.9610 B( 18-C , 38-H ) :   0.9720 B( 18-C , 39-H ) :   0.9599
B( 18-C , 40-H ) :   0.9618

Dispersion correction           -0.021248229
FINAL SINGLE POINT ENERGY     -2932.462732631086

DIPOLE MOMENT
-------------

Method             : SCF
Type of density    : Electron Density
Multiplicity       :   1
Irrep              :   0
Energy             : -2932.4878221077010494 Eh
Relativity type    :
Basis              : AO
                                X                 Y                 Z
Electronic contribution:      8.476583053       9.947451632       0.533987682
Nuclear contribution   :     -9.003483455     -11.199047588      -0.442591132
                        -----------------------------------------
Total Dipole Moment    :     -0.526900402      -1.251595955       0.091396550
                        -----------------------------------------
Magnitude (a.u.)       :      1.361054664
Magnitude (Debye)      :      3.459526023

Rotational constants in cm-1:             0.012288             0.004570             0.004486
Rotational constants in MHz :           368.379627           137.019673           134.474911

                             ****ORCA TERMINATED NORMALLY****
TOTAL RUN TIME: 0 days 0 hours 1 minutes 18 seconds 481 msec
