                         Program Version 6.0.0  -   RELEASE  -
|  1> ! r2scan-3c def2/J RI DEFGRID2 scfconv6 printgap
|  2> %output
|  3>     printlevel normal
|  4> end
|  5> %cpcm
|  6>     smd true
|  7>     smdsolvent "water"
|  8> end
|  9> * xyz 0 1
| 10> C 4.0655321562 -0.8137143942 -2.9184159729
| 11> C 4.235311179 -1.2284464703 -1.4707158632
| 12> O 3.9545673819 -0.1003022217 -0.6005483375
| 13> P 2.7241018063 -0.0543522707 0.3836076559
| 14> S 2.6675590164 1.6259741471 1.3771480341
| 15> O 2.9595249814 -1.3672526682 1.254549253
| 16> C 2.3401556194 -1.5699518803 2.5362187437
| 17> C 0.8783008257 -1.9483070976 2.4087171852
| 18> S 1.0367840544 -0.5392256061 -0.8445762964
| 19> C 0.3423462824 1.1265282668 -0.985701516
| 20> S -0.7734734454 1.5524064478 0.3815121787
| 21> P -2.3423745731 0.2670282294 -0.2114216222
| 22> S -2.6694047819 0.0856535095 -2.1400982206
| 23> O -3.5934309817 0.7398722031 0.6464652443
| 24> C -4.5218258767 1.7315992545 0.1762805173
| 25> C -3.8945044472 3.1083855487 0.0938461772
| 26> O -1.907457716 -1.0517261529 0.5487669138
| 27> C -2.374963026 -2.3580423816 0.1535600458
| 28> C -3.8591228916 -2.5240363233 0.4028390175
| 29> H 4.6728403007 0.0626135227 -3.1268691195
| 30> H 4.380728221 -1.6296010976 -3.5609577655
| 31> H 3.024580597 -0.5794397371 -3.1279567064
| 32> H 5.2678082889 -1.5054151306 -1.2534427429
| 33> H 3.5704952833 -2.0555155762 -1.2122243996
| 34> H 2.9234259219 -2.3766660383 2.9830880335
| 35> H 2.4563143411 -0.6558435201 3.1274133057
| 36> H 0.4953641576 -2.2301274757 3.3843214051
| 37> H 0.2956262583 -1.1071356019 2.0361212655
| 38> H 0.7679738565 -2.783674988 1.7215186107
| 39> H -0.2147776829 1.1559964513 -1.9221852956
| 40> H 1.1439578292 1.8622139582 -0.9708631454
| 41> H -4.89289187 1.4202266136 -0.8056844967
| 42> H -5.3310851977 1.7008124737 0.9070646859
| 43> H -3.4282541601 3.36897049 1.0409093721
| 44> H -3.1336975757 3.1259182365 -0.6856555091
| 45> H -4.6600075431 3.8396006312 -0.1453470774
| 46> H -2.1387476657 -2.502856629 -0.9054094949
| 47> H -1.783236078 -3.0418931312 0.7629277699
| 48> H -4.0945557034 -2.2874765505 1.4371372007
| 49> H -4.4209354713 -1.8548954032 -0.2478805498
| 50> H -4.1484533426 -3.5481938725 0.1891826549
| 51> *
| 52>
| 53>                          ****END OF INPUT****

CARTESIAN COORDINATES (ANGSTROEM)
---------------------------------
  C      4.065532   -0.813714   -2.918416
  C      4.235311   -1.228446   -1.470716
  O      3.954567   -0.100302   -0.600548
  P      2.724102   -0.054352    0.383608
  S      2.667559    1.625974    1.377148
  O      2.959525   -1.367253    1.254549
  C      2.340156   -1.569952    2.536219
  C      0.878301   -1.948307    2.408717
  S      1.036784   -0.539226   -0.844576
  C      0.342346    1.126528   -0.985702
  S     -0.773473    1.552406    0.381512
  P     -2.342375    0.267028   -0.211422
  S     -2.669405    0.085654   -2.140098
  O     -3.593431    0.739872    0.646465
  C     -4.521826    1.731599    0.176281
  C     -3.894504    3.108386    0.093846
  O     -1.907458   -1.051726    0.548767
  C     -2.374963   -2.358042    0.153560
  C     -3.859123   -2.524036    0.402839
  H      4.672840    0.062614   -3.126869
  H      4.380728   -1.629601   -3.560958
  H      3.024581   -0.579440   -3.127957
  H      5.267808   -1.505415   -1.253443
  H      3.570495   -2.055516   -1.212224
  H      2.923426   -2.376666    2.983088
  H      2.456314   -0.655844    3.127413
  H      0.495364   -2.230127    3.384321
  H      0.295626   -1.107136    2.036121
  H      0.767974   -2.783675    1.721519
  H     -0.214778    1.155996   -1.922185
  H      1.143958    1.862214   -0.970863
  H     -4.892892    1.420227   -0.805684
  H     -5.331085    1.700812    0.907065
  H     -3.428254    3.368970    1.040909
  H     -3.133698    3.125918   -0.685656
  H     -4.660008    3.839601   -0.145347
  H     -2.138748   -2.502857   -0.905409
  H     -1.783236   -3.041893    0.762928
  H     -4.094556   -2.287477    1.437137
  H     -4.420935   -1.854895   -0.247881
  H     -4.148453   -3.548194    0.189183

 Total Charge           Charge          ....    0
 Multiplicity           Mult            ....    1
 Number of Electrons    NEL             ....  202
 Basis Dimension        Dim             ....  539

ORBITAL ENERGIES
----------------

  NO   OCC          E(Eh)            E(eV)
   0   2.0000     -88.578004     -2410.3300
   1   2.0000     -88.576395     -2410.2862
   2   2.0000     -88.532114     -2409.0813
   3   2.0000     -88.528890     -2408.9936
   4   2.0000     -76.920409     -2093.1107
   5   2.0000     -76.918085     -2093.0475
   6   2.0000     -18.996172      -516.9121
   7   2.0000     -18.995215      -516.8861
   8   2.0000     -18.993247      -516.8325
   9   2.0000     -18.992085      -516.8009
  10   2.0000     -10.103939      -274.9422
  11   2.0000     -10.093340      -274.6537
  12   2.0000     -10.090044      -274.5641
  13   2.0000     -10.089591      -274.5517
  14   2.0000     -10.089019      -274.5362
  15   2.0000     -10.018684      -272.6223
  16   2.0000     -10.018678      -272.6221
  17   2.0000     -10.018526      -272.6180
  18   2.0000     -10.016605      -272.5657
  19   2.0000      -7.872130      -214.2116
  20   2.0000      -7.870637      -214.1709
  21   2.0000      -7.827207      -212.9891
  22   2.0000      -7.823947      -212.9004
  23   2.0000      -6.598857      -179.5640
  24   2.0000      -6.596879      -179.5102
  25   2.0000      -5.818993      -158.3429
  26   2.0000      -5.817520      -158.3028
  27   2.0000      -5.816058      -158.2630
  28   2.0000      -5.814605      -158.2235
  29   2.0000      -5.809242      -158.0775
  30   2.0000      -5.807644      -158.0340
  31   2.0000      -5.774870      -157.1422
  32   2.0000      -5.771420      -157.0483
  33   2.0000      -5.767361      -156.9379
  34   2.0000      -5.767254      -156.9350
  35   2.0000      -5.764224      -156.8525
  36   2.0000      -5.764077      -156.8485
  37   2.0000      -4.744518      -129.1049
  38   2.0000      -4.743707      -129.0828
  39   2.0000      -4.742581      -129.0522
  40   2.0000      -4.742225      -129.0425
  41   2.0000      -4.741720      -129.0288
  42   2.0000      -4.740825      -129.0044
  43   2.0000      -1.053400       -28.6645
  44   2.0000      -1.052805       -28.6483
  45   2.0000      -1.013513       -27.5791
  46   2.0000      -1.011760       -27.5314
  47   2.0000      -0.801958       -21.8224
  48   2.0000      -0.755742       -20.5648
  49   2.0000      -0.744512       -20.2592
  50   2.0000      -0.724302       -19.7093
  51   2.0000      -0.723647       -19.6914
  52   2.0000      -0.711085       -19.3496
  53   2.0000      -0.689980       -18.7753
  54   2.0000      -0.675554       -18.3827
  55   2.0000      -0.632701       -17.2167
  56   2.0000      -0.619356       -16.8535
  57   2.0000      -0.602215       -16.3871
  58   2.0000      -0.599612       -16.3163
  59   2.0000      -0.587283       -15.9808
  60   2.0000      -0.525704       -14.3051
  61   2.0000      -0.514241       -13.9932
  62   2.0000      -0.490957       -13.3596
  63   2.0000      -0.490587       -13.3496
  64   2.0000      -0.477402       -12.9908
  65   2.0000      -0.457757       -12.4562
  66   2.0000      -0.455831       -12.4038
  67   2.0000      -0.454318       -12.3626
  68   2.0000      -0.443613       -12.0713
  69   2.0000      -0.432603       -11.7717
  70   2.0000      -0.421104       -11.4588
  71   2.0000      -0.408394       -11.1130
  72   2.0000      -0.406596       -11.0640
  73   2.0000      -0.402851       -10.9621
  74   2.0000      -0.390247       -10.6192
  75   2.0000      -0.386318       -10.5122
  76   2.0000      -0.380531       -10.3548
  77   2.0000      -0.371935       -10.1209
  78   2.0000      -0.365385        -9.9426
  79   2.0000      -0.361508        -9.8371
  80   2.0000      -0.355214        -9.6659
  81   2.0000      -0.353835        -9.6283
  82   2.0000      -0.352925        -9.6036
  83   2.0000      -0.347368        -9.4524
  84   2.0000      -0.343075        -9.3355
  85   2.0000      -0.328054        -8.9268
  86   2.0000      -0.321708        -8.7541
  87   2.0000      -0.312081        -8.4921
  88   2.0000      -0.306763        -8.3474
  89   2.0000      -0.304680        -8.2908
  90   2.0000      -0.297822        -8.1042
  91   2.0000      -0.288737        -7.8569
  92   2.0000      -0.285538        -7.7699
  93   2.0000      -0.279875        -7.6158
  94   2.0000      -0.275694        -7.5020
  95   2.0000      -0.248272        -6.7558
  96   2.0000      -0.238760        -6.4970
  97   2.0000      -0.234655        -6.3853
  98   2.0000      -0.229170        -6.2360
  99   2.0000      -0.223131        -6.0717
 100   2.0000      -0.220392        -5.9972
 101   0.0000      -0.049783        -1.3547
 102   0.0000      -0.035825        -0.9748
 103   0.0000      -0.010201        -0.2776
 104   0.0000       0.000014         0.0004
 105   0.0000       0.011309         0.3077

MULLIKEN ATOMIC CHARGES
-----------------------
   0 C :   -0.483413
   1 C :   -0.118740
   2 O :   -0.306687
   3 P :    0.660612
   4 S :   -0.482819
   5 O :   -0.298987
   6 C :   -0.161980
   7 C :   -0.479944
   8 S :   -0.150216
   9 C :   -0.265443
  10 S :   -0.107109
  11 P :    0.724547
  12 S :   -0.536304
  13 O :   -0.331223
  14 C :   -0.151968
  15 C :   -0.488969
  16 O :   -0.308252
  17 C :   -0.144709
  18 C :   -0.485065
  19 H :    0.166954
  20 H :    0.171094
  21 H :    0.167936
  22 H :    0.179685
  23 H :    0.169565
  24 H :    0.174373
  25 H :    0.175879
  26 H :    0.170601
  27 H :    0.172332
  28 H :    0.169135
  29 H :    0.237200
  30 H :    0.225907
  31 H :    0.177864
  32 H :    0.175662
  33 H :    0.169568
  34 H :    0.172732
  35 H :    0.172976
  36 H :    0.177162
  37 H :    0.178915
  38 H :    0.170274
  39 H :    0.168498
  40 H :    0.172356
Sum of atomic charges:    0.0000000

LOEWDIN ATOMIC CHARGES
----------------------
   0 C :   -0.399754
   1 C :    0.029236
   2 O :   -0.675794
   3 P :    0.387907
   4 S :   -0.128519
   5 O :   -0.677281
   6 C :    0.027456
   7 C :   -0.410447
   8 S :    0.151259
   9 C :   -0.416963
  10 S :    0.155270
  11 P :    0.381300
  12 S :   -0.164554
  13 O :   -0.672338
  14 C :    0.025733
  15 C :   -0.409857
  16 O :   -0.692647
  17 C :    0.023328
  18 C :   -0.402479
  19 H :    0.164008
  20 H :    0.168880
  21 H :    0.161332
  22 H :    0.190586
  23 H :    0.182429
  24 H :    0.190562
  25 H :    0.181572
  26 H :    0.167918
  27 H :    0.165937
  28 H :    0.164645
  29 H :    0.197160
  30 H :    0.198248
  31 H :    0.181636
  32 H :    0.191150
  33 H :    0.163702
  34 H :    0.161606
  35 H :    0.168550
  36 H :    0.181961
  37 H :    0.191385
  38 H :    0.164345
  39 H :    0.162707
  40 H :    0.168824

  Mayer bond orders larger than 0.100000
B(  0-C ,  1-C ) :   0.9449 B(  0-C , 19-H ) :   0.9684 B(  0-C , 20-H ) :   0.9603
B(  0-C , 21-H ) :   0.9656 B(  1-C ,  2-O ) :   0.7172 B(  1-C , 22-H ) :   0.9455
B(  1-C , 23-H ) :   0.9587 B(  2-O ,  3-P ) :   1.1858 B(  3-P ,  4-S ) :   1.8115
B(  3-P ,  5-O ) :   1.0610 B(  3-P ,  8-S ) :   1.0033 B(  5-O ,  6-C ) :   0.7970
B(  6-C ,  7-C ) :   0.9224 B(  6-C , 24-H ) :   0.9531 B(  6-C , 25-H ) :   0.9634
B(  7-C , 26-H ) :   0.9530 B(  7-C , 27-H ) :   0.9581 B(  7-C , 28-H ) :   0.9644
B(  8-S ,  9-C ) :   0.8795 B(  9-C , 10-S ) :   0.9130 B(  9-C , 29-H ) :   0.9046
B(  9-C , 30-H ) :   0.9041 B( 10-S , 11-P ) :   1.1087 B( 11-P , 12-S ) :   1.6949
B( 11-P , 13-O ) :   1.0696 B( 11-P , 16-O ) :   1.1548 B( 13-O , 14-C ) :   0.8026
B( 14-C , 15-C ) :   0.9092 B( 14-C , 31-H ) :   0.9653 B( 14-C , 32-H ) :   0.9486
B( 15-C , 33-H ) :   0.9658 B( 15-C , 34-H ) :   0.9633 B( 15-C , 35-H ) :   0.9532
B( 16-O , 17-C ) :   0.7763 B( 17-C , 18-C ) :   0.9107 B( 17-C , 36-H ) :   0.9607
B( 17-C , 37-H ) :   0.9510 B( 18-C , 38-H ) :   0.9712 B( 18-C , 39-H ) :   0.9592
B( 18-C , 40-H ) :   0.9558

Dispersion correction           -0.021248229
FINAL SINGLE POINT ENERGY     -2932.471544302130

DIPOLE MOMENT
-------------

Method             : SCF
Type of density    : Electron Density
Multiplicity       :   1
Irrep              :   0
Energy             : -2932.4966337787445809 Eh
Relativity type    :
Basis              : AO
                                X                 Y                 Z
Electronic contribution:      8.267922508       9.359677786       0.447299826
Nuclear contribution   :     -9.003483455     -11.199047588      -0.442591132
                        -----------------------------------------
Total Dipole Moment    :     -0.735560947      -1.839369801       0.004708694
                        -----------------------------------------
Magnitude (a.u.)       :      1.980998068
Magnitude (Debye)      :      5.035296926

Rotational constants in cm-1:             0.012288             0.004570             0.004486
Rotational constants in MHz :           368.379627           137.019673           134.474911

                             ****ORCA TERMINATED NORMALLY****
TOTAL RUN TIME: 0 days 0 hours 1 minutes 53 seconds 409 msec
