                         Program Version 6.0.1  -  RELEASE   -
|  1> ! pbe def2-sv(p) def2/J RI DEFGRID1 loosescf d4 GCP(DFT/SV(P)) printgap
|  2> %output
|  3>     printlevel normal
|  4> end
|  5> * xyz 0 1
|  6> C 3.9224778364 -3.1828021562 -2.7197777879
|  7> C 2.8369781507 -3.2309748428 -1.6629465857
|  8> O 2.6801219252 -1.9040405773 -1.1224577277
|  9> C 1.8794824756 -1.7519155997 -0.0905538501
| 10> O 1.281711724 -2.65667153 0.449987612
| 11> C 1.7594569479 -0.2943263478 0.3142832397
| 12> C 0.9155749201 0.4358515741 -0.7315357739
| 13> H 1.4734670687 0.5193543213 -1.6692620319
| 14> C 0.488725437 1.8281611109 -0.2956121418
| 15> O -0.6228008549 2.2676762191 -0.5164653414
| 16> O 1.450000792 2.4725278909 0.3011555481
| 17> C 1.1674685117 3.7947915728 0.8089729762
| 18> C 2.2385130084 4.1433760505 1.8224924128
| 19> S -0.5922738354 -0.485503878 -1.1900788691
| 20> P -1.8696211797 0.0268647662 0.4302696403
| 21> S -1.1196799047 0.6879837542 2.112942397
| 22> O -3.0422148448 0.931059991 -0.1134749737
| 23> C -3.7590879573 0.6396822304 -1.3286106125
| 24> O -2.6589158304 -1.3612616915 0.6104519433
| 25> C -2.0455313782 -2.4817319724 1.2548759115
| 26> H 3.6416338492 -2.4944260977 -3.510874385
| 27> H 4.8577122138 -2.8501361395 -2.2796744848
| 28> H 4.0574801352 -4.1739405409 -3.1395461905
| 29> H 3.0924275355 -3.9095221888 -0.8432646711
| 30> H 1.8748796411 -3.5419154332 -2.0816132148
| 31> H 2.7460417173 0.1655032729 0.354818597
| 32> H 1.2834354824 -0.2424247025 1.2950525824
| 33> H 1.1669892414 4.4869194953 -0.0378501098
| 34> H 0.1681553914 3.7825242106 1.2551393964
| 35> H 2.2085519651 3.4410281968 2.6503246365
| 36> H 3.2185173942 4.1030955331 1.3574414523
| 37> H 2.0594300037 5.1448049691 2.1989743162
| 38> H -3.0697808637 0.6417708199 -2.1729512774
| 39> H -4.4848502719 1.4428407848 -1.4247272895
| 40> H -4.2531578034 -0.3268835873 -1.2460221299
| 41> H -2.7813200853 -3.2800410176 1.2150435295
| 42> H -1.8072248389 -2.2290432317 2.288797192
| 43> H -1.1302320897 -2.7755931739 0.7385008061
| 44> *
| 45>
| 46>                          ****END OF INPUT****

CARTESIAN COORDINATES (ANGSTROEM)
---------------------------------
  C      3.922478   -3.182802   -2.719778
  C      2.836978   -3.230975   -1.662947
  O      2.680122   -1.904041   -1.122458
  C      1.879482   -1.751916   -0.090554
  O      1.281712   -2.656672    0.449988
  C      1.759457   -0.294326    0.314283
  C      0.915575    0.435852   -0.731536
  H      1.473467    0.519354   -1.669262
  C      0.488725    1.828161   -0.295612
  O     -0.622801    2.267676   -0.516465
  O      1.450001    2.472528    0.301156
  C      1.167469    3.794792    0.808973
  C      2.238513    4.143376    1.822492
  S     -0.592274   -0.485504   -1.190079
  P     -1.869621    0.026865    0.430270
  S     -1.119680    0.687984    2.112942
  O     -3.042215    0.931060   -0.113475
  C     -3.759088    0.639682   -1.328611
  O     -2.658916   -1.361262    0.610452
  C     -2.045531   -2.481732    1.254876
  H      3.641634   -2.494426   -3.510874
  H      4.857712   -2.850136   -2.279674
  H      4.057480   -4.173941   -3.139546
  H      3.092428   -3.909522   -0.843265
  H      1.874880   -3.541915   -2.081613
  H      2.746042    0.165503    0.354819
  H      1.283435   -0.242425    1.295053
  H      1.166989    4.486919   -0.037850
  H      0.168155    3.782524    1.255139
  H      2.208552    3.441028    2.650325
  H      3.218517    4.103096    1.357441
  H      2.059430    5.144805    2.198974
  H     -3.069781    0.641771   -2.172951
  H     -4.484850    1.442841   -1.424727
  H     -4.253158   -0.326884   -1.246022
  H     -2.781320   -3.280041    1.215044
  H     -1.807225   -2.229043    2.288797
  H     -1.130232   -2.775593    0.738501

 Total Charge           Charge          ....    0
 Multiplicity           Mult            ....    1
 Number of Electrons    NEL             ....  174
 Basis Dimension        Dim             ....  316

ORBITAL ENERGIES
----------------

  NO   OCC          E(Eh)            E(eV)
   0   2.0000     -88.036716     -2395.6008
   1   2.0000     -87.977147     -2393.9799
   2   2.0000     -76.419632     -2079.4839
   3   2.0000     -18.814264      -511.9621
   4   2.0000     -18.806565      -511.7526
   5   2.0000     -18.782533      -511.0987
   6   2.0000     -18.778711      -510.9947
   7   2.0000     -18.739497      -509.9276
   8   2.0000     -18.739255      -509.9210
   9   2.0000     -10.019158      -272.6352
  10   2.0000     -10.009856      -272.3820
  11   2.0000      -9.952766      -270.8285
  12   2.0000      -9.952279      -270.8153
  13   2.0000      -9.950697      -270.7722
  14   2.0000      -9.941400      -270.5193
  15   2.0000      -9.925408      -270.0841
  16   2.0000      -9.903499      -269.4879
  17   2.0000      -9.893772      -269.2232
  18   2.0000      -9.890062      -269.1223
  19   2.0000      -7.681409      -209.0218
  20   2.0000      -7.622350      -207.4147
  21   2.0000      -6.416206      -174.5938
  22   2.0000      -5.709412      -155.3610
  23   2.0000      -5.706004      -155.2683
  24   2.0000      -5.698163      -155.0549
  25   2.0000      -5.651515      -153.7855
  26   2.0000      -5.643011      -153.5541
  27   2.0000      -5.642118      -153.5298
  28   2.0000      -4.638859      -126.2298
  29   2.0000      -4.638192      -126.2116
  30   2.0000      -4.636654      -126.1698
  31   2.0000      -1.022337       -27.8192
  32   2.0000      -1.014476       -27.6053
  33   2.0000      -0.975377       -26.5414
  34   2.0000      -0.930205       -25.3122
  35   2.0000      -0.921881       -25.0857
  36   2.0000      -0.915685       -24.9171
  37   2.0000      -0.766276       -20.8514
  38   2.0000      -0.716149       -19.4874
  39   2.0000      -0.711011       -19.3476
  40   2.0000      -0.687988       -18.7211
  41   2.0000      -0.655842       -17.8464
  42   2.0000      -0.624806       -17.0018
  43   2.0000      -0.619141       -16.8477
  44   2.0000      -0.614575       -16.7234
  45   2.0000      -0.586515       -15.9599
  46   2.0000      -0.563191       -15.3252
  47   2.0000      -0.516053       -14.0425
  48   2.0000      -0.514411       -13.9978
  49   2.0000      -0.501686       -13.6516
  50   2.0000      -0.479582       -13.0501
  51   2.0000      -0.463588       -12.6149
  52   2.0000      -0.458161       -12.4672
  53   2.0000      -0.448469       -12.2035
  54   2.0000      -0.442969       -12.0538
  55   2.0000      -0.428240       -11.6530
  56   2.0000      -0.424224       -11.5437
  57   2.0000      -0.415891       -11.3170
  58   2.0000      -0.410228       -11.1629
  59   2.0000      -0.408364       -11.1121
  60   2.0000      -0.399500       -10.8709
  61   2.0000      -0.390582       -10.6283
  62   2.0000      -0.384281       -10.4568
  63   2.0000      -0.378255       -10.2928
  64   2.0000      -0.375163       -10.2087
  65   2.0000      -0.364394        -9.9157
  66   2.0000      -0.361382        -9.8337
  67   2.0000      -0.355491        -9.6734
  68   2.0000      -0.354464        -9.6455
  69   2.0000      -0.339445        -9.2368
  70   2.0000      -0.336230        -9.1493
  71   2.0000      -0.323737        -8.8093
  72   2.0000      -0.320031        -8.7085
  73   2.0000      -0.312848        -8.5130
  74   2.0000      -0.306300        -8.3349
  75   2.0000      -0.303872        -8.2688
  76   2.0000      -0.291302        -7.9267
  77   2.0000      -0.286443        -7.7945
  78   2.0000      -0.268464        -7.3053
  79   2.0000      -0.265509        -7.2249
  80   2.0000      -0.261893        -7.1265
  81   2.0000      -0.248900        -6.7729
  82   2.0000      -0.237273        -6.4565
  83   2.0000      -0.218264        -5.9393
  84   2.0000      -0.214435        -5.8351
  85   2.0000      -0.196243        -5.3401
  86   2.0000      -0.191646        -5.2149
  87   0.0000      -0.043396        -1.1809
  88   0.0000      -0.029984        -0.8159
  89   0.0000      -0.017583        -0.4785
  90   0.0000       0.007132         0.1941
  91   0.0000       0.025588         0.6963

MULLIKEN ATOMIC CHARGES
-----------------------
   0 C :   -0.272721
   1 C :   -0.030488
   2 O :   -0.236126
   3 C :    0.114467
   4 O :   -0.194639
   5 C :   -0.026762
   6 C :   -0.332982
   7 H :    0.154592
   8 C :    0.194903
   9 O :   -0.185412
  10 O :   -0.221096
  11 C :   -0.028821
  12 C :   -0.277835
  13 S :   -0.098747
  14 P :    0.622808
  15 S :   -0.322920
  16 O :   -0.352745
  17 C :   -0.104097
  18 O :   -0.392721
  19 C :   -0.123398
  20 H :    0.114258
  21 H :    0.116138
  22 H :    0.113395
  23 H :    0.110307
  24 H :    0.107452
  25 H :    0.108978
  26 H :    0.116566
  27 H :    0.104901
  28 H :    0.127818
  29 H :    0.123970
  30 H :    0.112366
  31 H :    0.113856
  32 H :    0.122518
  33 H :    0.130611
  34 H :    0.121071
  35 H :    0.113544
  36 H :    0.116379
  37 H :    0.140614
Sum of atomic charges:    0.0000000

LOEWDIN ATOMIC CHARGES
----------------------
   0 C :   -0.350728
   1 C :   -0.107129
   2 O :   -0.064749
   3 C :    0.020218
   4 O :   -0.159042
   5 C :   -0.255796
   6 C :   -0.258960
   7 H :    0.150209
   8 C :   -0.000123
   9 O :   -0.164106
  10 O :   -0.040665
  11 C :   -0.103948
  12 C :   -0.350520
  13 S :    0.106200
  14 P :    0.590803
  15 S :   -0.305314
  16 O :   -0.230202
  17 C :   -0.208421
  18 O :   -0.265309
  19 C :   -0.224807
  20 H :    0.126317
  21 H :    0.127211
  22 H :    0.131677
  23 H :    0.118686
  24 H :    0.117971
  25 H :    0.140449
  26 H :    0.133435
  27 H :    0.116954
  28 H :    0.126415
  29 H :    0.130862
  30 H :    0.125202
  31 H :    0.132425
  32 H :    0.111275
  33 H :    0.126350
  34 H :    0.114234
  35 H :    0.117180
  36 H :    0.111783
  37 H :    0.113963

  Mayer bond orders larger than 0.100000
B(  0-C ,  1-C ) :   1.1516 B(  0-C , 20-H ) :   0.9490 B(  0-C , 21-H ) :   0.9506
B(  0-C , 22-H ) :   0.9439 B(  1-C ,  2-O ) :   0.9043 B(  1-C , 23-H ) :   0.9290
B(  1-C , 24-H ) :   0.9324 B(  2-O ,  3-C ) :   1.2157 B(  3-C ,  4-O ) :   2.0127
B(  3-C ,  5-C ) :   1.0312 B(  5-C ,  6-C ) :   1.0498 B(  5-C , 25-H ) :   0.8715
B(  5-C , 26-H ) :   0.8738 B(  6-C ,  7-H ) :   0.8586 B(  6-C ,  8-C ) :   0.9084
B(  6-C , 13-S ) :   1.0299 B(  8-C ,  9-O ) :   2.0320 B(  8-C , 10-O ) :   1.2693
B( 10-O , 11-C ) :   0.8913 B( 11-C , 12-C ) :   1.1581 B( 11-C , 27-H ) :   0.9354
B( 11-C , 28-H ) :   0.9191 B( 12-C , 29-H ) :   0.9501 B( 12-C , 30-H ) :   0.9488
B( 12-C , 31-H ) :   0.9428 B( 13-S , 14-P ) :   0.9408 B( 13-S , 15-S ) :   0.1133
B( 14-P , 15-S ) :   1.5953 B( 14-P , 16-O ) :   1.1444 B( 14-P , 18-O ) :   1.0737
B( 16-O , 17-C ) :   0.9210 B( 17-C , 32-H ) :   0.9392 B( 17-C , 33-H ) :   0.9600
B( 17-C , 34-H ) :   0.9464 B( 18-O , 19-C ) :   0.9247 B( 19-C , 35-H ) :   0.9564
B( 19-C , 36-H ) :   0.9432 B( 19-C , 37-H ) :   0.9250

Dispersion correction           -0.051984752
FINAL SINGLE POINT ENERGY     -1979.016937470252

DIPOLE MOMENT
-------------

Method             : SCF
Type of density    : Electron Density
Multiplicity       :   1
Irrep              :   0
Energy             : -1979.1463335788425866 Eh
Relativity type    :
Basis              : AO
                                X                 Y                 Z
Electronic contribution:    -14.071901456       1.955261087       3.890523093
Nuclear contribution   :     15.143205025      -2.000064738      -5.156306086
                        -----------------------------------------
Total Dipole Moment    :      1.071303569      -0.044803652      -1.265782993
                        -----------------------------------------
Magnitude (a.u.)       :      1.658886762
Magnitude (Debye)      :      4.216555054

Rotational constants in cm-1:             0.010745             0.007932             0.005689
Rotational constants in MHz :           322.122233           237.783311           170.564103

                             ****ORCA TERMINATED NORMALLY****
TOTAL RUN TIME: 0 days 0 hours 0 minutes 36 seconds 966 msec
