                         Program Version 6.0.0  -   RELEASE  -
|  1> ! pbe def2-sv(p) def2/J RI DEFGRID1 loosescf d4 GCP(DFT/SV(P)) printgap
|  2> %output
|  3>     printlevel normal
|  4> end
|  5> * xyz 0 1
|  6> C 1.8637349577 0.286681197 -0.0050143877
|  7> C 0.5745188783 -0.522224074 0.0111758962
|  8> C -0.6547064987 0.3222884833 -0.0130914917
|  9> O -1.7884532297 -0.0975596872 0.0077754153
| 10> H 2.7222034306 -0.3782441171 0.0127190589
| 11> H 1.9171434377 0.9394868293 0.8623687742
| 12> H 1.9209112026 0.897629789 -0.9021171626
| 13> H 0.5267672658 -1.1976013621 -0.8474521034
| 14> H 0.5225547393 -1.1581088139 0.8989531362
| 15> H -0.4737723725 1.4117671204 -0.0653151961
| 16> *
| 17>
| 18>                          ****END OF INPUT****

CARTESIAN COORDINATES (ANGSTROEM)
---------------------------------
  C      1.863735    0.286681   -0.005014
  C      0.574519   -0.522224    0.011176
  C     -0.654706    0.322288   -0.013091
  O     -1.788453   -0.097560    0.007775
  H      2.722203   -0.378244    0.012719
  H      1.917143    0.939487    0.862369
  H      1.920911    0.897630   -0.902117
  H      0.526767   -1.197601   -0.847452
  H      0.522555   -1.158109    0.898953
  H     -0.473772    1.411767   -0.065315

 Total Charge           Charge          ....    0
 Multiplicity           Mult            ....    1
 Number of Electrons    NEL             ....   32
 Basis Dimension        Dim             ....   68

ORBITAL ENERGIES
----------------

  NO   OCC          E(Eh)            E(eV)
   0   2.0000     -18.749716      -510.2057
   1   2.0000      -9.971439      -271.3366
   2   2.0000      -9.901364      -269.4298
   3   2.0000      -9.891444      -269.1599
   4   2.0000      -0.943021       -25.6609
   5   2.0000      -0.716735       -19.5034
   6   2.0000      -0.591666       -16.1001
   7   2.0000      -0.517706       -14.0875
   8   2.0000      -0.426382       -11.6024
   9   2.0000      -0.410604       -11.1731
  10   2.0000      -0.392955       -10.6928
  11   2.0000      -0.351453        -9.5635
  12   2.0000      -0.342369        -9.3163
  13   2.0000      -0.332962        -9.0604
  14   2.0000      -0.307294        -8.3619
  15   2.0000      -0.203820        -5.5462
  16   0.0000      -0.065008        -1.7690
  17   0.0000       0.040425         1.1000
  18   0.0000       0.068742         1.8706
  19   0.0000       0.085738         2.3330
  20   0.0000       0.097859         2.6629

MULLIKEN ATOMIC CHARGES
-----------------------
   0 C :   -0.311417
   1 C :   -0.177290
   2 C :   -0.002624
   3 O :   -0.165816
   4 H :    0.115317
   5 H :    0.115002
   6 H :    0.114859
   7 H :    0.127727
   8 H :    0.126751
   9 H :    0.057492
Sum of atomic charges:   -0.0000000

LOEWDIN ATOMIC CHARGES
----------------------
   0 C :   -0.343494
   1 C :   -0.280639
   2 C :    0.001513
   3 O :   -0.119445
   4 H :    0.127283
   5 H :    0.123305
   6 H :    0.123227
   7 H :    0.146081
   8 H :    0.145353
   9 H :    0.076816

  Mayer bond orders larger than 0.100000
B(  0-C ,  1-C ) :   1.1160 B(  0-C ,  4-H ) :   0.9513 B(  0-C ,  5-H ) :   0.9568
B(  0-C ,  6-H ) :   0.9562 B(  1-C ,  2-C ) :   0.9668 B(  1-C ,  7-H ) :   0.9036
B(  1-C ,  8-H ) :   0.9042 B(  2-C ,  3-O ) :   2.1789 B(  2-C ,  9-H ) :   0.9215

Dispersion correction           -0.005140537
FINAL SINGLE POINT ENERGY      -192.703914234752

DIPOLE MOMENT
-------------

Method             : SCF
Type of density    : Electron Density
Multiplicity       :   1
Irrep              :   0
Energy             :  -192.7386297994928555 Eh
Relativity type    :
Basis              : AO
                                X                 Y                 Z
Electronic contribution:     -5.695035766      -0.404074075       0.027630442
Nuclear contribution   :      6.668039303       0.481642793      -0.038202690
                        -----------------------------------------
Total Dipole Moment    :      0.973003537       0.077568718      -0.010572248
                        -----------------------------------------
Magnitude (a.u.)       :      0.976147817
Magnitude (Debye)      :      2.481170570

Rotational constants in cm-1:             1.101410             0.139412             0.129668
Rotational constants in MHz :         33019.444088          4179.473473          3887.362395

                             ****ORCA TERMINATED NORMALLY****
TOTAL RUN TIME: 0 days 0 hours 0 minutes 4 seconds 115 msec
