                         Program Version 6.0.0  -   RELEASE  -
|  1> ! pbe def2-sv(p) def2/J RI DEFGRID1 loosescf d4 GCP(DFT/SV(P)) printgap
|  2> %output
|  3>     printlevel normal
|  4> end
|  5> * xyz 0 1
|  6> C 2.3715419077 2.6795740435 -0.4074070124
|  7> C 2.6146634116 1.4123367488 -1.203442036
|  8> O 1.6975038355 0.3744292824 -0.796918992
|  9> P 2.0887198214 -0.7505090098 0.2477281007
| 10> S 3.0050545286 -0.1835428556 1.8897091904
| 11> O 2.9495986152 -1.7298995849 -0.6621837707
| 12> C 3.7875272585 -2.7592483707 -0.1045839876
| 13> C 2.9739111895 -3.8689945439 0.5287784653
| 14> S 0.2169274175 -1.679240188 0.4500142665
| 15> C -0.3839752225 -0.649699949 1.8203781808
| 16> S -0.538293458 1.1082546814 1.3857223074
| 17> P -1.8249060757 0.9516077989 -0.2775113774
| 18> S -1.2236264554 0.5358913624 -2.0997681803
| 19> O -2.3743597262 2.4355131812 -0.1098594303
| 20> C -3.0447543728 3.1317870374 -1.1763251968
| 21> C -4.4101193629 2.5391589677 -1.461307756
| 22> O -2.9696691961 -0.0064119526 0.2775925139
| 23> C -3.5481608718 -1.1220978414 -0.4286988093
| 24> C -3.3233022911 -2.4090229868 0.3396644981
| 25> H 2.5782549712 2.5099055128 0.6474347048
| 26> H 3.0205843818 3.4663640839 -0.7778260531
| 27> H 1.3337805957 2.9896514452 -0.5096184624
| 28> H 3.6407790581 1.0559866887 -1.0769254963
| 29> H 2.4044578848 1.5600099508 -2.2646354702
| 30> H 4.3656512272 -3.1159643779 -0.9579147658
| 31> H 4.4531607097 -2.2994332226 0.6331100424
| 32> H 2.4550597263 -3.4929219838 1.4096468308
| 33> H 2.2383048732 -4.2470835538 -0.1767424523
| 34> H 3.6369837728 -4.6745909391 0.8271521419
| 35> H 0.3296906604 -0.6887213301 2.6435643012
| 36> H -1.3523036393 -1.0460194125 2.1156519359
| 37> H -3.1149086529 4.1593811238 -0.8169755157
| 38> H -2.4140469214 3.0909778329 -2.0707264344
| 39> H -4.9920044853 2.4831757113 -0.5448905825
| 40> H -4.9301314862 3.1617211471 -2.1826022514
| 41> H -4.297507863 1.5375753201 -1.8750974465
| 42> H -4.6136423648 -0.8973049417 -0.5128739256
| 43> H -3.1040964059 -1.1758148154 -1.428801896
| 44> H -3.8527094785 -3.2122681901 -0.1624080411
| 45> H -2.2631079035 -2.6539119736 0.3737700547
| 46> H -3.7034942461 -2.3114314561 1.3527757456
| 47> *
| 48>
| 49>                          ****END OF INPUT****

CARTESIAN COORDINATES (ANGSTROEM)
---------------------------------
  C      2.371542    2.679574   -0.407407
  C      2.614663    1.412337   -1.203442
  O      1.697504    0.374429   -0.796919
  P      2.088720   -0.750509    0.247728
  S      3.005055   -0.183543    1.889709
  O      2.949599   -1.729900   -0.662184
  C      3.787527   -2.759248   -0.104584
  C      2.973911   -3.868995    0.528778
  S      0.216927   -1.679240    0.450014
  C     -0.383975   -0.649700    1.820378
  S     -0.538293    1.108255    1.385722
  P     -1.824906    0.951608   -0.277511
  S     -1.223626    0.535891   -2.099768
  O     -2.374360    2.435513   -0.109859
  C     -3.044754    3.131787   -1.176325
  C     -4.410119    2.539159   -1.461308
  O     -2.969669   -0.006412    0.277593
  C     -3.548161   -1.122098   -0.428699
  C     -3.323302   -2.409023    0.339664
  H      2.578255    2.509906    0.647435
  H      3.020584    3.466364   -0.777826
  H      1.333781    2.989651   -0.509618
  H      3.640779    1.055987   -1.076925
  H      2.404458    1.560010   -2.264635
  H      4.365651   -3.115964   -0.957915
  H      4.453161   -2.299433    0.633110
  H      2.455060   -3.492922    1.409647
  H      2.238305   -4.247084   -0.176742
  H      3.636984   -4.674591    0.827152
  H      0.329691   -0.688721    2.643564
  H     -1.352304   -1.046019    2.115652
  H     -3.114909    4.159381   -0.816976
  H     -2.414047    3.090978   -2.070726
  H     -4.992004    2.483176   -0.544891
  H     -4.930131    3.161721   -2.182602
  H     -4.297508    1.537575   -1.875097
  H     -4.613642   -0.897305   -0.512874
  H     -3.104096   -1.175815   -1.428802
  H     -3.852709   -3.212268   -0.162408
  H     -2.263108   -2.653912    0.373770
  H     -3.703494   -2.311431    1.352776

 Total Charge           Charge          ....    0
 Multiplicity           Mult            ....    1
 Number of Electrons    NEL             ....  202
 Basis Dimension        Dim             ....  334

ORBITAL ENERGIES
----------------

  NO   OCC          E(Eh)            E(eV)
   0   2.0000     -88.045162     -2395.8307
   1   2.0000     -88.038117     -2395.6390
   2   2.0000     -87.986332     -2394.2298
   3   2.0000     -87.982590     -2394.1280
   4   2.0000     -76.424408     -2079.6139
   5   2.0000     -76.423094     -2079.5781
   6   2.0000     -18.793506      -511.3973
   7   2.0000     -18.791805      -511.3510
   8   2.0000     -18.787288      -511.2281
   9   2.0000     -18.780057      -511.0313
  10   2.0000      -9.957551      -270.9587
  11   2.0000      -9.953230      -270.8412
  12   2.0000      -9.950782      -270.7745
  13   2.0000      -9.949736      -270.7461
  14   2.0000      -9.944446      -270.6021
  15   2.0000      -9.890745      -269.1409
  16   2.0000      -9.886139      -269.0155
  17   2.0000      -9.884021      -268.9579
  18   2.0000      -9.870572      -268.5919
  19   2.0000      -7.689977      -209.2549
  20   2.0000      -7.683298      -209.0732
  21   2.0000      -7.631300      -207.6582
  22   2.0000      -7.627552      -207.5563
  23   2.0000      -6.421956      -174.7503
  24   2.0000      -6.420486      -174.7103
  25   2.0000      -5.717816      -155.5897
  26   2.0000      -5.714631      -155.5030
  27   2.0000      -5.711485      -155.4174
  28   2.0000      -5.707836      -155.3181
  29   2.0000      -5.706815      -155.2903
  30   2.0000      -5.699856      -155.1010
  31   2.0000      -5.660063      -154.0182
  32   2.0000      -5.656381      -153.9180
  33   2.0000      -5.652131      -153.8023
  34   2.0000      -5.651426      -153.7831
  35   2.0000      -5.648069      -153.6918
  36   2.0000      -5.647904      -153.6873
  37   2.0000      -4.644486      -126.3829
  38   2.0000      -4.643588      -126.3585
  39   2.0000      -4.643210      -126.3482
  40   2.0000      -4.642600      -126.3316
  41   2.0000      -4.642128      -126.3187
  42   2.0000      -4.640943      -126.2865
  43   2.0000      -0.982485       -26.7348
  44   2.0000      -0.981882       -26.7184
  45   2.0000      -0.944755       -25.7081
  46   2.0000      -0.939264       -25.5587
  47   2.0000      -0.765345       -20.8261
  48   2.0000      -0.722191       -19.6518
  49   2.0000      -0.706052       -19.2127
  50   2.0000      -0.689858       -18.7720
  51   2.0000      -0.682067       -18.5600
  52   2.0000      -0.668214       -18.1830
  53   2.0000      -0.649164       -17.6646
  54   2.0000      -0.638879       -17.3848
  55   2.0000      -0.600291       -16.3347
  56   2.0000      -0.590535       -16.0693
  57   2.0000      -0.575057       -15.6481
  58   2.0000      -0.570104       -15.5133
  59   2.0000      -0.555843       -15.1253
  60   2.0000      -0.497848       -13.5471
  61   2.0000      -0.495998       -13.4968
  62   2.0000      -0.477556       -12.9950
  63   2.0000      -0.465771       -12.6743
  64   2.0000      -0.459636       -12.5073
  65   2.0000      -0.439968       -11.9721
  66   2.0000      -0.437055       -11.8929
  67   2.0000      -0.434341       -11.8190
  68   2.0000      -0.426524       -11.6063
  69   2.0000      -0.411689       -11.2026
  70   2.0000      -0.400673       -10.9029
  71   2.0000      -0.396989       -10.8026
  72   2.0000      -0.391489       -10.6530
  73   2.0000      -0.389470       -10.5980
  74   2.0000      -0.378027       -10.2866
  75   2.0000      -0.373236       -10.1563
  76   2.0000      -0.370673       -10.0865
  77   2.0000      -0.360459        -9.8086
  78   2.0000      -0.354846        -9.6558
  79   2.0000      -0.350963        -9.5502
  80   2.0000      -0.345975        -9.4144
  81   2.0000      -0.343675        -9.3519
  82   2.0000      -0.339760        -9.2453
  83   2.0000      -0.335618        -9.1326
  84   2.0000      -0.331512        -9.0209
  85   2.0000      -0.319511        -8.6943
  86   2.0000      -0.305993        -8.3265
  87   2.0000      -0.294878        -8.0240
  88   2.0000      -0.293100        -7.9757
  89   2.0000      -0.283680        -7.7193
  90   2.0000      -0.280497        -7.6327
  91   2.0000      -0.275018        -7.4836
  92   2.0000      -0.270820        -7.3694
  93   2.0000      -0.263211        -7.1623
  94   2.0000      -0.260001        -7.0750
  95   2.0000      -0.236024        -6.4225
  96   2.0000      -0.214869        -5.8469
  97   2.0000      -0.208701        -5.6790
  98   2.0000      -0.201347        -5.4789
  99   2.0000      -0.195524        -5.3205
 100   2.0000      -0.193831        -5.2744
 101   0.0000      -0.050110        -1.3636
 102   0.0000      -0.027201        -0.7402
 103   0.0000      -0.003487        -0.0949
 104   0.0000       0.001845         0.0502
 105   0.0000       0.020178         0.5491

MULLIKEN ATOMIC CHARGES
-----------------------
   0 C :   -0.292969
   1 C :    0.003260
   2 O :   -0.346872
   3 P :    0.630355
   4 S :   -0.341769
   5 O :   -0.371038
   6 C :   -0.004337
   7 C :   -0.315822
   8 S :   -0.097646
   9 C :   -0.365858
  10 S :   -0.062372
  11 P :    0.628497
  12 S :   -0.312299
  13 O :   -0.378974
  14 C :   -0.003621
  15 C :   -0.316519
  16 O :   -0.385026
  17 C :   -0.018604
  18 C :   -0.306018
  19 H :    0.126343
  20 H :    0.101901
  21 H :    0.116356
  22 H :    0.096455
  23 H :    0.108399
  24 H :    0.105590
  25 H :    0.111803
  26 H :    0.123894
  27 H :    0.117862
  28 H :    0.113201
  29 H :    0.192376
  30 H :    0.188271
  31 H :    0.105316
  32 H :    0.111297
  33 H :    0.117968
  34 H :    0.113492
  35 H :    0.121623
  36 H :    0.104121
  37 H :    0.115885
  38 H :    0.114150
  39 H :    0.132341
  40 H :    0.118987
Sum of atomic charges:    0.0000000

LOEWDIN ATOMIC CHARGES
----------------------
   0 C :   -0.362389
   1 C :   -0.109563
   2 O :   -0.231792
   3 P :    0.573177
   4 S :   -0.327482
   5 O :   -0.243866
   6 C :   -0.120207
   7 C :   -0.369278
   8 S :    0.099428
   9 C :   -0.477888
  10 S :    0.110307
  11 P :    0.563343
  12 S :   -0.303769
  13 O :   -0.250027
  14 C :   -0.120383
  15 C :   -0.365551
  16 O :   -0.251811
  17 C :   -0.121856
  18 C :   -0.360102
  19 H :    0.123676
  20 H :    0.125128
  21 H :    0.122529
  22 H :    0.106852
  23 H :    0.120299
  24 H :    0.118923
  25 H :    0.110080
  26 H :    0.119943
  27 H :    0.124515
  28 H :    0.131142
  29 H :    0.132192
  30 H :    0.131475
  31 H :    0.118882
  32 H :    0.109190
  33 H :    0.126310
  34 H :    0.131247
  35 H :    0.120705
  36 H :    0.114772
  37 H :    0.107590
  38 H :    0.133408
  39 H :    0.115712
  40 H :    0.125141

  Mayer bond orders larger than 0.100000
B(  0-C ,  1-C ) :   1.1717 B(  0-C , 19-H ) :   0.9363 B(  0-C , 20-H ) :   0.9402
B(  0-C , 21-H ) :   0.9436 B(  1-C ,  2-O ) :   0.8948 B(  1-C , 22-H ) :   0.9185
B(  1-C , 23-H ) :   0.9316 B(  2-O ,  3-P ) :   1.1496 B(  3-P ,  4-S ) :   1.5882
B(  3-P ,  5-O ) :   1.1113 B(  3-P ,  8-S ) :   0.9478 B(  4-S ,  8-S ) :   0.1082
B(  5-O ,  6-C ) :   0.9086 B(  6-C ,  7-C ) :   1.1647 B(  6-C , 24-H ) :   0.9334
B(  6-C , 25-H ) :   0.9140 B(  7-C , 26-H ) :   0.9352 B(  7-C , 27-H ) :   0.9453
B(  7-C , 28-H ) :   0.9382 B(  8-S ,  9-C ) :   1.0053 B(  9-C , 10-S ) :   1.0058
B(  9-C , 29-H ) :   0.8855 B(  9-C , 30-H ) :   0.8977 B( 10-S , 11-P ) :   0.9628
B( 10-S , 12-S ) :   0.1067 B( 11-P , 12-S ) :   1.6183 B( 11-P , 13-O ) :   1.1084
B( 11-P , 16-O ) :   1.0894 B( 13-O , 14-C ) :   0.9162 B( 14-C , 15-C ) :   1.1611
B( 14-C , 31-H ) :   0.9340 B( 14-C , 32-H ) :   0.9131 B( 15-C , 33-H ) :   0.9464
B( 15-C , 34-H ) :   0.9391 B( 15-C , 35-H ) :   0.9334 B( 16-O , 17-C ) :   0.9090
B( 17-C , 18-C ) :   1.1675 B( 17-C , 36-H ) :   0.9305 B( 17-C , 37-H ) :   0.8958
B( 18-C , 38-H ) :   0.9373 B( 18-C , 39-H ) :   0.9310 B( 18-C , 40-H ) :   0.9437

Dispersion correction           -0.067787236
FINAL SINGLE POINT ENERGY     -2929.520940956618

DIPOLE MOMENT
-------------

Method             : SCF
Type of density    : Electron Density
Multiplicity       :   1
Irrep              :   0
Energy             : -2929.6375787682709415 Eh
Relativity type    :
Basis              : AO
                                X                 Y                 Z
Electronic contribution:      7.212411792       3.218612152       4.730597861
Nuclear contribution   :     -7.963719126      -3.723179098      -5.063420055
                        -----------------------------------------
Total Dipole Moment    :     -0.751307334      -0.504566946      -0.332822194
                        -----------------------------------------
Magnitude (a.u.)       :      0.964272330
Magnitude (Debye)      :      2.450985479

Rotational constants in cm-1:             0.012793             0.005481             0.004731
Rotational constants in MHz :           383.538944           164.305493           141.840930

                             ****ORCA TERMINATED NORMALLY****
TOTAL RUN TIME: 0 days 0 hours 0 minutes 21 seconds 182 msec
