                         Program Version 6.0.0  -   RELEASE  -
|  1> ! r2scan-3c def2/J RI DEFGRID2 scfconv6 printgap
|  2> %output
|  3>     printlevel normal
|  4> end
|  5> * xyz 0 1
|  6> C 2.8139066691 -2.6040795243 1.869917496
|  7> C 1.5624381642 -2.1138621847 1.1706695746
|  8> O 1.6276837466 -0.6934654142 0.9545953739
|  9> P 2.325076453 -0.0248692645 -0.3184325324
| 10> S 2.9757322166 -1.2464637585 -1.6937878033
| 11> O 3.4885545332 0.862638273 0.2816887634
| 12> C 3.3578026369 1.7015200497 1.4569385775
| 13> C 3.0349717978 3.1322020947 1.0760367163
| 14> S 0.8606782959 1.3819617353 -0.9424485596
| 15> C -0.0393336651 0.2751899194 -2.0559636444
| 16> S -0.8036427781 -1.1361048598 -1.2116132308
| 17> P -2.0889862219 -0.0014776353 0.0280632341
| 18> S -2.8828624044 1.6172631445 -0.748970223
| 19> O -1.1458150195 0.1985251613 1.2839685146
| 20> C -1.3006219782 1.3052157578 2.1945053807
| 21> C -2.5659528319 1.1796010586 3.0165404573
| 22> O -3.1271777444 -1.0652065763 0.5886151188
| 23> C -4.3724540116 -1.3527948444 -0.0707382285
| 24> C -4.1685530483 -2.0769726675 -1.3858734657
| 25> H 3.6811584718 -2.4213856822 1.2366327287
| 26> H 2.9500528132 -2.0852022678 2.814863279
| 27> H 2.7283509215 -3.670364767 2.0527849888
| 28> H 0.6670287798 -2.2568613425 1.778170411
| 29> H 1.435790951 -2.6166836272 0.2067617936
| 30> H 2.5908657524 1.2785790419 2.1091935084
| 31> H 4.3344487388 1.6331216856 1.9392380373
| 32> H 2.0567259362 3.1939758196 0.6032011598
| 33> H 3.0366128488 3.7462195032 1.9712258275
| 34> H 3.7800738271 3.509034494 0.3809667388
| 35> H 0.6498404153 -0.1415149717 -2.7900016997
| 36> H -0.8109999271 0.880578695 -2.5305025386
| 37> H -0.4052371599 1.2603335747 2.8161264356
| 38> H -1.3031602196 2.2338740711 1.6144774565
| 39> H -2.5912830541 0.2193418194 3.5249244205
| 40> H -2.601572658 1.9799723942 3.7488990193
| 41> H -3.4364202534 1.2562380009 2.3658545895
| 42> H -4.9138588228 -1.9685018947 0.648713474
| 43> H -4.9045435126 -0.4094829209 -0.2306549054
| 44> H -3.6811499085 -1.4181878654 -2.1034854577
| 45> H -3.5456544879 -2.9561985306 -1.2412835512
| 46> H -5.1322677606 -2.3783079137 -1.7837845139
| 47> *
| 48>
| 49>                          ****END OF INPUT****

CARTESIAN COORDINATES (ANGSTROEM)
---------------------------------
  C      2.813907   -2.604080    1.869917
  C      1.562438   -2.113862    1.170670
  O      1.627684   -0.693465    0.954595
  P      2.325076   -0.024869   -0.318433
  S      2.975732   -1.246464   -1.693788
  O      3.488555    0.862638    0.281689
  C      3.357803    1.701520    1.456939
  C      3.034972    3.132202    1.076037
  S      0.860678    1.381962   -0.942449
  C     -0.039334    0.275190   -2.055964
  S     -0.803643   -1.136105   -1.211613
  P     -2.088986   -0.001478    0.028063
  S     -2.882862    1.617263   -0.748970
  O     -1.145815    0.198525    1.283969
  C     -1.300622    1.305216    2.194505
  C     -2.565953    1.179601    3.016540
  O     -3.127178   -1.065207    0.588615
  C     -4.372454   -1.352795   -0.070738
  C     -4.168553   -2.076973   -1.385873
  H      3.681158   -2.421386    1.236633
  H      2.950053   -2.085202    2.814863
  H      2.728351   -3.670365    2.052785
  H      0.667029   -2.256861    1.778170
  H      1.435791   -2.616684    0.206762
  H      2.590866    1.278579    2.109194
  H      4.334449    1.633122    1.939238
  H      2.056726    3.193976    0.603201
  H      3.036613    3.746220    1.971226
  H      3.780074    3.509034    0.380967
  H      0.649840   -0.141515   -2.790002
  H     -0.811000    0.880579   -2.530503
  H     -0.405237    1.260334    2.816126
  H     -1.303160    2.233874    1.614477
  H     -2.591283    0.219342    3.524924
  H     -2.601573    1.979972    3.748899
  H     -3.436420    1.256238    2.365855
  H     -4.913859   -1.968502    0.648713
  H     -4.904544   -0.409483   -0.230655
  H     -3.681150   -1.418188   -2.103485
  H     -3.545654   -2.956199   -1.241284
  H     -5.132268   -2.378308   -1.783785

 Total Charge           Charge          ....    0
 Multiplicity           Mult            ....    1
 Number of Electrons    NEL             ....  202
 Basis Dimension        Dim             ....  539

ORBITAL ENERGIES
----------------

  NO   OCC          E(Eh)            E(eV)
   0   2.0000     -88.575334     -2410.2574
   1   2.0000     -88.571960     -2410.1656
   2   2.0000     -88.524203     -2408.8660
   3   2.0000     -88.518543     -2408.7120
   4   2.0000     -76.915518     -2092.9777
   5   2.0000     -76.912864     -2092.9054
   6   2.0000     -18.995560      -516.8955
   7   2.0000     -18.992344      -516.8080
   8   2.0000     -18.988711      -516.7091
   9   2.0000     -18.984900      -516.6054
  10   2.0000     -10.106325      -275.0071
  11   2.0000     -10.104735      -274.9638
  12   2.0000     -10.101222      -274.8682
  13   2.0000     -10.099195      -274.8131
  14   2.0000     -10.091949      -274.6159
  15   2.0000     -10.035813      -273.0883
  16   2.0000     -10.030838      -272.9530
  17   2.0000     -10.030601      -272.9465
  18   2.0000     -10.026019      -272.8218
  19   2.0000      -7.869758      -214.1470
  20   2.0000      -7.866389      -214.0553
  21   2.0000      -7.818948      -212.7644
  22   2.0000      -7.813442      -212.6146
  23   2.0000      -6.594117      -179.4351
  24   2.0000      -6.591008      -179.3505
  25   2.0000      -5.816636      -158.2787
  26   2.0000      -5.813703      -158.1989
  27   2.0000      -5.813273      -158.1872
  28   2.0000      -5.810298      -158.1062
  29   2.0000      -5.806773      -158.0103
  30   2.0000      -5.803420      -157.9191
  31   2.0000      -5.766531      -156.9153
  32   2.0000      -5.761199      -156.7702
  33   2.0000      -5.759244      -156.7170
  34   2.0000      -5.759006      -156.7105
  35   2.0000      -5.753650      -156.5648
  36   2.0000      -5.753378      -156.5574
  37   2.0000      -4.739457      -128.9672
  38   2.0000      -4.738995      -128.9546
  39   2.0000      -4.738037      -128.9285
  40   2.0000      -4.736885      -128.8972
  41   2.0000      -4.735553      -128.8609
  42   2.0000      -4.734823      -128.8411
  43   2.0000      -1.051810       -28.6212
  44   2.0000      -1.046380       -28.4734
  45   2.0000      -1.012643       -27.5554
  46   2.0000      -1.006243       -27.3813
  47   2.0000      -0.802132       -21.8271
  48   2.0000      -0.759703       -20.6726
  49   2.0000      -0.751005       -20.4359
  50   2.0000      -0.733854       -19.9692
  51   2.0000      -0.732672       -19.9370
  52   2.0000      -0.710998       -19.3472
  53   2.0000      -0.687775       -18.7153
  54   2.0000      -0.669723       -18.2241
  55   2.0000      -0.634740       -17.2721
  56   2.0000      -0.620436       -16.8829
  57   2.0000      -0.611320       -16.6349
  58   2.0000      -0.607217       -16.5232
  59   2.0000      -0.591667       -16.1001
  60   2.0000      -0.526426       -14.3248
  61   2.0000      -0.518691       -14.1143
  62   2.0000      -0.497199       -13.5295
  63   2.0000      -0.493999       -13.4424
  64   2.0000      -0.473315       -12.8795
  65   2.0000      -0.466090       -12.6830
  66   2.0000      -0.460763       -12.5380
  67   2.0000      -0.455811       -12.4033
  68   2.0000      -0.444410       -12.0930
  69   2.0000      -0.433649       -11.8002
  70   2.0000      -0.424713       -11.5570
  71   2.0000      -0.414056       -11.2670
  72   2.0000      -0.408549       -11.1172
  73   2.0000      -0.406697       -11.0668
  74   2.0000      -0.392558       -10.6820
  75   2.0000      -0.390419       -10.6238
  76   2.0000      -0.385725       -10.4961
  77   2.0000      -0.376086       -10.2338
  78   2.0000      -0.373034       -10.1508
  79   2.0000      -0.372559       -10.1379
  80   2.0000      -0.365794        -9.9538
  81   2.0000      -0.363753        -9.8982
  82   2.0000      -0.360157        -9.8004
  83   2.0000      -0.355006        -9.6602
  84   2.0000      -0.346955        -9.4411
  85   2.0000      -0.335278        -9.1234
  86   2.0000      -0.325207        -8.8493
  87   2.0000      -0.316130        -8.6023
  88   2.0000      -0.311398        -8.4736
  89   2.0000      -0.301446        -8.2028
  90   2.0000      -0.296566        -8.0700
  91   2.0000      -0.292012        -7.9460
  92   2.0000      -0.285116        -7.7584
  93   2.0000      -0.281118        -7.6496
  94   2.0000      -0.270990        -7.3740
  95   2.0000      -0.244167        -6.6441
  96   2.0000      -0.229837        -6.2542
  97   2.0000      -0.227550        -6.1920
  98   2.0000      -0.222248        -6.0477
  99   2.0000      -0.215147        -5.8545
 100   2.0000      -0.210787        -5.7358
 101   0.0000      -0.047633        -1.2962
 102   0.0000      -0.024111        -0.6561
 103   0.0000      -0.001105        -0.0301
 104   0.0000       0.004395         0.1196
 105   0.0000       0.007741         0.2106

MULLIKEN ATOMIC CHARGES
-----------------------
   0 C :   -0.454453
   1 C :   -0.152227
   2 O :   -0.269641
   3 P :    0.691989
   4 S :   -0.454358
   5 O :   -0.287277
   6 C :   -0.171840
   7 C :   -0.418618
   8 S :   -0.155605
   9 C :   -0.238246
  10 S :   -0.130901
  11 P :    0.688773
  12 S :   -0.481957
  13 O :   -0.254093
  14 C :   -0.163863
  15 C :   -0.445369
  16 O :   -0.304208
  17 C :   -0.152041
  18 C :   -0.449345
  19 H :    0.171668
  20 H :    0.145791
  21 H :    0.146250
  22 H :    0.160362
  23 H :    0.177095
  24 H :    0.161978
  25 H :    0.153886
  26 H :    0.153823
  27 H :    0.147463
  28 H :    0.163234
  29 H :    0.212159
  30 H :    0.211549
  31 H :    0.149100
  32 H :    0.176783
  33 H :    0.155253
  34 H :    0.146478
  35 H :    0.169140
  36 H :    0.148502
  37 H :    0.171767
  38 H :    0.176694
  39 H :    0.155665
  40 H :    0.148637
Sum of atomic charges:   -0.0000000

LOEWDIN ATOMIC CHARGES
----------------------
   0 C :   -0.398367
   1 C :    0.005391
   2 O :   -0.690145
   3 P :    0.384542
   4 S :   -0.099737
   5 O :   -0.650703
   6 C :    0.025141
   7 C :   -0.397557
   8 S :    0.153518
   9 C :   -0.420016
  10 S :    0.178005
  11 P :    0.381744
  12 S :   -0.128847
  13 O :   -0.673027
  14 C :    0.015955
  15 C :   -0.399327
  16 O :   -0.660384
  17 C :    0.019836
  18 C :   -0.406431
  19 H :    0.165800
  20 H :    0.154872
  21 H :    0.159571
  22 H :    0.180326
  23 H :    0.182649
  24 H :    0.178094
  25 H :    0.181571
  26 H :    0.163032
  27 H :    0.159367
  28 H :    0.164300
  29 H :    0.191723
  30 H :    0.189756
  31 H :    0.178624
  32 H :    0.181384
  33 H :    0.160234
  34 H :    0.159149
  35 H :    0.165232
  36 H :    0.179548
  37 H :    0.179556
  38 H :    0.165568
  39 H :    0.160465
  40 H :    0.159591

  Mayer bond orders larger than 0.100000
B(  0-C ,  1-C ) :   0.9302 B(  0-C , 19-H ) :   0.9644 B(  0-C , 20-H ) :   0.9771
B(  0-C , 21-H ) :   0.9649 B(  1-C ,  2-O ) :   0.7616 B(  1-C , 22-H ) :   0.9647
B(  1-C , 23-H ) :   0.9544 B(  2-O ,  3-P ) :   1.0392 B(  3-P ,  4-S ) :   1.8346
B(  3-P ,  5-O ) :   1.1405 B(  3-P ,  8-S ) :   1.0219 B(  5-O ,  6-C ) :   0.7620
B(  6-C ,  7-C ) :   0.9581 B(  6-C , 24-H ) :   0.9700 B(  6-C , 25-H ) :   0.9612
B(  7-C , 26-H ) :   0.9511 B(  7-C , 27-H ) :   0.9660 B(  7-C , 28-H ) :   0.9706
B(  8-S ,  9-C ) :   0.8986 B(  9-C , 10-S ) :   0.8887 B(  9-C , 29-H ) :   0.9095
B(  9-C , 30-H ) :   0.9132 B( 10-S , 11-P ) :   1.0869 B( 11-P , 12-S ) :   1.7459
B( 11-P , 13-O ) :   1.1459 B( 11-P , 16-O ) :   1.0671 B( 13-O , 14-C ) :   0.7914
B( 14-C , 15-C ) :   0.9247 B( 14-C , 31-H ) :   0.9625 B( 14-C , 32-H ) :   0.9634
B( 15-C , 33-H ) :   0.9727 B( 15-C , 34-H ) :   0.9625 B( 15-C , 35-H ) :   0.9602
B( 16-O , 17-C ) :   0.8124 B( 17-C , 18-C ) :   0.9238 B( 17-C , 36-H ) :   0.9581
B( 17-C , 37-H ) :   0.9672 B( 18-C , 38-H ) :   0.9625 B( 18-C , 39-H ) :   0.9683
B( 18-C , 40-H ) :   0.9589

Dispersion correction           -0.022102580
FINAL SINGLE POINT ENERGY     -2932.460962130709

DIPOLE MOMENT
-------------

Method             : SCF
Type of density    : Electron Density
Multiplicity       :   1
Irrep              :   0
Energy             : -2932.4854152958473605 Eh
Relativity type    :
Basis              : AO
                                X                 Y                 Z
Electronic contribution:      4.622961144       0.979608427     -16.664519912
Nuclear contribution   :     -5.283184959      -1.066108493      18.387958913
                        -----------------------------------------
Total Dipole Moment    :     -0.660223815      -0.086500065       1.723439001
                        -----------------------------------------
Magnitude (a.u.)       :      1.847598371
Magnitude (Debye)      :      4.696221843

Rotational constants in cm-1:             0.011616             0.005564             0.005100
Rotational constants in MHz :           348.226885           166.812872           152.884880

                             ****ORCA TERMINATED NORMALLY****
TOTAL RUN TIME: 0 days 0 hours 1 minutes 26 seconds 640 msec
