                         Program Version 6.0.0  -   RELEASE  -
|  1> ! r2scan-3c def2/J RI DEFGRID2 scfconv6 printgap
|  2> %output
|  3>     printlevel normal
|  4> end
|  5> %cpcm
|  6>     smd true
|  7>     smdsolvent "water"
|  8> end
|  9> * xyz 0 1
| 10> C 2.8139066691 -2.6040795243 1.869917496
| 11> C 1.5624381642 -2.1138621847 1.1706695746
| 12> O 1.6276837466 -0.6934654142 0.9545953739
| 13> P 2.325076453 -0.0248692645 -0.3184325324
| 14> S 2.9757322166 -1.2464637585 -1.6937878033
| 15> O 3.4885545332 0.862638273 0.2816887634
| 16> C 3.3578026369 1.7015200497 1.4569385775
| 17> C 3.0349717978 3.1322020947 1.0760367163
| 18> S 0.8606782959 1.3819617353 -0.9424485596
| 19> C -0.0393336651 0.2751899194 -2.0559636444
| 20> S -0.8036427781 -1.1361048598 -1.2116132308
| 21> P -2.0889862219 -0.0014776353 0.0280632341
| 22> S -2.8828624044 1.6172631445 -0.748970223
| 23> O -1.1458150195 0.1985251613 1.2839685146
| 24> C -1.3006219782 1.3052157578 2.1945053807
| 25> C -2.5659528319 1.1796010586 3.0165404573
| 26> O -3.1271777444 -1.0652065763 0.5886151188
| 27> C -4.3724540116 -1.3527948444 -0.0707382285
| 28> C -4.1685530483 -2.0769726675 -1.3858734657
| 29> H 3.6811584718 -2.4213856822 1.2366327287
| 30> H 2.9500528132 -2.0852022678 2.814863279
| 31> H 2.7283509215 -3.670364767 2.0527849888
| 32> H 0.6670287798 -2.2568613425 1.778170411
| 33> H 1.435790951 -2.6166836272 0.2067617936
| 34> H 2.5908657524 1.2785790419 2.1091935084
| 35> H 4.3344487388 1.6331216856 1.9392380373
| 36> H 2.0567259362 3.1939758196 0.6032011598
| 37> H 3.0366128488 3.7462195032 1.9712258275
| 38> H 3.7800738271 3.509034494 0.3809667388
| 39> H 0.6498404153 -0.1415149717 -2.7900016997
| 40> H -0.8109999271 0.880578695 -2.5305025386
| 41> H -0.4052371599 1.2603335747 2.8161264356
| 42> H -1.3031602196 2.2338740711 1.6144774565
| 43> H -2.5912830541 0.2193418194 3.5249244205
| 44> H -2.601572658 1.9799723942 3.7488990193
| 45> H -3.4364202534 1.2562380009 2.3658545895
| 46> H -4.9138588228 -1.9685018947 0.648713474
| 47> H -4.9045435126 -0.4094829209 -0.2306549054
| 48> H -3.6811499085 -1.4181878654 -2.1034854577
| 49> H -3.5456544879 -2.9561985306 -1.2412835512
| 50> H -5.1322677606 -2.3783079137 -1.7837845139
| 51> *
| 52>
| 53>                          ****END OF INPUT****

CARTESIAN COORDINATES (ANGSTROEM)
---------------------------------
  C      2.813907   -2.604080    1.869917
  C      1.562438   -2.113862    1.170670
  O      1.627684   -0.693465    0.954595
  P      2.325076   -0.024869   -0.318433
  S      2.975732   -1.246464   -1.693788
  O      3.488555    0.862638    0.281689
  C      3.357803    1.701520    1.456939
  C      3.034972    3.132202    1.076037
  S      0.860678    1.381962   -0.942449
  C     -0.039334    0.275190   -2.055964
  S     -0.803643   -1.136105   -1.211613
  P     -2.088986   -0.001478    0.028063
  S     -2.882862    1.617263   -0.748970
  O     -1.145815    0.198525    1.283969
  C     -1.300622    1.305216    2.194505
  C     -2.565953    1.179601    3.016540
  O     -3.127178   -1.065207    0.588615
  C     -4.372454   -1.352795   -0.070738
  C     -4.168553   -2.076973   -1.385873
  H      3.681158   -2.421386    1.236633
  H      2.950053   -2.085202    2.814863
  H      2.728351   -3.670365    2.052785
  H      0.667029   -2.256861    1.778170
  H      1.435791   -2.616684    0.206762
  H      2.590866    1.278579    2.109194
  H      4.334449    1.633122    1.939238
  H      2.056726    3.193976    0.603201
  H      3.036613    3.746220    1.971226
  H      3.780074    3.509034    0.380967
  H      0.649840   -0.141515   -2.790002
  H     -0.811000    0.880579   -2.530503
  H     -0.405237    1.260334    2.816126
  H     -1.303160    2.233874    1.614477
  H     -2.591283    0.219342    3.524924
  H     -2.601573    1.979972    3.748899
  H     -3.436420    1.256238    2.365855
  H     -4.913859   -1.968502    0.648713
  H     -4.904544   -0.409483   -0.230655
  H     -3.681150   -1.418188   -2.103485
  H     -3.545654   -2.956199   -1.241284
  H     -5.132268   -2.378308   -1.783785

 Total Charge           Charge          ....    0
 Multiplicity           Mult            ....    1
 Number of Electrons    NEL             ....  202
 Basis Dimension        Dim             ....  539

ORBITAL ENERGIES
----------------

  NO   OCC          E(Eh)            E(eV)
   0   2.0000     -88.577737     -2410.3228
   1   2.0000     -88.576856     -2410.2988
   2   2.0000     -88.529765     -2409.0174
   3   2.0000     -88.528924     -2408.9945
   4   2.0000     -76.920121     -2093.1029
   5   2.0000     -76.918545     -2093.0600
   6   2.0000     -18.995801      -516.9020
   7   2.0000     -18.995513      -516.8942
   8   2.0000     -18.990155      -516.7484
   9   2.0000     -18.988588      -516.7057
  10   2.0000     -10.104248      -274.9506
  11   2.0000     -10.092868      -274.6409
  12   2.0000     -10.089834      -274.5583
  13   2.0000     -10.088605      -274.5249
  14   2.0000     -10.086796      -274.4757
  15   2.0000     -10.021082      -272.6875
  16   2.0000     -10.018617      -272.6204
  17   2.0000     -10.018279      -272.6112
  18   2.0000     -10.016868      -272.5728
  19   2.0000      -7.872204      -214.2136
  20   2.0000      -7.871269      -214.1881
  21   2.0000      -7.825025      -212.9297
  22   2.0000      -7.823939      -212.9002
  23   2.0000      -6.598292      -179.5487
  24   2.0000      -6.597182      -179.5184
  25   2.0000      -5.819071      -158.3450
  26   2.0000      -5.818119      -158.3191
  27   2.0000      -5.816149      -158.2655
  28   2.0000      -5.815147      -158.2382
  29   2.0000      -5.809225      -158.0771
  30   2.0000      -5.808373      -158.0539
  31   2.0000      -5.772673      -157.0824
  32   2.0000      -5.771476      -157.0498
  33   2.0000      -5.765213      -156.8794
  34   2.0000      -5.765018      -156.8741
  35   2.0000      -5.764219      -156.8524
  36   2.0000      -5.764010      -156.8467
  37   2.0000      -4.744119      -129.0940
  38   2.0000      -4.742816      -129.0586
  39   2.0000      -4.742477      -129.0494
  40   2.0000      -4.742221      -129.0424
  41   2.0000      -4.742064      -129.0381
  42   2.0000      -4.741166      -129.0137
  43   2.0000      -1.052302       -28.6346
  44   2.0000      -1.049280       -28.5523
  45   2.0000      -1.012574       -27.5535
  46   2.0000      -1.008781       -27.4503
  47   2.0000      -0.804206       -21.8836
  48   2.0000      -0.756038       -20.5728
  49   2.0000      -0.743619       -20.2349
  50   2.0000      -0.725888       -19.7524
  51   2.0000      -0.722890       -19.6708
  52   2.0000      -0.709429       -19.3046
  53   2.0000      -0.690496       -18.7893
  54   2.0000      -0.675384       -18.3781
  55   2.0000      -0.632051       -17.1990
  56   2.0000      -0.617811       -16.8115
  57   2.0000      -0.604217       -16.4416
  58   2.0000      -0.598651       -16.2901
  59   2.0000      -0.589924       -16.0526
  60   2.0000      -0.522760       -14.2250
  61   2.0000      -0.513299       -13.9676
  62   2.0000      -0.493716       -13.4347
  63   2.0000      -0.489407       -13.3174
  64   2.0000      -0.472580       -12.8595
  65   2.0000      -0.461217       -12.5504
  66   2.0000      -0.454616       -12.3707
  67   2.0000      -0.450922       -12.2702
  68   2.0000      -0.439513       -11.9598
  69   2.0000      -0.429919       -11.6987
  70   2.0000      -0.421019       -11.4565
  71   2.0000      -0.408728       -11.1220
  72   2.0000      -0.404747       -11.0137
  73   2.0000      -0.402736       -10.9590
  74   2.0000      -0.392736       -10.6869
  75   2.0000      -0.386881       -10.5276
  76   2.0000      -0.382686       -10.4134
  77   2.0000      -0.371414       -10.1067
  78   2.0000      -0.365762        -9.9529
  79   2.0000      -0.362416        -9.8618
  80   2.0000      -0.358555        -9.7568
  81   2.0000      -0.353299        -9.6138
  82   2.0000      -0.352386        -9.5889
  83   2.0000      -0.347253        -9.4492
  84   2.0000      -0.343628        -9.3506
  85   2.0000      -0.332108        -9.0371
  86   2.0000      -0.321038        -8.7359
  87   2.0000      -0.309183        -8.4133
  88   2.0000      -0.304508        -8.2861
  89   2.0000      -0.298744        -8.1292
  90   2.0000      -0.295556        -8.0425
  91   2.0000      -0.290076        -7.8934
  92   2.0000      -0.284586        -7.7440
  93   2.0000      -0.279607        -7.6085
  94   2.0000      -0.272387        -7.4120
  95   2.0000      -0.247851        -6.7444
  96   2.0000      -0.237607        -6.4656
  97   2.0000      -0.235578        -6.4104
  98   2.0000      -0.229662        -6.2494
  99   2.0000      -0.222903        -6.0655
 100   2.0000      -0.218937        -5.9576
 101   0.0000      -0.052125        -1.4184
 102   0.0000      -0.030129        -0.8199
 103   0.0000      -0.004298        -0.1170
 104   0.0000      -0.000182        -0.0050
 105   0.0000       0.008192         0.2229

MULLIKEN ATOMIC CHARGES
-----------------------
   0 C :   -0.491789
   1 C :   -0.134075
   2 O :   -0.288339
   3 P :    0.701998
   4 S :   -0.508186
   5 O :   -0.323011
   6 C :   -0.160034
   7 C :   -0.458018
   8 S :   -0.168452
   9 C :   -0.250866
  10 S :   -0.138468
  11 P :    0.727918
  12 S :   -0.525720
  13 O :   -0.287153
  14 C :   -0.154452
  15 C :   -0.487148
  16 O :   -0.330674
  17 C :   -0.152871
  18 C :   -0.486056
  19 H :    0.165496
  20 H :    0.166056
  21 H :    0.169388
  22 H :    0.179160
  23 H :    0.175239
  24 H :    0.181523
  25 H :    0.177737
  26 H :    0.152648
  27 H :    0.174579
  28 H :    0.172971
  29 H :    0.231143
  30 H :    0.234477
  31 H :    0.178685
  32 H :    0.178345
  33 H :    0.169594
  34 H :    0.171821
  35 H :    0.168132
  36 H :    0.175474
  37 H :    0.178069
  38 H :    0.172642
  39 H :    0.169313
  40 H :    0.172904
Sum of atomic charges:   -0.0000000

LOEWDIN ATOMIC CHARGES
----------------------
   0 C :   -0.400914
   1 C :    0.010092
   2 O :   -0.696425
   3 P :    0.385074
   4 S :   -0.140015
   5 O :   -0.671714
   6 C :    0.033681
   7 C :   -0.399521
   8 S :    0.148538
   9 C :   -0.415289
  10 S :    0.174493
  11 P :    0.387139
  12 S :   -0.154826
  13 O :   -0.688367
  14 C :    0.021469
  15 C :   -0.402750
  16 O :   -0.671362
  17 C :    0.025484
  18 C :   -0.409865
  19 H :    0.161917
  20 H :    0.162103
  21 H :    0.167699
  22 H :    0.188162
  23 H :    0.181834
  24 H :    0.186899
  25 H :    0.192100
  26 H :    0.160630
  27 H :    0.170701
  28 H :    0.165241
  29 H :    0.196891
  30 H :    0.196884
  31 H :    0.190564
  32 H :    0.182324
  33 H :    0.163933
  34 H :    0.168591
  35 H :    0.162468
  36 H :    0.190995
  37 H :    0.181578
  38 H :    0.161529
  39 H :    0.163643
  40 H :    0.168394

  Mayer bond orders larger than 0.100000
B(  0-C ,  1-C ) :   0.9297 B(  0-C , 19-H ) :   0.9661 B(  0-C , 20-H ) :   0.9719
B(  0-C , 21-H ) :   0.9601 B(  1-C ,  2-O ) :   0.7481 B(  1-C , 22-H ) :   0.9539
B(  1-C , 23-H ) :   0.9515 B(  2-O ,  3-P ) :   1.0469 B(  3-P ,  4-S ) :   1.8117
B(  3-P ,  5-O ) :   1.1469 B(  3-P ,  8-S ) :   1.0381 B(  5-O ,  6-C ) :   0.7522
B(  6-C ,  7-C ) :   0.9469 B(  6-C , 24-H ) :   0.9579 B(  6-C , 25-H ) :   0.9515
B(  7-C , 26-H ) :   0.9511 B(  7-C , 27-H ) :   0.9586 B(  7-C , 28-H ) :   0.9710
B(  8-S ,  9-C ) :   0.8850 B(  9-C , 10-S ) :   0.8815 B(  9-C , 29-H ) :   0.9051
B(  9-C , 30-H ) :   0.9067 B( 10-S , 11-P ) :   1.0956 B( 11-P , 12-S ) :   1.7061
B( 11-P , 13-O ) :   1.1518 B( 11-P , 16-O ) :   1.0757 B( 13-O , 14-C ) :   0.7797
B( 14-C , 15-C ) :   0.9138 B( 14-C , 31-H ) :   0.9515 B( 14-C , 32-H ) :   0.9588
B( 15-C , 33-H ) :   0.9712 B( 15-C , 34-H ) :   0.9566 B( 15-C , 35-H ) :   0.9599
B( 16-O , 17-C ) :   0.8005 B( 17-C , 18-C ) :   0.9105 B( 17-C , 36-H ) :   0.9484
B( 17-C , 37-H ) :   0.9659 B( 18-C , 38-H ) :   0.9637 B( 18-C , 39-H ) :   0.9656
B( 18-C , 40-H ) :   0.9536

Dispersion correction           -0.022102580
FINAL SINGLE POINT ENERGY     -2932.470405855464

DIPOLE MOMENT
-------------

Method             : SCF
Type of density    : Electron Density
Multiplicity       :   1
Irrep              :   0
Energy             : -2932.4948590206026893 Eh
Relativity type    :
Basis              : AO
                                X                 Y                 Z
Electronic contribution:      4.304881786       0.974264544     -16.018475751
Nuclear contribution   :     -5.283184959      -1.066108493      18.387958913
                        -----------------------------------------
Total Dipole Moment    :     -0.978303173      -0.091843949       2.369483162
                        -----------------------------------------
Magnitude (a.u.)       :      2.565143829
Magnitude (Debye)      :      6.520077455

Rotational constants in cm-1:             0.011616             0.005564             0.005100
Rotational constants in MHz :           348.226885           166.812872           152.884880

                             ****ORCA TERMINATED NORMALLY****
TOTAL RUN TIME: 0 days 0 hours 1 minutes 53 seconds 633 msec
