                         Program Version 6.0.0  -   RELEASE  -
|  1> ! pbe def2-sv(p) def2/J RI DEFGRID1 loosescf d4 GCP(DFT/SV(P)) printgap
|  2> %output
|  3>     printlevel normal
|  4> end
|  5> * xyz 0 1
|  6> C 5.5865763477 0.9070536682 -0.2684324164
|  7> C 4.283816562 1.5260840875 -0.7357881088
|  8> O 3.3129874037 0.5005340631 -1.0385539891
|  9> P 2.1795500609 0.07683114 -0.005372781
| 10> S 2.8006437962 -0.3079808483 1.8167930621
| 11> O 1.4911520365 -1.1126696718 -0.7846976969
| 12> C 1.9168714565 -2.4880792787 -0.6600029364
| 13> C 0.9056343952 -3.2747611004 0.1500263627
| 14> S 0.7520087533 1.6009797634 -0.2172275329
| 15> C -0.1623076827 1.2721818162 1.3210483027
| 16> S -0.9052175561 -0.3768121351 1.3847216856
| 17> P -2.1438768636 -0.30663211 -0.3421681641
| 18> S -1.4338289602 -0.5363403285 -2.1498998062
| 19> O -2.9376580647 1.0598641713 -0.1117586385
| 20> C -3.1458190887 2.073494764 -1.1132473514
| 21> C -2.424928479 3.3534478941 -0.738742318
| 22> O -3.1499476638 -1.4937019514 -0.0554516931
| 23> C -3.7390298818 -1.8627458575 1.21411075
| 24> C -4.5909782328 -0.7595564757 1.8043949975
| 25> H 5.9572746549 0.2099645783 -1.0147641528
| 26> H 6.3191541328 1.6924766954 -0.1135768184
| 27> H 5.43474289 0.3738456647 0.6676216462
| 28> H 4.4128703132 2.0709260476 -1.6726870599
| 29> H 3.8752918373 2.1978182162 0.0244275482
| 30> H 1.9817078551 -2.8560564289 -1.6852849921
| 31> H 2.9044147012 -2.518678658 -0.1907863506
| 32> H -0.084133515 -3.1655992436 -0.289689904
| 33> H 1.1843086575 -4.323433647 0.1497298453
| 34> H 0.8774345578 -2.909900901 1.1750037227
| 35> H -0.9349489021 2.0329739406 1.3970505901
| 36> H 0.5243983193 1.3149705155 2.1668123749
| 37> H -2.7989794183 1.6939419284 -2.0801797585
| 38> H -4.2261644976 2.2264134493 -1.1491203203
| 39> H -2.6841290267 4.1231828041 -1.4584213122
| 40> H -2.726712245 3.6792785821 0.2529028412
| 41> H -1.3463818146 3.2050332367 -0.7594712209
| 42> H -4.3353218127 -2.7418679214 0.9637765158
| 43> H -2.9348997721 -2.1452077843 1.8979681346
| 44> H -3.9730049173 0.0971306246 2.0622921751
| 45> H -5.3488032012 -0.4468735023 1.0908043323
| 46> H -5.0758416741 -1.1302935826 2.7021861587
| 47> *
| 48>
| 49>                          ****END OF INPUT****

CARTESIAN COORDINATES (ANGSTROEM)
---------------------------------
  C      5.586576    0.907054   -0.268432
  C      4.283817    1.526084   -0.735788
  O      3.312987    0.500534   -1.038554
  P      2.179550    0.076831   -0.005373
  S      2.800644   -0.307981    1.816793
  O      1.491152   -1.112670   -0.784698
  C      1.916871   -2.488079   -0.660003
  C      0.905634   -3.274761    0.150026
  S      0.752009    1.600980   -0.217228
  C     -0.162308    1.272182    1.321048
  S     -0.905218   -0.376812    1.384722
  P     -2.143877   -0.306632   -0.342168
  S     -1.433829   -0.536340   -2.149900
  O     -2.937658    1.059864   -0.111759
  C     -3.145819    2.073495   -1.113247
  C     -2.424928    3.353448   -0.738742
  O     -3.149948   -1.493702   -0.055452
  C     -3.739030   -1.862746    1.214111
  C     -4.590978   -0.759556    1.804395
  H      5.957275    0.209965   -1.014764
  H      6.319154    1.692477   -0.113577
  H      5.434743    0.373846    0.667622
  H      4.412870    2.070926   -1.672687
  H      3.875292    2.197818    0.024428
  H      1.981708   -2.856056   -1.685285
  H      2.904415   -2.518679   -0.190786
  H     -0.084134   -3.165599   -0.289690
  H      1.184309   -4.323434    0.149730
  H      0.877435   -2.909901    1.175004
  H     -0.934949    2.032974    1.397051
  H      0.524398    1.314971    2.166812
  H     -2.798979    1.693942   -2.080180
  H     -4.226164    2.226413   -1.149120
  H     -2.684129    4.123183   -1.458421
  H     -2.726712    3.679279    0.252903
  H     -1.346382    3.205033   -0.759471
  H     -4.335322   -2.741868    0.963777
  H     -2.934900   -2.145208    1.897968
  H     -3.973005    0.097131    2.062292
  H     -5.348803   -0.446874    1.090804
  H     -5.075842   -1.130294    2.702186

 Total Charge           Charge          ....    0
 Multiplicity           Mult            ....    1
 Number of Electrons    NEL             ....  202
 Basis Dimension        Dim             ....  334

ORBITAL ENERGIES
----------------

  NO   OCC          E(Eh)            E(eV)
   0   2.0000     -88.044624     -2395.8160
   1   2.0000     -88.043687     -2395.7905
   2   2.0000     -87.986381     -2394.2312
   3   2.0000     -87.974830     -2393.9168
   4   2.0000     -76.424540     -2079.6174
   5   2.0000     -76.423225     -2079.5817
   6   2.0000     -18.793074      -511.3855
   7   2.0000     -18.789574      -511.2903
   8   2.0000     -18.789072      -511.2766
   9   2.0000     -18.780747      -511.0501
  10   2.0000      -9.960989      -271.0523
  11   2.0000      -9.957199      -270.9492
  12   2.0000      -9.952667      -270.8258
  13   2.0000      -9.951312      -270.7890
  14   2.0000      -9.944414      -270.6013
  15   2.0000      -9.890125      -269.1240
  16   2.0000      -9.887745      -269.0592
  17   2.0000      -9.880140      -268.8523
  18   2.0000      -9.871453      -268.6159
  19   2.0000      -7.689632      -209.2455
  20   2.0000      -7.688268      -209.2084
  21   2.0000      -7.631390      -207.6607
  22   2.0000      -7.620209      -207.3564
  23   2.0000      -6.422038      -174.7525
  24   2.0000      -6.420325      -174.7059
  25   2.0000      -5.717489      -155.5808
  26   2.0000      -5.716284      -155.5480
  27   2.0000      -5.714212      -155.4916
  28   2.0000      -5.712634      -155.4487
  29   2.0000      -5.706520      -155.2823
  30   2.0000      -5.705268      -155.2482
  31   2.0000      -5.660155      -154.0207
  32   2.0000      -5.652186      -153.8038
  33   2.0000      -5.651540      -153.7862
  34   2.0000      -5.649321      -153.7258
  35   2.0000      -5.640558      -153.4874
  36   2.0000      -5.640373      -153.4823
  37   2.0000      -4.644478      -126.3827
  38   2.0000      -4.643777      -126.3636
  39   2.0000      -4.643375      -126.3527
  40   2.0000      -4.642693      -126.3341
  41   2.0000      -4.642061      -126.3169
  42   2.0000      -4.640429      -126.2725
  43   2.0000      -0.981944       -26.7201
  44   2.0000      -0.980902       -26.6917
  45   2.0000      -0.944653       -25.7053
  46   2.0000      -0.938601       -25.5406
  47   2.0000      -0.766412       -20.8551
  48   2.0000      -0.721137       -19.6231
  49   2.0000      -0.708459       -19.2782
  50   2.0000      -0.694110       -18.8877
  51   2.0000      -0.680847       -18.5268
  52   2.0000      -0.670386       -18.2421
  53   2.0000      -0.647442       -17.6178
  54   2.0000      -0.638486       -17.3741
  55   2.0000      -0.593365       -16.1463
  56   2.0000      -0.588622       -16.0172
  57   2.0000      -0.577123       -15.7043
  58   2.0000      -0.571321       -15.5464
  59   2.0000      -0.558496       -15.1974
  60   2.0000      -0.502636       -13.6774
  61   2.0000      -0.497013       -13.5244
  62   2.0000      -0.479316       -13.0429
  63   2.0000      -0.471458       -12.8290
  64   2.0000      -0.458200       -12.4682
  65   2.0000      -0.444723       -12.1015
  66   2.0000      -0.435366       -11.8469
  67   2.0000      -0.434387       -11.8203
  68   2.0000      -0.426058       -11.5936
  69   2.0000      -0.410180       -11.1616
  70   2.0000      -0.403606       -10.9827
  71   2.0000      -0.399084       -10.8596
  72   2.0000      -0.393452       -10.7064
  73   2.0000      -0.386924       -10.5287
  74   2.0000      -0.382880       -10.4187
  75   2.0000      -0.372437       -10.1345
  76   2.0000      -0.367025        -9.9873
  77   2.0000      -0.356774        -9.7083
  78   2.0000      -0.352877        -9.6023
  79   2.0000      -0.348372        -9.4797
  80   2.0000      -0.346231        -9.4214
  81   2.0000      -0.343982        -9.3602
  82   2.0000      -0.340269        -9.2592
  83   2.0000      -0.334573        -9.1042
  84   2.0000      -0.330798        -9.0015
  85   2.0000      -0.319539        -8.6951
  86   2.0000      -0.305286        -8.3072
  87   2.0000      -0.301974        -8.2171
  88   2.0000      -0.295706        -8.0466
  89   2.0000      -0.283558        -7.7160
  90   2.0000      -0.282620        -7.6905
  91   2.0000      -0.274277        -7.4635
  92   2.0000      -0.269858        -7.3432
  93   2.0000      -0.262406        -7.1404
  94   2.0000      -0.259947        -7.0735
  95   2.0000      -0.237128        -6.4526
  96   2.0000      -0.218909        -5.9568
  97   2.0000      -0.207114        -5.6359
  98   2.0000      -0.201030        -5.4703
  99   2.0000      -0.191148        -5.2014
 100   2.0000      -0.186224        -5.0674
 101   0.0000      -0.049749        -1.3537
 102   0.0000      -0.025498        -0.6938
 103   0.0000      -0.010786        -0.2935
 104   0.0000       0.000698         0.0190
 105   0.0000       0.019449         0.5292

MULLIKEN ATOMIC CHARGES
-----------------------
   0 C :   -0.289489
   1 C :   -0.006080
   2 O :   -0.371418
   3 P :    0.625022
   4 S :   -0.345259
   5 O :   -0.346363
   6 C :    0.005023
   7 C :   -0.299097
   8 S :   -0.090010
   9 C :   -0.357471
  10 S :   -0.103650
  11 P :    0.618471
  12 S :   -0.292100
  13 O :   -0.391388
  14 C :   -0.006223
  15 C :   -0.317354
  16 O :   -0.366361
  17 C :   -0.019039
  18 C :   -0.302560
  19 H :    0.112835
  20 H :    0.106770
  21 H :    0.126593
  22 H :    0.107732
  23 H :    0.098534
  24 H :    0.108476
  25 H :    0.099056
  26 H :    0.122217
  27 H :    0.102442
  28 H :    0.123713
  29 H :    0.186332
  30 H :    0.193966
  31 H :    0.116688
  32 H :    0.101425
  33 H :    0.115510
  34 H :    0.116984
  35 H :    0.133298
  36 H :    0.111886
  37 H :    0.119803
  38 H :    0.122357
  39 H :    0.116570
  40 H :    0.112160
Sum of atomic charges:   -0.0000000

LOEWDIN ATOMIC CHARGES
----------------------
   0 C :   -0.361719
   1 C :   -0.115799
   2 O :   -0.248105
   3 P :    0.569865
   4 S :   -0.331555
   5 O :   -0.228591
   6 C :   -0.108644
   7 C :   -0.363116
   8 S :    0.095310
   9 C :   -0.476169
  10 S :    0.092417
  11 P :    0.560863
  12 S :   -0.295817
  13 O :   -0.255419
  14 C :   -0.120392
  15 C :   -0.361928
  16 O :   -0.242567
  17 C :   -0.116208
  18 C :   -0.365863
  19 H :    0.125434
  20 H :    0.128363
  21 H :    0.124776
  22 H :    0.118782
  23 H :    0.106477
  24 H :    0.120254
  25 H :    0.106262
  26 H :    0.123622
  27 H :    0.125486
  28 H :    0.121649
  29 H :    0.130644
  30 H :    0.132906
  31 H :    0.109185
  32 H :    0.115655
  33 H :    0.133846
  34 H :    0.123124
  35 H :    0.116384
  36 H :    0.122913
  37 H :    0.109047
  38 H :    0.121113
  39 H :    0.126927
  40 H :    0.130589

  Mayer bond orders larger than 0.100000
B(  0-C ,  1-C ) :   1.1673 B(  0-C , 19-H ) :   0.9476 B(  0-C , 20-H ) :   0.9400
B(  0-C , 21-H ) :   0.9344 B(  1-C ,  2-O ) :   0.9019 B(  1-C , 22-H ) :   0.9354
B(  1-C , 23-H ) :   0.9140 B(  2-O ,  3-P ) :   1.1163 B(  3-P ,  4-S ) :   1.5808
B(  3-P ,  5-O ) :   1.1611 B(  3-P ,  8-S ) :   0.9597 B(  4-S ,  8-S ) :   0.1079
B(  5-O ,  6-C ) :   0.8908 B(  6-C ,  7-C ) :   1.1732 B(  6-C , 24-H ) :   0.9322
B(  6-C , 25-H ) :   0.9136 B(  7-C , 26-H ) :   0.9408 B(  7-C , 27-H ) :   0.9394
B(  7-C , 28-H ) :   0.9401 B(  8-S ,  9-C ) :   1.0098 B(  9-C , 10-S ) :   1.0062
B(  9-C , 29-H ) :   0.8966 B(  9-C , 30-H ) :   0.8849 B( 10-S , 11-P ) :   0.9418
B( 10-S , 12-S ) :   0.1052 B( 11-P , 12-S ) :   1.6632 B( 11-P , 13-O ) :   1.0599
B( 11-P , 16-O ) :   1.1278 B( 13-O , 14-C ) :   0.9081 B( 14-C , 15-C ) :   1.1676
B( 14-C , 31-H ) :   0.8950 B( 14-C , 32-H ) :   0.9329 B( 15-C , 33-H ) :   0.9372
B( 15-C , 34-H ) :   0.9428 B( 15-C , 35-H ) :   0.9311 B( 16-O , 17-C ) :   0.9064
B( 17-C , 18-C ) :   1.1670 B( 17-C , 36-H ) :   0.9338 B( 17-C , 37-H ) :   0.9217
B( 18-C , 38-H ) :   0.9356 B( 18-C , 39-H ) :   0.9460 B( 18-C , 40-H ) :   0.9370

Dispersion correction           -0.067192835
FINAL SINGLE POINT ENERGY     -2929.517029844590

DIPOLE MOMENT
-------------

Method             : SCF
Type of density    : Electron Density
Multiplicity       :   1
Irrep              :   0
Energy             : -2929.6339661699644239 Eh
Relativity type    :
Basis              : AO
                                X                 Y                 Z
Electronic contribution:      2.342187666      -1.998423985      -3.656899597
Nuclear contribution   :     -2.898392118       2.693184058       4.137733121
                        -----------------------------------------
Total Dipole Moment    :     -0.556204452       0.694760073       0.480833525
                        -----------------------------------------
Magnitude (a.u.)       :      1.011561086
Magnitude (Debye)      :      2.571183945

Rotational constants in cm-1:             0.012915             0.005283             0.004740
Rotational constants in MHz :           387.169451           158.390064           142.093883

                             ****ORCA TERMINATED NORMALLY****
TOTAL RUN TIME: 0 days 0 hours 0 minutes 21 seconds 189 msec
