                         Program Version 6.0.0  -   RELEASE  -
|  1> ! pbe def2-sv(p) def2/J RI DEFGRID1 loosescf d4 GCP(DFT/SV(P)) printgap
|  2> %output
|  3>     printlevel normal
|  4> end
|  5> * xyz 0 1
|  6> C 4.116274077 2.6419389993 0.5098553778
|  7> C 4.6349564651 1.4347552206 -0.2439752875
|  8> O 3.570046113 0.7037636162 -0.8801309327
|  9> P 2.5020558292 -0.1322954088 -0.0503778355
| 10> S 3.2430514812 -1.074292825 1.5053959151
| 11> O 1.8436407324 -1.0204264127 -1.1825340082
| 12> C 2.4250915306 -2.2676484081 -1.6265079162
| 13> C 1.7939518844 -3.4400467275 -0.9026303831
| 14> S 0.907365105 1.1774928782 0.3070241859
| 15> C 0.0043098965 0.038751462 1.428507082
| 16> S -1.702841353 0.556835013 1.6174826285
| 17> P -2.3330777892 0.0173956028 -0.352540373
| 18> S -1.5505721235 -1.6224819045 -1.077513591
| 19> O -2.0264075662 1.2547418523 -1.2781460809
| 20> C -2.1214050203 2.6554787038 -0.9209228976
| 21> C -3.4783179274 3.0311085216 -0.3674079433
| 22> O -3.9194210925 0.0164181624 -0.2761980525
| 23> C -4.6796688647 -1.1455573576 0.0973876171
| 24> C -4.4471920188 -1.5489079161 1.5391165081
| 25> H 3.505889887 3.2609261264 -0.1429223313
| 26> H 3.5094253206 2.3193772937 1.3551722252
| 27> H 4.9551383779 3.2228600808 0.8793526511
| 28> H 5.1642413053 0.7552573724 0.4318409336
| 29> H 5.2861243274 1.7209719848 -1.0708346767
| 30> H 2.2104555455 -2.3001298205 -2.6956509087
| 31> H 3.5062986602 -2.2372963724 -1.4654188252
| 32> H 2.1679821225 -4.3663849487 -1.3259508408
| 33> H 2.0398179335 -3.4082840782 0.1569492217
| 34> H 0.7124407377 -3.4029512965 -1.0151304221
| 35> H 0.4681847424 0.0573775964 2.4122432811
| 36> H 0.0293126011 -0.9629631985 0.9931319644
| 37> H -1.3253837889 2.8747243126 -0.202692825
| 38> H -1.9127601235 3.1639403377 -1.8632597848
| 39> H -3.649498901 2.5316426429 0.5840508651
| 40> H -3.5105685546 4.1052771787 -0.2135888312
| 41> H -4.2619394043 2.7424792052 -1.0629605137
| 42> H -5.713743531 -0.8439600447 -0.0749041137
| 43> H -4.4138371739 -1.9648747731 -0.5781603731
| 44> H -4.6001927202 -0.7001594774 2.2005322199
| 45> H -5.1382571878 -2.3427301543 1.8039048452
| 46> H -3.4289550523 -1.9136868437 1.6647670805
| 47> *
| 48>
| 49>                          ****END OF INPUT****

CARTESIAN COORDINATES (ANGSTROEM)
---------------------------------
  C      4.116274    2.641939    0.509855
  C      4.634956    1.434755   -0.243975
  O      3.570046    0.703764   -0.880131
  P      2.502056   -0.132295   -0.050378
  S      3.243051   -1.074293    1.505396
  O      1.843641   -1.020426   -1.182534
  C      2.425092   -2.267648   -1.626508
  C      1.793952   -3.440047   -0.902630
  S      0.907365    1.177493    0.307024
  C      0.004310    0.038751    1.428507
  S     -1.702841    0.556835    1.617483
  P     -2.333078    0.017396   -0.352540
  S     -1.550572   -1.622482   -1.077514
  O     -2.026408    1.254742   -1.278146
  C     -2.121405    2.655479   -0.920923
  C     -3.478318    3.031109   -0.367408
  O     -3.919421    0.016418   -0.276198
  C     -4.679669   -1.145557    0.097388
  C     -4.447192   -1.548908    1.539117
  H      3.505890    3.260926   -0.142922
  H      3.509425    2.319377    1.355172
  H      4.955138    3.222860    0.879353
  H      5.164241    0.755257    0.431841
  H      5.286124    1.720972   -1.070835
  H      2.210456   -2.300130   -2.695651
  H      3.506299   -2.237296   -1.465419
  H      2.167982   -4.366385   -1.325951
  H      2.039818   -3.408284    0.156949
  H      0.712441   -3.402951   -1.015130
  H      0.468185    0.057378    2.412243
  H      0.029313   -0.962963    0.993132
  H     -1.325384    2.874724   -0.202693
  H     -1.912760    3.163940   -1.863260
  H     -3.649499    2.531643    0.584051
  H     -3.510569    4.105277   -0.213589
  H     -4.261939    2.742479   -1.062961
  H     -5.713744   -0.843960   -0.074904
  H     -4.413837   -1.964875   -0.578160
  H     -4.600193   -0.700159    2.200532
  H     -5.138257   -2.342730    1.803905
  H     -3.428955   -1.913687    1.664767

 Total Charge           Charge          ....    0
 Multiplicity           Mult            ....    1
 Number of Electrons    NEL             ....  202
 Basis Dimension        Dim             ....  334

ORBITAL ENERGIES
----------------

  NO   OCC          E(Eh)            E(eV)
   0   2.0000     -88.051362     -2395.9994
   1   2.0000     -88.040545     -2395.7050
   2   2.0000     -87.984709     -2394.1857
   3   2.0000     -87.984038     -2394.1674
   4   2.0000     -76.427920     -2079.7094
   5   2.0000     -76.423226     -2079.5817
   6   2.0000     -18.795732      -511.4579
   7   2.0000     -18.791257      -511.3361
   8   2.0000     -18.790288      -511.3097
   9   2.0000     -18.781845      -511.0800
  10   2.0000      -9.956368      -270.9265
  11   2.0000      -9.955291      -270.8972
  12   2.0000      -9.954757      -270.8827
  13   2.0000      -9.951181      -270.7854
  14   2.0000      -9.945451      -270.6295
  15   2.0000      -9.888985      -269.0930
  16   2.0000      -9.886119      -269.0150
  17   2.0000      -9.884404      -268.9683
  18   2.0000      -9.870439      -268.5883
  19   2.0000      -7.696011      -209.4191
  20   2.0000      -7.685776      -209.1406
  21   2.0000      -7.629755      -207.6162
  22   2.0000      -7.629108      -207.5986
  23   2.0000      -6.425176      -174.8379
  24   2.0000      -6.420911      -174.7219
  25   2.0000      -5.723719      -155.7503
  26   2.0000      -5.720541      -155.6638
  27   2.0000      -5.713642      -155.4761
  28   2.0000      -5.713201      -155.4641
  29   2.0000      -5.710614      -155.3937
  30   2.0000      -5.702391      -155.1699
  31   2.0000      -5.658547      -153.9769
  32   2.0000      -5.658028      -153.9628
  33   2.0000      -5.650419      -153.7557
  34   2.0000      -5.650019      -153.7448
  35   2.0000      -5.649721      -153.7367
  36   2.0000      -5.649220      -153.7231
  37   2.0000      -4.647925      -126.4765
  38   2.0000      -4.647047      -126.4526
  39   2.0000      -4.645412      -126.4081
  40   2.0000      -4.643409      -126.3536
  41   2.0000      -4.642619      -126.3321
  42   2.0000      -4.641487      -126.3013
  43   2.0000      -0.988202       -26.8903
  44   2.0000      -0.982510       -26.7355
  45   2.0000      -0.946730       -25.7618
  46   2.0000      -0.940372       -25.5888
  47   2.0000      -0.766290       -20.8518
  48   2.0000      -0.721528       -19.6338
  49   2.0000      -0.709538       -19.3075
  50   2.0000      -0.692179       -18.8352
  51   2.0000      -0.685128       -18.6433
  52   2.0000      -0.673794       -18.3349
  53   2.0000      -0.650668       -17.7056
  54   2.0000      -0.635379       -17.2895
  55   2.0000      -0.600291       -16.3347
  56   2.0000      -0.592222       -16.1152
  57   2.0000      -0.578049       -15.7295
  58   2.0000      -0.567938       -15.4544
  59   2.0000      -0.558956       -15.2100
  60   2.0000      -0.496968       -13.5232
  61   2.0000      -0.493494       -13.4287
  62   2.0000      -0.473315       -12.8796
  63   2.0000      -0.466078       -12.6826
  64   2.0000      -0.451975       -12.2989
  65   2.0000      -0.447391       -12.1741
  66   2.0000      -0.443939       -12.0802
  67   2.0000      -0.435068       -11.8388
  68   2.0000      -0.433625       -11.7995
  69   2.0000      -0.419399       -11.4124
  70   2.0000      -0.412737       -11.2311
  71   2.0000      -0.399354       -10.8670
  72   2.0000      -0.394379       -10.7316
  73   2.0000      -0.383589       -10.4380
  74   2.0000      -0.380324       -10.3491
  75   2.0000      -0.372282       -10.1303
  76   2.0000      -0.367839       -10.0094
  77   2.0000      -0.359297        -9.7770
  78   2.0000      -0.354265        -9.6400
  79   2.0000      -0.351328        -9.5601
  80   2.0000      -0.347508        -9.4562
  81   2.0000      -0.345668        -9.4061
  82   2.0000      -0.338830        -9.2200
  83   2.0000      -0.334996        -9.1157
  84   2.0000      -0.332049        -9.0355
  85   2.0000      -0.316337        -8.6080
  86   2.0000      -0.306201        -8.3321
  87   2.0000      -0.296500        -8.0682
  88   2.0000      -0.292768        -7.9666
  89   2.0000      -0.291770        -7.9395
  90   2.0000      -0.281477        -7.6594
  91   2.0000      -0.276023        -7.5110
  92   2.0000      -0.270653        -7.3649
  93   2.0000      -0.263879        -7.1805
  94   2.0000      -0.260551        -7.0899
  95   2.0000      -0.234506        -6.3812
  96   2.0000      -0.223313        -6.0767
  97   2.0000      -0.204307        -5.5595
  98   2.0000      -0.203112        -5.5270
  99   2.0000      -0.199855        -5.4383
 100   2.0000      -0.198553        -5.4029
 101   0.0000      -0.045669        -1.2427
 102   0.0000      -0.033623        -0.9149
 103   0.0000      -0.008818        -0.2399
 104   0.0000       0.008086         0.2200
 105   0.0000       0.014857         0.4043

MULLIKEN ATOMIC CHARGES
-----------------------
   0 C :   -0.317678
   1 C :   -0.005446
   2 O :   -0.370603
   3 P :    0.608333
   4 S :   -0.347622
   5 O :   -0.353776
   6 C :    0.004762
   7 C :   -0.308404
   8 S :   -0.091859
   9 C :   -0.349076
  10 S :   -0.110012
  11 P :    0.605417
  12 S :   -0.309996
  13 O :   -0.350524
  14 C :   -0.005469
  15 C :   -0.306422
  16 O :   -0.373958
  17 C :   -0.001126
  18 C :   -0.319123
  19 H :    0.116511
  20 H :    0.127305
  21 H :    0.113654
  22 H :    0.112255
  23 H :    0.105641
  24 H :    0.108297
  25 H :    0.097919
  26 H :    0.103132
  27 H :    0.123513
  28 H :    0.134653
  29 H :    0.188841
  30 H :    0.208825
  31 H :    0.114506
  32 H :    0.111760
  33 H :    0.118041
  34 H :    0.114115
  35 H :    0.123234
  36 H :    0.105352
  37 H :    0.114368
  38 H :    0.116088
  39 H :    0.115295
  40 H :    0.129280
Sum of atomic charges:   -0.0000000

LOEWDIN ATOMIC CHARGES
----------------------
   0 C :   -0.369430
   1 C :   -0.119957
   2 O :   -0.244404
   3 P :    0.571611
   4 S :   -0.332681
   5 O :   -0.234683
   6 C :   -0.109766
   7 C :   -0.366716
   8 S :    0.083001
   9 C :   -0.476855
  10 S :    0.084611
  11 P :    0.575156
  12 S :   -0.298072
  13 O :   -0.230837
  14 C :   -0.114989
  15 C :   -0.366330
  16 O :   -0.242062
  17 C :   -0.117396
  18 C :   -0.371021
  19 H :    0.124253
  20 H :    0.121412
  21 H :    0.131372
  22 H :    0.110437
  23 H :    0.118860
  24 H :    0.121039
  25 H :    0.107261
  26 H :    0.126605
  27 H :    0.122484
  28 H :    0.124165
  29 H :    0.135036
  30 H :    0.124912
  31 H :    0.101775
  32 H :    0.124094
  33 H :    0.116659
  34 H :    0.131810
  35 H :    0.129256
  36 H :    0.118987
  37 H :    0.113361
  38 H :    0.122746
  39 H :    0.132319
  40 H :    0.121979

  Mayer bond orders larger than 0.100000
B(  0-C ,  1-C ) :   1.1640 B(  0-C , 19-H ) :   0.9458 B(  0-C , 20-H ) :   0.9347
B(  0-C , 21-H ) :   0.9385 B(  1-C ,  2-O ) :   0.9087 B(  1-C , 22-H ) :   0.9140
B(  1-C , 23-H ) :   0.9335 B(  2-O ,  3-P ) :   1.1130 B(  3-P ,  4-S ) :   1.5795
B(  3-P ,  5-O ) :   1.1456 B(  3-P ,  8-S ) :   0.9734 B(  4-S ,  8-S ) :   0.1107
B(  5-O ,  6-C ) :   0.8904 B(  6-C ,  7-C ) :   1.1720 B(  6-C , 24-H ) :   0.9331
B(  6-C , 25-H ) :   0.9177 B(  7-C , 26-H ) :   0.9389 B(  7-C , 27-H ) :   0.9347
B(  7-C , 28-H ) :   0.9368 B(  8-S ,  9-C ) :   0.9712 B(  9-C , 10-S ) :   1.0160
B(  9-C , 29-H ) :   0.8992 B(  9-C , 30-H ) :   0.8584 B( 10-S , 11-P ) :   0.9215
B( 10-S , 12-S ) :   0.1093 B( 11-P , 12-S ) :   1.6334 B( 11-P , 13-O ) :   1.1522
B( 11-P , 16-O ) :   1.0950 B( 13-O , 14-C ) :   0.9001 B( 14-C , 15-C ) :   1.1689
B( 14-C , 31-H ) :   0.9121 B( 14-C , 32-H ) :   0.9338 B( 15-C , 33-H ) :   0.9381
B( 15-C , 34-H ) :   0.9360 B( 15-C , 35-H ) :   0.9428 B( 16-O , 17-C ) :   0.9045
B( 17-C , 18-C ) :   1.1653 B( 17-C , 36-H ) :   0.9338 B( 17-C , 37-H ) :   0.9163
B( 18-C , 38-H ) :   0.9447 B( 18-C , 39-H ) :   0.9375 B( 18-C , 40-H ) :   0.9343

Dispersion correction           -0.065172370
FINAL SINGLE POINT ENERGY     -2929.516989580740

DIPOLE MOMENT
-------------

Method             : SCF
Type of density    : Electron Density
Multiplicity       :   1
Irrep              :   0
Energy             : -2929.6366247334576656 Eh
Relativity type    :
Basis              : AO
                                X                 Y                 Z
Electronic contribution:      3.751563860      -1.400573750      -0.981220007
Nuclear contribution   :     -4.312621238       2.313162737       0.961179785
                        -----------------------------------------
Total Dipole Moment    :     -0.561057377       0.912588987      -0.020040222
                        -----------------------------------------
Magnitude (a.u.)       :      1.071450256
Magnitude (Debye)      :      2.723410117

Rotational constants in cm-1:             0.012599             0.004903             0.004255
Rotational constants in MHz :           377.719810           147.003050           127.554024

                             ****ORCA TERMINATED NORMALLY****
TOTAL RUN TIME: 0 days 0 hours 0 minutes 20 seconds 697 msec
