                         Program Version 6.0.0  -   RELEASE  -
|  1> ! pbe def2-sv(p) def2/J RI DEFGRID1 loosescf d4 GCP(DFT/SV(P)) printgap
|  2> %output
|  3>     printlevel normal
|  4> end
|  5> * xyz 0 1
|  6> C 4.0595818357 -2.5668445352 -1.7145354566
|  7> C 4.310772397 -1.133659653 -1.2900788053
|  8> O 3.2104158804 -0.287548313 -1.7176292347
|  9> P 2.1661307031 0.3551953987 -0.7278957083
| 10> S 0.8645764225 1.388278902 -1.7618885058
| 11> O 3.1295167122 1.1474866729 0.2522615374
| 12> C 2.7305186383 1.9926312823 1.3471423982
| 13> C 2.7696817221 1.2338864257 2.6584865212
| 14> S 1.4028052985 -1.2671570619 0.4201573665
| 15> C 0.0230577424 -1.7062210224 -0.6844006277
| 16> S -1.5729044791 -1.8269474586 0.1629177913
| 17> P -2.0115403527 0.2321476328 0.4939724566
| 18> S -0.7408421819 1.261999368 1.5633557177
| 19> O -3.4636019619 0.1218053023 1.1306746356
| 20> C -3.6579142007 -0.3495569651 2.4806549717
| 21> C -5.0225592246 0.116282026 2.9453814826
| 22> O -2.299080774 0.9089465183 -0.8935153257
| 23> C -3.317705118 0.4867769882 -1.8370825295
| 24> C -2.7117080851 -0.3529141409 -2.9443708921
| 25> H 3.2179320175 -2.984299498 -1.167771397
| 26> H 3.8467784506 -2.6058856089 -2.7791307632
| 27> H 4.945504306 -3.1575122784 -1.5043263319
| 28> H 5.1893917254 -0.7188917495 -1.7861035466
| 29> H 4.4277300156 -1.0517243083 -0.2078076761
| 30> H 3.456924471 2.8075453475 1.3374010791
| 31> H 1.7312340506 2.3933937389 1.1559132815
| 32> H 2.0063625541 0.4592543508 2.6713211143
| 33> H 3.7461903418 0.7797324493 2.8003201032
| 34> H 2.5699619283 1.926730089 3.4691521756
| 35> H 0.2062949285 -2.6955508814 -1.0951501558
| 36> H -0.0360374587 -0.9474186053 -1.4691616051
| 37> H -3.5877484787 -1.440290076 2.4703854738
| 38> H -2.8591278626 0.0571966155 3.1096642377
| 39> H -5.7940967584 -0.2796164823 2.291556076
| 40> H -5.1919843552 -0.2365162118 3.9572610291
| 41> H -5.0709025979 1.2016427478 2.9308427258
| 42> H -4.0997146521 -0.0525405908 -1.3001961499
| 43> H -3.7141708058 1.4250975225 -2.2278177221
| 44> H -1.8327600673 0.1489456452 -3.3439691782
| 45> H -2.4263342281 -1.3353308332 -2.5762154673
| 46> H -3.4431700168 -0.4729573435 -3.7371459328
| 47> *
| 48>
| 49>                          ****END OF INPUT****

CARTESIAN COORDINATES (ANGSTROEM)
---------------------------------
  C      4.059582   -2.566845   -1.714535
  C      4.310772   -1.133660   -1.290079
  O      3.210416   -0.287548   -1.717629
  P      2.166131    0.355195   -0.727896
  S      0.864576    1.388279   -1.761889
  O      3.129517    1.147487    0.252262
  C      2.730519    1.992631    1.347142
  C      2.769682    1.233886    2.658487
  S      1.402805   -1.267157    0.420157
  C      0.023058   -1.706221   -0.684401
  S     -1.572904   -1.826947    0.162918
  P     -2.011540    0.232148    0.493972
  S     -0.740842    1.261999    1.563356
  O     -3.463602    0.121805    1.130675
  C     -3.657914   -0.349557    2.480655
  C     -5.022559    0.116282    2.945381
  O     -2.299081    0.908947   -0.893515
  C     -3.317705    0.486777   -1.837083
  C     -2.711708   -0.352914   -2.944371
  H      3.217932   -2.984299   -1.167771
  H      3.846778   -2.605886   -2.779131
  H      4.945504   -3.157512   -1.504326
  H      5.189392   -0.718892   -1.786104
  H      4.427730   -1.051724   -0.207808
  H      3.456924    2.807545    1.337401
  H      1.731234    2.393394    1.155913
  H      2.006363    0.459254    2.671321
  H      3.746190    0.779732    2.800320
  H      2.569962    1.926730    3.469152
  H      0.206295   -2.695551   -1.095150
  H     -0.036037   -0.947419   -1.469162
  H     -3.587748   -1.440290    2.470385
  H     -2.859128    0.057197    3.109664
  H     -5.794097   -0.279616    2.291556
  H     -5.191984   -0.236516    3.957261
  H     -5.070903    1.201643    2.930843
  H     -4.099715   -0.052541   -1.300196
  H     -3.714171    1.425098   -2.227818
  H     -1.832760    0.148946   -3.343969
  H     -2.426334   -1.335331   -2.576215
  H     -3.443170   -0.472957   -3.737146

 Total Charge           Charge          ....    0
 Multiplicity           Mult            ....    1
 Number of Electrons    NEL             ....  202
 Basis Dimension        Dim             ....  334

ORBITAL ENERGIES
----------------

  NO   OCC          E(Eh)            E(eV)
   0   2.0000     -88.042748     -2395.7650
   1   2.0000     -88.038042     -2395.6369
   2   2.0000     -87.976922     -2393.9738
   3   2.0000     -87.975355     -2393.9311
   4   2.0000     -76.422699     -2079.5673
   5   2.0000     -76.419085     -2079.4690
   6   2.0000     -18.791334      -511.3382
   7   2.0000     -18.788543      -511.2622
   8   2.0000     -18.787948      -511.2461
   9   2.0000     -18.781060      -511.0586
  10   2.0000      -9.955441      -270.9013
  11   2.0000      -9.954073      -270.8641
  12   2.0000      -9.953286      -270.8427
  13   2.0000      -9.952381      -270.8181
  14   2.0000      -9.945502      -270.6309
  15   2.0000      -9.888767      -269.0870
  16   2.0000      -9.885054      -268.9860
  17   2.0000      -9.882999      -268.9301
  18   2.0000      -9.877207      -268.7725
  19   2.0000      -7.687823      -209.1963
  20   2.0000      -7.682724      -209.0575
  21   2.0000      -7.622066      -207.4070
  22   2.0000      -7.620629      -207.3679
  23   2.0000      -6.420112      -174.7001
  24   2.0000      -6.416609      -174.6048
  25   2.0000      -5.715463      -155.5257
  26   2.0000      -5.712349      -155.4409
  27   2.0000      -5.710509      -155.3909
  28   2.0000      -5.707367      -155.3054
  29   2.0000      -5.705032      -155.2418
  30   2.0000      -5.699691      -155.0965
  31   2.0000      -5.651044      -153.7727
  32   2.0000      -5.649725      -153.7368
  33   2.0000      -5.642645      -153.5442
  34   2.0000      -5.642130      -153.5302
  35   2.0000      -5.641400      -153.5103
  36   2.0000      -5.640384      -153.4826
  37   2.0000      -4.643108      -126.3454
  38   2.0000      -4.642004      -126.3153
  39   2.0000      -4.640087      -126.2632
  40   2.0000      -4.639398      -126.2444
  41   2.0000      -4.638449      -126.2186
  42   2.0000      -4.636800      -126.1738
  43   2.0000      -0.986295       -26.8384
  44   2.0000      -0.981512       -26.7083
  45   2.0000      -0.942988       -25.6600
  46   2.0000      -0.937056       -25.4986
  47   2.0000      -0.759352       -20.6630
  48   2.0000      -0.719160       -19.5693
  49   2.0000      -0.710750       -19.3405
  50   2.0000      -0.690615       -18.7926
  51   2.0000      -0.684770       -18.6336
  52   2.0000      -0.674341       -18.3498
  53   2.0000      -0.645560       -17.5666
  54   2.0000      -0.628866       -17.1123
  55   2.0000      -0.588041       -16.0014
  56   2.0000      -0.582632       -15.8542
  57   2.0000      -0.572180       -15.5698
  58   2.0000      -0.570318       -15.5191
  59   2.0000      -0.561953       -15.2915
  60   2.0000      -0.507841       -13.8191
  61   2.0000      -0.498266       -13.5585
  62   2.0000      -0.476485       -12.9658
  63   2.0000      -0.472585       -12.8597
  64   2.0000      -0.453635       -12.3440
  65   2.0000      -0.445653       -12.1268
  66   2.0000      -0.439271       -11.9532
  67   2.0000      -0.435747       -11.8573
  68   2.0000      -0.433113       -11.7856
  69   2.0000      -0.417200       -11.3526
  70   2.0000      -0.406333       -11.0569
  71   2.0000      -0.394383       -10.7317
  72   2.0000      -0.385023       -10.4770
  73   2.0000      -0.380905       -10.3650
  74   2.0000      -0.375459       -10.2168
  75   2.0000      -0.368155       -10.0180
  76   2.0000      -0.361890        -9.8475
  77   2.0000      -0.354594        -9.6490
  78   2.0000      -0.352567        -9.5938
  79   2.0000      -0.349103        -9.4996
  80   2.0000      -0.346421        -9.4266
  81   2.0000      -0.344338        -9.3699
  82   2.0000      -0.341886        -9.3032
  83   2.0000      -0.335192        -9.1210
  84   2.0000      -0.328388        -8.9359
  85   2.0000      -0.316434        -8.6106
  86   2.0000      -0.308979        -8.4077
  87   2.0000      -0.301747        -8.2110
  88   2.0000      -0.294349        -8.0096
  89   2.0000      -0.292489        -7.9590
  90   2.0000      -0.284840        -7.7509
  91   2.0000      -0.271298        -7.3824
  92   2.0000      -0.268114        -7.2957
  93   2.0000      -0.260091        -7.0774
  94   2.0000      -0.255097        -6.9416
  95   2.0000      -0.239563        -6.5189
  96   2.0000      -0.221853        -6.0369
  97   2.0000      -0.201668        -5.4877
  98   2.0000      -0.195994        -5.3333
  99   2.0000      -0.185214        -5.0399
 100   2.0000      -0.179370        -4.8809
 101   0.0000      -0.038369        -1.0441
 102   0.0000      -0.029741        -0.8093
 103   0.0000      -0.011759        -0.3200
 104   0.0000       0.004505         0.1226
 105   0.0000       0.023323         0.6346

MULLIKEN ATOMIC CHARGES
-----------------------
   0 C :   -0.289168
   1 C :   -0.007157
   2 O :   -0.359691
   3 P :    0.596506
   4 S :   -0.294352
   5 O :   -0.379622
   6 C :   -0.011137
   7 C :   -0.312456
   8 S :   -0.098671
   9 C :   -0.355781
  10 S :   -0.125389
  11 P :    0.618389
  12 S :   -0.312944
  13 O :   -0.386260
  14 C :   -0.011787
  15 C :   -0.281169
  16 O :   -0.345398
  17 C :   -0.008984
  18 C :   -0.308312
  19 H :    0.114877
  20 H :    0.118406
  21 H :    0.107746
  22 H :    0.110166
  23 H :    0.102433
  24 H :    0.103859
  25 H :    0.131277
  26 H :    0.141577
  27 H :    0.107614
  28 H :    0.110951
  29 H :    0.180019
  30 H :    0.199987
  31 H :    0.104071
  32 H :    0.105630
  33 H :    0.114113
  34 H :    0.112416
  35 H :    0.123061
  36 H :    0.105475
  37 H :    0.112422
  38 H :    0.138397
  39 H :    0.119106
  40 H :    0.109781
Sum of atomic charges:   -0.0000000

LOEWDIN ATOMIC CHARGES
----------------------
   0 C :   -0.360535
   1 C :   -0.113579
   2 O :   -0.243798
   3 P :    0.565522
   4 S :   -0.297069
   5 O :   -0.241554
   6 C :   -0.114553
   7 C :   -0.366036
   8 S :    0.070373
   9 C :   -0.481800
  10 S :    0.058461
  11 P :    0.566494
  12 S :   -0.303924
  13 O :   -0.251881
  14 C :   -0.120484
  15 C :   -0.350599
  16 O :   -0.224759
  17 C :   -0.108570
  18 C :   -0.366131
  19 H :    0.118071
  20 H :    0.128156
  21 H :    0.128738
  22 H :    0.121385
  23 H :    0.106774
  24 H :    0.118351
  25 H :    0.112002
  26 H :    0.122354
  27 H :    0.121267
  28 H :    0.131640
  29 H :    0.134277
  30 H :    0.121983
  31 H :    0.108987
  32 H :    0.109153
  33 H :    0.125549
  34 H :    0.131193
  35 H :    0.130369
  36 H :    0.110105
  37 H :    0.123769
  38 H :    0.132915
  39 H :    0.117714
  40 H :    0.129669

  Mayer bond orders larger than 0.100000
B(  0-C ,  1-C ) :   1.1630 B(  0-C , 19-H ) :   0.9382 B(  0-C , 20-H ) :   0.9466
B(  0-C , 21-H ) :   0.9403 B(  1-C ,  2-O ) :   0.8939 B(  1-C , 22-H ) :   0.9348
B(  1-C , 23-H ) :   0.9176 B(  2-O ,  3-P ) :   1.1242 B(  3-P ,  4-S ) :   1.6457
B(  3-P ,  5-O ) :   1.1120 B(  3-P ,  8-S ) :   0.9364 B(  4-S ,  8-S ) :   0.1141
B(  4-S , 30-H ) :   0.1062 B(  5-O ,  6-C ) :   0.8952 B(  6-C ,  7-C ) :   1.1709
B(  6-C , 24-H ) :   0.9339 B(  6-C , 25-H ) :   0.9050 B(  7-C , 26-H ) :   0.9310
B(  7-C , 27-H ) :   0.9472 B(  7-C , 28-H ) :   0.9401 B(  8-S ,  9-C ) :   0.9974
B(  9-C , 10-S ) :   0.9957 B(  9-C , 29-H ) :   0.9102 B(  9-C , 30-H ) :   0.8451
B( 10-S , 11-P ) :   0.9433 B( 10-S , 12-S ) :   0.1140 B( 11-P , 12-S ) :   1.6648
B( 11-P , 13-O ) :   1.0795 B( 11-P , 16-O ) :   1.1505 B( 13-O , 14-C ) :   0.9042
B( 14-C , 15-C ) :   1.1613 B( 14-C , 31-H ) :   0.9299 B( 14-C , 32-H ) :   0.9061
B( 15-C , 33-H ) :   0.9514 B( 15-C , 34-H ) :   0.9415 B( 15-C , 35-H ) :   0.9505
B( 16-O , 17-C ) :   0.8944 B( 17-C , 18-C ) :   1.1697 B( 17-C , 36-H ) :   0.9196
B( 17-C , 37-H ) :   0.9346 B( 18-C , 38-H ) :   0.9359 B( 18-C , 39-H ) :   0.9335
B( 18-C , 40-H ) :   0.9382

Dispersion correction           -0.065728675
FINAL SINGLE POINT ENERGY     -2929.512553371364

DIPOLE MOMENT
-------------

Method             : SCF
Type of density    : Electron Density
Multiplicity       :   1
Irrep              :   0
Energy             : -2929.6307567726316847 Eh
Relativity type    :
Basis              : AO
                                X                 Y                 Z
Electronic contribution:      2.389857960       5.671551061      -2.691365457
Nuclear contribution   :     -2.672316298      -6.843807879       2.993287615
                        -----------------------------------------
Total Dipole Moment    :     -0.282458339      -1.172256817       0.301922159
                        -----------------------------------------
Magnitude (a.u.)       :      1.243030872
Magnitude (Debye)      :      3.159533385

Rotational constants in cm-1:             0.012148             0.005181             0.004669
Rotational constants in MHz :           364.193880           155.329636           139.963739

                             ****ORCA TERMINATED NORMALLY****
TOTAL RUN TIME: 0 days 0 hours 0 minutes 21 seconds 31 msec
