                         Program Version 6.0.0  -   RELEASE  -
|  1> ! r2scan-3c def2/J RI DEFGRID2 scfconv6 printgap
|  2> %output
|  3>     printlevel normal
|  4> end
|  5> * xyz 0 1
|  6> C -0.7610376503 -2.05437e-05 7.6138e-06
|  7> C 0.7610519352 7.1934e-06 1.94321e-05
|  8> H -1.1430739951 0.3935702126 0.939145953
|  9> H -1.1428864597 0.6169153053 -0.810239925
| 10> H -1.1437483767 -1.0099118431 -0.1289774065
| 11> H 1.1432459177 1.0101479597 0.1288916522
| 12> H 1.1430604904 -0.3935318869 -0.9392034807
| 13> H 1.1432322023 -0.6170306637 0.8100609243
| 14> *
| 15>
| 16>                          ****END OF INPUT****

CARTESIAN COORDINATES (ANGSTROEM)
---------------------------------
  C     -0.761038   -0.000021    0.000008
  C      0.761052    0.000007    0.000019
  H     -1.143074    0.393570    0.939146
  H     -1.142886    0.616915   -0.810240
  H     -1.143748   -1.009912   -0.128977
  H      1.143246    1.010148    0.128892
  H      1.143060   -0.393532   -0.939203
  H      1.143232   -0.617031    0.810061

 Total Charge           Charge          ....    0
 Multiplicity           Mult            ....    1
 Number of Electrons    NEL             ....   18
 Basis Dimension        Dim             ....   68

ORBITAL ENERGIES
----------------

  NO   OCC          E(Eh)            E(eV)
   0   2.0000     -10.015308      -272.5304
   1   2.0000     -10.015173      -272.5267
   2   2.0000      -0.719712       -19.5844
   3   2.0000      -0.579934       -15.7808
   4   2.0000      -0.403701       -10.9853
   5   2.0000      -0.403667       -10.9843
   6   2.0000      -0.333795        -9.0830
   7   2.0000      -0.310147        -8.4395
   8   2.0000      -0.310088        -8.4379
   9   0.0000       0.108434         2.9506
  10   0.0000       0.129119         3.5135
  11   0.0000       0.184658         5.0248
  12   0.0000       0.184688         5.0256
  13   0.0000       0.192136         5.2283

MULLIKEN ATOMIC CHARGES
-----------------------
   0 C :   -0.410894
   1 C :   -0.410886
   2 H :    0.136964
   3 H :    0.136954
   4 H :    0.136969
   5 H :    0.136971
   6 H :    0.136961
   7 H :    0.136962
Sum of atomic charges:    0.0000000

LOEWDIN ATOMIC CHARGES
----------------------
   0 C :   -0.436566
   1 C :   -0.436561
   2 H :    0.145511
   3 H :    0.145515
   4 H :    0.145525
   5 H :    0.145548
   6 H :    0.145514
   7 H :    0.145514

  Mayer bond orders larger than 0.100000
B(  0-C ,  1-C ) :   0.9060 B(  0-C ,  2-H ) :   0.9762 B(  0-C ,  3-H ) :   0.9762
B(  0-C ,  4-H ) :   0.9762 B(  1-C ,  5-H ) :   0.9762 B(  1-C ,  6-H ) :   0.9762
B(  1-C ,  7-H ) :   0.9762

Dispersion correction           -0.000883192
FINAL SINGLE POINT ENERGY       -79.790389134475

DIPOLE MOMENT
-------------

Method             : SCF
Type of density    : Electron Density
Multiplicity       :   1
Irrep              :   0
Energy             :   -79.7935358874271685 Eh
Relativity type    :
Basis              : AO
                                X                 Y                 Z
Electronic contribution:      0.000126510      -0.000151186       0.000258176
Nuclear contribution   :     -0.000159696       0.000149248      -0.000302356
                        -----------------------------------------
Total Dipole Moment    :     -0.000033187      -0.000001938      -0.000044179
                        -----------------------------------------
Magnitude (a.u.)       :      0.000055289
Magnitude (Debye)      :      0.000140534

Rotational constants in cm-1:             2.688104             0.675590             0.675553
Rotational constants in MHz :         80587.332952         20253.681141         20252.565971

                             ****ORCA TERMINATED NORMALLY****
TOTAL RUN TIME: 0 days 0 hours 0 minutes 4 seconds 706 msec
