                         Program Version 6.0.0  -   RELEASE  -
|  1> ! r2scan-3c def2/J RI DEFGRID2 scfconv6 printgap
|  2> %output
|  3>     printlevel normal
|  4> end
|  5> %cpcm
|  6>     smd true
|  7>     smdsolvent "water"
|  8> end
|  9> * xyz 0 1
| 10> C -0.7610376503 -2.05437e-05 7.6138e-06
| 11> C 0.7610519352 7.1934e-06 1.94321e-05
| 12> H -1.1430739951 0.3935702126 0.939145953
| 13> H -1.1428864597 0.6169153053 -0.810239925
| 14> H -1.1437483767 -1.0099118431 -0.1289774065
| 15> H 1.1432459177 1.0101479597 0.1288916522
| 16> H 1.1430604904 -0.3935318869 -0.9392034807
| 17> H 1.1432322023 -0.6170306637 0.8100609243
| 18> *
| 19>
| 20>                          ****END OF INPUT****

CARTESIAN COORDINATES (ANGSTROEM)
---------------------------------
  C     -0.761038   -0.000021    0.000008
  C      0.761052    0.000007    0.000019
  H     -1.143074    0.393570    0.939146
  H     -1.142886    0.616915   -0.810240
  H     -1.143748   -1.009912   -0.128977
  H      1.143246    1.010148    0.128892
  H      1.143060   -0.393532   -0.939203
  H      1.143232   -0.617031    0.810061

 Total Charge           Charge          ....    0
 Multiplicity           Mult            ....    1
 Number of Electrons    NEL             ....   18
 Basis Dimension        Dim             ....   68

ORBITAL ENERGIES
----------------

  NO   OCC          E(Eh)            E(eV)
   0   2.0000     -10.009161      -272.3631
   1   2.0000     -10.009026      -272.3595
   2   2.0000      -0.714103       -19.4317
   3   2.0000      -0.574564       -15.6347
   4   2.0000      -0.397789       -10.8244
   5   2.0000      -0.397766       -10.8238
   6   2.0000      -0.328522        -8.9395
   7   2.0000      -0.304015        -8.2727
   8   2.0000      -0.303968        -8.2714
   9   0.0000       0.114668         3.1203
  10   0.0000       0.132298         3.6000
  11   0.0000       0.192297         5.2327
  12   0.0000       0.192317         5.2332
  13   0.0000       0.197280         5.3683

MULLIKEN ATOMIC CHARGES
-----------------------
   0 C :   -0.440732
   1 C :   -0.440735
   2 H :    0.146865
   3 H :    0.146916
   4 H :    0.146945
   5 H :    0.146957
   6 H :    0.146862
   7 H :    0.146922
Sum of atomic charges:    0.0000000

LOEWDIN ATOMIC CHARGES
----------------------
   0 C :   -0.444229
   1 C :   -0.444229
   2 H :    0.148049
   3 H :    0.148077
   4 H :    0.148091
   5 H :    0.148117
   6 H :    0.148052
   7 H :    0.148074

  Mayer bond orders larger than 0.100000
B(  0-C ,  1-C ) :   0.8996 B(  0-C ,  2-H ) :   0.9738 B(  0-C ,  3-H ) :   0.9738
B(  0-C ,  4-H ) :   0.9737 B(  1-C ,  5-H ) :   0.9737 B(  1-C ,  6-H ) :   0.9738
B(  1-C ,  7-H ) :   0.9737

Dispersion correction           -0.000883192
FINAL SINGLE POINT ENERGY       -79.787808906087

DIPOLE MOMENT
-------------

Method             : SCF
Type of density    : Electron Density
Multiplicity       :   1
Irrep              :   0
Energy             :   -79.7909556590390281 Eh
Relativity type    :
Basis              : AO
                                X                 Y                 Z
Electronic contribution:      0.000116499      -0.000135702       0.000237319
Nuclear contribution   :     -0.000159696       0.000149248      -0.000302356
                        -----------------------------------------
Total Dipole Moment    :     -0.000043197       0.000013545      -0.000065036
                        -----------------------------------------
Magnitude (a.u.)       :      0.000079241
Magnitude (Debye)      :      0.000201416

Rotational constants in cm-1:             2.688104             0.675590             0.675553
Rotational constants in MHz :         80587.332952         20253.681141         20252.565971

                             ****ORCA TERMINATED NORMALLY****
TOTAL RUN TIME: 0 days 0 hours 0 minutes 5 seconds 68 msec
