                         Program Version 6.0.1  -  RELEASE   -
|  1> ! pbe def2-sv(p) def2/J RI DEFGRID1 loosescf d4 GCP(DFT/SV(P)) printgap
|  2> %output
|  3>     printlevel normal
|  4> end
|  5> * xyz 0 1
|  6> C 3.7964728618 -3.9450806294 -0.1565766611
|  7> C 4.0757330197 -2.8250015762 -1.1453647119
|  8> O 2.8471944259 -2.2996803979 -1.6911033162
|  9> C 2.2294770541 -1.3375365436 -1.0477537489
| 10> O 2.626701671 -0.8204458587 -0.0223057853
| 11> C 0.9328257258 -0.9472636169 -1.7233337854
| 12> C 0.5996672916 0.5210590207 -1.4558857156
| 13> H 1.1114509643 1.1880622342 -2.1495345581
| 14> C 0.9150400812 0.9326717252 -0.0326789907
| 15> O 0.2446983074 0.5102810076 0.8971302619
| 16> O 1.8494236169 1.8313437063 0.0523805261
| 17> C 2.2021499873 2.333570584 1.3610894374
| 18> C 1.2593401793 3.4452647576 1.7910818555
| 19> S -1.1906432206 0.8274471786 -1.6476641733
| 20> P -2.0324017085 0.2905675779 0.2318244802
| 21> S -2.2771045184 1.4988355382 1.7680131435
| 22> O -3.4282004047 0.1316442917 -0.5595386242
| 23> C -4.6757183197 -0.0520060822 0.110512215
| 24> O -1.7679703124 -1.2560456957 0.5803554815
| 25> C -1.1158510808 -1.7228216742 1.7589233393
| 26> H 3.2013927562 -4.7220447149 -0.628281153
| 27> H 4.7372304094 -4.3690614213 0.1785424796
| 28> H 3.2580247459 -3.5596316224 0.706521396
| 29> H 4.6223818083 -3.1894228071 -2.0148878582
| 30> H 4.6202174774 -2.0079296011 -0.6641377226
| 31> H 0.1516313856 -1.585610081 -1.2982266293
| 32> H 0.9846891132 -1.1470840921 -2.7919507619
| 33> H 2.1771073622 1.4997203652 2.0669643091
| 34> H 3.2215182414 2.6981110562 1.2368477234
| 35> H 0.2469244518 3.0638607505 1.9138936381
| 36> H 1.5940072342 3.8486264202 2.74086184
| 37> H 1.2486979234 4.2376928514 1.0478074822
| 38> H -4.7306974205 0.5939342284 0.9900839043
| 39> H -4.7861956415 -1.0939123287 0.4097706968
| 40> H -5.4427668004 0.2231970213 -0.6091998538
| 41> H -1.2568477164 -1.0108153678 2.5738783292
| 42> H -0.0491055225 -1.8418475384 1.5718757878
| 43> H -1.5780511 -2.678005201 1.9974472761
| 44> *
| 45>
| 46>                          ****END OF INPUT****

CARTESIAN COORDINATES (ANGSTROEM)
---------------------------------
  C      3.796473   -3.945081   -0.156577
  C      4.075733   -2.825002   -1.145365
  O      2.847194   -2.299680   -1.691103
  C      2.229477   -1.337537   -1.047754
  O      2.626702   -0.820446   -0.022306
  C      0.932826   -0.947264   -1.723334
  C      0.599667    0.521059   -1.455886
  H      1.111451    1.188062   -2.149535
  C      0.915040    0.932672   -0.032679
  O      0.244698    0.510281    0.897130
  O      1.849424    1.831344    0.052381
  C      2.202150    2.333571    1.361089
  C      1.259340    3.445265    1.791082
  S     -1.190643    0.827447   -1.647664
  P     -2.032402    0.290568    0.231824
  S     -2.277105    1.498836    1.768013
  O     -3.428200    0.131644   -0.559539
  C     -4.675718   -0.052006    0.110512
  O     -1.767970   -1.256046    0.580355
  C     -1.115851   -1.722822    1.758923
  H      3.201393   -4.722045   -0.628281
  H      4.737230   -4.369061    0.178542
  H      3.258025   -3.559632    0.706521
  H      4.622382   -3.189423   -2.014888
  H      4.620217   -2.007930   -0.664138
  H      0.151631   -1.585610   -1.298227
  H      0.984689   -1.147084   -2.791951
  H      2.177107    1.499720    2.066964
  H      3.221518    2.698111    1.236848
  H      0.246924    3.063861    1.913894
  H      1.594007    3.848626    2.740862
  H      1.248698    4.237693    1.047807
  H     -4.730697    0.593934    0.990084
  H     -4.786196   -1.093912    0.409771
  H     -5.442767    0.223197   -0.609200
  H     -1.256848   -1.010815    2.573878
  H     -0.049106   -1.841848    1.571876
  H     -1.578051   -2.678005    1.997447

 Total Charge           Charge          ....    0
 Multiplicity           Mult            ....    1
 Number of Electrons    NEL             ....  174
 Basis Dimension        Dim             ....  316

ORBITAL ENERGIES
----------------

  NO   OCC          E(Eh)            E(eV)
   0   2.0000     -88.032773     -2395.4935
   1   2.0000     -87.963223     -2393.6010
   2   2.0000     -76.413688     -2079.3222
   3   2.0000     -18.821112      -512.1485
   4   2.0000     -18.811972      -511.8998
   5   2.0000     -18.778976      -511.0019
   6   2.0000     -18.764871      -510.6181
   7   2.0000     -18.759142      -510.4622
   8   2.0000     -18.754803      -510.3441
   9   2.0000     -10.028356      -272.8855
  10   2.0000     -10.024480      -272.7800
  11   2.0000      -9.962237      -271.0862
  12   2.0000      -9.948766      -270.7197
  13   2.0000      -9.947379      -270.6819
  14   2.0000      -9.929209      -270.1875
  15   2.0000      -9.924853      -270.0690
  16   2.0000      -9.919838      -269.9325
  17   2.0000      -9.899220      -269.3715
  18   2.0000      -9.876231      -268.7459
  19   2.0000      -7.677580      -208.9176
  20   2.0000      -7.608204      -207.0298
  21   2.0000      -6.409001      -174.3978
  22   2.0000      -5.706114      -155.2713
  23   2.0000      -5.701928      -155.1574
  24   2.0000      -5.694094      -154.9442
  25   2.0000      -5.637335      -153.3997
  26   2.0000      -5.629076      -153.1750
  27   2.0000      -5.627864      -153.1420
  28   2.0000      -4.631934      -126.0413
  29   2.0000      -4.631027      -126.0166
  30   2.0000      -4.629399      -125.9723
  31   2.0000      -1.030692       -28.0466
  32   2.0000      -1.023155       -27.8415
  33   2.0000      -0.963976       -26.2311
  34   2.0000      -0.936807       -25.4918
  35   2.0000      -0.931894       -25.3581
  36   2.0000      -0.920629       -25.0516
  37   2.0000      -0.765886       -20.8408
  38   2.0000      -0.724030       -19.7019
  39   2.0000      -0.703527       -19.1440
  40   2.0000      -0.688853       -18.7446
  41   2.0000      -0.655730       -17.8433
  42   2.0000      -0.621320       -16.9070
  43   2.0000      -0.612140       -16.6572
  44   2.0000      -0.609461       -16.5843
  45   2.0000      -0.605780       -16.4841
  46   2.0000      -0.561356       -15.2753
  47   2.0000      -0.514487       -13.9999
  48   2.0000      -0.506182       -13.7739
  49   2.0000      -0.497218       -13.5300
  50   2.0000      -0.485170       -13.2021
  51   2.0000      -0.468213       -12.7407
  52   2.0000      -0.461334       -12.5535
  53   2.0000      -0.447865       -12.1870
  54   2.0000      -0.442383       -12.0379
  55   2.0000      -0.437232       -11.8977
  56   2.0000      -0.431774       -11.7492
  57   2.0000      -0.419823       -11.4240
  58   2.0000      -0.410693       -11.1755
  59   2.0000      -0.408204       -11.1078
  60   2.0000      -0.401033       -10.9127
  61   2.0000      -0.395616       -10.7652
  62   2.0000      -0.388050       -10.5594
  63   2.0000      -0.385546       -10.4912
  64   2.0000      -0.377002       -10.2587
  65   2.0000      -0.369743       -10.0612
  66   2.0000      -0.362019        -9.8510
  67   2.0000      -0.355404        -9.6710
  68   2.0000      -0.348368        -9.4796
  69   2.0000      -0.344833        -9.3834
  70   2.0000      -0.336331        -9.1520
  71   2.0000      -0.328612        -8.9420
  72   2.0000      -0.324619        -8.8333
  73   2.0000      -0.311327        -8.4716
  74   2.0000      -0.299430        -8.1479
  75   2.0000      -0.295305        -8.0357
  76   2.0000      -0.289825        -7.8865
  77   2.0000      -0.281439        -7.6584
  78   2.0000      -0.269938        -7.3454
  79   2.0000      -0.264753        -7.2043
  80   2.0000      -0.257133        -6.9970
  81   2.0000      -0.251615        -6.8468
  82   2.0000      -0.243488        -6.6256
  83   2.0000      -0.237870        -6.4728
  84   2.0000      -0.213871        -5.8197
  85   2.0000      -0.182662        -4.9705
  86   2.0000      -0.174877        -4.7587
  87   0.0000      -0.053233        -1.4486
  88   0.0000      -0.042554        -1.1579
  89   0.0000      -0.017420        -0.4740
  90   0.0000       0.015341         0.4175
  91   0.0000       0.031293         0.8515

MULLIKEN ATOMIC CHARGES
-----------------------
   0 C :   -0.306871
   1 C :   -0.015991
   2 O :   -0.219724
   3 C :    0.125482
   4 O :   -0.207549
   5 C :   -0.063574
   6 C :   -0.299387
   7 H :    0.131841
   8 C :    0.225478
   9 O :   -0.224546
  10 O :   -0.205079
  11 C :   -0.006565
  12 C :   -0.321707
  13 S :   -0.063856
  14 P :    0.649467
  15 S :   -0.331434
  16 O :   -0.401938
  17 C :   -0.096048
  18 O :   -0.393682
  19 C :   -0.097191
  20 H :    0.119496
  21 H :    0.118756
  22 H :    0.128048
  23 H :    0.109509
  24 H :    0.113330
  25 H :    0.145461
  26 H :    0.119743
  27 H :    0.114720
  28 H :    0.102183
  29 H :    0.153392
  30 H :    0.109361
  31 H :    0.110637
  32 H :    0.113322
  33 H :    0.103867
  34 H :    0.116473
  35 H :    0.119105
  36 H :    0.112740
  37 H :    0.112732
Sum of atomic charges:    0.0000000

LOEWDIN ATOMIC CHARGES
----------------------
   0 C :   -0.354867
   1 C :   -0.109323
   2 O :   -0.049577
   3 C :    0.039653
   4 O :   -0.155407
   5 C :   -0.253540
   6 C :   -0.262605
   7 H :    0.141359
   8 C :    0.020497
   9 O :   -0.163762
  10 O :   -0.027166
  11 C :   -0.102270
  12 C :   -0.362361
  13 S :    0.127414
  14 P :    0.589339
  15 S :   -0.327915
  16 O :   -0.276511
  17 C :   -0.218135
  18 O :   -0.259335
  19 C :   -0.219380
  20 H :    0.127461
  21 H :    0.133752
  22 H :    0.130678
  23 H :    0.121205
  24 H :    0.121969
  25 H :    0.153740
  26 H :    0.143241
  27 H :    0.124192
  28 H :    0.118428
  29 H :    0.131423
  30 H :    0.130255
  31 H :    0.124330
  32 H :    0.105064
  33 H :    0.108075
  34 H :    0.117893
  35 H :    0.110545
  36 H :    0.107373
  37 H :    0.114269

  Mayer bond orders larger than 0.100000
B(  0-C ,  1-C ) :   1.1751 B(  0-C , 20-H ) :   0.9484 B(  0-C , 21-H ) :   0.9433
B(  0-C , 22-H ) :   0.9464 B(  1-C ,  2-O ) :   0.9053 B(  1-C , 23-H ) :   0.9363
B(  1-C , 24-H ) :   0.9144 B(  2-O ,  3-C ) :   1.2617 B(  3-C ,  4-O ) :   1.9516
B(  3-C ,  5-C ) :   1.0082 B(  4-O ,  8-C ) :   0.1196 B(  5-C ,  6-C ) :   1.0014
B(  5-C , 25-H ) :   0.8701 B(  5-C , 26-H ) :   0.9051 B(  6-C ,  7-H ) :   0.8842
B(  6-C ,  8-C ) :   0.9168 B(  6-C , 13-S ) :   1.0247 B(  8-C ,  9-O ) :   1.8162
B(  8-C , 10-O ) :   1.2982 B(  9-O , 14-P ) :   0.1794 B( 10-O , 11-C ) :   0.8957
B( 11-C , 12-C ) :   1.1740 B( 11-C , 27-H ) :   0.9171 B( 11-C , 28-H ) :   0.9380
B( 12-C , 29-H ) :   0.9227 B( 12-C , 30-H ) :   0.9416 B( 12-C , 31-H ) :   0.9466
B( 13-S , 14-P ) :   0.9235 B( 14-P , 15-S ) :   1.5686 B( 14-P , 16-O ) :   1.0492
B( 14-P , 18-O ) :   1.0566 B( 16-O , 17-C ) :   0.9433 B( 17-C , 32-H ) :   0.9262
B( 17-C , 33-H ) :   0.9532 B( 17-C , 34-H ) :   0.9605 B( 18-O , 19-C ) :   0.9317
B( 19-C , 35-H ) :   0.9321 B( 19-C , 36-H ) :   0.9464 B( 19-C , 37-H ) :   0.9535

Dispersion correction           -0.051968169
FINAL SINGLE POINT ENERGY     -1979.006235999308

DIPOLE MOMENT
-------------

Method             : SCF
Type of density    : Electron Density
Multiplicity       :   1
Irrep              :   0
Energy             : -1979.1391157980342541 Eh
Relativity type    :
Basis              : AO
                                X                 Y                 Z
Electronic contribution:    -12.661811918       8.304322531      -7.070195961
Nuclear contribution   :     14.458812235      -9.598163212       6.606644293
                        -----------------------------------------
Total Dipole Moment    :      1.797000317      -1.293840681      -0.463551668
                        -----------------------------------------
Magnitude (a.u.)       :      2.262324909
Magnitude (Debye)      :      5.750372930

Rotational constants in cm-1:             0.013821             0.006708             0.005644
Rotational constants in MHz :           414.348604           201.115500           169.198234

                             ****ORCA TERMINATED NORMALLY****
TOTAL RUN TIME: 0 days 0 hours 0 minutes 34 seconds 518 msec
