                         Program Version 6.0.0  -   RELEASE  -
|  1> ! pbe def2-sv(p) def2/J RI DEFGRID1 loosescf d4 GCP(DFT/SV(P)) printgap
|  2> %output
|  3>     printlevel normal
|  4> end
|  5> * xyz 0 1
|  6> C 4.3095556221 0.6306661711 -2.2176155657
|  7> C 4.467402797 -0.1358679473 -0.9193287425
|  8> O 3.6104028443 0.4246242022 0.1095433622
|  9> P 2.2753822282 -0.2330747189 0.6188867765
| 10> S 1.5451543717 0.7869393542 2.1159591381
| 11> O 2.7230897955 -1.7344899155 0.8979955835
| 12> C 1.8096436015 -2.7539869431 1.3483877873
| 13> C 1.7491672272 -2.8041793702 2.8628438647
| 14> S 1.0232925838 -0.5088643748 -1.0963504523
| 15> C 0.5261242389 1.2151355073 -1.3470186376
| 16> S -0.8031860693 1.7839863813 -0.2472474832
| 17> P -2.1443843151 0.1597430559 -0.5917470837
| 18> S -2.1813743693 -0.590921223 -2.3944578911
| 19> O -3.5315113192 0.7208470098 -0.0558059966
| 20> C -4.4510107162 1.4403568213 -0.8980214712
| 21> C -3.8962003991 2.7734535933 -1.3554572527
| 22> O -1.7680835639 -0.9153575169 0.5042920814
| 23> C -1.8288200492 -0.6529708334 1.9282442772
| 24> C -3.1252962797 -1.1692256712 2.5148094718
| 25> H 5.054058088 0.2805244087 -2.9256702169
| 26> H 3.3206667088 0.4720950747 -2.6413124833
| 27> H 4.4565982375 1.6932136427 -2.0436005703
| 28> H 5.4763902337 -0.0309245876 -0.5178651945
| 29> H 4.2300142313 -1.1930996655 -1.0473926987
| 30> H 0.8217123837 -2.5704497447 0.914587087
| 31> H 2.2132730575 -3.6817416483 0.9376559403
| 32> H 1.3881876255 -1.8576314508 3.2600123842
| 33> H 1.0784728226 -3.6008676999 3.1685603169
| 34> H 2.7396063441 -2.9919021415 3.267816894
| 35> H 0.1810335326 1.2727085197 -2.3782291106
| 36> H 1.3715408188 1.8776094044 -1.1713224505
| 37> H -4.6924116996 0.8090857405 -1.758607969
| 38> H -5.3336472971 1.5667417617 -0.26943162
| 39> H -3.0657189543 2.6152459665 -2.0416504268
| 40> H -4.6754338194 3.3272809911 -1.8691026194
| 41> H -3.5433408377 3.3504658557 -0.5040849955
| 42> H -0.9669108622 -1.1782923187 2.345319096
| 43> H -1.7065348742 0.4200438422 2.1018677313
| 44> H -3.1018517783 -1.0332638304 3.591455812
| 45> H -3.9696634338 -0.6243962831 2.1016722849
| 46> H -3.241118575 -2.225185904 2.2864113829
| 47> *
| 48>
| 49>                          ****END OF INPUT****

CARTESIAN COORDINATES (ANGSTROEM)
---------------------------------
  C      4.309556    0.630666   -2.217616
  C      4.467403   -0.135868   -0.919329
  O      3.610403    0.424624    0.109543
  P      2.275382   -0.233075    0.618887
  S      1.545154    0.786939    2.115959
  O      2.723090   -1.734490    0.897996
  C      1.809644   -2.753987    1.348388
  C      1.749167   -2.804179    2.862844
  S      1.023293   -0.508864   -1.096350
  C      0.526124    1.215136   -1.347019
  S     -0.803186    1.783986   -0.247247
  P     -2.144384    0.159743   -0.591747
  S     -2.181374   -0.590921   -2.394458
  O     -3.531511    0.720847   -0.055806
  C     -4.451011    1.440357   -0.898021
  C     -3.896200    2.773454   -1.355457
  O     -1.768084   -0.915358    0.504292
  C     -1.828820   -0.652971    1.928244
  C     -3.125296   -1.169226    2.514809
  H      5.054058    0.280524   -2.925670
  H      3.320667    0.472095   -2.641312
  H      4.456598    1.693214   -2.043601
  H      5.476390   -0.030925   -0.517865
  H      4.230014   -1.193100   -1.047393
  H      0.821712   -2.570450    0.914587
  H      2.213273   -3.681742    0.937656
  H      1.388188   -1.857631    3.260012
  H      1.078473   -3.600868    3.168560
  H      2.739606   -2.991902    3.267817
  H      0.181034    1.272709   -2.378229
  H      1.371541    1.877609   -1.171322
  H     -4.692412    0.809086   -1.758608
  H     -5.333647    1.566742   -0.269432
  H     -3.065719    2.615246   -2.041650
  H     -4.675434    3.327281   -1.869103
  H     -3.543341    3.350466   -0.504085
  H     -0.966911   -1.178292    2.345319
  H     -1.706535    0.420044    2.101868
  H     -3.101852   -1.033264    3.591456
  H     -3.969663   -0.624396    2.101672
  H     -3.241119   -2.225186    2.286411

 Total Charge           Charge          ....    0
 Multiplicity           Mult            ....    1
 Number of Electrons    NEL             ....  202
 Basis Dimension        Dim             ....  334

ORBITAL ENERGIES
----------------

  NO   OCC          E(Eh)            E(eV)
   0   2.0000     -88.042336     -2395.7537
   1   2.0000     -88.036759     -2395.6020
   2   2.0000     -87.984521     -2394.1805
   3   2.0000     -87.982951     -2394.1378
   4   2.0000     -76.425496     -2079.6435
   5   2.0000     -76.424820     -2079.6251
   6   2.0000     -18.795014      -511.4383
   7   2.0000     -18.793914      -511.4084
   8   2.0000     -18.793497      -511.3971
   9   2.0000     -18.786683      -511.2116
  10   2.0000      -9.958731      -270.9909
  11   2.0000      -9.958282      -270.9786
  12   2.0000      -9.957715      -270.9632
  13   2.0000      -9.953546      -270.8498
  14   2.0000      -9.947352      -270.6812
  15   2.0000      -9.890397      -269.1314
  16   2.0000      -9.883610      -268.9467
  17   2.0000      -9.883594      -268.9463
  18   2.0000      -9.881084      -268.8780
  19   2.0000      -7.686492      -209.1601
  20   2.0000      -7.681609      -209.0272
  21   2.0000      -7.629819      -207.6179
  22   2.0000      -7.628142      -207.5723
  23   2.0000      -6.422937      -174.7770
  24   2.0000      -6.421970      -174.7507
  25   2.0000      -5.714219      -155.4918
  26   2.0000      -5.711093      -155.4067
  27   2.0000      -5.709512      -155.3637
  28   2.0000      -5.706249      -155.2749
  29   2.0000      -5.703642      -155.2040
  30   2.0000      -5.698441      -155.0625
  31   2.0000      -5.658824      -153.9844
  32   2.0000      -5.657146      -153.9388
  33   2.0000      -5.650336      -153.7535
  34   2.0000      -5.649975      -153.7436
  35   2.0000      -5.648772      -153.7109
  36   2.0000      -5.648165      -153.6944
  37   2.0000      -4.645981      -126.4236
  38   2.0000      -4.644915      -126.3946
  39   2.0000      -4.644804      -126.3915
  40   2.0000      -4.643654      -126.3602
  41   2.0000      -4.642889      -126.3394
  42   2.0000      -4.642256      -126.3222
  43   2.0000      -0.989990       -26.9390
  44   2.0000      -0.986171       -26.8351
  45   2.0000      -0.947037       -25.7702
  46   2.0000      -0.942352       -25.6427
  47   2.0000      -0.761611       -20.7245
  48   2.0000      -0.720608       -19.6087
  49   2.0000      -0.709875       -19.3167
  50   2.0000      -0.692153       -18.8344
  51   2.0000      -0.688249       -18.7282
  52   2.0000      -0.672769       -18.3070
  53   2.0000      -0.649760       -17.6809
  54   2.0000      -0.639028       -17.3888
  55   2.0000      -0.593945       -16.1621
  56   2.0000      -0.585831       -15.9413
  57   2.0000      -0.579250       -15.7622
  58   2.0000      -0.570876       -15.5343
  59   2.0000      -0.565179       -15.3793
  60   2.0000      -0.509993       -13.8776
  61   2.0000      -0.495991       -13.4966
  62   2.0000      -0.480549       -13.0764
  63   2.0000      -0.472169       -12.8484
  64   2.0000      -0.457657       -12.4535
  65   2.0000      -0.446182       -12.1412
  66   2.0000      -0.445659       -12.1270
  67   2.0000      -0.434698       -11.8287
  68   2.0000      -0.424926       -11.5628
  69   2.0000      -0.420035       -11.4297
  70   2.0000      -0.405569       -11.0361
  71   2.0000      -0.399956       -10.8834
  72   2.0000      -0.390678       -10.6309
  73   2.0000      -0.385760       -10.4971
  74   2.0000      -0.378242       -10.2925
  75   2.0000      -0.372453       -10.1350
  76   2.0000      -0.363216        -9.8836
  77   2.0000      -0.361174        -9.8281
  78   2.0000      -0.356243        -9.6939
  79   2.0000      -0.350605        -9.5404
  80   2.0000      -0.350365        -9.5339
  81   2.0000      -0.347464        -9.4550
  82   2.0000      -0.342300        -9.3144
  83   2.0000      -0.336665        -9.1611
  84   2.0000      -0.333824        -9.0838
  85   2.0000      -0.320656        -8.7255
  86   2.0000      -0.314958        -8.5704
  87   2.0000      -0.302230        -8.2241
  88   2.0000      -0.296233        -8.0609
  89   2.0000      -0.294643        -8.0176
  90   2.0000      -0.290501        -7.9049
  91   2.0000      -0.276091        -7.5128
  92   2.0000      -0.268722        -7.3123
  93   2.0000      -0.263179        -7.1615
  94   2.0000      -0.258161        -7.0249
  95   2.0000      -0.237766        -6.4700
  96   2.0000      -0.215740        -5.8706
  97   2.0000      -0.207031        -5.6336
  98   2.0000      -0.203756        -5.5445
  99   2.0000      -0.198059        -5.3895
 100   2.0000      -0.185699        -5.0531
 101   0.0000      -0.042412        -1.1541
 102   0.0000      -0.026709        -0.7268
 103   0.0000      -0.003292        -0.0896
 104   0.0000       0.000106         0.0029
 105   0.0000       0.015297         0.4163

MULLIKEN ATOMIC CHARGES
-----------------------
   0 C :   -0.301261
   1 C :   -0.006194
   2 O :   -0.361027
   3 P :    0.589175
   4 S :   -0.307772
   5 O :   -0.381811
   6 C :   -0.032583
   7 C :   -0.301331
   8 S :   -0.090339
   9 C :   -0.342081
  10 S :   -0.072108
  11 P :    0.596345
  12 S :   -0.319790
  13 O :   -0.381154
  14 C :    0.000019
  15 C :   -0.317120
  16 O :   -0.354864
  17 C :   -0.026996
  18 C :   -0.282307
  19 H :    0.113034
  20 H :    0.124357
  21 H :    0.120253
  22 H :    0.112194
  23 H :    0.108573
  24 H :    0.127640
  25 H :    0.107839
  26 H :    0.141141
  27 H :    0.107394
  28 H :    0.115036
  29 H :    0.190172
  30 H :    0.183044
  31 H :    0.113176
  32 H :    0.104432
  33 H :    0.126819
  34 H :    0.113157
  35 H :    0.119326
  36 H :    0.111705
  37 H :    0.113215
  38 H :    0.108981
  39 H :    0.118652
  40 H :    0.113058
Sum of atomic charges:   -0.0000000

LOEWDIN ATOMIC CHARGES
----------------------
   0 C :   -0.362249
   1 C :   -0.110911
   2 O :   -0.239046
   3 P :    0.555278
   4 S :   -0.303719
   5 O :   -0.249148
   6 C :   -0.116915
   7 C :   -0.365860
   8 S :    0.083884
   9 C :   -0.475976
  10 S :    0.083731
  11 P :    0.569930
  12 S :   -0.319755
  13 O :   -0.247017
  14 C :   -0.116559
  15 C :   -0.371271
  16 O :   -0.237029
  17 C :   -0.118391
  18 C :   -0.359135
  19 H :    0.131726
  20 H :    0.120649
  21 H :    0.127840
  22 H :    0.122756
  23 H :    0.111857
  24 H :    0.112061
  25 H :    0.119518
  26 H :    0.123451
  27 H :    0.128689
  28 H :    0.127519
  29 H :    0.133347
  30 H :    0.132528
  31 H :    0.112851
  32 H :    0.118116
  33 H :    0.120922
  34 H :    0.131076
  35 H :    0.124042
  36 H :    0.113516
  37 H :    0.107950
  38 H :    0.129274
  39 H :    0.124673
  40 H :    0.125794

  Mayer bond orders larger than 0.100000
B(  0-C ,  1-C ) :   1.1669 B(  0-C , 19-H ) :   0.9396 B(  0-C , 20-H ) :   0.9352
B(  0-C , 21-H ) :   0.9455 B(  1-C ,  2-O ) :   0.8922 B(  1-C , 22-H ) :   0.9347
B(  1-C , 23-H ) :   0.9179 B(  2-O ,  3-P ) :   1.1274 B(  3-P ,  4-S ) :   1.6687
B(  3-P ,  5-O ) :   1.0814 B(  3-P ,  8-S ) :   0.9418 B(  4-S ,  8-S ) :   0.1153
B(  5-O ,  6-C ) :   0.9045 B(  6-C ,  7-C ) :   1.1686 B(  6-C , 24-H ) :   0.9137
B(  6-C , 25-H ) :   0.9350 B(  7-C , 26-H ) :   0.9234 B(  7-C , 27-H ) :   0.9394
B(  7-C , 28-H ) :   0.9449 B(  8-S ,  9-C ) :   0.9952 B(  9-C , 10-S ) :   1.0022
B(  9-C , 29-H ) :   0.8949 B(  9-C , 30-H ) :   0.8975 B( 10-S , 11-P ) :   0.9657
B( 10-S , 12-S ) :   0.1105 B( 11-P , 12-S ) :   1.6183 B( 11-P , 13-O ) :   1.0821
B( 11-P , 16-O ) :   1.1293 B( 13-O , 14-C ) :   0.9058 B( 14-C , 15-C ) :   1.1667
B( 14-C , 31-H ) :   0.9185 B( 14-C , 32-H ) :   0.9339 B( 15-C , 33-H ) :   0.9346
B( 15-C , 34-H ) :   0.9367 B( 15-C , 35-H ) :   0.9432 B( 16-O , 17-C ) :   0.8909
B( 17-C , 18-C ) :   1.1580 B( 17-C , 36-H ) :   0.9238 B( 17-C , 37-H ) :   0.9151
B( 18-C , 38-H ) :   0.9406 B( 18-C , 39-H ) :   0.9424 B( 18-C , 40-H ) :   0.9466

Dispersion correction           -0.066276139
FINAL SINGLE POINT ENERGY     -2929.518667783787

DIPOLE MOMENT
-------------

Method             : SCF
Type of density    : Electron Density
Multiplicity       :   1
Irrep              :   0
Energy             : -2929.6367960534716985 Eh
Relativity type    :
Basis              : AO
                                X                 Y                 Z
Electronic contribution:      2.136738540       2.923407756      -4.573346356
Nuclear contribution   :     -1.933270621      -3.097880953       4.554144729
                        -----------------------------------------
Total Dipole Moment    :      0.203467919      -0.174473198      -0.019201627
                        -----------------------------------------
Magnitude (a.u.)       :      0.268716939
Magnitude (Debye)      :      0.683024178

Rotational constants in cm-1:             0.011810             0.005455             0.004633
Rotational constants in MHz :           354.046224           163.538419           138.886200

                             ****ORCA TERMINATED NORMALLY****
TOTAL RUN TIME: 0 days 0 hours 0 minutes 21 seconds 443 msec
