                         Program Version 6.0.0  -   RELEASE  -
|  1> ! r2scan-3c def2/J RI DEFGRID2 scfconv6 printgap
|  2> %output
|  3>     printlevel normal
|  4> end
|  5> * xyz 0 1
|  6> C 3.0022008536 -1.873793967 -0.1966122453
|  7> C 1.711276515 -1.1503169091 -0.124075899
|  8> C 1.5436814494 0.1757309837 0.084831303
|  9> C 0.2388680273 0.814880538 0.1439568197
| 10> O 0.1550370284 2.0184485568 0.3407568692
| 11> N -0.863451196 -0.0225334523 -0.0346624432
| 12> C -0.7079071255 -1.3830848312 -0.2443801671
| 13> O -1.6253280463 -2.1715846234 -0.3994626581
| 14> N 0.5702040421 -1.8741321351 -0.2797456439
| 15> C -2.2888497527 0.4700311141 -0.0120388705
| 16> C -2.4292287951 1.975783601 0.2148322276
| 17> C -2.9257810427 0.1563451671 -1.3710273278
| 18> C -3.020829172 -0.2322816553 1.1375058827
| 19> Cl 2.8788138645 1.2562329479 0.3068990875
| 20> H 3.0986740068 -2.3618596326 -1.1636510958
| 21> H 3.0414256876 -2.6382257336 0.5759495364
| 22> H 3.8244964554 -1.1806251224 -0.0592401156
| 23> H 0.6316538346 -2.8758038047 -0.4371259929
| 24> H -3.4908214649 2.2096033231 0.2059247525
| 25> H -2.0178847886 2.2823657582 1.1715571884
| 26> H -1.9441025634 2.5510006573 -0.5677649427
| 27> H -3.9366834961 0.5509092211 -1.3876055136
| 28> H -2.9707009589 -0.9119885274 -1.5534037169
| 29> H -2.3545113148 0.6306592138 -2.1661327723
| 30> H -3.0683292164 -1.3049549811 0.9831464576
| 31> H -2.513888587 -0.0290439266 2.0783790957
| 32> H -4.0339422831 0.1519487073 1.1995387173
| 33> *
| 34>
| 35>                          ****END OF INPUT****

CARTESIAN COORDINATES (ANGSTROEM)
---------------------------------
  C      3.002201   -1.873794   -0.196612
  C      1.711277   -1.150317   -0.124076
  C      1.543681    0.175731    0.084831
  C      0.238868    0.814881    0.143957
  O      0.155037    2.018449    0.340757
  N     -0.863451   -0.022533   -0.034662
  C     -0.707907   -1.383085   -0.244380
  O     -1.625328   -2.171585   -0.399463
  N      0.570204   -1.874132   -0.279746
  C     -2.288850    0.470031   -0.012039
  C     -2.429229    1.975784    0.214832
  C     -2.925781    0.156345   -1.371027
  C     -3.020829   -0.232282    1.137506
  Cl     2.878814    1.256233    0.306899
  H      3.098674   -2.361860   -1.163651
  H      3.041426   -2.638226    0.575950
  H      3.824496   -1.180625   -0.059240
  H      0.631654   -2.875804   -0.437126
  H     -3.490821    2.209603    0.205925
  H     -2.017885    2.282366    1.171557
  H     -1.944103    2.551001   -0.567765
  H     -3.936683    0.550909   -1.387606
  H     -2.970701   -0.911989   -1.553404
  H     -2.354511    0.630659   -2.166133
  H     -3.068329   -1.304955    0.983146
  H     -2.513889   -0.029044    2.078379
  H     -4.033942    0.151949    1.199539

 Total Charge           Charge          ....    0
 Multiplicity           Mult            ....    1
 Number of Electrons    NEL             ....  114
 Basis Dimension        Dim             ....  359

ORBITAL ENERGIES
----------------

  NO   OCC          E(Eh)            E(eV)
   0   2.0000    -101.223698     -2754.4369
   1   2.0000     -18.931154      -515.1429
   2   2.0000     -18.921824      -514.8890
   3   2.0000     -14.236562      -387.3965
   4   2.0000     -14.231100      -387.2479
   5   2.0000     -10.182955      -277.0923
   6   2.0000     -10.151903      -276.2473
   7   2.0000     -10.124921      -275.5131
   8   2.0000     -10.102273      -274.8968
   9   2.0000     -10.096236      -274.7326
  10   2.0000     -10.067233      -273.9433
  11   2.0000     -10.015949      -272.5478
  12   2.0000     -10.015914      -272.5469
  13   2.0000     -10.012973      -272.4668
  14   2.0000      -9.379110      -255.2185
  15   2.0000      -7.125781      -193.9023
  16   2.0000      -7.115206      -193.6146
  17   2.0000      -7.114682      -193.6003
  18   2.0000      -1.053309       -28.6620
  19   2.0000      -1.011456       -27.5231
  20   2.0000      -0.956449       -26.0263
  21   2.0000      -0.917915       -24.9777
  22   2.0000      -0.845862       -23.0171
  23   2.0000      -0.782827       -21.3018
  24   2.0000      -0.764537       -20.8041
  25   2.0000      -0.706607       -19.2278
  26   2.0000      -0.660056       -17.9610
  27   2.0000      -0.655987       -17.8503
  28   2.0000      -0.635496       -17.2927
  29   2.0000      -0.626423       -17.0458
  30   2.0000      -0.566167       -15.4062
  31   2.0000      -0.549427       -14.9507
  32   2.0000      -0.513865       -13.9830
  33   2.0000      -0.471883       -12.8406
  34   2.0000      -0.452436       -12.3114
  35   2.0000      -0.436488       -11.8774
  36   2.0000      -0.432877       -11.7792
  37   2.0000      -0.421843       -11.4789
  38   2.0000      -0.412197       -11.2164
  39   2.0000      -0.411774       -11.2049
  40   2.0000      -0.402823       -10.9614
  41   2.0000      -0.398375       -10.8403
  42   2.0000      -0.384398       -10.4600
  43   2.0000      -0.382879       -10.4187
  44   2.0000      -0.365794        -9.9538
  45   2.0000      -0.358267        -9.7490
  46   2.0000      -0.346205        -9.4207
  47   2.0000      -0.341083        -9.2813
  48   2.0000      -0.328635        -8.9426
  49   2.0000      -0.314936        -8.5699
  50   2.0000      -0.305142        -8.3033
  51   2.0000      -0.303155        -8.2493
  52   2.0000      -0.287110        -7.8127
  53   2.0000      -0.253548        -6.8994
  54   2.0000      -0.251542        -6.8448
  55   2.0000      -0.226126        -6.1532
  56   2.0000      -0.216744        -5.8979
  57   0.0000      -0.070771        -1.9258
  58   0.0000      -0.026493        -0.7209
  59   0.0000      -0.000256        -0.0070
  60   0.0000       0.038787         1.0555
  61   0.0000       0.067378         1.8335

MULLIKEN ATOMIC CHARGES
-----------------------
   0 C :   -0.610777
   1 C :    0.149831
   2 C :    0.001088
   3 C :    0.090869
   4 O :   -0.414197
   5 N :    0.175668
   6 C :    0.266745
   7 O :   -0.476817
   8 N :   -0.022829
   9 C :    0.126009
  10 C :   -0.417025
  11 C :   -0.565733
  12 C :   -0.566260
  13 Cl:   -0.096776
  14 H :    0.175063
  15 H :    0.175287
  16 H :    0.191420
  17 H :    0.280431
  18 H :    0.148782
  19 H :    0.175180
  20 H :    0.174598
  21 H :    0.158517
  22 H :    0.200170
  23 H :    0.161091
  24 H :    0.199917
  25 H :    0.161366
  26 H :    0.158383
Sum of atomic charges:    0.0000000

LOEWDIN ATOMIC CHARGES
----------------------
   0 C :   -0.349763
   1 C :    0.153918
   2 C :   -0.124163
   3 C :    0.368078
   4 O :   -0.486663
   5 N :   -0.597964
   6 C :    0.462332
   7 O :   -0.456580
   8 N :   -0.521308
   9 C :    0.061389
  10 C :   -0.348277
  11 C :   -0.356830
  12 C :   -0.356866
  13 Cl:    0.187220
  14 H :    0.175461
  15 H :    0.175538
  16 H :    0.181296
  17 H :    0.300337
  18 H :    0.154828
  19 H :    0.177010
  20 H :    0.176631
  21 H :    0.161265
  22 H :    0.187794
  23 H :    0.163181
  24 H :    0.187624
  25 H :    0.163275
  26 H :    0.161237

  Mayer bond orders larger than 0.100000
B(  0-C ,  1-C ) :   0.8492 B(  0-C , 14-H ) :   0.9673 B(  0-C , 15-H ) :   0.9672
B(  0-C , 16-H ) :   0.9564 B(  1-C ,  2-C ) :   1.5102 B(  1-C ,  8-N ) :   1.1455
B(  2-C ,  3-C ) :   0.9533 B(  2-C , 13-Cl) :   1.1150 B(  3-C ,  4-O ) :   1.9124
B(  3-C ,  5-N ) :   1.1006 B(  5-N ,  6-C ) :   1.1329 B(  5-N ,  9-C ) :   0.8319
B(  6-C ,  7-O ) :   1.8775 B(  6-C ,  8-N ) :   1.0518 B(  8-N , 17-H ) :   0.9047
B(  9-C , 10-C ) :   0.9508 B(  9-C , 11-C ) :   0.9185 B(  9-C , 12-C ) :   0.9194
B( 10-C , 18-H ) :   0.9561 B( 10-C , 19-H ) :   0.9648 B( 10-C , 20-H ) :   0.9650
B( 11-C , 21-H ) :   0.9727 B( 11-C , 22-H ) :   0.9588 B( 11-C , 23-H ) :   0.9677
B( 12-C , 24-H ) :   0.9588 B( 12-C , 25-H ) :   0.9679 B( 12-C , 26-H ) :   0.9726

Dispersion correction           -0.011504746
FINAL SINGLE POINT ENERGY     -1070.812208075635

DIPOLE MOMENT
-------------

Method             : SCF
Type of density    : Electron Density
Multiplicity       :   1
Irrep              :   0
Energy             : -1070.8236485338591137 Eh
Relativity type    :
Basis              : AO
                                X                 Y                 Z
Electronic contribution:     19.252619774       3.064592158       1.255476258
Nuclear contribution   :    -18.649115242      -4.443912153      -1.465672101
                        -----------------------------------------
Total Dipole Moment    :      0.603504532      -1.379319995      -0.210195844
                        -----------------------------------------
Magnitude (a.u.)       :      1.520172248
Magnitude (Debye)      :      3.863970779

Rotational constants in cm-1:             0.034016             0.016018             0.011772
Rotational constants in MHz :          1019.776456           480.222441           352.918824

                             ****ORCA TERMINATED NORMALLY****
TOTAL RUN TIME: 0 days 0 hours 1 minutes 5 seconds 615 msec
