                         Program Version 6.0.0  -   RELEASE  -
|  1> ! r2scan-3c def2/J RI DEFGRID2 scfconv6 printgap
|  2> %output
|  3>     printlevel normal
|  4> end
|  5> %cpcm
|  6>     smd true
|  7>     smdsolvent "water"
|  8> end
|  9> * xyz 0 1
| 10> C 3.0022008536 -1.873793967 -0.1966122453
| 11> C 1.711276515 -1.1503169091 -0.124075899
| 12> C 1.5436814494 0.1757309837 0.084831303
| 13> C 0.2388680273 0.814880538 0.1439568197
| 14> O 0.1550370284 2.0184485568 0.3407568692
| 15> N -0.863451196 -0.0225334523 -0.0346624432
| 16> C -0.7079071255 -1.3830848312 -0.2443801671
| 17> O -1.6253280463 -2.1715846234 -0.3994626581
| 18> N 0.5702040421 -1.8741321351 -0.2797456439
| 19> C -2.2888497527 0.4700311141 -0.0120388705
| 20> C -2.4292287951 1.975783601 0.2148322276
| 21> C -2.9257810427 0.1563451671 -1.3710273278
| 22> C -3.020829172 -0.2322816553 1.1375058827
| 23> Cl 2.8788138645 1.2562329479 0.3068990875
| 24> H 3.0986740068 -2.3618596326 -1.1636510958
| 25> H 3.0414256876 -2.6382257336 0.5759495364
| 26> H 3.8244964554 -1.1806251224 -0.0592401156
| 27> H 0.6316538346 -2.8758038047 -0.4371259929
| 28> H -3.4908214649 2.2096033231 0.2059247525
| 29> H -2.0178847886 2.2823657582 1.1715571884
| 30> H -1.9441025634 2.5510006573 -0.5677649427
| 31> H -3.9366834961 0.5509092211 -1.3876055136
| 32> H -2.9707009589 -0.9119885274 -1.5534037169
| 33> H -2.3545113148 0.6306592138 -2.1661327723
| 34> H -3.0683292164 -1.3049549811 0.9831464576
| 35> H -2.513888587 -0.0290439266 2.0783790957
| 36> H -4.0339422831 0.1519487073 1.1995387173
| 37> *
| 38>
| 39>                          ****END OF INPUT****

CARTESIAN COORDINATES (ANGSTROEM)
---------------------------------
  C      3.002201   -1.873794   -0.196612
  C      1.711277   -1.150317   -0.124076
  C      1.543681    0.175731    0.084831
  C      0.238868    0.814881    0.143957
  O      0.155037    2.018449    0.340757
  N     -0.863451   -0.022533   -0.034662
  C     -0.707907   -1.383085   -0.244380
  O     -1.625328   -2.171585   -0.399463
  N      0.570204   -1.874132   -0.279746
  C     -2.288850    0.470031   -0.012039
  C     -2.429229    1.975784    0.214832
  C     -2.925781    0.156345   -1.371027
  C     -3.020829   -0.232282    1.137506
  Cl     2.878814    1.256233    0.306899
  H      3.098674   -2.361860   -1.163651
  H      3.041426   -2.638226    0.575950
  H      3.824496   -1.180625   -0.059240
  H      0.631654   -2.875804   -0.437126
  H     -3.490821    2.209603    0.205925
  H     -2.017885    2.282366    1.171557
  H     -1.944103    2.551001   -0.567765
  H     -3.936683    0.550909   -1.387606
  H     -2.970701   -0.911989   -1.553404
  H     -2.354511    0.630659   -2.166133
  H     -3.068329   -1.304955    0.983146
  H     -2.513889   -0.029044    2.078379
  H     -4.033942    0.151949    1.199539

 Total Charge           Charge          ....    0
 Multiplicity           Mult            ....    1
 Number of Electrons    NEL             ....  114
 Basis Dimension        Dim             ....  359

ORBITAL ENERGIES
----------------

  NO   OCC          E(Eh)            E(eV)
   0   2.0000    -101.226104     -2754.5023
   1   2.0000     -18.934619      -515.2372
   2   2.0000     -18.930216      -515.1174
   3   2.0000     -14.231203      -387.2507
   4   2.0000     -14.224521      -387.0689
   5   2.0000     -10.182997      -277.0934
   6   2.0000     -10.157346      -276.3954
   7   2.0000     -10.117074      -275.2996
   8   2.0000     -10.096572      -274.7417
   9   2.0000     -10.093574      -274.6601
  10   2.0000     -10.039010      -273.1754
  11   2.0000     -10.011599      -272.4295
  12   2.0000     -10.011024      -272.4138
  13   2.0000     -10.011006      -272.4133
  14   2.0000      -9.381750      -255.2904
  15   2.0000      -7.128225      -193.9689
  16   2.0000      -7.117904      -193.6880
  17   2.0000      -7.117416      -193.6747
  18   2.0000      -1.053297       -28.6617
  19   2.0000      -1.019829       -27.7510
  20   2.0000      -0.950126       -25.8542
  21   2.0000      -0.916262       -24.9327
  22   2.0000      -0.845374       -23.0038
  23   2.0000      -0.777870       -21.1669
  24   2.0000      -0.752736       -20.4830
  25   2.0000      -0.695401       -18.9228
  26   2.0000      -0.655450       -17.8357
  27   2.0000      -0.654461       -17.8088
  28   2.0000      -0.628984       -17.1155
  29   2.0000      -0.617741       -16.8096
  30   2.0000      -0.561137       -15.2693
  31   2.0000      -0.545068       -14.8321
  32   2.0000      -0.503167       -13.6919
  33   2.0000      -0.465295       -12.6613
  34   2.0000      -0.447549       -12.1784
  35   2.0000      -0.437394       -11.9021
  36   2.0000      -0.423911       -11.5352
  37   2.0000      -0.418128       -11.3778
  38   2.0000      -0.413719       -11.2579
  39   2.0000      -0.404038       -10.9944
  40   2.0000      -0.395402       -10.7594
  41   2.0000      -0.392176       -10.6716
  42   2.0000      -0.384627       -10.4662
  43   2.0000      -0.371299       -10.1036
  44   2.0000      -0.356960        -9.7134
  45   2.0000      -0.356623        -9.7042
  46   2.0000      -0.342402        -9.3172
  47   2.0000      -0.336001        -9.1431
  48   2.0000      -0.327645        -8.9157
  49   2.0000      -0.313478        -8.5302
  50   2.0000      -0.305364        -8.3094
  51   2.0000      -0.300592        -8.1795
  52   2.0000      -0.290106        -7.8942
  53   2.0000      -0.257740        -7.0135
  54   2.0000      -0.254875        -6.9355
  55   2.0000      -0.235858        -6.4180
  56   2.0000      -0.214147        -5.8272
  57   0.0000      -0.064855        -1.7648
  58   0.0000      -0.026693        -0.7263
  59   0.0000       0.002749         0.0748
  60   0.0000       0.054799         1.4911
  61   0.0000       0.078642         2.1400

MULLIKEN ATOMIC CHARGES
-----------------------
   0 C :   -0.625160
   1 C :    0.186599
   2 C :   -0.013455
   3 C :    0.089888
   4 O :   -0.495319
   5 N :    0.193126
   6 C :    0.288972
   7 O :   -0.538190
   8 N :   -0.024375
   9 C :    0.177512
  10 C :   -0.474078
  11 C :   -0.600423
  12 C :   -0.601027
  13 Cl:   -0.130168
  14 H :    0.205815
  15 H :    0.205861
  16 H :    0.190251
  17 H :    0.335955
  18 H :    0.173816
  19 H :    0.177362
  20 H :    0.177282
  21 H :    0.180915
  22 H :    0.189652
  23 H :    0.179447
  24 H :    0.189502
  25 H :    0.179517
  26 H :    0.180724
Sum of atomic charges:    0.0000000

LOEWDIN ATOMIC CHARGES
----------------------
   0 C :   -0.343585
   1 C :    0.182535
   2 C :   -0.136834
   3 C :    0.371099
   4 O :   -0.558121
   5 N :   -0.585538
   6 C :    0.469076
   7 O :   -0.502051
   8 N :   -0.482584
   9 C :    0.065685
  10 C :   -0.354400
  11 C :   -0.360655
  12 C :   -0.360721
  13 Cl:    0.164365
  14 H :    0.191293
  15 H :    0.191303
  16 H :    0.178938
  17 H :    0.318442
  18 H :    0.163566
  19 H :    0.174398
  20 H :    0.174187
  21 H :    0.168077
  22 H :    0.183067
  23 H :    0.168754
  24 H :    0.182935
  25 H :    0.168738
  26 H :    0.168029

  Mayer bond orders larger than 0.100000
B(  0-C ,  1-C ) :   0.8621 B(  0-C , 14-H ) :   0.9476 B(  0-C , 15-H ) :   0.9475
B(  0-C , 16-H ) :   0.9650 B(  1-C ,  2-C ) :   1.4809 B(  1-C ,  8-N ) :   1.1551
B(  2-C ,  3-C ) :   0.9630 B(  2-C , 13-Cl) :   1.0455 B(  3-C ,  4-O ) :   1.8680
B(  3-C ,  5-N ) :   1.1199 B(  5-N ,  6-C ) :   1.1403 B(  5-N ,  9-C ) :   0.8308
B(  6-C ,  7-O ) :   1.8229 B(  6-C ,  8-N ) :   1.0714 B(  8-N , 17-H ) :   0.8807
B(  9-C , 10-C ) :   0.9148 B(  9-C , 11-C ) :   0.9092 B(  9-C , 12-C ) :   0.9101
B( 10-C , 18-H ) :   0.9527 B( 10-C , 19-H ) :   0.9703 B( 10-C , 20-H ) :   0.9707
B( 11-C , 21-H ) :   0.9698 B( 11-C , 22-H ) :   0.9595 B( 11-C , 23-H ) :   0.9643
B( 12-C , 24-H ) :   0.9596 B( 12-C , 25-H ) :   0.9645 B( 12-C , 26-H ) :   0.9697

Dispersion correction           -0.011504746
FINAL SINGLE POINT ENERGY     -1070.827152082380

DIPOLE MOMENT
-------------

Method             : SCF
Type of density    : Electron Density
Multiplicity       :   1
Irrep              :   0
Energy             : -1070.8385925406048500 Eh
Relativity type    :
Basis              : AO
                                X                 Y                 Z
Electronic contribution:     19.490259277       2.272688948       1.131673713
Nuclear contribution   :    -18.649115242      -4.443912153      -1.465672101
                        -----------------------------------------
Total Dipole Moment    :      0.841144035      -2.171223205      -0.333998388
                        -----------------------------------------
Magnitude (a.u.)       :      2.352294288
Magnitude (Debye)      :      5.979056917

Rotational constants in cm-1:             0.034016             0.016018             0.011772
Rotational constants in MHz :          1019.776456           480.222441           352.918824

                             ****ORCA TERMINATED NORMALLY****
TOTAL RUN TIME: 0 days 0 hours 1 minutes 26 seconds 635 msec
