                         Program Version 6.0.0  -   RELEASE  -
|  1> ! pbe def2-sv(p) def2/J RI DEFGRID1 loosescf d4 GCP(DFT/SV(P)) printgap
|  2> %output
|  3>     printlevel normal
|  4> end
|  5> * xyz 0 1
|  6> C 1.4868592713 -2.5541874883 -2.3066933909
|  7> C 1.8807541219 -2.5439746728 -0.8429223359
|  8> O 2.8519601623 -1.510696419 -0.5829582106
|  9> P 2.4630126516 -0.0406192071 -0.1210622175
| 10> S 1.301142042 1.0082640063 -1.3018979987
| 11> O 3.8766434948 0.6385307381 -0.003074328
| 12> C 5.09435893 -0.0199163893 0.4288273823
| 13> C 5.020317154 -0.4940608449 1.8641800714
| 14> S 1.7263326748 -0.3071985859 1.8741946711
| 15> C 0.0794466742 0.3963540162 1.7217861362
| 16> S -1.0276582921 -0.6641631619 0.7366279352
| 17> P -2.4061956405 0.8434863226 0.1349016863
| 18> S -1.7334041105 2.6815082912 0.1283125241
| 19> O -3.6225897079 0.7199227626 1.1281650164
| 20> C -4.3590689905 -0.5128176279 1.335492342
| 21> C -5.6065002352 -0.5460300327 0.4769067723
| 22> O -3.0133835459 0.2910065223 -1.2217803127
| 23> C -2.2243162088 0.0350861082 -2.4030356258
| 24> C -2.1200604598 -1.4610552955 -2.6267976116
| 25> H 1.0289878642 -1.6051224157 -2.5758389962
| 26> H 2.3645957821 -2.7045567652 -2.9289776599
| 27> H 0.7784218373 -3.3569108762 -2.4825227918
| 28> H 2.3857753984 -3.4693739637 -0.5597186478
| 29> H 1.0075182859 -2.3927038538 -0.2003200864
| 30> H 5.2897691577 -0.8510893396 -0.2505137576
| 31> H 5.8519364568 0.7544987006 0.2991082693
| 32> H 5.9859688874 -0.8972971461 2.1531376787
| 33> H 4.7646962853 0.3304338218 2.5247611573
| 34> H 4.2653706529 -1.2713327813 1.9699900015
| 35> H 0.127480704 1.3741280243 1.2344370418
| 36> H -0.308355133 0.4797579767 2.7344083936
| 37> H -3.7010805638 -1.3586629904 1.1159550668
| 38> H -4.6081367107 -0.5033432319 2.3980259931
| 39> H -5.3403617976 -0.5274758796 -0.576330131
| 40> H -6.1617218505 -1.4534405818 0.6928313473
| 41> H -6.2297569732 0.3173022527 0.6932331748
| 42> H -2.7567285124 0.5265462541 -3.2195225972
| 43> H -1.2383092288 0.497043587 -2.2939012776
| 44> H -1.6054933958 -1.930078716 -1.791350993
| 45> H -3.1126576517 -1.8922679231 -2.7192381639
| 46> H -1.5623007986 -1.6438462243 -3.5393866467
| 47> *
| 48>
| 49>                          ****END OF INPUT****

CARTESIAN COORDINATES (ANGSTROEM)
---------------------------------
  C      1.486859   -2.554187   -2.306693
  C      1.880754   -2.543975   -0.842922
  O      2.851960   -1.510696   -0.582958
  P      2.463013   -0.040619   -0.121062
  S      1.301142    1.008264   -1.301898
  O      3.876643    0.638531   -0.003074
  C      5.094359   -0.019916    0.428827
  C      5.020317   -0.494061    1.864180
  S      1.726333   -0.307199    1.874195
  C      0.079447    0.396354    1.721786
  S     -1.027658   -0.664163    0.736628
  P     -2.406196    0.843486    0.134902
  S     -1.733404    2.681508    0.128313
  O     -3.622590    0.719923    1.128165
  C     -4.359069   -0.512818    1.335492
  C     -5.606500   -0.546030    0.476907
  O     -3.013384    0.291007   -1.221780
  C     -2.224316    0.035086   -2.403036
  C     -2.120060   -1.461055   -2.626798
  H      1.028988   -1.605122   -2.575839
  H      2.364596   -2.704557   -2.928978
  H      0.778422   -3.356911   -2.482523
  H      2.385775   -3.469374   -0.559719
  H      1.007518   -2.392704   -0.200320
  H      5.289769   -0.851089   -0.250514
  H      5.851936    0.754499    0.299108
  H      5.985969   -0.897297    2.153138
  H      4.764696    0.330434    2.524761
  H      4.265371   -1.271333    1.969990
  H      0.127481    1.374128    1.234437
  H     -0.308355    0.479758    2.734408
  H     -3.701081   -1.358663    1.115955
  H     -4.608137   -0.503343    2.398026
  H     -5.340362   -0.527476   -0.576330
  H     -6.161722   -1.453441    0.692831
  H     -6.229757    0.317302    0.693233
  H     -2.756729    0.526546   -3.219523
  H     -1.238309    0.497044   -2.293901
  H     -1.605493   -1.930079   -1.791351
  H     -3.112658   -1.892268   -2.719238
  H     -1.562301   -1.643846   -3.539387

 Total Charge           Charge          ....    0
 Multiplicity           Mult            ....    1
 Number of Electrons    NEL             ....  202
 Basis Dimension        Dim             ....  334

ORBITAL ENERGIES
----------------

  NO   OCC          E(Eh)            E(eV)
   0   2.0000     -88.046491     -2395.8668
   1   2.0000     -88.039894     -2395.6873
   2   2.0000     -87.982234     -2394.1183
   3   2.0000     -87.976380     -2393.9590
   4   2.0000     -76.427141     -2079.6882
   5   2.0000     -76.420846     -2079.5169
   6   2.0000     -18.795281      -511.4456
   7   2.0000     -18.792915      -511.3812
   8   2.0000     -18.791889      -511.3533
   9   2.0000     -18.786513      -511.2070
  10   2.0000      -9.959737      -271.0182
  11   2.0000      -9.957747      -270.9641
  12   2.0000      -9.954267      -270.8694
  13   2.0000      -9.951242      -270.7871
  14   2.0000      -9.950225      -270.7594
  15   2.0000      -9.893970      -269.2286
  16   2.0000      -9.888369      -269.0762
  17   2.0000      -9.884859      -268.9807
  18   2.0000      -9.884812      -268.9794
  19   2.0000      -7.691081      -209.2850
  20   2.0000      -7.684258      -209.0993
  21   2.0000      -7.626970      -207.5404
  22   2.0000      -7.621681      -207.3965
  23   2.0000      -6.424435      -174.8178
  24   2.0000      -6.418430      -174.6544
  25   2.0000      -5.719059      -155.6235
  26   2.0000      -5.715364      -155.5230
  27   2.0000      -5.711985      -155.4310
  28   2.0000      -5.708945      -155.3483
  29   2.0000      -5.708317      -155.3312
  30   2.0000      -5.701354      -155.1417
  31   2.0000      -5.656121      -153.9109
  32   2.0000      -5.650811      -153.7664
  33   2.0000      -5.647411      -153.6739
  34   2.0000      -5.647080      -153.6648
  35   2.0000      -5.642119      -153.5299
  36   2.0000      -5.641777      -153.5206
  37   2.0000      -4.647381      -126.4617
  38   2.0000      -4.646123      -126.4274
  39   2.0000      -4.644661      -126.3877
  40   2.0000      -4.641272      -126.2954
  41   2.0000      -4.640322      -126.2696
  42   2.0000      -4.638493      -126.2198
  43   2.0000      -0.990991       -26.9662
  44   2.0000      -0.985636       -26.8205
  45   2.0000      -0.946250       -25.7488
  46   2.0000      -0.942243       -25.6397
  47   2.0000      -0.760700       -20.6997
  48   2.0000      -0.721561       -19.6347
  49   2.0000      -0.713144       -19.4056
  50   2.0000      -0.695122       -18.9152
  51   2.0000      -0.690602       -18.7922
  52   2.0000      -0.676092       -18.3974
  53   2.0000      -0.649345       -17.6696
  54   2.0000      -0.631363       -17.1803
  55   2.0000      -0.594593       -16.1797
  56   2.0000      -0.587464       -15.9857
  57   2.0000      -0.581606       -15.8263
  58   2.0000      -0.571000       -15.5377
  59   2.0000      -0.562277       -15.3003
  60   2.0000      -0.507932       -13.8215
  61   2.0000      -0.498567       -13.5667
  62   2.0000      -0.479795       -13.0559
  63   2.0000      -0.477090       -12.9823
  64   2.0000      -0.453017       -12.3272
  65   2.0000      -0.449025       -12.2186
  66   2.0000      -0.443292       -12.0626
  67   2.0000      -0.439280       -11.9534
  68   2.0000      -0.429856       -11.6970
  69   2.0000      -0.418143       -11.3783
  70   2.0000      -0.413055       -11.2398
  71   2.0000      -0.400018       -10.8850
  72   2.0000      -0.392754       -10.6874
  73   2.0000      -0.388647       -10.5756
  74   2.0000      -0.386096       -10.5062
  75   2.0000      -0.370890       -10.0924
  76   2.0000      -0.360832        -9.8187
  77   2.0000      -0.358029        -9.7425
  78   2.0000      -0.355966        -9.6863
  79   2.0000      -0.354564        -9.6482
  80   2.0000      -0.353778        -9.6268
  81   2.0000      -0.347146        -9.4463
  82   2.0000      -0.346539        -9.4298
  83   2.0000      -0.336924        -9.1682
  84   2.0000      -0.335129        -9.1193
  85   2.0000      -0.319238        -8.6869
  86   2.0000      -0.313500        -8.5308
  87   2.0000      -0.301552        -8.2056
  88   2.0000      -0.295045        -8.0286
  89   2.0000      -0.292384        -7.9562
  90   2.0000      -0.287578        -7.8254
  91   2.0000      -0.279196        -7.5973
  92   2.0000      -0.274400        -7.4668
  93   2.0000      -0.263629        -7.1737
  94   2.0000      -0.257268        -7.0006
  95   2.0000      -0.239888        -6.5277
  96   2.0000      -0.219533        -5.9738
  97   2.0000      -0.207115        -5.6359
  98   2.0000      -0.194019        -5.2795
  99   2.0000      -0.191770        -5.2183
 100   2.0000      -0.185583        -5.0500
 101   0.0000      -0.045096        -1.2271
 102   0.0000      -0.030829        -0.8389
 103   0.0000      -0.012736        -0.3466
 104   0.0000       0.003308         0.0900
 105   0.0000       0.011023         0.3000

MULLIKEN ATOMIC CHARGES
-----------------------
   0 C :   -0.301987
   1 C :   -0.018168
   2 O :   -0.384363
   3 P :    0.606371
   4 S :   -0.293705
   5 O :   -0.358068
   6 C :    0.005035
   7 C :   -0.332268
   8 S :   -0.131445
   9 C :   -0.319688
  10 S :   -0.146286
  11 P :    0.600507
  12 S :   -0.292617
  13 O :   -0.355304
  14 C :   -0.010842
  15 C :   -0.289736
  16 O :   -0.381583
  17 C :   -0.023330
  18 C :   -0.308852
  19 H :    0.136166
  20 H :    0.112898
  21 H :    0.108584
  22 H :    0.103401
  23 H :    0.115002
  24 H :    0.111706
  25 H :    0.113802
  26 H :    0.118405
  27 H :    0.131229
  28 H :    0.129613
  29 H :    0.213073
  30 H :    0.179662
  31 H :    0.095908
  32 H :    0.108299
  33 H :    0.122804
  34 H :    0.107018
  35 H :    0.120665
  36 H :    0.110217
  37 H :    0.140226
  38 H :    0.127388
  39 H :    0.113284
  40 H :    0.116979
Sum of atomic charges:    0.0000000

LOEWDIN ATOMIC CHARGES
----------------------
   0 C :   -0.363373
   1 C :   -0.116365
   2 O :   -0.249168
   3 P :    0.564354
   4 S :   -0.285851
   5 O :   -0.234472
   6 C :   -0.108488
   7 C :   -0.370327
   8 S :    0.072753
   9 C :   -0.481808
  10 S :    0.051811
  11 P :    0.563464
  12 S :   -0.292125
  13 O :   -0.238694
  14 C :   -0.115636
  15 C :   -0.360188
  16 O :   -0.244075
  17 C :   -0.116984
  18 C :   -0.359508
  19 H :    0.124454
  20 H :    0.125902
  21 H :    0.127305
  22 H :    0.117127
  23 H :    0.099337
  24 H :    0.115239
  25 H :    0.124337
  26 H :    0.134097
  27 H :    0.130422
  28 H :    0.116784
  29 H :    0.125144
  30 H :    0.135383
  31 H :    0.100276
  32 H :    0.120580
  33 H :    0.125513
  34 H :    0.128005
  35 H :    0.129339
  36 H :    0.121360
  37 H :    0.110794
  38 H :    0.118262
  39 H :    0.123891
  40 H :    0.131129

  Mayer bond orders larger than 0.100000
B(  0-C ,  1-C ) :   1.1709 B(  0-C , 19-H ) :   0.9250 B(  0-C , 20-H ) :   0.9445
B(  0-C , 21-H ) :   0.9369 B(  1-C ,  2-O ) :   0.9034 B(  1-C , 22-H ) :   0.9353
B(  1-C , 23-H ) :   0.9037 B(  2-O ,  3-P ) :   1.0698 B(  3-P ,  4-S ) :   1.6668
B(  3-P ,  5-O ) :   1.1446 B(  3-P ,  8-S ) :   0.9263 B(  4-S ,  8-S ) :   0.1166
B(  5-O ,  6-C ) :   0.8989 B(  6-C ,  7-C ) :   1.1696 B(  6-C , 24-H ) :   0.9266
B(  6-C , 25-H ) :   0.9333 B(  7-C , 26-H ) :   0.9355 B(  7-C , 27-H ) :   0.9428
B(  7-C , 28-H ) :   0.9320 B(  8-S ,  9-C ) :   1.0144 B(  9-C , 10-S ) :   0.9766
B(  9-C , 29-H ) :   0.8457 B(  9-C , 30-H ) :   0.9075 B( 10-S , 11-P ) :   0.9354
B( 10-S , 12-S ) :   0.1174 B( 11-P , 12-S ) :   1.6761 B( 11-P , 13-O ) :   1.1332
B( 11-P , 16-O ) :   1.0902 B( 13-O , 14-C ) :   0.8983 B( 14-C , 15-C ) :   1.1631
B( 14-C , 31-H ) :   0.9116 B( 14-C , 32-H ) :   0.9366 B( 15-C , 33-H ) :   0.9406
B( 15-C , 34-H ) :   0.9400 B( 15-C , 35-H ) :   0.9467 B( 16-O , 17-C ) :   0.8880
B( 17-C , 18-C ) :   1.1666 B( 17-C , 36-H ) :   0.9328 B( 17-C , 37-H ) :   0.8998
B( 18-C , 38-H ) :   0.9363 B( 18-C , 39-H ) :   0.9455 B( 18-C , 40-H ) :   0.9373

Dispersion correction           -0.065318541
FINAL SINGLE POINT ENERGY     -2929.512823643802

DIPOLE MOMENT
-------------

Method             : SCF
Type of density    : Electron Density
Multiplicity       :   1
Irrep              :   0
Energy             : -2929.6328421320445159 Eh
Relativity type    :
Basis              : AO
                                X                 Y                 Z
Electronic contribution:      3.027837046      18.718257642       7.111702815
Nuclear contribution   :     -2.659952553     -21.037677454      -6.933079423
                        -----------------------------------------
Total Dipole Moment    :      0.367884493      -2.319419813       0.178623392
                        -----------------------------------------
Magnitude (a.u.)       :      2.355197143
Magnitude (Debye)      :      5.986435389

Rotational constants in cm-1:             0.013710             0.004667             0.004342
Rotational constants in MHz :           411.011944           139.927169           130.177858

                             ****ORCA TERMINATED NORMALLY****
TOTAL RUN TIME: 0 days 0 hours 0 minutes 21 seconds 63 msec
