                         Program Version 6.0.0  -   RELEASE  -
|  1> ! pbe def2-sv(p) def2/J RI DEFGRID1 loosescf d4 GCP(DFT/SV(P)) printgap
|  2> %output
|  3>     printlevel normal
|  4> end
|  5> * xyz 0 1
|  6> C -2.6164369279 0.5524468417 0.0003471129
|  7> C -1.2355777253 -0.0392777217 -0.0001878399
|  8> C -1.1487799545 -1.4318731846 -0.0001217366
|  9> C 0.0689261458 -2.0768113144 -4.11468e-05
| 10> C 1.2381713983 -1.3357633094 7.3343e-05
| 11> C 1.1678061616 0.0473498409 7.4477e-06
| 12> C -0.0669388831 0.7160240575 -0.0004970357
| 13> C -0.0035411621 2.2156768745 -0.0001224759
| 14> O 2.2944820477 0.8191913334 0.0002370291
| 15> H -3.1600001957 0.2102266619 0.8795256512
| 16> H -2.6126591749 1.6359798269 0.0023175036
| 17> H -3.1597852839 0.2129124138 -0.8800779412
| 18> H -2.0612962396 -2.0097060833 7.27907e-05
| 19> H 0.1159409422 -3.1553237554 0.0001158817
| 20> H 2.1992514152 -1.830100218 0.0002887841
| 21> H 0.565312208 2.5534473256 -0.8654746419
| 22> H -0.9816696426 2.6807259115 -0.0202649625
| 23> H 0.529950727 2.5549600327 0.8871085808
| 24> H 3.0829385488 0.2573448682 -0.0009113615
| 25> *
| 26>
| 27>                          ****END OF INPUT****

CARTESIAN COORDINATES (ANGSTROEM)
---------------------------------
  C     -2.616437    0.552447    0.000347
  C     -1.235578   -0.039278   -0.000188
  C     -1.148780   -1.431873   -0.000122
  C      0.068926   -2.076811   -0.000041
  C      1.238171   -1.335763    0.000073
  C      1.167806    0.047350    0.000007
  C     -0.066939    0.716024   -0.000497
  C     -0.003541    2.215677   -0.000122
  O      2.294482    0.819191    0.000237
  H     -3.160000    0.210227    0.879526
  H     -2.612659    1.635980    0.002318
  H     -3.159785    0.212912   -0.880078
  H     -2.061296   -2.009706    0.000073
  H      0.115941   -3.155324    0.000116
  H      2.199251   -1.830100    0.000289
  H      0.565312    2.553447   -0.865475
  H     -0.981670    2.680726   -0.020265
  H      0.529951    2.554960    0.887109
  H      3.082939    0.257345   -0.000911

 Total Charge           Charge          ....    0
 Multiplicity           Mult            ....    1
 Number of Electrons    NEL             ....   66
 Basis Dimension        Dim             ....  146

ORBITAL ENERGIES
----------------

  NO   OCC          E(Eh)            E(eV)
   0   2.0000     -18.778833      -510.9980
   1   2.0000      -9.942607      -270.5521
   2   2.0000      -9.896366      -269.2938
   3   2.0000      -9.891417      -269.1592
   4   2.0000      -9.884702      -268.9764
   5   2.0000      -9.882445      -268.9150
   6   2.0000      -9.878812      -268.8161
   7   2.0000      -9.875201      -268.7179
   8   2.0000      -9.873549      -268.6729
   9   2.0000      -0.959420       -26.1071
  10   2.0000      -0.770297       -20.9608
  11   2.0000      -0.695899       -18.9364
  12   2.0000      -0.678761       -18.4700
  13   2.0000      -0.617956       -16.8154
  14   2.0000      -0.598546       -16.2873
  15   2.0000      -0.551848       -15.0166
  16   2.0000      -0.514641       -14.0041
  17   2.0000      -0.468892       -12.7592
  18   2.0000      -0.433426       -11.7941
  19   2.0000      -0.427292       -11.6272
  20   2.0000      -0.386077       -10.5057
  21   2.0000      -0.374802       -10.1989
  22   2.0000      -0.362675        -9.8689
  23   2.0000      -0.355991        -9.6870
  24   2.0000      -0.349611        -9.5134
  25   2.0000      -0.337651        -9.1879
  26   2.0000      -0.334257        -9.0956
  27   2.0000      -0.321529        -8.7493
  28   2.0000      -0.299709        -8.1555
  29   2.0000      -0.283436        -7.7127
  30   2.0000      -0.281967        -7.6727
  31   2.0000      -0.209299        -5.6953
  32   2.0000      -0.186457        -5.0738
  33   0.0000      -0.021894        -0.5958
  34   0.0000      -0.014995        -0.4080
  35   0.0000       0.023753         0.6464
  36   0.0000       0.054359         1.4792
  37   0.0000       0.057074         1.5531

MULLIKEN ATOMIC CHARGES
-----------------------
   0 C :   -0.235411
   1 C :   -0.027184
   2 C :   -0.122359
   3 C :   -0.046329
   4 C :   -0.171929
   5 C :    0.178094
   6 C :   -0.083043
   7 C :   -0.207531
   8 O :   -0.339150
   9 H :    0.113625
  10 H :    0.101344
  11 H :    0.113725
  12 H :    0.026057
  13 H :    0.045934
  14 H :    0.018693
  15 H :    0.112642
  16 H :    0.093708
  17 H :    0.112736
  18 H :    0.316378
Sum of atomic charges:    0.0000000

LOEWDIN ATOMIC CHARGES
----------------------
   0 C :   -0.324115
   1 C :   -0.042925
   2 C :   -0.146910
   3 C :   -0.122336
   4 C :   -0.184732
   5 C :    0.027182
   6 C :   -0.072457
   7 C :   -0.323000
   8 O :   -0.236011
   9 H :    0.132571
  10 H :    0.121120
  11 H :    0.132551
  12 H :    0.117863
  13 H :    0.121868
  14 H :    0.117205
  15 H :    0.132601
  16 H :    0.119262
  17 H :    0.132726
  18 H :    0.297538

  Mayer bond orders larger than 0.100000
B(  0-C ,  1-C ) :   1.1078 B(  0-C ,  9-H ) :   0.9350 B(  0-C , 10-H ) :   0.9342
B(  0-C , 11-H ) :   0.9351 B(  1-C ,  2-C ) :   1.3485 B(  1-C ,  6-C ) :   1.4726
B(  2-C ,  3-C ) :   1.3857 B(  2-C , 12-H ) :   0.9678 B(  3-C ,  4-C ) :   1.3311
B(  3-C , 13-H ) :   0.9634 B(  4-C ,  5-C ) :   1.3421 B(  4-C , 14-H ) :   0.9597
B(  5-C ,  6-C ) :   1.3486 B(  5-C ,  8-O ) :   1.2081 B(  6-C ,  7-C ) :   1.1341
B(  7-C , 15-H ) :   0.9286 B(  7-C , 16-H ) :   0.9258 B(  7-C , 17-H ) :   0.9292
B(  8-O , 18-H ) :   0.8409

Dispersion correction           -0.019416030
FINAL SINGLE POINT ENERGY      -385.237236949721

DIPOLE MOMENT
-------------

Method             : SCF
Type of density    : Electron Density
Multiplicity       :   1
Irrep              :   0
Energy             :  -385.2963222316694782 Eh
Relativity type    :
Basis              : AO
                                X                 Y                 Z
Electronic contribution:      5.417224642      -3.115957850      -0.002153249
Nuclear contribution   :     -5.109052241       2.930283312       0.002536836
                        -----------------------------------------
Total Dipole Moment    :      0.308172401      -0.185674538       0.000383587
                        -----------------------------------------
Magnitude (a.u.)       :      0.359785228
Magnitude (Debye)      :      0.914501373

Rotational constants in cm-1:             0.076409             0.058810             0.033645
Rotational constants in MHz :          2290.676405          1763.086321          1008.638968

                             ****ORCA TERMINATED NORMALLY****
TOTAL RUN TIME: 0 days 0 hours 0 minutes 7 seconds 591 msec
