                         Program Version 6.0.1  -  RELEASE   -
|  1> ! r2scan-3c def2/J RI DEFGRID2 scfconv6 printgap
|  2> %output
|  3>     printlevel normal
|  4> end
|  5> * xyz 0 1
|  6> C 4.9854098728 -2.3720978728 -1.9976511912
|  7> C 4.9342609451 -1.9451165564 -0.5395620374
|  8> O 3.6234721147 -2.172776369 0.0164840212
|  9> C 2.7116017956 -1.2338598233 -0.1070793946
| 10> O 2.8892138103 -0.1616097214 -0.6488213194
| 11> C 1.4036815624 -1.6323828205 0.5425201248
| 12> C 0.2883759246 -0.7720990052 -0.0278027443
| 13> H 0.0609177329 -1.0217535864 -1.068528477
| 14> C 0.6034011589 0.7106339511 0.0416156139
| 15> O 0.3544947455 1.4747870441 -0.8657029118
| 16> O 1.0383126177 1.0644855909 1.2332115664
| 17> C 1.3589439959 2.45092594 1.4580665495
| 18> C 2.8386417153 2.6989786991 1.2170394483
| 19> S -1.2404411735 -0.9910679981 0.9464657467
| 20> P -2.469321747 0.3155160078 -0.1939425639
| 21> S -2.3423455829 0.1431073966 -2.1357018743
| 22> O -3.9130440561 0.004603505 0.4112435292
| 23> C -4.5854289419 -1.2277842601 0.119346773
| 24> O -2.2315805884 1.7802351182 0.3579121829
| 25> C -2.473403392 2.1197303725 1.7411577002
| 26> H 4.3149318651 -1.755192152 -2.5925191196
| 27> H 5.9967290318 -2.2521379592 -2.371736727
| 28> H 4.6879684462 -3.4124781187 -2.0944289135
| 29> H 5.1779118657 -0.8839281443 -0.4385460329
| 30> H 5.598676678 -2.5511483436 0.0762061457
| 31> H 1.4940421354 -1.4553787581 1.6171626823
| 32> H 1.2114451684 -2.6920828253 0.3819444912
| 33> H 0.7470164814 3.0593171309 0.7854468801
| 34> H 1.0871698176 2.6328687272 2.4986156441
| 35> H 3.0545191314 3.7538032252 1.3497629243
| 36> H 3.4360292105 2.1167219433 1.9128570918
| 37> H 3.0986421649 2.4048160799 0.201923935
| 38> H -4.5137785215 -1.4492695214 -0.9464642582
| 39> H -5.6215144045 -1.0705255252 0.4076805053
| 40> H -4.1399182102 -2.0345274237 0.6999978836
| 41> H -2.09183414 3.1310398328 1.8558865684
| 42> H -1.9435728517 1.4260815819 2.3951126575
| 43> H -3.5415361656 2.0821310406 1.9437504498
| 44> *
| 45>
| 46>                          ****END OF INPUT****

CARTESIAN COORDINATES (ANGSTROEM)
---------------------------------
  C      4.985410   -2.372098   -1.997651
  C      4.934261   -1.945117   -0.539562
  O      3.623472   -2.172776    0.016484
  C      2.711602   -1.233860   -0.107079
  O      2.889214   -0.161610   -0.648821
  C      1.403682   -1.632383    0.542520
  C      0.288376   -0.772099   -0.027803
  H      0.060918   -1.021754   -1.068528
  C      0.603401    0.710634    0.041616
  O      0.354495    1.474787   -0.865703
  O      1.038313    1.064486    1.233212
  C      1.358944    2.450926    1.458067
  C      2.838642    2.698979    1.217039
  S     -1.240441   -0.991068    0.946466
  P     -2.469322    0.315516   -0.193943
  S     -2.342346    0.143107   -2.135702
  O     -3.913044    0.004604    0.411244
  C     -4.585429   -1.227784    0.119347
  O     -2.231581    1.780235    0.357912
  C     -2.473403    2.119730    1.741158
  H      4.314932   -1.755192   -2.592519
  H      5.996729   -2.252138   -2.371737
  H      4.687968   -3.412478   -2.094429
  H      5.177912   -0.883928   -0.438546
  H      5.598677   -2.551148    0.076206
  H      1.494042   -1.455379    1.617163
  H      1.211445   -2.692083    0.381944
  H      0.747016    3.059317    0.785447
  H      1.087170    2.632869    2.498616
  H      3.054519    3.753803    1.349763
  H      3.436029    2.116722    1.912857
  H      3.098642    2.404816    0.201924
  H     -4.513779   -1.449270   -0.946464
  H     -5.621514   -1.070526    0.407681
  H     -4.139918   -2.034527    0.699998
  H     -2.091834    3.131040    1.855887
  H     -1.943573    1.426082    2.395113
  H     -3.541536    2.082131    1.943750

 Total Charge           Charge          ....    0
 Multiplicity           Mult            ....    1
 Number of Electrons    NEL             ....  174
 Basis Dimension        Dim             ....  510

ORBITAL ENERGIES
----------------

  NO   OCC          E(Eh)            E(eV)
   0   2.0000     -88.575259     -2410.2553
   1   2.0000     -88.509760     -2408.4730
   2   2.0000     -76.908945     -2092.7988
   3   2.0000     -19.013143      -517.3739
   4   2.0000     -18.992596      -516.8148
   5   2.0000     -18.991498      -516.7849
   6   2.0000     -18.989898      -516.7414
   7   2.0000     -18.946041      -515.5480
   8   2.0000     -18.916951      -514.7564
   9   2.0000     -10.171479      -276.7800
  10   2.0000     -10.150020      -276.1961
  11   2.0000     -10.102898      -274.9138
  12   2.0000     -10.094168      -274.6763
  13   2.0000     -10.091473      -274.6030
  14   2.0000     -10.089991      -274.5626
  15   2.0000     -10.087974      -274.5077
  16   2.0000     -10.066783      -273.9311
  17   2.0000     -10.036599      -273.1097
  18   2.0000     -10.022567      -272.7279
  19   2.0000      -7.869554      -214.1414
  20   2.0000      -7.804260      -212.3647
  21   2.0000      -6.587231      -179.2477
  22   2.0000      -5.816137      -158.2651
  23   2.0000      -5.813527      -158.1941
  24   2.0000      -5.806859      -158.0127
  25   2.0000      -5.752169      -156.5245
  26   2.0000      -5.744422      -156.3137
  27   2.0000      -5.744180      -156.3071
  28   2.0000      -4.733127      -128.7949
  29   2.0000      -4.732347      -128.7737
  30   2.0000      -4.730428      -128.7215
  31   2.0000      -1.090375       -29.6706
  32   2.0000      -1.069593       -29.1051
  33   2.0000      -1.048458       -28.5300
  34   2.0000      -1.006473       -27.3875
  35   2.0000      -0.994830       -27.0707
  36   2.0000      -0.969210       -26.3736
  37   2.0000      -0.812063       -22.0974
  38   2.0000      -0.761412       -20.7191
  39   2.0000      -0.738342       -20.0913
  40   2.0000      -0.730782       -19.8856
  41   2.0000      -0.700330       -19.0569
  42   2.0000      -0.676027       -18.3956
  43   2.0000      -0.656175       -17.8554
  44   2.0000      -0.643816       -17.5191
  45   2.0000      -0.630738       -17.1633
  46   2.0000      -0.596402       -16.2289
  47   2.0000      -0.540325       -14.7030
  48   2.0000      -0.535796       -14.5798
  49   2.0000      -0.521157       -14.1814
  50   2.0000      -0.499610       -13.5951
  51   2.0000      -0.492977       -13.4146
  52   2.0000      -0.482423       -13.1274
  53   2.0000      -0.466258       -12.6875
  54   2.0000      -0.459536       -12.5046
  55   2.0000      -0.452565       -12.3149
  56   2.0000      -0.449388       -12.2285
  57   2.0000      -0.438490       -11.9319
  58   2.0000      -0.432811       -11.7774
  59   2.0000      -0.428849       -11.6696
  60   2.0000      -0.421031       -11.4568
  61   2.0000      -0.417740       -11.3673
  62   2.0000      -0.410124       -11.1601
  63   2.0000      -0.405143       -11.0245
  64   2.0000      -0.387162       -10.5352
  65   2.0000      -0.385184       -10.4814
  66   2.0000      -0.378756       -10.3065
  67   2.0000      -0.372900       -10.1471
  68   2.0000      -0.360781        -9.8174
  69   2.0000      -0.350744        -9.5442
  70   2.0000      -0.346545        -9.4300
  71   2.0000      -0.344683        -9.3793
  72   2.0000      -0.333972        -9.0878
  73   2.0000      -0.331292        -9.0149
  74   2.0000      -0.320285        -8.7154
  75   2.0000      -0.318404        -8.6642
  76   2.0000      -0.312967        -8.5163
  77   2.0000      -0.302412        -8.2290
  78   2.0000      -0.287421        -7.8211
  79   2.0000      -0.286321        -7.7912
  80   2.0000      -0.276226        -7.5165
  81   2.0000      -0.263600        -7.1729
  82   2.0000      -0.253550        -6.8995
  83   2.0000      -0.246438        -6.7059
  84   2.0000      -0.228656        -6.2220
  85   2.0000      -0.205707        -5.5976
  86   2.0000      -0.199866        -5.4386
  87   0.0000      -0.043685        -1.1887
  88   0.0000      -0.029193        -0.7944
  89   0.0000      -0.013108        -0.3567
  90   0.0000       0.011385         0.3098
  91   0.0000       0.024324         0.6619

MULLIKEN ATOMIC CHARGES
-----------------------
   0 C :   -0.463810
   1 C :   -0.141540
   2 O :   -0.165359
   3 C :    0.389632
   4 O :   -0.398067
   5 C :   -0.373103
   6 C :   -0.118843
   7 H :    0.254407
   8 C :    0.282470
   9 O :   -0.357821
  10 O :   -0.133229
  11 C :   -0.140342
  12 C :   -0.490889
  13 S :   -0.227997
  14 P :    0.731812
  15 S :   -0.405881
  16 O :   -0.335319
  17 C :   -0.294725
  18 O :   -0.299102
  19 C :   -0.280929
  20 H :    0.174988
  21 H :    0.150210
  22 H :    0.153867
  23 H :    0.167290
  24 H :    0.151474
  25 H :    0.198830
  26 H :    0.180548
  27 H :    0.184038
  28 H :    0.144681
  29 H :    0.144663
  30 H :    0.146263
  31 H :    0.190033
  32 H :    0.180303
  33 H :    0.151623
  34 H :    0.153609
  35 H :    0.156819
  36 H :    0.173537
  37 H :    0.165860
Sum of atomic charges:    0.0000000

LOEWDIN ATOMIC CHARGES
----------------------
   0 C :   -0.386799
   1 C :    0.031628
   2 O :   -0.576380
   3 C :    0.378114
   4 O :   -0.421909
   5 C :   -0.208934
   6 C :   -0.189572
   7 H :    0.206948
   8 C :    0.326592
   9 O :   -0.410439
  10 O :   -0.596273
  11 C :    0.029047
  12 C :   -0.389356
  13 S :    0.179367
  14 P :    0.381626
  15 S :   -0.066774
  16 O :   -0.683379
  17 C :   -0.057806
  18 O :   -0.643637
  19 C :   -0.053100
  20 H :    0.166696
  21 H :    0.161080
  22 H :    0.158413
  23 H :    0.188550
  24 H :    0.179720
  25 H :    0.200957
  26 H :    0.187999
  27 H :    0.194800
  28 H :    0.174764
  29 H :    0.157217
  30 H :    0.155023
  31 H :    0.174851
  32 H :    0.179292
  33 H :    0.176898
  34 H :    0.167421
  35 H :    0.179271
  36 H :    0.173776
  37 H :    0.174305

  Mayer bond orders larger than 0.100000
B(  0-C ,  1-C ) :   0.9457 B(  0-C , 20-H ) :   0.9681 B(  0-C , 21-H ) :   0.9635
B(  0-C , 22-H ) :   0.9731 B(  1-C ,  2-O ) :   0.7970 B(  1-C , 23-H ) :   0.9656
B(  1-C , 24-H ) :   0.9610 B(  2-O ,  3-C ) :   1.1422 B(  3-C ,  4-O ) :   1.7423
B(  3-C ,  5-C ) :   0.9975 B(  4-O ,  8-C ) :   0.1175 B(  5-C ,  6-C ) :   0.9388
B(  5-C , 10-O ) :   0.1218 B(  5-C , 25-H ) :   0.9422 B(  5-C , 26-H ) :   0.9413
B(  6-C ,  7-H ) :   0.9871 B(  6-C ,  8-C ) :   0.8422 B(  6-C , 13-S ) :   0.8574
B(  8-C ,  9-O ) :   1.8973 B(  8-C , 10-O ) :   1.0716 B( 10-O , 11-C ) :   0.7817
B( 11-C , 12-C ) :   0.9326 B( 11-C , 27-H ) :   0.9707 B( 11-C , 28-H ) :   0.9604
B( 12-C , 29-H ) :   0.9659 B( 12-C , 30-H ) :   0.9737 B( 12-C , 31-H ) :   0.9686
B( 13-S , 14-P ) :   0.9605 B( 14-P , 15-S ) :   1.8892 B( 14-P , 16-O ) :   1.0344
B( 14-P , 18-O ) :   1.1310 B( 16-O , 17-C ) :   0.8282 B( 17-C , 32-H ) :   0.9577
B( 17-C , 33-H ) :   0.9679 B( 17-C , 34-H ) :   0.9578 B( 18-O , 19-C ) :   0.7933
B( 19-C , 35-H ) :   0.9649 B( 19-C , 36-H ) :   0.9575 B( 19-C , 37-H ) :   0.9593

Dispersion correction           -0.017269432
FINAL SINGLE POINT ENERGY     -1981.449515474497

DIPOLE MOMENT
-------------

Method             : SCF
Type of density    : Electron Density
Multiplicity       :   1
Irrep              :   0
Energy             : -1981.4691949017060324 Eh
Relativity type    :
Basis              : AO
                                X                 Y                 Z
Electronic contribution:    -18.453327371      -0.689490564      -4.518354241
Nuclear contribution   :     19.330041045      -0.201296248       6.420366892
                        -----------------------------------------
Total Dipole Moment    :      0.876713674      -0.890786813       1.902012651
                        -----------------------------------------
Magnitude (a.u.)       :      2.275913033
Magnitude (Debye)      :      5.784911197

Rotational constants in cm-1:             0.016078             0.005800             0.005039
Rotational constants in MHz :           482.018627           173.872794           151.054386

                             ****ORCA TERMINATED NORMALLY****
TOTAL RUN TIME: 0 days 0 hours 1 minutes 16 seconds 946 msec
