                         Program Version 6.0.1  -  RELEASE   -
|  1> ! r2scan-3c def2/J RI DEFGRID2 scfconv6 printgap
|  2> %output
|  3>     printlevel normal
|  4> end
|  5> %cpcm
|  6>     smd true
|  7>     smdsolvent "water"
|  8> end
|  9> * xyz 0 1
| 10> C 4.9854098728 -2.3720978728 -1.9976511912
| 11> C 4.9342609451 -1.9451165564 -0.5395620374
| 12> O 3.6234721147 -2.172776369 0.0164840212
| 13> C 2.7116017956 -1.2338598233 -0.1070793946
| 14> O 2.8892138103 -0.1616097214 -0.6488213194
| 15> C 1.4036815624 -1.6323828205 0.5425201248
| 16> C 0.2883759246 -0.7720990052 -0.0278027443
| 17> H 0.0609177329 -1.0217535864 -1.068528477
| 18> C 0.6034011589 0.7106339511 0.0416156139
| 19> O 0.3544947455 1.4747870441 -0.8657029118
| 20> O 1.0383126177 1.0644855909 1.2332115664
| 21> C 1.3589439959 2.45092594 1.4580665495
| 22> C 2.8386417153 2.6989786991 1.2170394483
| 23> S -1.2404411735 -0.9910679981 0.9464657467
| 24> P -2.469321747 0.3155160078 -0.1939425639
| 25> S -2.3423455829 0.1431073966 -2.1357018743
| 26> O -3.9130440561 0.004603505 0.4112435292
| 27> C -4.5854289419 -1.2277842601 0.119346773
| 28> O -2.2315805884 1.7802351182 0.3579121829
| 29> C -2.473403392 2.1197303725 1.7411577002
| 30> H 4.3149318651 -1.755192152 -2.5925191196
| 31> H 5.9967290318 -2.2521379592 -2.371736727
| 32> H 4.6879684462 -3.4124781187 -2.0944289135
| 33> H 5.1779118657 -0.8839281443 -0.4385460329
| 34> H 5.598676678 -2.5511483436 0.0762061457
| 35> H 1.4940421354 -1.4553787581 1.6171626823
| 36> H 1.2114451684 -2.6920828253 0.3819444912
| 37> H 0.7470164814 3.0593171309 0.7854468801
| 38> H 1.0871698176 2.6328687272 2.4986156441
| 39> H 3.0545191314 3.7538032252 1.3497629243
| 40> H 3.4360292105 2.1167219433 1.9128570918
| 41> H 3.0986421649 2.4048160799 0.201923935
| 42> H -4.5137785215 -1.4492695214 -0.9464642582
| 43> H -5.6215144045 -1.0705255252 0.4076805053
| 44> H -4.1399182102 -2.0345274237 0.6999978836
| 45> H -2.09183414 3.1310398328 1.8558865684
| 46> H -1.9435728517 1.4260815819 2.3951126575
| 47> H -3.5415361656 2.0821310406 1.9437504498
| 48> *
| 49>
| 50>                          ****END OF INPUT****

CARTESIAN COORDINATES (ANGSTROEM)
---------------------------------
  C      4.985410   -2.372098   -1.997651
  C      4.934261   -1.945117   -0.539562
  O      3.623472   -2.172776    0.016484
  C      2.711602   -1.233860   -0.107079
  O      2.889214   -0.161610   -0.648821
  C      1.403682   -1.632383    0.542520
  C      0.288376   -0.772099   -0.027803
  H      0.060918   -1.021754   -1.068528
  C      0.603401    0.710634    0.041616
  O      0.354495    1.474787   -0.865703
  O      1.038313    1.064486    1.233212
  C      1.358944    2.450926    1.458067
  C      2.838642    2.698979    1.217039
  S     -1.240441   -0.991068    0.946466
  P     -2.469322    0.315516   -0.193943
  S     -2.342346    0.143107   -2.135702
  O     -3.913044    0.004604    0.411244
  C     -4.585429   -1.227784    0.119347
  O     -2.231581    1.780235    0.357912
  C     -2.473403    2.119730    1.741158
  H      4.314932   -1.755192   -2.592519
  H      5.996729   -2.252138   -2.371737
  H      4.687968   -3.412478   -2.094429
  H      5.177912   -0.883928   -0.438546
  H      5.598677   -2.551148    0.076206
  H      1.494042   -1.455379    1.617163
  H      1.211445   -2.692083    0.381944
  H      0.747016    3.059317    0.785447
  H      1.087170    2.632869    2.498616
  H      3.054519    3.753803    1.349763
  H      3.436029    2.116722    1.912857
  H      3.098642    2.404816    0.201924
  H     -4.513779   -1.449270   -0.946464
  H     -5.621514   -1.070526    0.407681
  H     -4.139918   -2.034527    0.699998
  H     -2.091834    3.131040    1.855887
  H     -1.943573    1.426082    2.395113
  H     -3.541536    2.082131    1.943750

 Total Charge           Charge          ....    0
 Multiplicity           Mult            ....    1
 Number of Electrons    NEL             ....  174
 Basis Dimension        Dim             ....  510

ORBITAL ENERGIES
----------------

  NO   OCC          E(Eh)            E(eV)
   0   2.0000     -88.583924     -2410.4911
   1   2.0000     -88.529399     -2409.0074
   2   2.0000     -76.922270     -2093.1614
   3   2.0000     -19.010835      -517.3111
   4   2.0000     -19.005050      -517.1537
   5   2.0000     -19.000167      -517.0208
   6   2.0000     -18.998175      -516.9666
   7   2.0000     -18.953527      -515.7517
   8   2.0000     -18.943020      -515.4658
   9   2.0000     -10.175409      -276.8869
  10   2.0000     -10.170865      -276.7633
  11   2.0000     -10.095825      -274.7214
  12   2.0000     -10.087370      -274.4913
  13   2.0000     -10.085348      -274.4363
  14   2.0000     -10.084997      -274.4267
  15   2.0000     -10.083514      -274.3864
  16   2.0000     -10.060333      -273.7556
  17   2.0000     -10.019859      -272.6542
  18   2.0000     -10.018380      -272.6140
  19   2.0000      -7.878074      -214.3733
  20   2.0000      -7.824380      -212.9122
  21   2.0000      -6.600668      -179.6133
  22   2.0000      -5.824700      -158.4981
  23   2.0000      -5.822118      -158.4279
  24   2.0000      -5.815282      -158.2419
  25   2.0000      -5.772125      -157.0675
  26   2.0000      -5.764589      -156.8625
  27   2.0000      -5.764322      -156.8552
  28   2.0000      -4.746517      -129.1593
  29   2.0000      -4.745695      -129.1369
  30   2.0000      -4.744052      -129.0922
  31   2.0000      -1.090531       -29.6749
  32   2.0000      -1.083950       -29.4958
  33   2.0000      -1.056548       -28.7501
  34   2.0000      -1.013762       -27.5859
  35   2.0000      -1.000123       -27.2147
  36   2.0000      -0.992861       -27.0171
  37   2.0000      -0.816171       -22.2091
  38   2.0000      -0.754368       -20.5274
  39   2.0000      -0.741187       -20.1687
  40   2.0000      -0.729443       -19.8492
  41   2.0000      -0.699298       -19.0289
  42   2.0000      -0.673279       -18.3209
  43   2.0000      -0.661495       -18.0002
  44   2.0000      -0.649556       -17.6753
  45   2.0000      -0.625517       -17.0212
  46   2.0000      -0.597080       -16.2474
  47   2.0000      -0.542784       -14.7699
  48   2.0000      -0.529850       -14.4180
  49   2.0000      -0.522943       -14.2300
  50   2.0000      -0.500417       -13.6170
  51   2.0000      -0.495420       -13.4811
  52   2.0000      -0.484281       -13.1780
  53   2.0000      -0.470014       -12.7897
  54   2.0000      -0.463102       -12.6016
  55   2.0000      -0.454434       -12.3658
  56   2.0000      -0.451158       -12.2766
  57   2.0000      -0.447965       -12.1897
  58   2.0000      -0.441349       -12.0097
  59   2.0000      -0.428772       -11.6675
  60   2.0000      -0.418350       -11.3839
  61   2.0000      -0.416518       -11.3340
  62   2.0000      -0.409908       -11.1542
  63   2.0000      -0.405457       -11.0330
  64   2.0000      -0.386759       -10.5242
  65   2.0000      -0.381928       -10.3928
  66   2.0000      -0.379017       -10.3136
  67   2.0000      -0.368337       -10.0230
  68   2.0000      -0.359000        -9.7689
  69   2.0000      -0.351615        -9.5679
  70   2.0000      -0.347329        -9.4513
  71   2.0000      -0.341589        -9.2951
  72   2.0000      -0.336700        -9.1621
  73   2.0000      -0.335503        -9.1295
  74   2.0000      -0.323526        -8.8036
  75   2.0000      -0.317747        -8.6463
  76   2.0000      -0.309020        -8.4089
  77   2.0000      -0.305245        -8.3061
  78   2.0000      -0.291720        -7.9381
  79   2.0000      -0.287598        -7.8259
  80   2.0000      -0.283748        -7.7212
  81   2.0000      -0.277062        -7.5392
  82   2.0000      -0.265127        -7.2145
  83   2.0000      -0.260624        -7.0919
  84   2.0000      -0.247643        -6.7387
  85   2.0000      -0.225898        -6.1470
  86   2.0000      -0.221122        -6.0170
  87   0.0000      -0.054222        -1.4755
  88   0.0000      -0.033086        -0.9003
  89   0.0000      -0.027737        -0.7548
  90   0.0000       0.000153         0.0042
  91   0.0000       0.016505         0.4491

MULLIKEN ATOMIC CHARGES
-----------------------
   0 C :   -0.493645
   1 C :   -0.144576
   2 O :   -0.178078
   3 C :    0.426903
   4 O :   -0.466930
   5 C :   -0.373641
   6 C :   -0.120921
   7 H :    0.270777
   8 C :    0.269001
   9 O :   -0.437676
  10 O :   -0.148855
  11 C :   -0.119689
  12 C :   -0.527499
  13 S :   -0.205729
  14 P :    0.750281
  15 S :   -0.480256
  16 O :   -0.357688
  17 C :   -0.304500
  18 O :   -0.340150
  19 C :   -0.285978
  20 H :    0.170156
  21 H :    0.172459
  22 H :    0.167141
  23 H :    0.174626
  24 H :    0.177699
  25 H :    0.230221
  26 H :    0.209954
  27 H :    0.180680
  28 H :    0.178298
  29 H :    0.171380
  30 H :    0.170813
  31 H :    0.175009
  32 H :    0.179426
  33 H :    0.181246
  34 H :    0.176692
  35 H :    0.185070
  36 H :    0.184637
  37 H :    0.183338
Sum of atomic charges:    0.0000000

LOEWDIN ATOMIC CHARGES
----------------------
   0 C :   -0.390512
   1 C :    0.037735
   2 O :   -0.574001
   3 C :    0.391019
   4 O :   -0.469137
   5 C :   -0.199443
   6 C :   -0.187104
   7 H :    0.209527
   8 C :    0.327303
   9 O :   -0.479582
  10 O :   -0.592490
  11 C :    0.037746
  12 C :   -0.391920
  13 S :    0.201617
  14 P :    0.382748
  15 S :   -0.125057
  16 O :   -0.688756
  17 C :   -0.050907
  18 O :   -0.670123
  19 C :   -0.041944
  20 H :    0.163059
  21 H :    0.169028
  22 H :    0.162758
  23 H :    0.191031
  24 H :    0.191184
  25 H :    0.211892
  26 H :    0.202821
  27 H :    0.194156
  28 H :    0.190125
  29 H :    0.167639
  30 H :    0.162561
  31 H :    0.166430
  32 H :    0.179042
  33 H :    0.189777
  34 H :    0.177033
  35 H :    0.191639
  36 H :    0.180463
  37 H :    0.182644

  Mayer bond orders larger than 0.100000
B(  0-C ,  1-C ) :   0.9401 B(  0-C , 20-H ) :   0.9682 B(  0-C , 21-H ) :   0.9588
B(  0-C , 22-H ) :   0.9694 B(  1-C ,  2-O ) :   0.7801 B(  1-C , 23-H ) :   0.9623
B(  1-C , 24-H ) :   0.9514 B(  2-O ,  3-C ) :   1.1630 B(  3-C ,  4-O ) :   1.6946
B(  3-C ,  5-C ) :   1.0029 B(  4-O ,  8-C ) :   0.1232 B(  5-C ,  6-C ) :   0.9475
B(  5-C , 10-O ) :   0.1049 B(  5-C , 25-H ) :   0.9390 B(  5-C , 26-H ) :   0.9196
B(  6-C ,  7-H ) :   0.9685 B(  6-C ,  8-C ) :   0.8511 B(  6-C , 13-S ) :   0.8463
B(  8-C ,  9-O ) :   1.8316 B(  8-C , 10-O ) :   1.0838 B( 10-O , 11-C ) :   0.7688
B( 11-C , 12-C ) :   0.9143 B( 11-C , 27-H ) :   0.9654 B( 11-C , 28-H ) :   0.9484
B( 12-C , 29-H ) :   0.9594 B( 12-C , 30-H ) :   0.9695 B( 12-C , 31-H ) :   0.9711
B( 13-S , 14-P ) :   0.9866 B( 14-P , 15-S ) :   1.8442 B( 14-P , 16-O ) :   1.0484
B( 14-P , 18-O ) :   1.1359 B( 16-O , 17-C ) :   0.8176 B( 17-C , 32-H ) :   0.9547
B( 17-C , 33-H ) :   0.9571 B( 17-C , 34-H ) :   0.9496 B( 18-O , 19-C ) :   0.7838
B( 19-C , 35-H ) :   0.9534 B( 19-C , 36-H ) :   0.9482 B( 19-C , 37-H ) :   0.9504

Dispersion correction           -0.017269432
FINAL SINGLE POINT ENERGY     -1981.469698394658

DIPOLE MOMENT
-------------

Method             : SCF
Type of density    : Electron Density
Multiplicity       :   1
Irrep              :   0
Energy             : -1981.4893778218674925 Eh
Relativity type    :
Basis              : AO
                                X                 Y                 Z
Electronic contribution:    -18.334285007      -1.315197479      -3.321849060
Nuclear contribution   :     19.330041045      -0.201296248       6.420366892
                        -----------------------------------------
Total Dipole Moment    :      0.995756038      -1.516493727       3.098517832
                        -----------------------------------------
Magnitude (a.u.)       :      3.590556512
Magnitude (Debye)      :      9.126469361

Rotational constants in cm-1:             0.016078             0.005800             0.005039
Rotational constants in MHz :           482.018627           173.872794           151.054386

                             ****ORCA TERMINATED NORMALLY****
TOTAL RUN TIME: 0 days 0 hours 1 minutes 46 seconds 939 msec
