                         Program Version 6.0.0  -   RELEASE  -
|  1> ! pbe def2-sv(p) def2/J RI DEFGRID1 loosescf d4 GCP(DFT/SV(P)) printgap
|  2> %output
|  3>     printlevel normal
|  4> end
|  5> * xyz 0 1
|  6> C 2.8713494169 0.7908676421 -2.0191549757
|  7> C 2.2712328707 1.6269926263 -0.910020721
|  8> O 1.283619765 0.9034742687 -0.1246948775
|  9> P 1.6131955391 -0.2919742145 0.8540444253
| 10> S 0.4656521963 -0.3658794388 2.4407114689
| 11> O 3.1434057851 -0.050314348 1.1951544842
| 12> C 3.8224558785 -0.8620872008 2.1749806992
| 13> C 5.0815674898 -0.1308418584 2.5935439786
| 14> S 1.688309071 -2.0718200056 -0.3276601776
| 15> C 0.1931658545 -1.8593129872 -1.3314219273
| 16> S -1.3331269562 -1.636502695 -0.3722668421
| 17> P -1.7809029809 0.3674344078 -0.8643859669
| 18> S -0.928907048 1.1575177543 -2.4284287701
| 19> O -1.5242149016 1.0835308938 0.5399153134
| 20> C -1.3535452573 2.5057197016 0.6576671688
| 21> C -2.662385337 3.247700529 0.4792393209
| 22> O -3.3583462251 0.3575777803 -1.0682225916
| 23> C -4.2738039332 -0.1843377803 -0.0859172782
| 24> C -4.8887270305 -1.4719703148 -0.5970867832
| 25> H 3.5830132427 1.4022244997 -2.5652267719
| 26> H 3.3871892939 -0.0755831045 -1.6120739522
| 27> H 2.0957867352 0.4625584659 -2.7072697196
| 28> H 1.6999070311 2.4627676294 -1.3178014775
| 29> H 3.0400022056 1.9903652617 -0.2277431525
| 30> H 3.1477973504 -1.0219321802 3.0226545405
| 31> H 4.0518957919 -1.8263382597 1.7139499147
| 32> H 5.6156832884 -0.7340650816 3.3201464095
| 33> H 5.7181370494 0.0398294023 1.7303374848
| 34> H 4.8270889718 0.8258365156 3.0411646452
| 35> H 0.0945733021 -2.7847606179 -1.8936726214
| 36> H 0.3057130741 -1.0027337546 -2.0009518742
| 37> H -0.9399298518 2.6366859773 1.6595845115
| 38> H -0.6195300499 2.8275228116 -0.0877297944
| 39> H -2.4931097143 4.3095289982 0.6283939933
| 40> H -3.0449757012 3.0870447375 -0.5285291631
| 41> H -3.3963036781 2.8957316845 1.1998111126
| 42> H -3.7406025071 -0.3420636303 0.8563820614
| 43> H -5.034025003 0.5878117158 0.0483941312
| 44> H -5.3516501399 -1.2999639607 -1.5647553297
| 45> H -4.1292777917 -2.2431207529 -0.700532772
| 46> H -5.6422226024 -1.8077837137 0.108245362
| 47> *
| 48>
| 49>                          ****END OF INPUT****

CARTESIAN COORDINATES (ANGSTROEM)
---------------------------------
  C      2.871349    0.790868   -2.019155
  C      2.271233    1.626993   -0.910021
  O      1.283620    0.903474   -0.124695
  P      1.613196   -0.291974    0.854044
  S      0.465652   -0.365879    2.440711
  O      3.143406   -0.050314    1.195154
  C      3.822456   -0.862087    2.174981
  C      5.081567   -0.130842    2.593544
  S      1.688309   -2.071820   -0.327660
  C      0.193166   -1.859313   -1.331422
  S     -1.333127   -1.636503   -0.372267
  P     -1.780903    0.367434   -0.864386
  S     -0.928907    1.157518   -2.428429
  O     -1.524215    1.083531    0.539915
  C     -1.353545    2.505720    0.657667
  C     -2.662385    3.247701    0.479239
  O     -3.358346    0.357578   -1.068223
  C     -4.273804   -0.184338   -0.085917
  C     -4.888727   -1.471970   -0.597087
  H      3.583013    1.402224   -2.565227
  H      3.387189   -0.075583   -1.612074
  H      2.095787    0.462558   -2.707270
  H      1.699907    2.462768   -1.317801
  H      3.040002    1.990365   -0.227743
  H      3.147797   -1.021932    3.022655
  H      4.051896   -1.826338    1.713950
  H      5.615683   -0.734065    3.320146
  H      5.718137    0.039829    1.730337
  H      4.827089    0.825837    3.041165
  H      0.094573   -2.784761   -1.893673
  H      0.305713   -1.002734   -2.000952
  H     -0.939930    2.636686    1.659585
  H     -0.619530    2.827523   -0.087730
  H     -2.493110    4.309529    0.628394
  H     -3.044976    3.087045   -0.528529
  H     -3.396304    2.895732    1.199811
  H     -3.740603   -0.342064    0.856382
  H     -5.034025    0.587812    0.048394
  H     -5.351650   -1.299964   -1.564755
  H     -4.129278   -2.243121   -0.700533
  H     -5.642223   -1.807784    0.108245

 Total Charge           Charge          ....    0
 Multiplicity           Mult            ....    1
 Number of Electrons    NEL             ....  202
 Basis Dimension        Dim             ....  334

ORBITAL ENERGIES
----------------

  NO   OCC          E(Eh)            E(eV)
   0   2.0000     -88.040940     -2395.7158
   1   2.0000     -88.036448     -2395.5935
   2   2.0000     -87.986028     -2394.2215
   3   2.0000     -87.975133     -2393.9251
   4   2.0000     -76.422707     -2079.5676
   5   2.0000     -76.421951     -2079.5470
   6   2.0000     -18.793159      -511.3878
   7   2.0000     -18.790250      -511.3087
   8   2.0000     -18.787292      -511.2282
   9   2.0000     -18.781337      -511.0662
  10   2.0000      -9.956067      -270.9183
  11   2.0000      -9.955263      -270.8965
  12   2.0000      -9.954500      -270.8757
  13   2.0000      -9.951995      -270.8075
  14   2.0000      -9.942728      -270.5554
  15   2.0000      -9.890412      -269.1318
  16   2.0000      -9.884462      -268.9699
  17   2.0000      -9.881419      -268.8871
  18   2.0000      -9.881335      -268.8848
  19   2.0000      -7.686067      -209.1485
  20   2.0000      -7.681766      -209.0315
  21   2.0000      -7.631313      -207.6586
  22   2.0000      -7.620332      -207.3598
  23   2.0000      -6.419998      -174.6970
  24   2.0000      -6.419927      -174.6951
  25   2.0000      -5.713906      -155.4833
  26   2.0000      -5.710779      -155.3982
  27   2.0000      -5.709660      -155.3678
  28   2.0000      -5.706366      -155.2781
  29   2.0000      -5.702778      -155.1805
  30   2.0000      -5.698621      -155.0674
  31   2.0000      -5.660264      -154.0236
  32   2.0000      -5.652251      -153.8056
  33   2.0000      -5.650969      -153.7707
  34   2.0000      -5.649429      -153.7288
  35   2.0000      -5.641038      -153.5005
  36   2.0000      -5.640220      -153.4782
  37   2.0000      -4.643329      -126.3514
  38   2.0000      -4.642710      -126.3346
  39   2.0000      -4.641769      -126.3089
  40   2.0000      -4.641220      -126.2940
  41   2.0000      -4.640659      -126.2788
  42   2.0000      -4.639744      -126.2539
  43   2.0000      -0.988197       -26.8902
  44   2.0000      -0.978935       -26.6382
  45   2.0000      -0.943930       -25.6856
  46   2.0000      -0.936625       -25.4869
  47   2.0000      -0.759894       -20.6778
  48   2.0000      -0.719166       -19.5695
  49   2.0000      -0.708833       -19.2883
  50   2.0000      -0.692060       -18.8319
  51   2.0000      -0.687522       -18.7084
  52   2.0000      -0.671645       -18.2764
  53   2.0000      -0.646670       -17.5968
  54   2.0000      -0.634830       -17.2746
  55   2.0000      -0.591434       -16.0937
  56   2.0000      -0.584699       -15.9105
  57   2.0000      -0.573630       -15.6093
  58   2.0000      -0.572556       -15.5800
  59   2.0000      -0.559977       -15.2378
  60   2.0000      -0.506272       -13.7764
  61   2.0000      -0.497157       -13.5283
  62   2.0000      -0.473705       -12.8902
  63   2.0000      -0.473087       -12.8734
  64   2.0000      -0.451381       -12.2827
  65   2.0000      -0.447567       -12.1789
  66   2.0000      -0.443234       -12.0610
  67   2.0000      -0.434837       -11.8325
  68   2.0000      -0.426077       -11.5941
  69   2.0000      -0.415292       -11.3007
  70   2.0000      -0.403170       -10.9708
  71   2.0000      -0.395302       -10.7567
  72   2.0000      -0.395036       -10.7495
  73   2.0000      -0.380031       -10.3412
  74   2.0000      -0.377382       -10.2691
  75   2.0000      -0.369227       -10.0472
  76   2.0000      -0.365758        -9.9528
  77   2.0000      -0.354948        -9.6586
  78   2.0000      -0.353000        -9.6056
  79   2.0000      -0.349324        -9.5056
  80   2.0000      -0.346457        -9.4276
  81   2.0000      -0.343750        -9.3539
  82   2.0000      -0.338016        -9.1979
  83   2.0000      -0.336701        -9.1621
  84   2.0000      -0.332498        -9.0477
  85   2.0000      -0.321724        -8.7546
  86   2.0000      -0.309899        -8.4328
  87   2.0000      -0.305122        -8.3028
  88   2.0000      -0.303348        -8.2545
  89   2.0000      -0.293628        -7.9900
  90   2.0000      -0.274590        -7.4720
  91   2.0000      -0.271607        -7.3908
  92   2.0000      -0.269254        -7.3268
  93   2.0000      -0.260103        -7.0778
  94   2.0000      -0.255291        -6.9468
  95   2.0000      -0.234449        -6.3797
  96   2.0000      -0.216542        -5.8924
  97   2.0000      -0.204754        -5.5716
  98   2.0000      -0.201446        -5.4816
  99   2.0000      -0.190380        -5.1805
 100   2.0000      -0.182781        -4.9737
 101   0.0000      -0.047738        -1.2990
 102   0.0000      -0.030540        -0.8310
 103   0.0000      -0.008683        -0.2363
 104   0.0000       0.000442         0.0120
 105   0.0000       0.020531         0.5587

MULLIKEN ATOMIC CHARGES
-----------------------
   0 C :   -0.330485
   1 C :    0.008928
   2 O :   -0.369481
   3 P :    0.608581
   4 S :   -0.293393
   5 O :   -0.387523
   6 C :   -0.012795
   7 C :   -0.281960
   8 S :   -0.120014
   9 C :   -0.354225
  10 S :   -0.087003
  11 P :    0.626586
  12 S :   -0.326358
  13 O :   -0.361185
  14 C :   -0.008452
  15 C :   -0.312869
  16 O :   -0.370141
  17 C :   -0.039052
  18 C :   -0.280807
  19 H :    0.108745
  20 H :    0.123484
  21 H :    0.136638
  22 H :    0.115055
  23 H :    0.107728
  24 H :    0.107220
  25 H :    0.104497
  26 H :    0.113580
  27 H :    0.114840
  28 H :    0.121045
  29 H :    0.182995
  30 H :    0.206408
  31 H :    0.105565
  32 H :    0.112136
  33 H :    0.110346
  34 H :    0.126999
  35 H :    0.113230
  36 H :    0.118345
  37 H :    0.110501
  38 H :    0.119549
  39 H :    0.123572
  40 H :    0.109169
Sum of atomic charges:   -0.0000000

LOEWDIN ATOMIC CHARGES
----------------------
   0 C :   -0.370303
   1 C :   -0.111062
   2 O :   -0.236595
   3 P :    0.564735
   4 S :   -0.303050
   5 O :   -0.249897
   6 C :   -0.122022
   7 C :   -0.350724
   8 S :    0.051681
   9 C :   -0.477149
  10 S :    0.096605
  11 P :    0.574163
  12 S :   -0.300355
  13 O :   -0.237323
  14 C :   -0.119612
  15 C :   -0.365341
  16 O :   -0.248570
  17 C :   -0.120527
  18 C :   -0.359201
  19 H :    0.131014
  20 H :    0.117744
  21 H :    0.125972
  22 H :    0.117842
  23 H :    0.113417
  24 H :    0.108947
  25 H :    0.110059
  26 H :    0.131899
  27 H :    0.125581
  28 H :    0.129121
  29 H :    0.139181
  30 H :    0.120283
  31 H :    0.117939
  32 H :    0.107872
  33 H :    0.129828
  34 H :    0.124685
  35 H :    0.122848
  36 H :    0.111132
  37 H :    0.119319
  38 H :    0.129299
  39 H :    0.121011
  40 H :    0.129553

  Mayer bond orders larger than 0.100000
B(  0-C ,  1-C ) :   1.1798 B(  0-C , 19-H ) :   0.9349 B(  0-C , 20-H ) :   0.9344
B(  0-C , 21-H ) :   0.9331 B(  1-C ,  2-O ) :   0.8842 B(  1-C , 22-H ) :   0.9183
B(  1-C , 23-H ) :   0.9259 B(  2-O ,  3-P ) :   1.1146 B(  3-P ,  4-S ) :   1.6912
B(  3-P ,  5-O ) :   1.0628 B(  3-P ,  8-S ) :   0.9418 B(  4-S ,  8-S ) :   0.1116
B(  5-O ,  6-C ) :   0.9051 B(  6-C ,  7-C ) :   1.1610 B(  6-C , 24-H ) :   0.9042
B(  6-C , 25-H ) :   0.9292 B(  7-C , 26-H ) :   0.9416 B(  7-C , 27-H ) :   0.9513
B(  7-C , 28-H ) :   0.9510 B(  8-S ,  9-C ) :   0.9975 B(  9-C , 10-S ) :   1.0183
B(  9-C , 29-H ) :   0.9125 B(  9-C , 30-H ) :   0.8473 B( 10-S , 11-P ) :   0.9695
B( 10-S , 12-S ) :   0.1093 B( 11-P , 12-S ) :   1.6060 B( 11-P , 13-O ) :   1.1065
B( 11-P , 16-O ) :   1.1050 B( 13-O , 14-C ) :   0.9077 B( 14-C , 15-C ) :   1.1588
B( 14-C , 31-H ) :   0.9288 B( 14-C , 32-H ) :   0.9147 B( 15-C , 33-H ) :   0.9404
B( 15-C , 34-H ) :   0.9380 B( 15-C , 35-H ) :   0.9456 B( 16-O , 17-C ) :   0.8995
B( 17-C , 18-C ) :   1.1643 B( 17-C , 36-H ) :   0.9154 B( 17-C , 37-H ) :   0.9325
B( 18-C , 38-H ) :   0.9462 B( 18-C , 39-H ) :   0.9394 B( 18-C , 40-H ) :   0.9396

Dispersion correction           -0.068713027
FINAL SINGLE POINT ENERGY     -2929.509014073653

DIPOLE MOMENT
-------------

Method             : SCF
Type of density    : Electron Density
Multiplicity       :   1
Irrep              :   0
Energy             : -2929.6280707051828358 Eh
Relativity type    :
Basis              : AO
                                X                 Y                 Z
Electronic contribution:     -2.649644843      -9.557782468      -1.859622753
Nuclear contribution   :      3.125075189       9.798179103       2.028705122
                        -----------------------------------------
Total Dipole Moment    :      0.475430346       0.240396635       0.169082369
                        -----------------------------------------
Magnitude (a.u.)       :      0.558939535
Magnitude (Debye)      :      1.420711391

Rotational constants in cm-1:             0.012725             0.005397             0.005261
Rotational constants in MHz :           381.478788           161.812159           157.714714

                             ****ORCA TERMINATED NORMALLY****
TOTAL RUN TIME: 0 days 0 hours 0 minutes 21 seconds 700 msec
