                         Program Version 6.0.0  -   RELEASE  -
|  1> ! pbe def2-sv(p) def2/J RI DEFGRID1 loosescf d4 GCP(DFT/SV(P)) printgap
|  2> %output
|  3>     printlevel normal
|  4> end
|  5> * xyz 0 1
|  6> C 3.9771739556 -2.274018377 1.1159398387
|  7> C 2.5563718793 -2.172262259 0.5990894857
|  8> O 2.0804313378 -0.8158528805 0.6491770535
|  9> P 2.5709307278 0.2903468594 -0.398552813
| 10> S 3.1933107467 -0.3913916389 -2.1200008785
| 11> O 3.6869062631 1.1431877853 0.3316571497
| 12> C 3.545386549 1.654485952 1.681662277
| 13> C 3.105341329 3.104378551 1.6676488086
| 14> S 0.8570564585 1.5269436305 -0.4392452776
| 15> C -0.0824099113 0.5140278858 -1.6103114522
| 16> S -0.7069611364 -1.0335378922 -0.8944297875
| 17> P -2.5482606461 -0.3188847306 -0.1252620281
| 18> S -2.9218980413 1.6062454105 -0.2360761402
| 19> O -2.6810295136 -0.9496280532 1.3289150649
| 20> C -2.2793181552 -0.2517990762 2.5195224189
| 21> C -0.7727709102 -0.1403251065 2.6334911193
| 22> O -3.5019055656 -1.2559436921 -0.9743891649
| 23> C -4.9094558179 -0.9834417621 -1.1350332023
| 24> C -5.6747066666 -1.143601817 0.1620745149
| 25> H 4.2953044033 -3.3114999338 1.0951487646
| 26> H 4.6399431035 -1.6883775037 0.478991558
| 27> H 4.0398331241 -1.8976267996 2.1335692216
| 28> H 1.8530077526 -2.7283375472 1.2201095109
| 29> H 2.4927540689 -2.5273234466 -0.4341678022
| 30> H 2.8349199019 1.028388907 2.2263567768
| 31> H 4.5423317059 1.5496857793 2.1131859044
| 32> H 2.1072204666 3.1986761702 1.2444234992
| 33> H 3.0970793489 3.4820348137 2.6852709481
| 34> H 3.7936285976 3.6962716865 1.0707842593
| 35> H 0.5710043066 0.2390184888 -2.4383581775
| 36> H -0.9172515758 1.1274952793 -1.9455821493
| 37> H -2.7370658185 0.7428602028 2.510663542
| 38> H -2.7011447258 -0.8492263061 3.3291045994
| 39> H -0.3869142934 0.5120206162 1.850996654
| 40> H -0.5151815347 0.2821321675 3.5994822391
| 41> H -0.3121298019 -1.1198250487 2.5313748075
| 42> H -5.0214784727 0.0328450519 -1.5263590413
| 43> H -5.2289973277 -1.7074933934 -1.8857096058
| 44> H -5.3760605741 -0.3702190382 0.8681640542
| 45> H -6.7380918529 -1.0493415905 -0.0349186454
| 46> H -5.471597093 -2.1176243588 0.5992896173
| 47> *
| 48>
| 49>                          ****END OF INPUT****

CARTESIAN COORDINATES (ANGSTROEM)
---------------------------------
  C      3.977174   -2.274018    1.115940
  C      2.556372   -2.172262    0.599089
  O      2.080431   -0.815853    0.649177
  P      2.570931    0.290347   -0.398553
  S      3.193311   -0.391392   -2.120001
  O      3.686906    1.143188    0.331657
  C      3.545387    1.654486    1.681662
  C      3.105341    3.104379    1.667649
  S      0.857056    1.526944   -0.439245
  C     -0.082410    0.514028   -1.610311
  S     -0.706961   -1.033538   -0.894430
  P     -2.548261   -0.318885   -0.125262
  S     -2.921898    1.606245   -0.236076
  O     -2.681030   -0.949628    1.328915
  C     -2.279318   -0.251799    2.519522
  C     -0.772771   -0.140325    2.633491
  O     -3.501906   -1.255944   -0.974389
  C     -4.909456   -0.983442   -1.135033
  C     -5.674707   -1.143602    0.162075
  H      4.295304   -3.311500    1.095149
  H      4.639943   -1.688378    0.478992
  H      4.039833   -1.897627    2.133569
  H      1.853008   -2.728338    1.220110
  H      2.492754   -2.527323   -0.434168
  H      2.834920    1.028389    2.226357
  H      4.542332    1.549686    2.113186
  H      2.107220    3.198676    1.244423
  H      3.097079    3.482035    2.685271
  H      3.793629    3.696272    1.070784
  H      0.571004    0.239018   -2.438358
  H     -0.917252    1.127495   -1.945582
  H     -2.737066    0.742860    2.510664
  H     -2.701145   -0.849226    3.329105
  H     -0.386914    0.512021    1.850997
  H     -0.515182    0.282132    3.599482
  H     -0.312130   -1.119825    2.531375
  H     -5.021478    0.032845   -1.526359
  H     -5.228997   -1.707493   -1.885710
  H     -5.376061   -0.370219    0.868164
  H     -6.738092   -1.049342   -0.034919
  H     -5.471597   -2.117624    0.599290

 Total Charge           Charge          ....    0
 Multiplicity           Mult            ....    1
 Number of Electrons    NEL             ....  202
 Basis Dimension        Dim             ....  334

ORBITAL ENERGIES
----------------

  NO   OCC          E(Eh)            E(eV)
   0   2.0000     -88.042804     -2395.7665
   1   2.0000     -88.040308     -2395.6986
   2   2.0000     -87.994584     -2394.4544
   3   2.0000     -87.987076     -2394.2501
   4   2.0000     -76.428068     -2079.7135
   5   2.0000     -76.426310     -2079.6656
   6   2.0000     -18.797767      -511.5132
   7   2.0000     -18.793734      -511.4035
   8   2.0000     -18.792339      -511.3655
   9   2.0000     -18.789651      -511.2924
  10   2.0000      -9.962291      -271.0877
  11   2.0000      -9.952996      -270.8348
  12   2.0000      -9.952809      -270.8297
  13   2.0000      -9.952577      -270.8234
  14   2.0000      -9.950830      -270.7758
  15   2.0000      -9.892219      -269.1810
  16   2.0000      -9.886531      -269.0262
  17   2.0000      -9.885448      -268.9967
  18   2.0000      -9.880984      -268.8753
  19   2.0000      -7.687421      -209.1854
  20   2.0000      -7.685585      -209.1354
  21   2.0000      -7.639416      -207.8791
  22   2.0000      -7.632324      -207.6861
  23   2.0000      -6.425872      -174.8569
  24   2.0000      -6.424343      -174.8152
  25   2.0000      -5.715140      -155.5169
  26   2.0000      -5.713463      -155.4712
  27   2.0000      -5.712070      -155.4333
  28   2.0000      -5.710271      -155.3844
  29   2.0000      -5.704437      -155.2256
  30   2.0000      -5.702297      -155.1674
  31   2.0000      -5.668158      -154.2384
  32   2.0000      -5.661367      -154.0536
  33   2.0000      -5.660151      -154.0205
  34   2.0000      -5.659679      -154.0077
  35   2.0000      -5.652909      -153.8235
  36   2.0000      -5.652336      -153.8079
  37   2.0000      -4.648126      -126.4819
  38   2.0000      -4.647567      -126.4667
  39   2.0000      -4.647314      -126.4598
  40   2.0000      -4.646652      -126.4418
  41   2.0000      -4.645672      -126.4152
  42   2.0000      -4.644812      -126.3918
  43   2.0000      -0.988160       -26.8892
  44   2.0000      -0.987477       -26.8706
  45   2.0000      -0.947112       -25.7722
  46   2.0000      -0.946374       -25.7522
  47   2.0000      -0.763424       -20.7738
  48   2.0000      -0.724207       -19.7067
  49   2.0000      -0.710949       -19.3459
  50   2.0000      -0.693641       -18.8749
  51   2.0000      -0.687455       -18.7066
  52   2.0000      -0.675175       -18.3724
  53   2.0000      -0.653777       -17.7902
  54   2.0000      -0.640220       -17.4213
  55   2.0000      -0.604494       -16.4491
  56   2.0000      -0.591403       -16.0929
  57   2.0000      -0.582026       -15.8377
  58   2.0000      -0.572924       -15.5901
  59   2.0000      -0.558132       -15.1875
  60   2.0000      -0.502921       -13.6852
  61   2.0000      -0.494184       -13.4474
  62   2.0000      -0.481368       -13.0987
  63   2.0000      -0.473882       -12.8950
  64   2.0000      -0.458986       -12.4896
  65   2.0000      -0.449282       -12.2256
  66   2.0000      -0.440547       -11.9879
  67   2.0000      -0.438811       -11.9407
  68   2.0000      -0.430967       -11.7272
  69   2.0000      -0.415375       -11.3029
  70   2.0000      -0.406853       -11.0710
  71   2.0000      -0.400762       -10.9053
  72   2.0000      -0.394694       -10.7402
  73   2.0000      -0.389053       -10.5867
  74   2.0000      -0.380788       -10.3618
  75   2.0000      -0.374643       -10.1946
  76   2.0000      -0.370933       -10.0936
  77   2.0000      -0.360334        -9.8052
  78   2.0000      -0.358276        -9.7492
  79   2.0000      -0.354209        -9.6385
  80   2.0000      -0.350155        -9.5282
  81   2.0000      -0.347180        -9.4472
  82   2.0000      -0.345713        -9.4073
  83   2.0000      -0.340668        -9.2700
  84   2.0000      -0.337592        -9.1863
  85   2.0000      -0.321234        -8.7412
  86   2.0000      -0.314217        -8.5503
  87   2.0000      -0.305800        -8.3212
  88   2.0000      -0.296329        -8.0635
  89   2.0000      -0.285979        -7.7819
  90   2.0000      -0.282430        -7.6853
  91   2.0000      -0.274989        -7.4828
  92   2.0000      -0.273785        -7.4501
  93   2.0000      -0.271801        -7.3961
  94   2.0000      -0.261533        -7.1167
  95   2.0000      -0.229467        -6.2441
  96   2.0000      -0.219077        -5.9614
  97   2.0000      -0.215077        -5.8526
  98   2.0000      -0.208938        -5.6855
  99   2.0000      -0.206000        -5.6055
 100   2.0000      -0.200795        -5.4639
 101   0.0000      -0.043847        -1.1931
 102   0.0000      -0.027244        -0.7413
 103   0.0000      -0.007258        -0.1975
 104   0.0000       0.005281         0.1437
 105   0.0000       0.010559         0.2873

MULLIKEN ATOMIC CHARGES
-----------------------
   0 C :   -0.310412
   1 C :   -0.009393
   2 O :   -0.379726
   3 P :    0.619168
   4 S :   -0.310769
   5 O :   -0.366408
   6 C :   -0.033406
   7 C :   -0.300296
   8 S :   -0.094492
   9 C :   -0.351006
  10 S :   -0.072068
  11 P :    0.613436
  12 S :   -0.336271
  13 O :   -0.371504
  14 C :   -0.002465
  15 C :   -0.338636
  16 O :   -0.366001
  17 C :   -0.002513
  18 C :   -0.308132
  19 H :    0.114261
  20 H :    0.128773
  21 H :    0.109490
  22 H :    0.106390
  23 H :    0.113657
  24 H :    0.115457
  25 H :    0.112399
  26 H :    0.137995
  27 H :    0.112937
  28 H :    0.125767
  29 H :    0.192959
  30 H :    0.193154
  31 H :    0.108841
  32 H :    0.102746
  33 H :    0.150357
  34 H :    0.104515
  35 H :    0.119371
  36 H :    0.111287
  37 H :    0.107672
  38 H :    0.122035
  39 H :    0.112326
  40 H :    0.118503
Sum of atomic charges:   -0.0000000

LOEWDIN ATOMIC CHARGES
----------------------
   0 C :   -0.364592
   1 C :   -0.123042
   2 O :   -0.249295
   3 P :    0.570168
   4 S :   -0.306561
   5 O :   -0.241556
   6 C :   -0.117346
   7 C :   -0.360696
   8 S :    0.099147
   9 C :   -0.482312
  10 S :    0.094529
  11 P :    0.573157
  12 S :   -0.317492
  13 O :   -0.243408
  14 C :   -0.118778
  15 C :   -0.373688
  16 O :   -0.244264
  17 C :   -0.115422
  18 C :   -0.364698
  19 H :    0.131695
  20 H :    0.125574
  21 H :    0.121511
  22 H :    0.116319
  23 H :    0.109476
  24 H :    0.111472
  25 H :    0.122051
  26 H :    0.120633
  27 H :    0.131906
  28 H :    0.131888
  29 H :    0.130124
  30 H :    0.130489
  31 H :    0.108922
  32 H :    0.117259
  33 H :    0.113576
  34 H :    0.127308
  35 H :    0.124250
  36 H :    0.111185
  37 H :    0.120281
  38 H :    0.122537
  39 H :    0.130427
  40 H :    0.127267

  Mayer bond orders larger than 0.100000
B(  0-C ,  1-C ) :   1.1612 B(  0-C , 19-H ) :   0.9405 B(  0-C , 20-H ) :   0.9361
B(  0-C , 21-H ) :   0.9477 B(  1-C ,  2-O ) :   0.9063 B(  1-C , 22-H ) :   0.9307
B(  1-C , 23-H ) :   0.9117 B(  2-O ,  3-P ) :   1.0711 B(  3-P ,  4-S ) :   1.6345
B(  3-P ,  5-O ) :   1.1280 B(  3-P ,  8-S ) :   0.9621 B(  5-O ,  6-C ) :   0.8973
B(  6-C ,  7-C ) :   1.1686 B(  6-C , 24-H ) :   0.9142 B(  6-C , 25-H ) :   0.9335
B(  7-C , 26-H ) :   0.9336 B(  7-C , 27-H ) :   0.9381 B(  7-C , 28-H ) :   0.9456
B(  8-S ,  9-C ) :   1.0047 B(  9-C , 10-S ) :   1.0106 B(  9-C , 29-H ) :   0.8710
B(  9-C , 30-H ) :   0.8767 B( 10-S , 11-P ) :   0.9636 B( 10-S , 12-S ) :   0.1141
B( 11-P , 12-S ) :   1.5889 B( 11-P , 13-O ) :   1.1061 B( 11-P , 16-O ) :   1.1351
B( 13-O , 14-C ) :   0.9103 B( 14-C , 15-C ) :   1.1632 B( 14-C , 31-H ) :   0.9149
B( 14-C , 32-H ) :   0.9335 B( 15-C , 33-H ) :   0.9202 B( 15-C , 34-H ) :   0.9373
B( 15-C , 35-H ) :   0.9424 B( 16-O , 17-C ) :   0.9117 B( 17-C , 18-C ) :   1.1627
B( 17-C , 36-H ) :   0.9188 B( 17-C , 37-H ) :   0.9354 B( 18-C , 38-H ) :   0.9387
B( 18-C , 39-H ) :   0.9384 B( 18-C , 40-H ) :   0.9459

Dispersion correction           -0.064923498
FINAL SINGLE POINT ENERGY     -2929.522058043824

DIPOLE MOMENT
-------------

Method             : SCF
Type of density    : Electron Density
Multiplicity       :   1
Irrep              :   0
Energy             : -2929.6424587711780987 Eh
Relativity type    :
Basis              : AO
                                X                 Y                 Z
Electronic contribution:      0.729000075       2.882234881     -18.827775917
Nuclear contribution   :     -1.107083405      -3.312351704      20.570002039
                        -----------------------------------------
Total Dipole Moment    :     -0.378083329      -0.430116822       1.742226122
                        -----------------------------------------
Magnitude (a.u.)       :      1.833930028
Magnitude (Debye)      :      4.661479676

Rotational constants in cm-1:             0.013562             0.004424             0.004286
Rotational constants in MHz :           406.592314           132.637188           128.478441

                             ****ORCA TERMINATED NORMALLY****
TOTAL RUN TIME: 0 days 0 hours 0 minutes 21 seconds 78 msec
