                         Program Version 6.0.0  -   RELEASE  -
|  1> ! pbe def2-sv(p) def2/J RI DEFGRID1 loosescf d4 GCP(DFT/SV(P)) printgap
|  2> %output
|  3>     printlevel normal
|  4> end
|  5> * xyz 0 1
|  6> C 5.7402709654 -1.1592296412 -0.1622330503
|  7> C 4.5309991611 -1.4049127445 0.7191913631
|  8> O 3.6921725572 -0.2322057361 0.7719597955
|  9> P 2.4077295631 -0.0649791446 -0.1535251058
| 10> S 2.6886148255 -0.3899805648 -2.0709495773
| 11> O 1.9402535749 1.3871429916 0.2636892624
| 12> C 2.3438940484 2.5727764747 -0.4602474474
| 13> C 1.2466391238 3.0190612216 -1.4052639573
| 14> S 0.9693903257 -1.2736978335 0.7987445502
| 15> C -0.1935031794 -1.3528000289 -0.5910284129
| 16> S -1.0228402424 0.2250912409 -0.9376184693
| 17> P -2.6513441624 -0.0122439484 0.4144754087
| 18> S -3.9694351779 1.4336941753 0.4616585306
| 19> O -1.9665498271 -0.4030238276 1.7928621079
| 20> C -1.7600201889 0.5627561603 2.8384102352
| 21> C -0.7887288266 1.6549130097 2.4367821265
| 22> O -3.2206707512 -1.460589804 0.0842079191
| 23> C -4.3082516038 -1.6459630634 -0.8393757682
| 24> C -3.8967034146 -1.373179046 -2.2728599109
| 25> H 5.4275479352 -0.9835639011 -1.1892518167
| 26> H 6.2895864644 -0.2912922939 0.1914377193
| 27> H 6.3867577629 -2.0303317449 -0.1337331206
| 28> H 4.8225977052 -1.5844142711 1.7555133907
| 29> H 3.9455546083 -2.2529014597 0.3530487071
| 30> H 2.534512359 3.3174797826 0.3137615257
| 31> H 3.2671301454 2.364321322 -1.0073997646
| 32> H 0.3187551907 3.1742600326 -0.861692111
| 33> H 1.542831042 3.9466762348 -1.8841456749
| 34> H 1.0754552182 2.2624291236 -2.1682834575
| 35> H -0.933366715 -2.1078026824 -0.337354546
| 36> H 0.3567162946 -1.6128042339 -1.4956220061
| 37> H -2.7291433771 0.9973219573 3.1027485777
| 38> H -1.3773469285 -0.0313678366 3.6693308556
| 39> H -1.1964690759 2.219817551 1.5979828751
| 40> H -0.6405227201 2.3288663695 3.274490569
| 41> H 0.1701414875 1.2334081531 2.1443144699
| 42> H -4.6012627428 -2.6867408915 -0.693991043
| 43> H -5.1294645943 -0.9847715742 -0.5452808787
| 44> H -4.7284177308 -1.6006163118 -2.9320307055
| 45> H -3.6314036385 -0.3228562329 -2.3905400553
| 46> H -3.0422696075 -1.9852593563 -2.5507826623
| 47> *
| 48>
| 49>                          ****END OF INPUT****

CARTESIAN COORDINATES (ANGSTROEM)
---------------------------------
  C      5.740271   -1.159230   -0.162233
  C      4.530999   -1.404913    0.719191
  O      3.692173   -0.232206    0.771960
  P      2.407730   -0.064979   -0.153525
  S      2.688615   -0.389981   -2.070950
  O      1.940254    1.387143    0.263689
  C      2.343894    2.572776   -0.460247
  C      1.246639    3.019061   -1.405264
  S      0.969390   -1.273698    0.798745
  C     -0.193503   -1.352800   -0.591028
  S     -1.022840    0.225091   -0.937618
  P     -2.651344   -0.012244    0.414475
  S     -3.969435    1.433694    0.461659
  O     -1.966550   -0.403024    1.792862
  C     -1.760020    0.562756    2.838410
  C     -0.788729    1.654913    2.436782
  O     -3.220671   -1.460590    0.084208
  C     -4.308252   -1.645963   -0.839376
  C     -3.896703   -1.373179   -2.272860
  H      5.427548   -0.983564   -1.189252
  H      6.289586   -0.291292    0.191438
  H      6.386758   -2.030332   -0.133733
  H      4.822598   -1.584414    1.755513
  H      3.945555   -2.252901    0.353049
  H      2.534512    3.317480    0.313762
  H      3.267130    2.364321   -1.007400
  H      0.318755    3.174260   -0.861692
  H      1.542831    3.946676   -1.884146
  H      1.075455    2.262429   -2.168283
  H     -0.933367   -2.107803   -0.337355
  H      0.356716   -1.612804   -1.495622
  H     -2.729143    0.997322    3.102749
  H     -1.377347   -0.031368    3.669331
  H     -1.196469    2.219818    1.597983
  H     -0.640523    2.328866    3.274491
  H      0.170141    1.233408    2.144314
  H     -4.601263   -2.686741   -0.693991
  H     -5.129465   -0.984772   -0.545281
  H     -4.728418   -1.600616   -2.932031
  H     -3.631404   -0.322856   -2.390540
  H     -3.042270   -1.985259   -2.550783

 Total Charge           Charge          ....    0
 Multiplicity           Mult            ....    1
 Number of Electrons    NEL             ....  202
 Basis Dimension        Dim             ....  334

ORBITAL ENERGIES
----------------

  NO   OCC          E(Eh)            E(eV)
   0   2.0000     -88.047084     -2395.8830
   1   2.0000     -88.042713     -2395.7640
   2   2.0000     -87.994350     -2394.4480
   3   2.0000     -87.990479     -2394.3427
   4   2.0000     -76.431349     -2079.8027
   5   2.0000     -76.427386     -2079.6949
   6   2.0000     -18.796173      -511.4699
   7   2.0000     -18.794282      -511.4184
   8   2.0000     -18.792916      -511.3812
   9   2.0000     -18.788123      -511.2508
  10   2.0000      -9.957809      -270.9658
  11   2.0000      -9.957689      -270.9625
  12   2.0000      -9.954752      -270.8826
  13   2.0000      -9.953487      -270.8482
  14   2.0000      -9.948096      -270.7015
  15   2.0000      -9.884707      -268.9766
  16   2.0000      -9.884547      -268.9722
  17   2.0000      -9.879285      -268.8290
  18   2.0000      -9.873557      -268.6731
  19   2.0000      -7.692373      -209.3201
  20   2.0000      -7.687386      -209.1844
  21   2.0000      -7.639232      -207.8741
  22   2.0000      -7.635602      -207.7753
  23   2.0000      -6.429001      -174.9420
  24   2.0000      -6.424794      -174.8275
  25   2.0000      -5.720106      -155.6520
  26   2.0000      -5.716920      -155.5653
  27   2.0000      -5.715492      -155.5264
  28   2.0000      -5.711807      -155.4262
  29   2.0000      -5.709380      -155.3601
  30   2.0000      -5.704274      -155.2212
  31   2.0000      -5.668010      -154.2344
  32   2.0000      -5.664594      -154.1414
  33   2.0000      -5.659927      -154.0144
  34   2.0000      -5.659479      -154.0023
  35   2.0000      -5.656063      -153.9093
  36   2.0000      -5.655870      -153.9041
  37   2.0000      -4.651473      -126.5730
  38   2.0000      -4.650736      -126.5530
  39   2.0000      -4.649578      -126.5215
  40   2.0000      -4.647102      -126.4541
  41   2.0000      -4.646958      -126.4502
  42   2.0000      -4.645148      -126.4009
  43   2.0000      -0.990171       -26.9439
  44   2.0000      -0.987984       -26.8844
  45   2.0000      -0.948240       -25.8029
  46   2.0000      -0.944701       -25.7066
  47   2.0000      -0.766209       -20.8496
  48   2.0000      -0.722950       -19.6725
  49   2.0000      -0.709252       -19.2997
  50   2.0000      -0.687210       -18.6999
  51   2.0000      -0.681202       -18.5365
  52   2.0000      -0.676458       -18.4074
  53   2.0000      -0.657540       -17.8926
  54   2.0000      -0.642344       -17.4791
  55   2.0000      -0.599846       -16.3226
  56   2.0000      -0.593969       -16.1627
  57   2.0000      -0.575502       -15.6602
  58   2.0000      -0.568145       -15.4600
  59   2.0000      -0.561064       -15.2673
  60   2.0000      -0.507153       -13.8003
  61   2.0000      -0.493820       -13.4375
  62   2.0000      -0.479044       -13.0355
  63   2.0000      -0.464448       -12.6383
  64   2.0000      -0.462885       -12.5957
  65   2.0000      -0.444834       -12.1045
  66   2.0000      -0.443148       -12.0587
  67   2.0000      -0.435962       -11.8631
  68   2.0000      -0.422772       -11.5042
  69   2.0000      -0.420707       -11.4480
  70   2.0000      -0.407198       -11.0804
  71   2.0000      -0.401428       -10.9234
  72   2.0000      -0.397103       -10.8057
  73   2.0000      -0.390380       -10.6228
  74   2.0000      -0.384666       -10.4673
  75   2.0000      -0.372779       -10.1438
  76   2.0000      -0.370797       -10.0899
  77   2.0000      -0.356206        -9.6928
  78   2.0000      -0.352044        -9.5796
  79   2.0000      -0.349951        -9.5227
  80   2.0000      -0.346309        -9.4235
  81   2.0000      -0.343508        -9.3473
  82   2.0000      -0.340338        -9.2611
  83   2.0000      -0.334892        -9.1129
  84   2.0000      -0.331324        -9.0158
  85   2.0000      -0.320651        -8.7254
  86   2.0000      -0.312604        -8.5064
  87   2.0000      -0.302447        -8.2300
  88   2.0000      -0.299935        -8.1617
  89   2.0000      -0.292022        -7.9463
  90   2.0000      -0.286707        -7.8017
  91   2.0000      -0.280766        -7.6400
  92   2.0000      -0.270152        -7.3512
  93   2.0000      -0.266425        -7.2498
  94   2.0000      -0.256759        -6.9868
  95   2.0000      -0.233446        -6.3524
  96   2.0000      -0.220192        -5.9917
  97   2.0000      -0.211969        -5.7680
  98   2.0000      -0.209152        -5.6913
  99   2.0000      -0.208570        -5.6755
 100   2.0000      -0.206696        -5.6245
 101   0.0000      -0.044220        -1.2033
 102   0.0000      -0.029040        -0.7902
 103   0.0000      -0.013707        -0.3730
 104   0.0000       0.001239         0.0337
 105   0.0000       0.005438         0.1480

MULLIKEN ATOMIC CHARGES
-----------------------
   0 C :   -0.291048
   1 C :   -0.008050
   2 O :   -0.373110
   3 P :    0.605773
   4 S :   -0.334737
   5 O :   -0.356520
   6 C :   -0.002604
   7 C :   -0.297507
   8 S :   -0.066213
   9 C :   -0.375969
  10 S :   -0.061396
  11 P :    0.576562
  12 S :   -0.314539
  13 O :   -0.368103
  14 C :    0.008688
  15 C :   -0.344423
  16 O :   -0.368666
  17 C :   -0.004188
  18 C :   -0.312912
  19 H :    0.127855
  20 H :    0.112869
  21 H :    0.108965
  22 H :    0.108534
  23 H :    0.101664
  24 H :    0.108460
  25 H :    0.104182
  26 H :    0.128165
  27 H :    0.107812
  28 H :    0.126845
  29 H :    0.192913
  30 H :    0.196953
  31 H :    0.108718
  32 H :    0.103923
  33 H :    0.125590
  34 H :    0.105236
  35 H :    0.142542
  36 H :    0.106711
  37 H :    0.114341
  38 H :    0.113354
  39 H :    0.129151
  40 H :    0.114179
Sum of atomic charges:   -0.0000000

LOEWDIN ATOMIC CHARGES
----------------------
   0 C :   -0.361999
   1 C :   -0.115922
   2 O :   -0.249308
   3 P :    0.568010
   4 S :   -0.319663
   5 O :   -0.234193
   6 C :   -0.110988
   7 C :   -0.362057
   8 S :    0.099116
   9 C :   -0.485420
  10 S :    0.097083
  11 P :    0.572803
  12 S :   -0.315285
  13 O :   -0.242065
  14 C :   -0.115329
  15 C :   -0.377728
  16 O :   -0.242346
  17 C :   -0.118839
  18 C :   -0.367783
  19 H :    0.124894
  20 H :    0.125479
  21 H :    0.129439
  22 H :    0.119286
  23 H :    0.107761
  24 H :    0.119892
  25 H :    0.109421
  26 H :    0.126723
  27 H :    0.128621
  28 H :    0.122894
  29 H :    0.134007
  30 H :    0.130458
  31 H :    0.109953
  32 H :    0.119125
  33 H :    0.118040
  34 H :    0.128181
  35 H :    0.120278
  36 H :    0.118998
  37 H :    0.111525
  38 H :    0.131185
  39 H :    0.122447
  40 H :    0.123305

  Mayer bond orders larger than 0.100000
B(  0-C ,  1-C ) :   1.1673 B(  0-C , 19-H ) :   0.9344 B(  0-C , 20-H ) :   0.9475
B(  0-C , 21-H ) :   0.9398 B(  1-C ,  2-O ) :   0.9012 B(  1-C , 22-H ) :   0.9354
B(  1-C , 23-H ) :   0.9146 B(  2-O ,  3-P ) :   1.1165 B(  3-P ,  4-S ) :   1.5845
B(  3-P ,  5-O ) :   1.1378 B(  3-P ,  8-S ) :   0.9758 B(  4-S ,  8-S ) :   0.1112
B(  5-O ,  6-C ) :   0.8851 B(  6-C ,  7-C ) :   1.1724 B(  6-C , 24-H ) :   0.9328
B(  6-C , 25-H ) :   0.9143 B(  7-C , 26-H ) :   0.9427 B(  7-C , 27-H ) :   0.9384
B(  7-C , 28-H ) :   0.9370 B(  8-S ,  9-C ) :   0.9991 B(  9-C , 10-S ) :   0.9846
B(  9-C , 29-H ) :   0.8855 B(  9-C , 30-H ) :   0.8740 B( 10-S , 11-P ) :   0.9735
B( 11-P , 12-S ) :   1.6316 B( 11-P , 13-O ) :   1.1106 B( 11-P , 16-O ) :   1.0862
B( 13-O , 14-C ) :   0.9018 B( 14-C , 15-C ) :   1.1616 B( 14-C , 31-H ) :   0.9214
B( 14-C , 32-H ) :   0.9337 B( 15-C , 33-H ) :   0.9314 B( 15-C , 34-H ) :   0.9365
B( 15-C , 35-H ) :   0.9272 B( 16-O , 17-C ) :   0.9082 B( 17-C , 18-C ) :   1.1625
B( 17-C , 36-H ) :   0.9347 B( 17-C , 37-H ) :   0.9152 B( 18-C , 38-H ) :   0.9381
B( 18-C , 39-H ) :   0.9354 B( 18-C , 40-H ) :   0.9470

Dispersion correction           -0.065648164
FINAL SINGLE POINT ENERGY     -2929.525279225436

DIPOLE MOMENT
-------------

Method             : SCF
Type of density    : Electron Density
Multiplicity       :   1
Irrep              :   0
Energy             : -2929.6449346903441437 Eh
Relativity type    :
Basis              : AO
                                X                 Y                 Z
Electronic contribution:     -7.139068187      -3.718179955       2.205692470
Nuclear contribution   :      7.888272392       3.220150808      -1.816380480
                        -----------------------------------------
Total Dipole Moment    :      0.749204205      -0.498029147       0.389311990
                        -----------------------------------------
Magnitude (a.u.)       :      0.980257006
Magnitude (Debye)      :      2.491615297

Rotational constants in cm-1:             0.013621             0.004530             0.004375
Rotational constants in MHz :           408.355917           135.811153           131.166689

                             ****ORCA TERMINATED NORMALLY****
TOTAL RUN TIME: 0 days 0 hours 0 minutes 21 seconds 391 msec
