                         Program Version 6.0.0  -   RELEASE  -
|  1> ! pbe def2-sv(p) def2/J RI DEFGRID1 loosescf d4 GCP(DFT/SV(P)) printgap
|  2> %output
|  3>     printlevel normal
|  4> end
|  5> * xyz 0 1
|  6> C 5.6113721743 -0.3454967596 -0.9827901854
|  7> C 4.4576680445 -1.2351722708 -1.3945811986
|  8> O 3.376679773 -1.1918671457 -0.440244641
|  9> P 2.4876576495 0.1027002096 -0.2226210991
| 10> S 2.1133962628 1.1279030385 -1.8588704156
| 11> O 3.2802745571 0.8814646664 0.9114507262
| 12> C 3.0258621631 2.2605498031 1.2286936054
| 13> C 1.66439148 2.4525941365 1.8638338492
| 14> S 0.8817046896 -0.8140784481 0.7750820581
| 15> C 0.0023874092 -1.3379641462 -0.7433878766
| 16> S -1.6749824745 -1.8633523714 -0.3795954195
| 17> P -2.5624457331 0.0477775926 0.0277774476
| 18> S -1.4803810751 1.6177883129 -0.4058258693
| 19> O -3.096538121 -0.1094656512 1.5200341087
| 20> C -2.2570607324 -0.2898784969 2.6753466245
| 21> C -1.8262203397 1.0434066095 3.2532589122
| 22> O -3.9146259887 0.0743728964 -0.7704013952
| 23> C -4.9163051577 -0.9759885324 -0.7010819988
| 24> C -4.9298355286 -1.7670352811 -1.9936009111
| 25> H 5.926163962 -0.5830651583 0.0298776616
| 26> H 6.4419479532 -0.493635612 -1.6658662541
| 27> H 5.3042922661 0.6988831435 -1.0206511654
| 28> H 4.74367521 -2.2875310162 -1.4151085226
| 29> H 4.067180519 -0.9324018079 -2.3715593422
| 30> H 3.8325699781 2.5237217664 1.9142904668
| 31> H 3.1068356968 2.8503543113 0.3098440946
| 32> H 1.564927369 3.4777854399 2.205642946
| 33> H 0.880339846 2.2537078504 1.1320992454
| 34> H 1.5436871291 1.7756704243 2.7061494805
| 35> H 0.5102317311 -2.1970780399 -1.1757521255
| 36> H -0.0156423573 -0.4912807997 -1.4343062901
| 37> H -2.8838053118 -0.8429887099 3.3775872485
| 38> H -1.3870200798 -0.8959161055 2.4020136101
| 39> H -1.2328994694 1.5929997362 2.5264421276
| 40> H -2.6972937579 1.639164203 3.5114240874
| 41> H -1.2289813352 0.8717843077 4.1426164176
| 42> H -4.706109828 -1.6166739834 0.1568716565
| 43> H -5.8593042142 -0.4494210388 -0.5468220914
| 44> H -5.0747060146 -1.0976841416 -2.8370956828
| 45> H -3.9911860312 -2.3000820639 -2.123052168
| 46> H -5.7440381415 -2.4839260009 -1.9611063225
| 47> *
| 48>
| 49>                          ****END OF INPUT****

CARTESIAN COORDINATES (ANGSTROEM)
---------------------------------
  C      5.611372   -0.345497   -0.982790
  C      4.457668   -1.235172   -1.394581
  O      3.376680   -1.191867   -0.440245
  P      2.487658    0.102700   -0.222621
  S      2.113396    1.127903   -1.858870
  O      3.280275    0.881465    0.911451
  C      3.025862    2.260550    1.228694
  C      1.664391    2.452594    1.863834
  S      0.881705   -0.814078    0.775082
  C      0.002387   -1.337964   -0.743388
  S     -1.674982   -1.863352   -0.379595
  P     -2.562446    0.047778    0.027777
  S     -1.480381    1.617788   -0.405826
  O     -3.096538   -0.109466    1.520034
  C     -2.257061   -0.289878    2.675347
  C     -1.826220    1.043407    3.253259
  O     -3.914626    0.074373   -0.770401
  C     -4.916305   -0.975989   -0.701082
  C     -4.929836   -1.767035   -1.993601
  H      5.926164   -0.583065    0.029878
  H      6.441948   -0.493636   -1.665866
  H      5.304292    0.698883   -1.020651
  H      4.743675   -2.287531   -1.415109
  H      4.067181   -0.932402   -2.371559
  H      3.832570    2.523722    1.914290
  H      3.106836    2.850354    0.309844
  H      1.564927    3.477785    2.205643
  H      0.880340    2.253708    1.132099
  H      1.543687    1.775670    2.706149
  H      0.510232   -2.197078   -1.175752
  H     -0.015642   -0.491281   -1.434306
  H     -2.883805   -0.842989    3.377587
  H     -1.387020   -0.895916    2.402014
  H     -1.232899    1.593000    2.526442
  H     -2.697294    1.639164    3.511424
  H     -1.228981    0.871784    4.142616
  H     -4.706110   -1.616674    0.156872
  H     -5.859304   -0.449421   -0.546822
  H     -5.074706   -1.097684   -2.837096
  H     -3.991186   -2.300082   -2.123052
  H     -5.744038   -2.483926   -1.961106

 Total Charge           Charge          ....    0
 Multiplicity           Mult            ....    1
 Number of Electrons    NEL             ....  202
 Basis Dimension        Dim             ....  334

ORBITAL ENERGIES
----------------

  NO   OCC          E(Eh)            E(eV)
   0   2.0000     -88.048193     -2395.9131
   1   2.0000     -88.039143     -2395.6669
   2   2.0000     -87.985220     -2394.1996
   3   2.0000     -87.983339     -2394.1484
   4   2.0000     -76.425855     -2079.6532
   5   2.0000     -76.423966     -2079.6018
   6   2.0000     -18.793012      -511.3839
   7   2.0000     -18.792588      -511.3723
   8   2.0000     -18.791217      -511.3350
   9   2.0000     -18.786946      -511.2188
  10   2.0000      -9.959621      -271.0151
  11   2.0000      -9.953343      -270.8442
  12   2.0000      -9.953277      -270.8424
  13   2.0000      -9.950608      -270.7698
  14   2.0000      -9.949427      -270.7377
  15   2.0000      -9.888192      -269.0714
  16   2.0000      -9.882845      -268.9259
  17   2.0000      -9.879533      -268.8358
  18   2.0000      -9.878677      -268.8125
  19   2.0000      -7.692965      -209.3362
  20   2.0000      -7.684239      -209.0988
  21   2.0000      -7.630040      -207.6239
  22   2.0000      -7.628161      -207.5728
  23   2.0000      -6.423294      -174.7867
  24   2.0000      -6.421596      -174.7405
  25   2.0000      -5.720805      -155.6710
  26   2.0000      -5.717355      -155.5771
  27   2.0000      -5.712131      -155.4350
  28   2.0000      -5.710161      -155.3814
  29   2.0000      -5.709128      -155.3533
  30   2.0000      -5.700820      -155.1272
  31   2.0000      -5.658848      -153.9851
  32   2.0000      -5.657332      -153.9438
  33   2.0000      -5.650705      -153.7635
  34   2.0000      -5.650313      -153.7528
  35   2.0000      -5.648499      -153.7035
  36   2.0000      -5.648334      -153.6990
  37   2.0000      -4.645973      -126.4234
  38   2.0000      -4.645202      -126.4024
  39   2.0000      -4.644112      -126.3727
  40   2.0000      -4.643534      -126.3570
  41   2.0000      -4.643275      -126.3499
  42   2.0000      -4.642156      -126.3195
  43   2.0000      -0.988564       -26.9002
  44   2.0000      -0.985273       -26.8106
  45   2.0000      -0.944858       -25.7109
  46   2.0000      -0.943981       -25.6870
  47   2.0000      -0.763266       -20.7695
  48   2.0000      -0.722021       -19.6472
  49   2.0000      -0.710743       -19.3403
  50   2.0000      -0.689410       -18.7598
  51   2.0000      -0.685208       -18.6455
  52   2.0000      -0.674146       -18.3444
  53   2.0000      -0.650023       -17.6880
  54   2.0000      -0.635186       -17.2843
  55   2.0000      -0.599149       -16.3037
  56   2.0000      -0.584495       -15.9049
  57   2.0000      -0.576649       -15.6914
  58   2.0000      -0.570881       -15.5345
  59   2.0000      -0.562515       -15.3068
  60   2.0000      -0.505606       -13.7582
  61   2.0000      -0.491863       -13.3843
  62   2.0000      -0.477617       -12.9966
  63   2.0000      -0.471456       -12.8290
  64   2.0000      -0.451795       -12.2940
  65   2.0000      -0.447203       -12.1690
  66   2.0000      -0.440892       -11.9973
  67   2.0000      -0.437214       -11.8972
  68   2.0000      -0.430946       -11.7266
  69   2.0000      -0.416697       -11.3389
  70   2.0000      -0.405249       -11.0274
  71   2.0000      -0.397805       -10.8248
  72   2.0000      -0.392300       -10.6750
  73   2.0000      -0.390103       -10.6152
  74   2.0000      -0.382513       -10.4087
  75   2.0000      -0.379958       -10.3392
  76   2.0000      -0.361270        -9.8306
  77   2.0000      -0.355435        -9.6719
  78   2.0000      -0.352559        -9.5936
  79   2.0000      -0.350093        -9.5265
  80   2.0000      -0.347385        -9.4528
  81   2.0000      -0.344829        -9.3833
  82   2.0000      -0.341272        -9.2865
  83   2.0000      -0.333348        -9.0709
  84   2.0000      -0.332156        -9.0384
  85   2.0000      -0.316035        -8.5997
  86   2.0000      -0.311955        -8.4887
  87   2.0000      -0.299375        -8.1464
  88   2.0000      -0.293504        -7.9866
  89   2.0000      -0.292492        -7.9591
  90   2.0000      -0.280868        -7.6428
  91   2.0000      -0.277835        -7.5603
  92   2.0000      -0.271879        -7.3982
  93   2.0000      -0.264653        -7.2016
  94   2.0000      -0.260078        -7.0771
  95   2.0000      -0.235470        -6.4075
  96   2.0000      -0.221384        -6.0242
  97   2.0000      -0.208090        -5.6624
  98   2.0000      -0.202723        -5.5164
  99   2.0000      -0.195049        -5.3076
 100   2.0000      -0.192514        -5.2386
 101   0.0000      -0.048560        -1.3214
 102   0.0000      -0.033078        -0.9001
 103   0.0000      -0.010651        -0.2898
 104   0.0000       0.008811         0.2398
 105   0.0000       0.016109         0.4383

MULLIKEN ATOMIC CHARGES
-----------------------
   0 C :   -0.307176
   1 C :   -0.003639
   2 O :   -0.371272
   3 P :    0.615329
   4 S :   -0.321586
   5 O :   -0.371006
   6 C :    0.009462
   7 C :   -0.365773
   8 S :   -0.101044
   9 C :   -0.336701
  10 S :   -0.124975
  11 P :    0.589971
  12 S :   -0.278619
  13 O :   -0.376249
  14 C :   -0.015406
  15 C :   -0.309098
  16 O :   -0.352927
  17 C :   -0.019994
  18 C :   -0.287610
  19 H :    0.117511
  20 H :    0.111405
  21 H :    0.122398
  22 H :    0.103651
  23 H :    0.108896
  24 H :    0.103116
  25 H :    0.110853
  26 H :    0.113379
  27 H :    0.172207
  28 H :    0.114456
  29 H :    0.180605
  30 H :    0.208916
  31 H :    0.102791
  32 H :    0.112012
  33 H :    0.147529
  34 H :    0.112886
  35 H :    0.106484
  36 H :    0.107042
  37 H :    0.114811
  38 H :    0.124157
  39 H :    0.122873
  40 H :    0.110338
Sum of atomic charges:   -0.0000000

LOEWDIN ATOMIC CHARGES
----------------------
   0 C :   -0.364532
   1 C :   -0.118860
   2 O :   -0.246992
   3 P :    0.573039
   4 S :   -0.310227
   5 O :   -0.241369
   6 C :   -0.117459
   7 C :   -0.376388
   8 S :    0.079344
   9 C :   -0.477564
  10 S :    0.068625
  11 P :    0.559994
  12 S :   -0.274428
  13 O :   -0.248179
  14 C :   -0.117258
  15 C :   -0.364051
  16 O :   -0.234202
  17 C :   -0.112440
  18 C :   -0.359419
  19 H :    0.126718
  20 H :    0.129974
  21 H :    0.122890
  22 H :    0.118056
  23 H :    0.109509
  24 H :    0.117759
  25 H :    0.111638
  26 H :    0.131714
  27 H :    0.123628
  28 H :    0.121619
  29 H :    0.133771
  30 H :    0.123940
  31 H :    0.117031
  32 H :    0.097129
  33 H :    0.128102
  34 H :    0.126273
  35 H :    0.127844
  36 H :    0.108487
  37 H :    0.123751
  38 H :    0.131282
  39 H :    0.121320
  40 H :    0.129934

  Mayer bond orders larger than 0.100000
B(  0-C ,  1-C ) :   1.1651 B(  0-C , 19-H ) :   0.9462 B(  0-C , 20-H ) :   0.9388
B(  0-C , 21-H ) :   0.9375 B(  1-C ,  2-O ) :   0.9111 B(  1-C , 22-H ) :   0.9349
B(  1-C , 23-H ) :   0.9152 B(  2-O ,  3-P ) :   1.1165 B(  3-P ,  4-S ) :   1.6039
B(  3-P ,  5-O ) :   1.1134 B(  3-P ,  8-S ) :   0.9659 B(  4-S ,  8-S ) :   0.1147
B(  5-O ,  6-C ) :   0.9044 B(  6-C ,  7-C ) :   1.1635 B(  6-C , 24-H ) :   0.9326
B(  6-C , 25-H ) :   0.9158 B(  7-C , 26-H ) :   0.9369 B(  7-C , 27-H ) :   0.9156
B(  7-C , 28-H ) :   0.9428 B(  8-S ,  9-C ) :   0.9764 B(  9-C , 10-S ) :   1.0257
B(  9-C , 29-H ) :   0.9041 B(  9-C , 30-H ) :   0.8559 B( 10-S , 11-P ) :   0.9120
B( 10-S , 12-S ) :   0.1165 B( 11-P , 12-S ) :   1.6771 B( 11-P , 13-O ) :   1.0865
B( 11-P , 16-O ) :   1.1482 B( 13-O , 14-C ) :   0.9096 B( 14-C , 15-C ) :   1.1676
B( 14-C , 31-H ) :   0.9353 B( 14-C , 32-H ) :   0.9052 B( 15-C , 33-H ) :   0.9271
B( 15-C , 34-H ) :   0.9450 B( 15-C , 35-H ) :   0.9385 B( 16-O , 17-C ) :   0.8892
B( 17-C , 18-C ) :   1.1637 B( 17-C , 36-H ) :   0.9192 B( 17-C , 37-H ) :   0.9346
B( 18-C , 38-H ) :   0.9461 B( 18-C , 39-H ) :   0.9393 B( 18-C , 40-H ) :   0.9396

Dispersion correction           -0.064731184
FINAL SINGLE POINT ENERGY     -2929.517821123732

DIPOLE MOMENT
-------------

Method             : SCF
Type of density    : Electron Density
Multiplicity       :   1
Irrep              :   0
Energy             : -2929.6373898302908856 Eh
Relativity type    :
Basis              : AO
                                X                 Y                 Z
Electronic contribution:     -3.013275690      -1.780541566      -6.779376078
Nuclear contribution   :      2.975360980       0.808247143       7.623633825
                        -----------------------------------------
Total Dipole Moment    :     -0.037914711      -0.972294424       0.844257748
                        -----------------------------------------
Magnitude (a.u.)       :      1.288241094
Magnitude (Debye)      :      3.274448636

Rotational constants in cm-1:             0.013614             0.004561             0.004096
Rotational constants in MHz :           408.142067           136.722619           122.786531

                             ****ORCA TERMINATED NORMALLY****
TOTAL RUN TIME: 0 days 0 hours 0 minutes 20 seconds 719 msec
