                         Program Version 6.0.0  -   RELEASE  -
|  1> ! wb97x-v def2-tzvp def2/J RIJCOSX DEFGRID2 scfconv7 GCP(DFT/TZ) printgap
|  2> %output
|  3>     printlevel normal
|  4> end
|  5> * xyz 0 1
|  6> C 2.796558664785722 0.8055218547150844 -0.0017991410600127584
|  7> C 1.3494635825376058 0.39696981647136087 0.0009812570955702656
|  8> C 0.3315629294765723 1.3481254969588519 0.00615237420881466
|  9> C -1.0182456157021422 0.9702672346132032 0.005973350397886483
| 10> C -1.3328538172525672 -0.3868161713110701 0.0027933708004122112
| 11> C -0.33062521373725545 -1.3668200876907077 -0.001917409684280126
| 12> C 1.0019976353998636 -0.9611125757959375 -0.003077504353082398
| 13> C -0.7006978394707597 -2.8241806992943967 0.00013995692505755234
| 14> C -2.0963661578749644 2.0182678815868624 -0.004597766183417193
| 15> H 2.902072402520836 1.8927857834151387 0.03178571127578479
| 16> H 3.326444293581447 0.3824992003754413 0.8586195309790723
| 17> H 3.3053936056184954 0.44057970958509673 -0.9009743730129405
| 18> H 0.5879958265358949 2.405383107634646 0.010405065957822998
| 19> H -2.3765749387889987 -0.6939344335831931 0.0049606223603956825
| 20> H 1.7895171917001775 -1.7116645424433456 -0.005593802478461793
| 21> H -1.3412481085433312 -3.0684011267664033 -0.8542759950934521
| 22> H 0.18738020563045457 -3.4595724810381876 -0.04464527917656858
| 23> H -1.2618414955731183 -3.0853731920334644 0.9043544401831938
| 24> H -3.0842208234879944 1.5731589590422546 0.13869406233675366
| 25> H -1.933539987110609 2.760482975823305 0.7838602984158335
| 26> H -2.104894496257927 2.5605530912880385 -0.9572035563391045
| 27> *
| 28>
| 29>                          ****END OF INPUT****

CARTESIAN COORDINATES (ANGSTROEM)
---------------------------------
  C      2.796559    0.805522   -0.001799
  C      1.349464    0.396970    0.000981
  C      0.331563    1.348125    0.006152
  C     -1.018246    0.970267    0.005973
  C     -1.332854   -0.386816    0.002793
  C     -0.330625   -1.366820   -0.001917
  C      1.001998   -0.961113   -0.003078
  C     -0.700698   -2.824181    0.000140
  C     -2.096366    2.018268   -0.004598
  H      2.902072    1.892786    0.031786
  H      3.326444    0.382499    0.858620
  H      3.305394    0.440580   -0.900974
  H      0.587996    2.405383    0.010405
  H     -2.376575   -0.693934    0.004961
  H      1.789517   -1.711665   -0.005594
  H     -1.341248   -3.068401   -0.854276
  H      0.187380   -3.459572   -0.044645
  H     -1.261841   -3.085373    0.904354
  H     -3.084221    1.573159    0.138694
  H     -1.933540    2.760483    0.783860
  H     -2.104894    2.560553   -0.957204

 Total Charge           Charge          ....    0
 Multiplicity           Mult            ....    1
 Number of Electrons    NEL             ....   66
 Basis Dimension        Dim             ....  351

ORBITAL ENERGIES
----------------

  NO   OCC          E(Eh)            E(eV)
   0   2.0000     -12.054317      -328.0146
   1   2.0000     -12.054312      -328.0145
   2   2.0000     -12.054032      -328.0069
   3   2.0000     -12.039908      -327.6226
   4   2.0000     -12.039896      -327.6222
   5   2.0000     -12.039836      -327.6206
   6   2.0000     -12.036487      -327.5295
   7   2.0000     -12.036455      -327.5286
   8   2.0000     -12.035825      -327.5114
   9   2.0000      -1.381654       -37.5967
  10   2.0000      -1.296532       -35.2804
  11   2.0000      -1.296503       -35.2796
  12   2.0000      -1.196764       -32.5656
  13   2.0000      -1.184507       -32.2321
  14   2.0000      -1.184453       -32.2306
  15   2.0000      -1.067244       -29.0412
  16   2.0000      -1.067213       -29.0404
  17   2.0000      -0.958511       -26.0824
  18   2.0000      -0.941477       -25.6189
  19   2.0000      -0.895191       -24.3594
  20   2.0000      -0.861383       -23.4394
  21   2.0000      -0.861316       -23.4376
  22   2.0000      -0.841183       -22.8898
  23   2.0000      -0.829875       -22.5821
  24   2.0000      -0.829807       -22.5802
  25   2.0000      -0.828829       -22.5536
  26   2.0000      -0.828759       -22.5517
  27   2.0000      -0.804951       -21.9038
  28   2.0000      -0.794735       -21.6258
  29   2.0000      -0.794702       -21.6250
  30   2.0000      -0.740828       -20.1590
  31   2.0000      -0.623360       -16.9625
  32   2.0000      -0.623319       -16.9614
  33   0.0000      -0.231793        -6.3074
  34   0.0000      -0.231628        -6.3029
  35   0.0000      -0.071527        -1.9464
  36   0.0000      -0.057150        -1.5551
  37   0.0000      -0.016651        -0.4531

MULLIKEN ATOMIC CHARGES
-----------------------
   0 C :   -0.368581
   1 C :    0.239660
   2 C :   -0.337244
   3 C :    0.240132
   4 C :   -0.337255
   5 C :    0.240834
   6 C :   -0.338094
   7 C :   -0.368820
   8 C :   -0.368601
   9 H :    0.115247
  10 H :    0.121914
  11 H :    0.122265
  12 H :    0.106340
  13 H :    0.106980
  14 H :    0.106092
  15 H :    0.121922
  16 H :    0.115296
  17 H :    0.122361
  18 H :    0.115492
  19 H :    0.121171
  20 H :    0.122890
Sum of atomic charges:    0.0000000

LOEWDIN ATOMIC CHARGES
----------------------
   0 C :   -0.252031
   1 C :   -0.165594
   2 C :   -0.102518
   3 C :   -0.165627
   4 C :   -0.102212
   5 C :   -0.165712
   6 C :   -0.102354
   7 C :   -0.252020
   8 C :   -0.251970
   9 H :    0.123149
  10 H :    0.126539
  11 H :    0.126805
  12 H :    0.143452
  13 H :    0.143610
  14 H :    0.143519
  15 H :    0.126511
  16 H :    0.123140
  17 H :    0.126844
  18 H :    0.123249
  19 H :    0.126027
  20 H :    0.127192

  Mayer bond orders larger than 0.100000
B(  0-C ,  1-C ) :   0.9052 B(  0-C ,  9-H ) :   0.9983 B(  0-C , 10-H ) :   0.9780
B(  0-C , 11-H ) :   0.9757 B(  1-C ,  2-C ) :   1.4322 B(  1-C ,  6-C ) :   1.3535
B(  2-C ,  3-C ) :   1.3544 B(  2-C , 12-H ) :   0.9680 B(  3-C ,  4-C ) :   1.4276
B(  3-C ,  8-C ) :   0.9057 B(  4-C ,  5-C ) :   1.3549 B(  4-C , 13-H ) :   0.9697
B(  5-C ,  6-C ) :   1.4303 B(  5-C ,  7-C ) :   0.9050 B(  6-C , 14-H ) :   0.9696
B(  7-C , 15-H ) :   0.9789 B(  7-C , 16-H ) :   0.9982 B(  7-C , 17-H ) :   0.9748
B(  8-C , 18-H ) :   0.9980 B(  8-C , 19-H ) :   0.9830 B(  8-C , 20-H ) :   0.9710

FINAL SINGLE POINT ENERGY      -350.208760482724

DIPOLE MOMENT
-------------

Method             : SCF
Type of density    : Electron Density
Multiplicity       :   1
Irrep              :   0
Energy             :  -350.2212868040244302 Eh
Relativity type    :
Basis              : AO
                                X                 Y                 Z
Electronic contribution:      0.002691934       0.002161900       0.023898837
Nuclear contribution   :     -0.003860391      -0.003206251      -0.030553672
                        -----------------------------------------
Total Dipole Moment    :     -0.001168457      -0.001044352      -0.006654835
                        -----------------------------------------
Magnitude (a.u.)       :      0.006836870
Magnitude (Debye)      :      0.017377943

Rotational constants in cm-1:             0.058386             0.058358             0.029668
Rotational constants in MHz :          1750.364156          1749.539173           889.414577

                             ****ORCA TERMINATED NORMALLY****
TOTAL RUN TIME: 0 days 0 hours 3 minutes 58 seconds 689 msec
