                         Program Version 6.0.0  -   RELEASE  -
|  1> ! wb97x-v def2-tzvp def2/J RIJCOSX DEFGRID2 scfconv7 GCP(DFT/TZ) printgap
|  2> %output
|  3>     printlevel normal
|  4> end
|  5> %cpcm
|  6>     smd true
|  7>     smdsolvent "water"
|  8> end
|  9> * xyz 0 1
| 10> C 2.796558664785722 0.8055218547150844 -0.0017991410600127584
| 11> C 1.3494635825376058 0.39696981647136087 0.0009812570955702656
| 12> C 0.3315629294765723 1.3481254969588519 0.00615237420881466
| 13> C -1.0182456157021422 0.9702672346132032 0.005973350397886483
| 14> C -1.3328538172525672 -0.3868161713110701 0.0027933708004122112
| 15> C -0.33062521373725545 -1.3668200876907077 -0.001917409684280126
| 16> C 1.0019976353998636 -0.9611125757959375 -0.003077504353082398
| 17> C -0.7006978394707597 -2.8241806992943967 0.00013995692505755234
| 18> C -2.0963661578749644 2.0182678815868624 -0.004597766183417193
| 19> H 2.902072402520836 1.8927857834151387 0.03178571127578479
| 20> H 3.326444293581447 0.3824992003754413 0.8586195309790723
| 21> H 3.3053936056184954 0.44057970958509673 -0.9009743730129405
| 22> H 0.5879958265358949 2.405383107634646 0.010405065957822998
| 23> H -2.3765749387889987 -0.6939344335831931 0.0049606223603956825
| 24> H 1.7895171917001775 -1.7116645424433456 -0.005593802478461793
| 25> H -1.3412481085433312 -3.0684011267664033 -0.8542759950934521
| 26> H 0.18738020563045457 -3.4595724810381876 -0.04464527917656858
| 27> H -1.2618414955731183 -3.0853731920334644 0.9043544401831938
| 28> H -3.0842208234879944 1.5731589590422546 0.13869406233675366
| 29> H -1.933539987110609 2.760482975823305 0.7838602984158335
| 30> H -2.104894496257927 2.5605530912880385 -0.9572035563391045
| 31> *
| 32>
| 33>                          ****END OF INPUT****

CARTESIAN COORDINATES (ANGSTROEM)
---------------------------------
  C      2.796559    0.805522   -0.001799
  C      1.349464    0.396970    0.000981
  C      0.331563    1.348125    0.006152
  C     -1.018246    0.970267    0.005973
  C     -1.332854   -0.386816    0.002793
  C     -0.330625   -1.366820   -0.001917
  C      1.001998   -0.961113   -0.003078
  C     -0.700698   -2.824181    0.000140
  C     -2.096366    2.018268   -0.004598
  H      2.902072    1.892786    0.031786
  H      3.326444    0.382499    0.858620
  H      3.305394    0.440580   -0.900974
  H      0.587996    2.405383    0.010405
  H     -2.376575   -0.693934    0.004961
  H      1.789517   -1.711665   -0.005594
  H     -1.341248   -3.068401   -0.854276
  H      0.187380   -3.459572   -0.044645
  H     -1.261841   -3.085373    0.904354
  H     -3.084221    1.573159    0.138694
  H     -1.933540    2.760483    0.783860
  H     -2.104894    2.560553   -0.957204

 Total Charge           Charge          ....    0
 Multiplicity           Mult            ....    1
 Number of Electrons    NEL             ....   66
 Basis Dimension        Dim             ....  351

ORBITAL ENERGIES
----------------

  NO   OCC          E(Eh)            E(eV)
   0   2.0000     -12.054854      -328.0292
   1   2.0000     -12.054846      -328.0290
   2   2.0000     -12.054548      -328.0209
   3   2.0000     -12.035528      -327.5034
   4   2.0000     -12.035500      -327.5026
   5   2.0000     -12.034986      -327.4886
   6   2.0000     -12.032518      -327.4214
   7   2.0000     -12.032502      -327.4210
   8   2.0000     -12.032356      -327.4171
   9   2.0000      -1.382805       -37.6281
  10   2.0000      -1.295576       -35.2544
  11   2.0000      -1.295545       -35.2536
  12   2.0000      -1.191853       -32.4320
  13   2.0000      -1.181589       -32.1527
  14   2.0000      -1.181541       -32.1514
  15   2.0000      -1.065467       -28.9928
  16   2.0000      -1.065435       -28.9920
  17   2.0000      -0.958030       -26.0693
  18   2.0000      -0.939310       -25.5599
  19   2.0000      -0.891093       -24.2479
  20   2.0000      -0.858709       -23.3667
  21   2.0000      -0.858650       -23.3650
  22   2.0000      -0.836890       -22.7729
  23   2.0000      -0.823666       -22.4131
  24   2.0000      -0.823572       -22.4105
  25   2.0000      -0.822830       -22.3903
  26   2.0000      -0.822745       -22.3880
  27   2.0000      -0.798062       -21.7164
  28   2.0000      -0.790974       -21.5235
  29   2.0000      -0.790941       -21.5226
  30   2.0000      -0.741325       -20.1725
  31   2.0000      -0.625208       -17.0128
  32   2.0000      -0.625158       -17.0114
  33   0.0000      -0.233388        -6.3508
  34   0.0000      -0.233227        -6.3464
  35   0.0000      -0.071573        -1.9476
  36   0.0000      -0.052879        -1.4389
  37   0.0000      -0.012018        -0.3270

MULLIKEN ATOMIC CHARGES
-----------------------
   0 C :   -0.398293
   1 C :    0.215859
   2 C :   -0.387480
   3 C :    0.214818
   4 C :   -0.386819
   5 C :    0.216481
   6 C :   -0.388487
   7 C :   -0.398554
   8 C :   -0.398281
   9 H :    0.140287
  10 H :    0.139916
  11 H :    0.139927
  12 H :    0.150044
  13 H :    0.150265
  14 H :    0.149636
  15 H :    0.140034
  16 H :    0.140431
  17 H :    0.139899
  18 H :    0.140197
  19 H :    0.140080
  20 H :    0.140040
Sum of atomic charges:    0.0000000

LOEWDIN ATOMIC CHARGES
----------------------
   0 C :   -0.254428
   1 C :   -0.176487
   2 C :   -0.113459
   3 C :   -0.176598
   4 C :   -0.113107
   5 C :   -0.176565
   6 C :   -0.113295
   7 C :   -0.254412
   8 C :   -0.254358
   9 H :    0.128533
  10 H :    0.131221
  11 H :    0.131466
  12 H :    0.152960
  13 H :    0.153061
  14 H :    0.153000
  15 H :    0.131203
  16 H :    0.128561
  17 H :    0.131484
  18 H :    0.128592
  19 H :    0.130816
  20 H :    0.131812

  Mayer bond orders larger than 0.100000
B(  0-C ,  1-C ) :   0.9209 B(  0-C ,  9-H ) :   0.9939 B(  0-C , 10-H ) :   0.9717
B(  0-C , 11-H ) :   0.9693 B(  1-C ,  2-C ) :   1.4155 B(  1-C ,  6-C ) :   1.3284
B(  2-C ,  3-C ) :   1.3297 B(  2-C , 12-H ) :   0.9809 B(  3-C ,  4-C ) :   1.4116
B(  3-C ,  8-C ) :   0.9221 B(  4-C ,  5-C ) :   1.3297 B(  4-C , 13-H ) :   0.9823
B(  5-C ,  6-C ) :   1.4141 B(  5-C ,  7-C ) :   0.9206 B(  6-C , 14-H ) :   0.9822
B(  7-C , 15-H ) :   0.9724 B(  7-C , 16-H ) :   0.9938 B(  7-C , 17-H ) :   0.9686
B(  8-C , 18-H ) :   0.9934 B(  8-C , 19-H ) :   0.9763 B(  8-C , 20-H ) :   0.9652

FINAL SINGLE POINT ENERGY      -350.209235499598

DIPOLE MOMENT
-------------

Method             : SCF
Type of density    : Electron Density
Multiplicity       :   1
Irrep              :   0
Energy             :  -350.2217618208982230 Eh
Relativity type    :
Basis              : AO
                                X                 Y                 Z
Electronic contribution:      0.002704303       0.001939436       0.021213071
Nuclear contribution   :     -0.003860391      -0.003206251      -0.030553672
                        -----------------------------------------
Total Dipole Moment    :     -0.001156088      -0.001266816      -0.009340600
                        -----------------------------------------
Magnitude (a.u.)       :      0.009496746
Magnitude (Debye)      :      0.024138809

Rotational constants in cm-1:             0.058386             0.058358             0.029668
Rotational constants in MHz :          1750.364156          1749.539173           889.414577

                             ****ORCA TERMINATED NORMALLY****
TOTAL RUN TIME: 0 days 0 hours 3 minutes 52 seconds 632 msec
