                         Program Version 6.0.0  -   RELEASE  -
|  1> ! pbe def2-sv(p) def2/J RI DEFGRID1 loosescf d4 GCP(DFT/SV(P)) printgap
|  2> %output
|  3>     printlevel normal
|  4> end
|  5> * xyz 0 1
|  6> C 4.4059547755 0.5635921692 -2.0296747331
|  7> C 4.5969340393 0.2296448632 -0.5636192734
|  8> O 3.4409656793 -0.4080192208 -0.000200776
|  9> P 2.0675440231 0.3724495684 0.2336263405
| 10> S 2.2636875262 2.2259626792 0.8306597641
| 11> O 1.3277728979 -0.6289638552 1.2063183749
| 12> C 1.3412979003 -0.4613337295 2.6373529267
| 13> C 2.7064163544 -0.7596818958 3.2192132007
| 14> S 0.9519150808 0.0871220697 -1.5491346149
| 15> C 0.5092000658 -1.6635827451 -1.4214876423
| 16> S -0.781699483 -2.0424777881 -0.1855257957
| 17> P -1.9791596176 -0.3222845557 -0.349790197
| 18> S -2.5014096121 0.2761383135 -2.1468507865
| 19> O -1.2019945971 0.7224143757 0.5617038596
| 20> C -1.4271069994 2.1401876864 0.4191770591
| 21> C -2.8019662718 2.538164196 0.9085592292
| 22> O -3.1988997569 -0.7026632566 0.5936477227
| 23> C -4.2727493392 -1.5519976439 0.1393228689
| 24> C -5.4693734708 -1.3157847525 1.0385598435
| 25> H 5.3286376184 0.9730786789 -2.4280637812
| 26> H 4.134192478 -0.3258468902 -2.5921404244
| 27> H 3.613572104 1.3038375803 -2.1423075333
| 28> H 4.804765547 1.1381786842 0.0108523828
| 29> H 5.3982781051 -0.4955331646 -0.4154423776
| 30> H 1.0330805203 0.562696353 2.8706240029
| 31> H 0.5834396344 -1.1643818144 2.9866977268
| 32> H 2.6527294907 -0.715830337 4.3024077702
| 33> H 3.0380070644 -1.7477396375 2.911535544
| 34> H 3.4256489303 -0.0198793742 2.8698569864
| 35> H 1.3808960548 -2.2510387568 -1.1430787488
| 36> H 0.142581094 -1.9359676311 -2.4094520257
| 37> H -0.6314981824 2.5996479287 1.009523509
| 38> H -1.2936114601 2.4075580942 -0.6351043157
| 39> H -2.8941556578 3.6191720533 0.8757860826
| 40> H -3.5619246938 2.0961622792 0.2651363522
| 41> H -2.952761435 2.1892635302 1.926673303
| 42> H -4.4965809037 -1.3020123477 -0.9033950629
| 43> H -3.9308009536 -2.5889143154 0.1933330393
| 44> H -6.2767323074 -1.9738308922 0.7346896092
| 45> H -5.2030686355 -1.5238970702 2.0706952021
| 46> H -5.8001865699 -0.2839139916 0.9613187485
| 47> *
| 48>
| 49>                          ****END OF INPUT****

CARTESIAN COORDINATES (ANGSTROEM)
---------------------------------
  C      4.405955    0.563592   -2.029675
  C      4.596934    0.229645   -0.563619
  O      3.440966   -0.408019   -0.000201
  P      2.067544    0.372450    0.233626
  S      2.263688    2.225963    0.830660
  O      1.327773   -0.628964    1.206318
  C      1.341298   -0.461334    2.637353
  C      2.706416   -0.759682    3.219213
  S      0.951915    0.087122   -1.549135
  C      0.509200   -1.663583   -1.421488
  S     -0.781699   -2.042478   -0.185526
  P     -1.979160   -0.322285   -0.349790
  S     -2.501410    0.276138   -2.146851
  O     -1.201995    0.722414    0.561704
  C     -1.427107    2.140188    0.419177
  C     -2.801966    2.538164    0.908559
  O     -3.198900   -0.702663    0.593648
  C     -4.272749   -1.551998    0.139323
  C     -5.469373   -1.315785    1.038560
  H      5.328638    0.973079   -2.428064
  H      4.134192   -0.325847   -2.592140
  H      3.613572    1.303838   -2.142308
  H      4.804766    1.138179    0.010852
  H      5.398278   -0.495533   -0.415442
  H      1.033081    0.562696    2.870624
  H      0.583440   -1.164382    2.986698
  H      2.652729   -0.715830    4.302408
  H      3.038007   -1.747740    2.911536
  H      3.425649   -0.019879    2.869857
  H      1.380896   -2.251039   -1.143079
  H      0.142581   -1.935968   -2.409452
  H     -0.631498    2.599648    1.009524
  H     -1.293611    2.407558   -0.635104
  H     -2.894156    3.619172    0.875786
  H     -3.561925    2.096162    0.265136
  H     -2.952761    2.189264    1.926673
  H     -4.496581   -1.302012   -0.903395
  H     -3.930801   -2.588914    0.193333
  H     -6.276732   -1.973831    0.734690
  H     -5.203069   -1.523897    2.070695
  H     -5.800187   -0.283914    0.961319

 Total Charge           Charge          ....    0
 Multiplicity           Mult            ....    1
 Number of Electrons    NEL             ....  202
 Basis Dimension        Dim             ....  334

ORBITAL ENERGIES
----------------

  NO   OCC          E(Eh)            E(eV)
   0   2.0000     -88.044547     -2395.8139
   1   2.0000     -88.037875     -2395.6324
   2   2.0000     -87.993170     -2394.4159
   3   2.0000     -87.981015     -2394.0851
   4   2.0000     -76.427925     -2079.7096
   5   2.0000     -76.422779     -2079.5696
   6   2.0000     -18.793046      -511.3848
   7   2.0000     -18.790730      -511.3218
   8   2.0000     -18.789928      -511.2999
   9   2.0000     -18.783751      -511.1318
  10   2.0000      -9.961712      -271.0720
  11   2.0000      -9.953306      -270.8432
  12   2.0000      -9.951286      -270.7883
  13   2.0000      -9.950512      -270.7672
  14   2.0000      -9.936967      -270.3986
  15   2.0000      -9.887173      -269.0437
  16   2.0000      -9.885301      -268.9927
  17   2.0000      -9.884218      -268.9633
  18   2.0000      -9.874923      -268.7103
  19   2.0000      -7.689080      -209.2305
  20   2.0000      -7.683301      -209.0733
  21   2.0000      -7.638137      -207.8443
  22   2.0000      -7.626037      -207.5150
  23   2.0000      -6.425541      -174.8479
  24   2.0000      -6.419954      -174.6958
  25   2.0000      -5.717442      -155.5795
  26   2.0000      -5.713412      -155.4699
  27   2.0000      -5.711427      -155.4158
  28   2.0000      -5.707846      -155.3184
  29   2.0000      -5.705729      -155.2608
  30   2.0000      -5.699898      -155.1021
  31   2.0000      -5.666948      -154.2055
  32   2.0000      -5.658906      -153.9867
  33   2.0000      -5.658257      -153.9690
  34   2.0000      -5.654932      -153.8785
  35   2.0000      -5.646659      -153.6534
  36   2.0000      -5.646274      -153.6429
  37   2.0000      -4.647875      -126.4751
  38   2.0000      -4.647477      -126.4643
  39   2.0000      -4.646092      -126.4266
  40   2.0000      -4.642346      -126.3247
  41   2.0000      -4.641827      -126.3105
  42   2.0000      -4.640539      -126.2755
  43   2.0000      -0.988086       -26.8872
  44   2.0000      -0.981971       -26.7208
  45   2.0000      -0.946448       -25.7542
  46   2.0000      -0.940183       -25.5837
  47   2.0000      -0.763614       -20.7790
  48   2.0000      -0.720164       -19.5967
  49   2.0000      -0.706664       -19.2293
  50   2.0000      -0.687107       -18.6971
  51   2.0000      -0.682201       -18.5636
  52   2.0000      -0.672704       -18.3052
  53   2.0000      -0.653319       -17.7777
  54   2.0000      -0.637377       -17.3439
  55   2.0000      -0.601138       -16.3578
  56   2.0000      -0.590875       -16.0785
  57   2.0000      -0.572275       -15.5724
  58   2.0000      -0.569018       -15.4838
  59   2.0000      -0.557972       -15.1832
  60   2.0000      -0.500937       -13.6312
  61   2.0000      -0.494362       -13.4523
  62   2.0000      -0.473906       -12.8956
  63   2.0000      -0.469289       -12.7700
  64   2.0000      -0.458785       -12.4842
  65   2.0000      -0.442053       -12.0289
  66   2.0000      -0.440429       -11.9847
  67   2.0000      -0.431053       -11.7295
  68   2.0000      -0.424355       -11.5473
  69   2.0000      -0.415759       -11.3134
  70   2.0000      -0.408113       -11.1053
  71   2.0000      -0.397022       -10.8035
  72   2.0000      -0.393438       -10.7060
  73   2.0000      -0.387038       -10.5318
  74   2.0000      -0.379363       -10.3230
  75   2.0000      -0.372802       -10.1445
  76   2.0000      -0.369879       -10.0649
  77   2.0000      -0.357172        -9.7191
  78   2.0000      -0.355226        -9.6662
  79   2.0000      -0.349634        -9.5140
  80   2.0000      -0.349070        -9.4987
  81   2.0000      -0.342799        -9.3280
  82   2.0000      -0.340040        -9.2530
  83   2.0000      -0.337111        -9.1733
  84   2.0000      -0.328725        -8.9451
  85   2.0000      -0.319432        -8.6922
  86   2.0000      -0.309448        -8.4205
  87   2.0000      -0.298135        -8.1127
  88   2.0000      -0.296428        -8.0662
  89   2.0000      -0.290859        -7.9147
  90   2.0000      -0.280256        -7.6262
  91   2.0000      -0.273689        -7.4475
  92   2.0000      -0.265116        -7.2142
  93   2.0000      -0.260986        -7.1018
  94   2.0000      -0.259063        -7.0495
  95   2.0000      -0.227324        -6.1858
  96   2.0000      -0.220861        -6.0099
  97   2.0000      -0.215078        -5.8526
  98   2.0000      -0.207741        -5.6529
  99   2.0000      -0.194215        -5.2849
 100   2.0000      -0.193380        -5.2621
 101   0.0000      -0.046654        -1.2695
 102   0.0000      -0.027299        -0.7428
 103   0.0000      -0.009471        -0.2577
 104   0.0000       0.002448         0.0666
 105   0.0000       0.018924         0.5149

MULLIKEN ATOMIC CHARGES
-----------------------
   0 C :   -0.307954
   1 C :   -0.008309
   2 O :   -0.375970
   3 P :    0.627261
   4 S :   -0.323764
   5 O :   -0.366068
   6 C :    0.003202
   7 C :   -0.305075
   8 S :   -0.074895
   9 C :   -0.319505
  10 S :   -0.096844
  11 P :    0.610520
  12 S :   -0.334632
  13 O :   -0.364848
  14 C :   -0.018981
  15 C :   -0.300617
  16 O :   -0.375548
  17 C :   -0.011601
  18 C :   -0.281919
  19 H :    0.113161
  20 H :    0.113827
  21 H :    0.125805
  22 H :    0.110442
  23 H :    0.104486
  24 H :    0.111763
  25 H :    0.104319
  26 H :    0.111887
  27 H :    0.115007
  28 H :    0.120807
  29 H :    0.180508
  30 H :    0.191826
  31 H :    0.115453
  32 H :    0.111940
  33 H :    0.110074
  34 H :    0.118354
  35 H :    0.110924
  36 H :    0.105871
  37 H :    0.100934
  38 H :    0.111498
  39 H :    0.115840
  40 H :    0.120821
Sum of atomic charges:   -0.0000000

LOEWDIN ATOMIC CHARGES
----------------------
   0 C :   -0.366767
   1 C :   -0.121762
   2 O :   -0.251320
   3 P :    0.574967
   4 S :   -0.309255
   5 O :   -0.234603
   6 C :   -0.113001
   7 C :   -0.364274
   8 S :    0.114379
   9 C :   -0.465923
  10 S :    0.078785
  11 P :    0.565289
  12 S :   -0.333848
  13 O :   -0.239354
  14 C :   -0.127424
  15 C :   -0.365206
  16 O :   -0.248163
  17 C :   -0.121869
  18 C :   -0.350448
  19 H :    0.130823
  20 H :    0.123438
  21 H :    0.120392
  22 H :    0.109194
  23 H :    0.118066
  24 H :    0.111339
  25 H :    0.118335
  26 H :    0.130241
  27 H :    0.125813
  28 H :    0.121855
  29 H :    0.134398
  30 H :    0.139661
  31 H :    0.111642
  32 H :    0.109837
  33 H :    0.129725
  34 H :    0.118901
  35 H :    0.123549
  36 H :    0.107731
  37 H :    0.109326
  38 H :    0.130625
  39 H :    0.126545
  40 H :    0.128363

  Mayer bond orders larger than 0.100000
B(  0-C ,  1-C ) :   1.1641 B(  0-C , 19-H ) :   0.9385 B(  0-C , 20-H ) :   0.9453
B(  0-C , 21-H ) :   0.9369 B(  1-C ,  2-O ) :   0.9169 B(  1-C , 22-H ) :   0.9155
B(  1-C , 23-H ) :   0.9339 B(  2-O ,  3-P ) :   1.0759 B(  3-P ,  4-S ) :   1.6158
B(  3-P ,  5-O ) :   1.1272 B(  3-P ,  8-S ) :   0.9517 B(  5-O ,  6-C ) :   0.8992
B(  6-C ,  7-C ) :   1.1621 B(  6-C , 24-H ) :   0.9193 B(  6-C , 25-H ) :   0.9320
B(  7-C , 26-H ) :   0.9395 B(  7-C , 27-H ) :   0.9462 B(  7-C , 28-H ) :   0.9373
B(  8-S ,  9-C ) :   1.0080 B(  9-C , 10-S ) :   0.9741 B(  9-C , 29-H ) :   0.9066
B(  9-C , 30-H ) :   0.9041 B( 10-S , 11-P ) :   0.9841 B( 10-S , 12-S ) :   0.1124
B( 11-P , 12-S ) :   1.6018 B( 11-P , 13-O ) :   1.1189 B( 11-P , 16-O ) :   1.1043
B( 13-O , 14-C ) :   0.8936 B( 14-C , 15-C ) :   1.1622 B( 14-C , 31-H ) :   0.9178
B( 14-C , 32-H ) :   0.9163 B( 15-C , 33-H ) :   0.9398 B( 15-C , 34-H ) :   0.9343
B( 15-C , 35-H ) :   0.9462 B( 16-O , 17-C ) :   0.9049 B( 17-C , 18-C ) :   1.1605
B( 17-C , 36-H ) :   0.9067 B( 17-C , 37-H ) :   0.9299 B( 18-C , 38-H ) :   0.9420
B( 18-C , 39-H ) :   0.9504 B( 18-C , 40-H ) :   0.9513

Dispersion correction           -0.067399414
FINAL SINGLE POINT ENERGY     -2929.519748660442

DIPOLE MOMENT
-------------

Method             : SCF
Type of density    : Electron Density
Multiplicity       :   1
Irrep              :   0
Energy             : -2929.6378414673813495 Eh
Relativity type    :
Basis              : AO
                                X                 Y                 Z
Electronic contribution:      1.898646109      -1.407605650     -10.157302712
Nuclear contribution   :     -1.483980223       0.450420366      10.847322263
                        -----------------------------------------
Total Dipole Moment    :      0.414665886      -0.957185285       0.690019551
                        -----------------------------------------
Magnitude (a.u.)       :      1.250711176
Magnitude (Debye)      :      3.179055166

Rotational constants in cm-1:             0.013223             0.005099             0.004944
Rotational constants in MHz :           396.419115           152.878970           148.225581

                             ****ORCA TERMINATED NORMALLY****
TOTAL RUN TIME: 0 days 0 hours 0 minutes 21 seconds 679 msec
