                         Program Version 6.0.0  -   RELEASE  -
|  1> ! r2scan-3c def2/J RI DEFGRID2 scfconv6 printgap
|  2> %output
|  3>     printlevel normal
|  4> end
|  5> * xyz 0 1
|  6> C 4.0753202479 0.1180512742 -2.7077644729
|  7> C 4.7646136672 -0.5100363226 -1.512536925
|  8> O 3.8454211554 -1.2399538556 -0.6821802267
|  9> P 2.7572836438 -0.5060096838 0.1987572627
| 10> S 3.3296114341 1.2245282035 0.9349947391
| 11> O 2.5445612723 -1.7102150597 1.2048021961
| 12> C 1.3861609667 -1.8818189341 2.0382938109
| 13> C 1.3060808563 -0.8470281954 3.1435635229
| 14> S 0.9883844747 -0.4621688827 -1.0062469926
| 15> C 0.3296415678 1.1484645816 -0.4917516713
| 16> S -0.9278969217 1.0213590416 0.7991544808
| 17> P -2.4904919544 0.2932928456 -0.463516546
| 18> S -2.4725700151 0.9302343518 -2.3109983073
| 19> O -3.8160075268 0.5905787251 0.3629438669
| 20> C -4.5310436123 1.8350538053 0.2553988643
| 21> C -3.7301527164 3.0110422555 0.7751777072
| 22> O -2.3767767844 -1.2788622575 -0.3853402692
| 23> C -2.4587823787 -2.0311805483 0.8501405366
| 24> C -3.8700723352 -2.5254193484 1.0939466305
| 25> H 4.8209487306 0.5472948307 -3.3692758459
| 26> H 3.5006664651 -0.6298714655 -3.2486400076
| 27> H 3.4017287742 0.9080775973 -2.3776653064
| 28> H 5.2539373787 0.2574218087 -0.9036334288
| 29> H 5.4946733364 -1.2606349317 -1.8181503089
| 30> H 0.4919892263 -1.847215911 1.4074480733
| 31> H 1.5088531445 -2.8878170045 2.4434800819
| 32> H 2.2377525755 -0.8247936462 3.7029686772
| 33> H 1.1259519423 0.1439346543 2.7291411025
| 34> H 0.4907112638 -1.0994847757 3.8137377848
| 35> H -0.1178515354 1.6065944717 -1.3739648869
| 36> H 1.1438310506 1.7561076448 -0.0895807989
| 37> H -4.7995572347 1.9870442979 -0.794403323
| 38> H -5.4314220333 1.6691154478 0.8486077726
| 39> H -4.3626083595 3.8928149303 0.7944137038
| 40> H -3.3627029005 2.8080343531 1.7780109592
| 41> H -2.8812334201 3.2035931958 0.1208765859
| 42> H -1.769799386 -2.8657366528 0.7037662691
| 43> H -2.1143097965 -1.3988178798 1.6737700159
| 44> H -3.8755377483 -3.1564075141 1.9772535714
| 45> H -4.5437014328 -1.6870576057 1.2471571314
| 46> H -4.2148567358 -3.1012204082 0.2394313595
| 47> *
| 48>
| 49>                          ****END OF INPUT****

CARTESIAN COORDINATES (ANGSTROEM)
---------------------------------
  C      4.075320    0.118051   -2.707764
  C      4.764614   -0.510036   -1.512537
  O      3.845421   -1.239954   -0.682180
  P      2.757284   -0.506010    0.198757
  S      3.329611    1.224528    0.934995
  O      2.544561   -1.710215    1.204802
  C      1.386161   -1.881819    2.038294
  C      1.306081   -0.847028    3.143564
  S      0.988384   -0.462169   -1.006247
  C      0.329642    1.148465   -0.491752
  S     -0.927897    1.021359    0.799154
  P     -2.490492    0.293293   -0.463517
  S     -2.472570    0.930234   -2.310998
  O     -3.816008    0.590579    0.362944
  C     -4.531044    1.835054    0.255399
  C     -3.730153    3.011042    0.775178
  O     -2.376777   -1.278862   -0.385340
  C     -2.458782   -2.031181    0.850141
  C     -3.870072   -2.525419    1.093947
  H      4.820949    0.547295   -3.369276
  H      3.500666   -0.629871   -3.248640
  H      3.401729    0.908078   -2.377665
  H      5.253937    0.257422   -0.903633
  H      5.494673   -1.260635   -1.818150
  H      0.491989   -1.847216    1.407448
  H      1.508853   -2.887817    2.443480
  H      2.237753   -0.824794    3.702969
  H      1.125952    0.143935    2.729141
  H      0.490711   -1.099485    3.813738
  H     -0.117852    1.606594   -1.373965
  H      1.143831    1.756108   -0.089581
  H     -4.799557    1.987044   -0.794403
  H     -5.431422    1.669115    0.848608
  H     -4.362608    3.892815    0.794414
  H     -3.362703    2.808034    1.778011
  H     -2.881233    3.203593    0.120877
  H     -1.769799   -2.865737    0.703766
  H     -2.114310   -1.398818    1.673770
  H     -3.875538   -3.156408    1.977254
  H     -4.543701   -1.687058    1.247157
  H     -4.214857   -3.101220    0.239431

 Total Charge           Charge          ....    0
 Multiplicity           Mult            ....    1
 Number of Electrons    NEL             ....  202
 Basis Dimension        Dim             ....  539

ORBITAL ENERGIES
----------------

  NO   OCC          E(Eh)            E(eV)
   0   2.0000     -88.577892     -2410.3270
   1   2.0000     -88.576320     -2410.2842
   2   2.0000     -88.525484     -2408.9009
   3   2.0000     -88.523802     -2408.8551
   4   2.0000     -76.918994     -2093.0722
   5   2.0000     -76.914796     -2092.9580
   6   2.0000     -19.000669      -517.0345
   7   2.0000     -18.995676      -516.8986
   8   2.0000     -18.991330      -516.7804
   9   2.0000     -18.991099      -516.7741
  10   2.0000     -10.108978      -275.0793
  11   2.0000     -10.105292      -274.9790
  12   2.0000     -10.101764      -274.8830
  13   2.0000     -10.101542      -274.8769
  14   2.0000     -10.096258      -274.7332
  15   2.0000     -10.036158      -273.0977
  16   2.0000     -10.032923      -273.0097
  17   2.0000     -10.027732      -272.8685
  18   2.0000     -10.026025      -272.8220
  19   2.0000      -7.872333      -214.2171
  20   2.0000      -7.870190      -214.1587
  21   2.0000      -7.820209      -212.7987
  22   2.0000      -7.818631      -212.7558
  23   2.0000      -6.597499      -179.5271
  24   2.0000      -6.593365      -179.4146
  25   2.0000      -5.819038      -158.3441
  26   2.0000      -5.817070      -158.2905
  27   2.0000      -5.816209      -158.2671
  28   2.0000      -5.814011      -158.2073
  29   2.0000      -5.809583      -158.0868
  30   2.0000      -5.807425      -158.0281
  31   2.0000      -5.767932      -156.9534
  32   2.0000      -5.766223      -156.9069
  33   2.0000      -5.760346      -156.7470
  34   2.0000      -5.760280      -156.7452
  35   2.0000      -5.758902      -156.7077
  36   2.0000      -5.758694      -156.7020
  37   2.0000      -4.743349      -129.0731
  38   2.0000      -4.742368      -129.0464
  39   2.0000      -4.740966      -129.0082
  40   2.0000      -4.738682      -128.9461
  41   2.0000      -4.738574      -128.9432
  42   2.0000      -4.736984      -128.8999
  43   2.0000      -1.057189       -28.7676
  44   2.0000      -1.053202       -28.6591
  45   2.0000      -1.016720       -27.6663
  46   2.0000      -1.010782       -27.5048
  47   2.0000      -0.800726       -21.7889
  48   2.0000      -0.761394       -20.7186
  49   2.0000      -0.753828       -20.5127
  50   2.0000      -0.740212       -20.1422
  51   2.0000      -0.727229       -19.7889
  52   2.0000      -0.715961       -19.4823
  53   2.0000      -0.689630       -18.7658
  54   2.0000      -0.672104       -18.2889
  55   2.0000      -0.633669       -17.2430
  56   2.0000      -0.628569       -17.1042
  57   2.0000      -0.614849       -16.7309
  58   2.0000      -0.604137       -16.4394
  59   2.0000      -0.592215       -16.1150
  60   2.0000      -0.531194       -14.4545
  61   2.0000      -0.521178       -14.1820
  62   2.0000      -0.500347       -13.6151
  63   2.0000      -0.489182       -13.3113
  64   2.0000      -0.477984       -13.0066
  65   2.0000      -0.472109       -12.8467
  66   2.0000      -0.459582       -12.5059
  67   2.0000      -0.452450       -12.3118
  68   2.0000      -0.447145       -12.1674
  69   2.0000      -0.440121       -11.9763
  70   2.0000      -0.429564       -11.6890
  71   2.0000      -0.428602       -11.6628
  72   2.0000      -0.416474       -11.3328
  73   2.0000      -0.402615       -10.9557
  74   2.0000      -0.395080       -10.7507
  75   2.0000      -0.389588       -10.6012
  76   2.0000      -0.387311       -10.5393
  77   2.0000      -0.380581       -10.3561
  78   2.0000      -0.372594       -10.1388
  79   2.0000      -0.369122       -10.0443
  80   2.0000      -0.364631        -9.9221
  81   2.0000      -0.363016        -9.8782
  82   2.0000      -0.357784        -9.7358
  83   2.0000      -0.354608        -9.6494
  84   2.0000      -0.350928        -9.5492
  85   2.0000      -0.335763        -9.1366
  86   2.0000      -0.324210        -8.8222
  87   2.0000      -0.318486        -8.6664
  88   2.0000      -0.314899        -8.5689
  89   2.0000      -0.312688        -8.5087
  90   2.0000      -0.305148        -8.3035
  91   2.0000      -0.291599        -7.9348
  92   2.0000      -0.286628        -7.7996
  93   2.0000      -0.282375        -7.6838
  94   2.0000      -0.272958        -7.4276
  95   2.0000      -0.249850        -6.7988
  96   2.0000      -0.232796        -6.3347
  97   2.0000      -0.229819        -6.2537
  98   2.0000      -0.221609        -6.0303
  99   2.0000      -0.220525        -6.0008
 100   2.0000      -0.215706        -5.8696
 101   0.0000      -0.048707        -1.3254
 102   0.0000      -0.033344        -0.9073
 103   0.0000      -0.010027        -0.2728
 104   0.0000      -0.005546        -0.1509
 105   0.0000       0.012696         0.3455

MULLIKEN ATOMIC CHARGES
-----------------------
   0 C :   -0.435398
   1 C :   -0.148306
   2 O :   -0.311695
   3 P :    0.679315
   4 S :   -0.468464
   5 O :   -0.274719
   6 C :   -0.164575
   7 C :   -0.409602
   8 S :   -0.121026
   9 C :   -0.264178
  10 S :   -0.157427
  11 P :    0.642521
  12 S :   -0.435701
  13 O :   -0.292287
  14 C :   -0.168264
  15 C :   -0.438875
  16 O :   -0.259303
  17 C :   -0.113351
  18 C :   -0.471104
  19 H :    0.147100
  20 H :    0.157148
  21 H :    0.167925
  22 H :    0.171798
  23 H :    0.149482
  24 H :    0.163776
  25 H :    0.152588
  26 H :    0.158200
  27 H :    0.164553
  28 H :    0.144027
  29 H :    0.219402
  30 H :    0.222148
  31 H :    0.175191
  32 H :    0.148215
  33 H :    0.149005
  34 H :    0.153643
  35 H :    0.178336
  36 H :    0.158456
  37 H :    0.158172
  38 H :    0.146146
  39 H :    0.166650
  40 H :    0.160478
Sum of atomic charges:    0.0000000

LOEWDIN ATOMIC CHARGES
----------------------
   0 C :   -0.404545
   1 C :    0.021574
   2 O :   -0.650082
   3 P :    0.392519
   4 S :   -0.132437
   5 O :   -0.646618
   6 C :    0.017693
   7 C :   -0.408988
   8 S :    0.153343
   9 C :   -0.432151
  10 S :    0.125295
  11 P :    0.381821
  12 S :   -0.096035
  13 O :   -0.674067
  14 C :    0.022763
  15 C :   -0.407766
  16 O :   -0.651867
  17 C :    0.013719
  18 C :   -0.392235
  19 H :    0.158882
  20 H :    0.161806
  21 H :    0.162930
  22 H :    0.179774
  23 H :    0.180278
  24 H :    0.176506
  25 H :    0.181143
  26 H :    0.163784
  27 H :    0.164402
  28 H :    0.157872
  29 H :    0.192485
  30 H :    0.196696
  31 H :    0.181102
  32 H :    0.179457
  33 H :    0.160069
  34 H :    0.160391
  35 H :    0.166324
  36 H :    0.180958
  37 H :    0.174118
  38 H :    0.158796
  39 H :    0.166998
  40 H :    0.163291

  Mayer bond orders larger than 0.100000
B(  0-C ,  1-C ) :   0.9230 B(  0-C , 19-H ) :   0.9609 B(  0-C , 20-H ) :   0.9671
B(  0-C , 21-H ) :   0.9647 B(  1-C ,  2-O ) :   0.8157 B(  1-C , 22-H ) :   0.9671
B(  1-C , 23-H ) :   0.9591 B(  2-O ,  3-P ) :   1.1331 B(  3-P ,  4-S ) :   1.7419
B(  3-P ,  5-O ) :   1.1351 B(  3-P ,  8-S ) :   1.0438 B(  5-O ,  6-C ) :   0.8065
B(  6-C ,  7-C ) :   0.9289 B(  6-C , 24-H ) :   0.9577 B(  6-C , 25-H ) :   0.9633
B(  7-C , 26-H ) :   0.9663 B(  7-C , 27-H ) :   0.9491 B(  7-C , 28-H ) :   0.9676
B(  8-S ,  9-C ) :   0.9075 B(  9-C , 10-S ) :   0.9155 B(  9-C , 29-H ) :   0.9088
B(  9-C , 30-H ) :   0.8871 B( 10-S , 11-P ) :   1.0076 B( 11-P , 12-S ) :   1.8433
B( 11-P , 13-O ) :   1.0362 B( 11-P , 16-O ) :   1.1388 B( 13-O , 14-C ) :   0.8187
B( 14-C , 15-C ) :   0.9174 B( 14-C , 31-H ) :   0.9677 B( 14-C , 32-H ) :   0.9611
B( 15-C , 33-H ) :   0.9559 B( 15-C , 34-H ) :   0.9668 B( 15-C , 35-H ) :   0.9634
B( 16-O , 17-C ) :   0.7397 B( 17-C , 18-C ) :   0.9456 B( 17-C , 36-H ) :   0.9578
B( 17-C , 37-H ) :   0.9663 B( 18-C , 38-H ) :   0.9644 B( 18-C , 39-H ) :   0.9680
B( 18-C , 40-H ) :   0.9717

Dispersion correction           -0.021357552
FINAL SINGLE POINT ENERGY     -2932.461082020867

DIPOLE MOMENT
-------------

Method             : SCF
Type of density    : Electron Density
Multiplicity       :   1
Irrep              :   0
Energy             : -2932.4865438232873203 Eh
Relativity type    :
Basis              : AO
                                X                 Y                 Z
Electronic contribution:      6.922624385       1.332122648      -8.270740858
Nuclear contribution   :     -7.769773450      -1.799049057       9.206886190
                        -----------------------------------------
Total Dipole Moment    :     -0.847149064      -0.466926409       0.936145332
                        -----------------------------------------
Magnitude (a.u.)       :      1.346124025
Magnitude (Debye)      :      3.421575355

Rotational constants in cm-1:             0.012641             0.004527             0.004209
Rotational constants in MHz :           378.979110           135.713758           126.195072

                             ****ORCA TERMINATED NORMALLY****
TOTAL RUN TIME: 0 days 0 hours 1 minutes 18 seconds 393 msec
