                         Program Version 6.0.0  -   RELEASE  -
|  1> ! r2scan-3c def2/J RI DEFGRID2 scfconv6 printgap
|  2> %output
|  3>     printlevel normal
|  4> end
|  5> %cpcm
|  6>     smd true
|  7>     smdsolvent "water"
|  8> end
|  9> * xyz 0 1
| 10> C 4.0753202479 0.1180512742 -2.7077644729
| 11> C 4.7646136672 -0.5100363226 -1.512536925
| 12> O 3.8454211554 -1.2399538556 -0.6821802267
| 13> P 2.7572836438 -0.5060096838 0.1987572627
| 14> S 3.3296114341 1.2245282035 0.9349947391
| 15> O 2.5445612723 -1.7102150597 1.2048021961
| 16> C 1.3861609667 -1.8818189341 2.0382938109
| 17> C 1.3060808563 -0.8470281954 3.1435635229
| 18> S 0.9883844747 -0.4621688827 -1.0062469926
| 19> C 0.3296415678 1.1484645816 -0.4917516713
| 20> S -0.9278969217 1.0213590416 0.7991544808
| 21> P -2.4904919544 0.2932928456 -0.463516546
| 22> S -2.4725700151 0.9302343518 -2.3109983073
| 23> O -3.8160075268 0.5905787251 0.3629438669
| 24> C -4.5310436123 1.8350538053 0.2553988643
| 25> C -3.7301527164 3.0110422555 0.7751777072
| 26> O -2.3767767844 -1.2788622575 -0.3853402692
| 27> C -2.4587823787 -2.0311805483 0.8501405366
| 28> C -3.8700723352 -2.5254193484 1.0939466305
| 29> H 4.8209487306 0.5472948307 -3.3692758459
| 30> H 3.5006664651 -0.6298714655 -3.2486400076
| 31> H 3.4017287742 0.9080775973 -2.3776653064
| 32> H 5.2539373787 0.2574218087 -0.9036334288
| 33> H 5.4946733364 -1.2606349317 -1.8181503089
| 34> H 0.4919892263 -1.847215911 1.4074480733
| 35> H 1.5088531445 -2.8878170045 2.4434800819
| 36> H 2.2377525755 -0.8247936462 3.7029686772
| 37> H 1.1259519423 0.1439346543 2.7291411025
| 38> H 0.4907112638 -1.0994847757 3.8137377848
| 39> H -0.1178515354 1.6065944717 -1.3739648869
| 40> H 1.1438310506 1.7561076448 -0.0895807989
| 41> H -4.7995572347 1.9870442979 -0.794403323
| 42> H -5.4314220333 1.6691154478 0.8486077726
| 43> H -4.3626083595 3.8928149303 0.7944137038
| 44> H -3.3627029005 2.8080343531 1.7780109592
| 45> H -2.8812334201 3.2035931958 0.1208765859
| 46> H -1.769799386 -2.8657366528 0.7037662691
| 47> H -2.1143097965 -1.3988178798 1.6737700159
| 48> H -3.8755377483 -3.1564075141 1.9772535714
| 49> H -4.5437014328 -1.6870576057 1.2471571314
| 50> H -4.2148567358 -3.1012204082 0.2394313595
| 51> *
| 52>
| 53>                          ****END OF INPUT****

CARTESIAN COORDINATES (ANGSTROEM)
---------------------------------
  C      4.075320    0.118051   -2.707764
  C      4.764614   -0.510036   -1.512537
  O      3.845421   -1.239954   -0.682180
  P      2.757284   -0.506010    0.198757
  S      3.329611    1.224528    0.934995
  O      2.544561   -1.710215    1.204802
  C      1.386161   -1.881819    2.038294
  C      1.306081   -0.847028    3.143564
  S      0.988384   -0.462169   -1.006247
  C      0.329642    1.148465   -0.491752
  S     -0.927897    1.021359    0.799154
  P     -2.490492    0.293293   -0.463517
  S     -2.472570    0.930234   -2.310998
  O     -3.816008    0.590579    0.362944
  C     -4.531044    1.835054    0.255399
  C     -3.730153    3.011042    0.775178
  O     -2.376777   -1.278862   -0.385340
  C     -2.458782   -2.031181    0.850141
  C     -3.870072   -2.525419    1.093947
  H      4.820949    0.547295   -3.369276
  H      3.500666   -0.629871   -3.248640
  H      3.401729    0.908078   -2.377665
  H      5.253937    0.257422   -0.903633
  H      5.494673   -1.260635   -1.818150
  H      0.491989   -1.847216    1.407448
  H      1.508853   -2.887817    2.443480
  H      2.237753   -0.824794    3.702969
  H      1.125952    0.143935    2.729141
  H      0.490711   -1.099485    3.813738
  H     -0.117852    1.606594   -1.373965
  H      1.143831    1.756108   -0.089581
  H     -4.799557    1.987044   -0.794403
  H     -5.431422    1.669115    0.848608
  H     -4.362608    3.892815    0.794414
  H     -3.362703    2.808034    1.778011
  H     -2.881233    3.203593    0.120877
  H     -1.769799   -2.865737    0.703766
  H     -2.114310   -1.398818    1.673770
  H     -3.875538   -3.156408    1.977254
  H     -4.543701   -1.687058    1.247157
  H     -4.214857   -3.101220    0.239431

 Total Charge           Charge          ....    0
 Multiplicity           Mult            ....    1
 Number of Electrons    NEL             ....  202
 Basis Dimension        Dim             ....  539

ORBITAL ENERGIES
----------------

  NO   OCC          E(Eh)            E(eV)
   0   2.0000     -88.580654     -2410.4021
   1   2.0000     -88.577997     -2410.3298
   2   2.0000     -88.532702     -2409.0973
   3   2.0000     -88.531896     -2409.0754
   4   2.0000     -76.921581     -2093.1426
   5   2.0000     -76.921104     -2093.1297
   6   2.0000     -18.997604      -516.9511
   7   2.0000     -18.996693      -516.9263
   8   2.0000     -18.995832      -516.9029
   9   2.0000     -18.995696      -516.8992
  10   2.0000     -10.102203      -274.8949
  11   2.0000     -10.092915      -274.6422
  12   2.0000     -10.091405      -274.6011
  13   2.0000     -10.091359      -274.5998
  14   2.0000     -10.089965      -274.5619
  15   2.0000     -10.018742      -272.6238
  16   2.0000     -10.018454      -272.6160
  17   2.0000     -10.018347      -272.6131
  18   2.0000     -10.018326      -272.6125
  19   2.0000      -7.874601      -214.2788
  20   2.0000      -7.872406      -214.2191
  21   2.0000      -7.827795      -213.0051
  22   2.0000      -7.826969      -212.9826
  23   2.0000      -6.600127      -179.5986
  24   2.0000      -6.599770      -179.5889
  25   2.0000      -5.821497      -158.4110
  26   2.0000      -5.819155      -158.3473
  27   2.0000      -5.818438      -158.3277
  28   2.0000      -5.816332      -158.2704
  29   2.0000      -5.811811      -158.1474
  30   2.0000      -5.809561      -158.0862
  31   2.0000      -5.775391      -157.1564
  32   2.0000      -5.774515      -157.1325
  33   2.0000      -5.767955      -156.9540
  34   2.0000      -5.767899      -156.9525
  35   2.0000      -5.767269      -156.9354
  36   2.0000      -5.767003      -156.9281
  37   2.0000      -4.745906      -129.1427
  38   2.0000      -4.745065      -129.1198
  39   2.0000      -4.744976      -129.1174
  40   2.0000      -4.744957      -129.1169
  41   2.0000      -4.743743      -129.0838
  42   2.0000      -4.743425      -129.0752
  43   2.0000      -1.058097       -28.7923
  44   2.0000      -1.055165       -28.7125
  45   2.0000      -1.014601       -27.6087
  46   2.0000      -1.014174       -27.5971
  47   2.0000      -0.802068       -21.8254
  48   2.0000      -0.756453       -20.5841
  49   2.0000      -0.747381       -20.3373
  50   2.0000      -0.726844       -19.7784
  51   2.0000      -0.720225       -19.5983
  52   2.0000      -0.714274       -19.4364
  53   2.0000      -0.691779       -18.8243
  54   2.0000      -0.676691       -18.4137
  55   2.0000      -0.632319       -17.2063
  56   2.0000      -0.623489       -16.9660
  57   2.0000      -0.604001       -16.4357
  58   2.0000      -0.598584       -16.2883
  59   2.0000      -0.590035       -16.0557
  60   2.0000      -0.524051       -14.2602
  61   2.0000      -0.517059       -14.0699
  62   2.0000      -0.492155       -13.3922
  63   2.0000      -0.488252       -13.2860
  64   2.0000      -0.476497       -12.9661
  65   2.0000      -0.465152       -12.6574
  66   2.0000      -0.457467       -12.4483
  67   2.0000      -0.446354       -12.1459
  68   2.0000      -0.437729       -11.9112
  69   2.0000      -0.435617       -11.8537
  70   2.0000      -0.427623       -11.6362
  71   2.0000      -0.425615       -11.5816
  72   2.0000      -0.407377       -11.0853
  73   2.0000      -0.398979       -10.8568
  74   2.0000      -0.392921       -10.6919
  75   2.0000      -0.388270       -10.5654
  76   2.0000      -0.382779       -10.4159
  77   2.0000      -0.374430       -10.1887
  78   2.0000      -0.363978        -9.9044
  79   2.0000      -0.360835        -9.8188
  80   2.0000      -0.355214        -9.6659
  81   2.0000      -0.352855        -9.6017
  82   2.0000      -0.352648        -9.5960
  83   2.0000      -0.347618        -9.4592
  84   2.0000      -0.345236        -9.3944
  85   2.0000      -0.330478        -8.9928
  86   2.0000      -0.323548        -8.8042
  87   2.0000      -0.310742        -8.4557
  88   2.0000      -0.308904        -8.4057
  89   2.0000      -0.303869        -8.2687
  90   2.0000      -0.303424        -8.2566
  91   2.0000      -0.288311        -7.8453
  92   2.0000      -0.286124        -7.7858
  93   2.0000      -0.280467        -7.6319
  94   2.0000      -0.275170        -7.4878
  95   2.0000      -0.251175        -6.8348
  96   2.0000      -0.238893        -6.5006
  97   2.0000      -0.238136        -6.4800
  98   2.0000      -0.229292        -6.2394
  99   2.0000      -0.229146        -6.2354
 100   2.0000      -0.220506        -6.0003
 101   0.0000      -0.053498        -1.4558
 102   0.0000      -0.038209        -1.0397
 103   0.0000      -0.011981        -0.3260
 104   0.0000      -0.009119        -0.2481
 105   0.0000       0.010668         0.2903

MULLIKEN ATOMIC CHARGES
-----------------------
   0 C :   -0.474773
   1 C :   -0.146867
   2 O :   -0.341806
   3 P :    0.707111
   4 S :   -0.504444
   5 O :   -0.310525
   6 C :   -0.158294
   7 C :   -0.453210
   8 S :   -0.139378
   9 C :   -0.263010
  10 S :   -0.146955
  11 P :    0.660232
  12 S :   -0.495954
  13 O :   -0.307729
  14 C :   -0.161826
  15 C :   -0.477836
  16 O :   -0.298205
  17 C :   -0.092729
  18 C :   -0.513329
  19 H :    0.172053
  20 H :    0.167433
  21 H :    0.169375
  22 H :    0.177021
  23 H :    0.175642
  24 H :    0.178330
  25 H :    0.179314
  26 H :    0.167383
  27 H :    0.157958
  28 H :    0.174777
  29 H :    0.233860
  30 H :    0.230854
  31 H :    0.179816
  32 H :    0.176583
  33 H :    0.172815
  34 H :    0.168190
  35 H :    0.173403
  36 H :    0.181163
  37 H :    0.173534
  38 H :    0.171407
  39 H :    0.170533
  40 H :    0.168081
Sum of atomic charges:    0.0000000

LOEWDIN ATOMIC CHARGES
----------------------
   0 C :   -0.408021
   1 C :    0.025975
   2 O :   -0.667508
   3 P :    0.395124
   4 S :   -0.156998
   5 O :   -0.665693
   6 C :    0.025087
   7 C :   -0.412186
   8 S :    0.143659
   9 C :   -0.426972
  10 S :    0.135917
  11 P :    0.385206
  12 S :   -0.140920
  13 O :   -0.675752
  14 C :    0.028624
  15 C :   -0.410928
  16 O :   -0.674289
  17 C :    0.023826
  18 C :   -0.395763
  19 H :    0.168051
  20 H :    0.163807
  21 H :    0.160886
  22 H :    0.181721
  23 H :    0.191200
  24 H :    0.182805
  25 H :    0.193062
  26 H :    0.164004
  27 H :    0.159489
  28 H :    0.169577
  29 H :    0.196538
  30 H :    0.199891
  31 H :    0.182019
  32 H :    0.191640
  33 H :    0.168588
  34 H :    0.163937
  35 H :    0.161706
  36 H :    0.190990
  37 H :    0.182284
  38 H :    0.169040
  39 H :    0.166252
  40 H :    0.164124

  Mayer bond orders larger than 0.100000
B(  0-C ,  1-C ) :   0.9129 B(  0-C , 19-H ) :   0.9551 B(  0-C , 20-H ) :   0.9657
B(  0-C , 21-H ) :   0.9645 B(  1-C ,  2-O ) :   0.8056 B(  1-C , 22-H ) :   0.9634
B(  1-C , 23-H ) :   0.9494 B(  2-O ,  3-P ) :   1.1337 B(  3-P ,  4-S ) :   1.7233
B(  3-P ,  5-O ) :   1.1412 B(  3-P ,  8-S ) :   1.0519 B(  5-O ,  6-C ) :   0.7956
B(  6-C ,  7-C ) :   0.9123 B(  6-C , 24-H ) :   0.9527 B(  6-C , 25-H ) :   0.9529
B(  7-C , 26-H ) :   0.9681 B(  7-C , 27-H ) :   0.9517 B(  7-C , 28-H ) :   0.9606
B(  8-S ,  9-C ) :   0.8955 B(  9-C , 10-S ) :   0.9120 B(  9-C , 29-H ) :   0.9047
B(  9-C , 30-H ) :   0.8870 B( 10-S , 11-P ) :   1.0175 B( 11-P , 12-S ) :   1.8130
B( 11-P , 13-O ) :   1.0500 B( 11-P , 16-O ) :   1.1471 B( 13-O , 14-C ) :   0.8070
B( 14-C , 15-C ) :   0.9051 B( 14-C , 31-H ) :   0.9670 B( 14-C , 32-H ) :   0.9503
B( 15-C , 33-H ) :   0.9509 B( 15-C , 34-H ) :   0.9642 B( 15-C , 35-H ) :   0.9652
B( 16-O , 17-C ) :   0.7330 B( 17-C , 18-C ) :   0.9322 B( 17-C , 36-H ) :   0.9481
B( 17-C , 37-H ) :   0.9566 B( 18-C , 38-H ) :   0.9582 B( 18-C , 39-H ) :   0.9676
B( 18-C , 40-H ) :   0.9703

Dispersion correction           -0.021357552
FINAL SINGLE POINT ENERGY     -2932.469947978507

DIPOLE MOMENT
-------------

Method             : SCF
Type of density    : Electron Density
Multiplicity       :   1
Irrep              :   0
Energy             : -2932.4954097809272753 Eh
Relativity type    :
Basis              : AO
                                X                 Y                 Z
Electronic contribution:      6.649776060       1.242553479      -7.739424711
Nuclear contribution   :     -7.769773450      -1.799049057       9.206886190
                        -----------------------------------------
Total Dipole Moment    :     -1.119997389      -0.556495578       1.467461479
                        -----------------------------------------
Magnitude (a.u.)       :      1.928088347
Magnitude (Debye)      :      4.900811103

Rotational constants in cm-1:             0.012641             0.004527             0.004209
Rotational constants in MHz :           378.979110           135.713758           126.195072

                             ****ORCA TERMINATED NORMALLY****
TOTAL RUN TIME: 0 days 0 hours 1 minutes 47 seconds 878 msec
