                         Program Version 6.0.0  -   RELEASE  -
|  1> ! pbe def2-sv(p) def2/J RI DEFGRID1 loosescf d4 GCP(DFT/SV(P)) printgap
|  2> %output
|  3>     printlevel normal
|  4> end
|  5> * xyz 0 1
|  6> C 3.5251846349 1.5855205389 -2.0830709184
|  7> C 2.2736955694 0.7514805972 -1.9125231022
|  8> O 1.6206948404 1.0637402369 -0.6553072124
|  9> P 1.816404748 0.2220288556 0.6569466032
| 10> S 1.2139114653 1.1433282617 2.270192417
| 11> O 3.3775115133 -0.0793931374 0.620840677
| 12> C 4.020440354 -0.7933875459 1.6963990742
| 13> C 5.518235787 -0.6648709649 1.508270525
| 14> S 1.0185842489 -1.7444694126 0.3798832015
| 15> C -0.3734866981 -1.6964866249 1.5372148824
| 16> S -2.0166565001 -1.7162435496 0.7593701785
| 17> P -1.7933700935 -0.1541812985 -0.6798832972
| 18> S -0.8198878693 -0.5722172992 -2.3227776079
| 19> O -1.217832965 1.0834240497 0.1081887545
| 20> C -2.0027792593 1.7993309536 1.1027045826
| 21> C -2.6245960295 3.0348676487 0.4895730452
| 22> O -3.3082467433 0.2453551126 -0.9303052265
| 23> C -4.1870157968 -0.6160972664 -1.6838603002
| 24> C -5.420088303 0.1840626477 -2.0499198863
| 25> H 3.9467762377 1.3877714343 -3.0635632645
| 26> H 3.2803440872 2.6410972694 -2.0027614059
| 27> H 4.2550557898 1.3330020541 -1.3185644656
| 28> H 2.4926410062 -0.318617844 -1.9449624318
| 29> H 1.5259774733 0.9838417777 -2.6733271958
| 30> H 3.6950587194 -0.356087123 2.6459491007
| 31> H 3.6998109467 -1.8380527798 1.6544387444
| 32> H 5.8097270023 -1.0806984736 0.5480932146
| 33> H 5.8117844595 0.3804820235 1.5452378635
| 34> H 6.0225785362 -1.2060226613 2.3018750194
| 35> H -0.269146823 -0.8051284882 2.1634815336
| 36> H -0.3329688555 -2.6025337608 2.1371403387
| 37> H -2.7635476523 1.1262284261 1.5050873454
| 38> H -1.2847463515 2.058527083 1.8838955033
| 39> H -1.8498552628 3.6630332814 0.0580113505
| 40> H -3.32851403 2.7562374699 -0.2902849008
| 41> H -3.1444448976 3.5883728365 1.2652358863
| 42> H -3.6526387997 -0.9647376603 -2.5736959015
| 43> H -4.4376386799 -1.4764997178 -1.0574208906
| 44> H -5.912731529 0.5413340348 -1.1503409329
| 45> H -5.1442153124 1.0357869544 -2.6653468198
| 46> H -6.1021333527 -0.4514184727 -2.6048874971
| 47> *
| 48>
| 49>                          ****END OF INPUT****

CARTESIAN COORDINATES (ANGSTROEM)
---------------------------------
  C      3.525185    1.585521   -2.083071
  C      2.273696    0.751481   -1.912523
  O      1.620695    1.063740   -0.655307
  P      1.816405    0.222029    0.656947
  S      1.213911    1.143328    2.270192
  O      3.377512   -0.079393    0.620841
  C      4.020440   -0.793388    1.696399
  C      5.518236   -0.664871    1.508271
  S      1.018584   -1.744469    0.379883
  C     -0.373487   -1.696487    1.537215
  S     -2.016657   -1.716244    0.759370
  P     -1.793370   -0.154181   -0.679883
  S     -0.819888   -0.572217   -2.322778
  O     -1.217833    1.083424    0.108189
  C     -2.002779    1.799331    1.102705
  C     -2.624596    3.034868    0.489573
  O     -3.308247    0.245355   -0.930305
  C     -4.187016   -0.616097   -1.683860
  C     -5.420088    0.184063   -2.049920
  H      3.946776    1.387771   -3.063563
  H      3.280344    2.641097   -2.002761
  H      4.255056    1.333002   -1.318564
  H      2.492641   -0.318618   -1.944962
  H      1.525977    0.983842   -2.673327
  H      3.695059   -0.356087    2.645949
  H      3.699811   -1.838053    1.654439
  H      5.809727   -1.080698    0.548093
  H      5.811784    0.380482    1.545238
  H      6.022579   -1.206023    2.301875
  H     -0.269147   -0.805128    2.163482
  H     -0.332969   -2.602534    2.137140
  H     -2.763548    1.126228    1.505087
  H     -1.284746    2.058527    1.883896
  H     -1.849855    3.663033    0.058011
  H     -3.328514    2.756237   -0.290285
  H     -3.144445    3.588373    1.265236
  H     -3.652639   -0.964738   -2.573696
  H     -4.437639   -1.476500   -1.057421
  H     -5.912732    0.541334   -1.150341
  H     -5.144215    1.035787   -2.665347
  H     -6.102133   -0.451418   -2.604887

 Total Charge           Charge          ....    0
 Multiplicity           Mult            ....    1
 Number of Electrons    NEL             ....  202
 Basis Dimension        Dim             ....  334

ORBITAL ENERGIES
----------------

  NO   OCC          E(Eh)            E(eV)
   0   2.0000     -88.039979     -2395.6896
   1   2.0000     -88.035357     -2395.5638
   2   2.0000     -87.986263     -2394.2279
   3   2.0000     -87.977941     -2394.0015
   4   2.0000     -76.424238     -2079.6092
   5   2.0000     -76.422172     -2079.5530
   6   2.0000     -18.793528      -511.3979
   7   2.0000     -18.792230      -511.3626
   8   2.0000     -18.788648      -511.2651
   9   2.0000     -18.785717      -511.1854
  10   2.0000      -9.954202      -270.8676
  11   2.0000      -9.952885      -270.8318
  12   2.0000      -9.952336      -270.8168
  13   2.0000      -9.945860      -270.6406
  14   2.0000      -9.944128      -270.5935
  15   2.0000      -9.889759      -269.1140
  16   2.0000      -9.889532      -269.1078
  17   2.0000      -9.879387      -268.8318
  18   2.0000      -9.878761      -268.8147
  19   2.0000      -7.684525      -209.1065
  20   2.0000      -7.680765      -209.0042
  21   2.0000      -7.631414      -207.6613
  22   2.0000      -7.623156      -207.4366
  23   2.0000      -6.421772      -174.7453
  24   2.0000      -6.419707      -174.6891
  25   2.0000      -5.712324      -155.4402
  26   2.0000      -5.709076      -155.3518
  27   2.0000      -5.708576      -155.3382
  28   2.0000      -5.705276      -155.2484
  29   2.0000      -5.701599      -155.1484
  30   2.0000      -5.697798      -155.0450
  31   2.0000      -5.660233      -154.0228
  32   2.0000      -5.652203      -153.8043
  33   2.0000      -5.652026      -153.7994
  34   2.0000      -5.651555      -153.7866
  35   2.0000      -5.643734      -153.5738
  36   2.0000      -5.643157      -153.5581
  37   2.0000      -4.644595      -126.3858
  38   2.0000      -4.643368      -126.3525
  39   2.0000      -4.642897      -126.3396
  40   2.0000      -4.642163      -126.3197
  41   2.0000      -4.641553      -126.3031
  42   2.0000      -4.639517      -126.2477
  43   2.0000      -0.987688       -26.8764
  44   2.0000      -0.986272       -26.8378
  45   2.0000      -0.943392       -25.6710
  46   2.0000      -0.941023       -25.6065
  47   2.0000      -0.757139       -20.6028
  48   2.0000      -0.718659       -19.5557
  49   2.0000      -0.708825       -19.2881
  50   2.0000      -0.689525       -18.7629
  51   2.0000      -0.689498       -18.7622
  52   2.0000      -0.669183       -18.2094
  53   2.0000      -0.644893       -17.5484
  54   2.0000      -0.636457       -17.3189
  55   2.0000      -0.588948       -16.0261
  56   2.0000      -0.582957       -15.8631
  57   2.0000      -0.567420       -15.4403
  58   2.0000      -0.565582       -15.3903
  59   2.0000      -0.564287       -15.3550
  60   2.0000      -0.511440       -13.9170
  61   2.0000      -0.503286       -13.6951
  62   2.0000      -0.477938       -13.0054
  63   2.0000      -0.476565       -12.9680
  64   2.0000      -0.446342       -12.1456
  65   2.0000      -0.442561       -12.0427
  66   2.0000      -0.439404       -11.9568
  67   2.0000      -0.438667       -11.9367
  68   2.0000      -0.428250       -11.6533
  69   2.0000      -0.417399       -11.3580
  70   2.0000      -0.402421       -10.9504
  71   2.0000      -0.389636       -10.6025
  72   2.0000      -0.385485       -10.4896
  73   2.0000      -0.383766       -10.4428
  74   2.0000      -0.378256       -10.2929
  75   2.0000      -0.364399        -9.9158
  76   2.0000      -0.362123        -9.8539
  77   2.0000      -0.355980        -9.6867
  78   2.0000      -0.355601        -9.6764
  79   2.0000      -0.351609        -9.5678
  80   2.0000      -0.347391        -9.4530
  81   2.0000      -0.342368        -9.3163
  82   2.0000      -0.340152        -9.2560
  83   2.0000      -0.337664        -9.1883
  84   2.0000      -0.330778        -9.0009
  85   2.0000      -0.317229        -8.6322
  86   2.0000      -0.312708        -8.5092
  87   2.0000      -0.300976        -8.1900
  88   2.0000      -0.300101        -8.1662
  89   2.0000      -0.293908        -7.9976
  90   2.0000      -0.285465        -7.7679
  91   2.0000      -0.268385        -7.3031
  92   2.0000      -0.266648        -7.2559
  93   2.0000      -0.257940        -7.0189
  94   2.0000      -0.254323        -6.9205
  95   2.0000      -0.238040        -6.4774
  96   2.0000      -0.222805        -6.0628
  97   2.0000      -0.206439        -5.6175
  98   2.0000      -0.203859        -5.5473
  99   2.0000      -0.191097        -5.2000
 100   2.0000      -0.184347        -5.0163
 101   0.0000      -0.044621        -1.2142
 102   0.0000      -0.030206        -0.8219
 103   0.0000      -0.009359        -0.2547
 104   0.0000       0.004248         0.1156
 105   0.0000       0.019512         0.5309

MULLIKEN ATOMIC CHARGES
-----------------------
   0 C :   -0.283916
   1 C :   -0.015815
   2 O :   -0.345400
   3 P :    0.625986
   4 S :   -0.319516
   5 O :   -0.386164
   6 C :   -0.009363
   7 C :   -0.283060
   8 S :   -0.101432
   9 C :   -0.339842
  10 S :   -0.123691
  11 P :    0.599098
  12 S :   -0.306746
  13 O :   -0.350690
  14 C :   -0.018832
  15 C :   -0.289570
  16 O :   -0.383308
  17 C :   -0.015479
  18 C :   -0.282896
  19 H :    0.107756
  20 H :    0.117630
  21 H :    0.119094
  22 H :    0.101095
  23 H :    0.121759
  24 H :    0.104295
  25 H :    0.101130
  26 H :    0.116406
  27 H :    0.122422
  28 H :    0.112844
  29 H :    0.194202
  30 H :    0.178778
  31 H :    0.096743
  32 H :    0.122671
  33 H :    0.122001
  34 H :    0.117394
  35 H :    0.107166
  36 H :    0.107836
  37 H :    0.105942
  38 H :    0.116610
  39 H :    0.123415
  40 H :    0.113444
Sum of atomic charges:   -0.0000000

LOEWDIN ATOMIC CHARGES
----------------------
   0 C :   -0.359854
   1 C :   -0.116226
   2 O :   -0.221236
   3 P :    0.576035
   4 S :   -0.292166
   5 O :   -0.248842
   6 C :   -0.123156
   7 C :   -0.350838
   8 S :    0.076915
   9 C :   -0.482490
  10 S :    0.042574
  11 P :    0.563202
  12 S :   -0.303132
  13 O :   -0.228587
  14 C :   -0.121815
  15 C :   -0.357628
  16 O :   -0.248667
  17 C :   -0.120931
  18 C :   -0.350712
  19 H :    0.129059
  20 H :    0.128150
  21 H :    0.123546
  22 H :    0.107176
  23 H :    0.117774
  24 H :    0.108728
  25 H :    0.105633
  26 H :    0.126173
  27 H :    0.128690
  28 H :    0.131302
  29 H :    0.118817
  30 H :    0.137341
  31 H :    0.104495
  32 H :    0.111899
  33 H :    0.129987
  34 H :    0.122822
  35 H :    0.128977
  36 H :    0.109916
  37 H :    0.109425
  38 H :    0.126314
  39 H :    0.129623
  40 H :    0.131708

  Mayer bond orders larger than 0.100000
B(  0-C ,  1-C ) :   1.1592 B(  0-C , 19-H ) :   0.9401 B(  0-C , 20-H ) :   0.9466
B(  0-C , 21-H ) :   0.9414 B(  1-C ,  2-O ) :   0.8821 B(  1-C , 22-H ) :   0.9234
B(  1-C , 23-H ) :   0.9199 B(  2-O ,  3-P ) :   1.1656 B(  3-P ,  4-S ) :   1.6078
B(  3-P ,  5-O ) :   1.0663 B(  3-P ,  8-S ) :   0.9493 B(  4-S ,  8-S ) :   0.1182
B(  4-S , 29-H ) :   0.1235 B(  5-O ,  6-C ) :   0.9081 B(  6-C ,  7-C ) :   1.1590
B(  6-C , 24-H ) :   0.9122 B(  6-C , 25-H ) :   0.9219 B(  7-C , 26-H ) :   0.9507
B(  7-C , 27-H ) :   0.9505 B(  7-C , 28-H ) :   0.9420 B(  8-S ,  9-C ) :   1.0200
B(  9-C , 10-S ) :   0.9820 B(  9-C , 29-H ) :   0.8492 B(  9-C , 30-H ) :   0.9125
B( 10-S , 11-P ) :   0.9578 B( 10-S , 12-S ) :   0.1105 B( 11-P , 12-S ) :   1.6660
B( 11-P , 13-O ) :   1.1357 B( 11-P , 16-O ) :   1.0645 B( 13-O , 14-C ) :   0.8835
B( 14-C , 15-C ) :   1.1690 B( 14-C , 31-H ) :   0.9139 B( 14-C , 32-H ) :   0.9072
B( 15-C , 33-H ) :   0.9465 B( 15-C , 34-H ) :   0.9436 B( 15-C , 35-H ) :   0.9401
B( 16-O , 17-C ) :   0.9085 B( 17-C , 18-C ) :   1.1607 B( 17-C , 36-H ) :   0.9077
B( 17-C , 37-H ) :   0.9278 B( 18-C , 38-H ) :   0.9509 B( 18-C , 39-H ) :   0.9506
B( 18-C , 40-H ) :   0.9415

Dispersion correction           -0.066178579
FINAL SINGLE POINT ENERGY     -2929.514536458375

DIPOLE MOMENT
-------------

Method             : SCF
Type of density    : Electron Density
Multiplicity       :   1
Irrep              :   0
Energy             : -2929.6348176264591530 Eh
Relativity type    :
Basis              : AO
                                X                 Y                 Z
Electronic contribution:     -2.244751861     -10.039242816       3.619400989
Nuclear contribution   :      2.177802288       9.810438381      -3.435506785
                        -----------------------------------------
Total Dipole Moment    :     -0.066949572      -0.228804435       0.183894203
                        -----------------------------------------
Magnitude (a.u.)       :      0.301082701
Magnitude (Debye)      :      0.765291407

Rotational constants in cm-1:             0.013455             0.004969             0.004854
Rotational constants in MHz :           403.369613           148.951949           145.508096

                             ****ORCA TERMINATED NORMALLY****
TOTAL RUN TIME: 0 days 0 hours 0 minutes 21 seconds 675 msec
