                         Program Version 6.0.0  -   RELEASE  -
|  1> ! r2scan-3c def2/J RI DEFGRID2 scfconv6 printgap
|  2> %output
|  3>     printlevel normal
|  4> end
|  5> * xyz 0 1
|  6> C 0.5139401473 -2.2801748318 1.9180731726
|  7> C 1.8263628484 -1.630213766 2.3074710634
|  8> O 2.1306489152 -0.4880522726 1.4870483966
|  9> P 2.5353034994 -0.6410684368 -0.0350063594
| 10> S 3.3097479556 -2.3561805986 -0.5727311376
| 11> O 3.4672854705 0.6464960097 -0.0934875144
| 12> C 4.1161596383 1.0403642255 -1.319242049
| 13> C 5.5127831458 0.4562122595 -1.4055667497
| 14> S 0.8299897758 -0.0446575281 -1.1664511438
| 15> C 0.4396085992 1.4757154233 -0.2459474611
| 16> S -0.6693297216 1.2114878008 1.1631759072
| 17> P -2.3271604009 0.555840541 0.0361749428
| 18> S -2.6270213586 1.4163169896 -1.7048750161
| 19> O -3.5501611156 0.6296182257 1.0481168821
| 20> C -4.3810490984 1.7966655108 1.1727303931
| 21> C -3.633271407 2.9682377277 1.7759594034
| 22> O -2.0280221758 -1.0004414246 0.0136395835
| 23> C -2.5826139033 -1.8780111046 -0.9843164788
| 24> C -4.0808756852 -2.0299926802 -0.8271181084
| 25> H 0.5768130544 -2.6490732804 0.8938632791
| 26> H 0.3158295649 -3.1161919402 2.5810835633
| 27> H -0.3051533749 -1.5682328055 1.9845772325
| 28> H 2.6464565051 -2.3497979004 2.2196892533
| 29> H 1.7908121094 -1.2234098018 3.3187162407
| 30> H 3.5057046726 0.723440869 -2.172042779
| 31> H 4.1475896753 2.1312500601 -1.2794371871
| 32> H 6.0930501638 0.7501494045 -0.5355411929
| 33> H 5.4659824254 -0.6298824925 -1.4438970505
| 34> H 5.9988545385 0.8219905041 -2.3042735722
| 35> H -0.0435643004 2.1427742102 -0.959125037
| 36> H 1.3540382945 1.9075378204 0.1533823507
| 37> H -4.763723765 2.0560676039 0.1803623785
| 38> H -5.2003971603 1.4676606699 1.8132004477
| 39> H -3.1625300943 2.675538971 2.711108184
| 40> H -2.8622292133 3.3117493453 1.0874960659
| 41> H -4.3279416626 3.7815731229 1.9597998748
| 42> H -2.3310510542 -1.4804825783 -1.9731432863
| 43> H -2.0590571123 -2.8217967752 -0.8254201779
| 44> H -4.4437351656 -2.7725683104 -1.5307435106
| 45> H -4.321712282 -2.3405400843 0.1861527068
| 46> H -4.5722290768 -1.0792100146 -1.0311546671
| 47> *
| 48>
| 49>                          ****END OF INPUT****

CARTESIAN COORDINATES (ANGSTROEM)
---------------------------------
  C      0.513940   -2.280175    1.918073
  C      1.826363   -1.630214    2.307471
  O      2.130649   -0.488052    1.487048
  P      2.535303   -0.641068   -0.035006
  S      3.309748   -2.356181   -0.572731
  O      3.467285    0.646496   -0.093488
  C      4.116160    1.040364   -1.319242
  C      5.512783    0.456212   -1.405567
  S      0.829990   -0.044658   -1.166451
  C      0.439609    1.475715   -0.245947
  S     -0.669330    1.211488    1.163176
  P     -2.327160    0.555841    0.036175
  S     -2.627021    1.416317   -1.704875
  O     -3.550161    0.629618    1.048117
  C     -4.381049    1.796666    1.172730
  C     -3.633271    2.968238    1.775959
  O     -2.028022   -1.000441    0.013640
  C     -2.582614   -1.878011   -0.984316
  C     -4.080876   -2.029993   -0.827118
  H      0.576813   -2.649073    0.893863
  H      0.315830   -3.116192    2.581084
  H     -0.305153   -1.568233    1.984577
  H      2.646457   -2.349798    2.219689
  H      1.790812   -1.223410    3.318716
  H      3.505705    0.723441   -2.172043
  H      4.147590    2.131250   -1.279437
  H      6.093050    0.750149   -0.535541
  H      5.465982   -0.629882   -1.443897
  H      5.998855    0.821991   -2.304274
  H     -0.043564    2.142774   -0.959125
  H      1.354038    1.907538    0.153382
  H     -4.763724    2.056068    0.180362
  H     -5.200397    1.467661    1.813200
  H     -3.162530    2.675539    2.711108
  H     -2.862229    3.311749    1.087496
  H     -4.327942    3.781573    1.959800
  H     -2.331051   -1.480483   -1.973143
  H     -2.059057   -2.821797   -0.825420
  H     -4.443735   -2.772568   -1.530744
  H     -4.321712   -2.340540    0.186153
  H     -4.572229   -1.079210   -1.031155

 Total Charge           Charge          ....    0
 Multiplicity           Mult            ....    1
 Number of Electrons    NEL             ....  202
 Basis Dimension        Dim             ....  539

ORBITAL ENERGIES
----------------

  NO   OCC          E(Eh)            E(eV)
   0   2.0000     -88.578170     -2410.3345
   1   2.0000     -88.574251     -2410.2279
   2   2.0000     -88.527076     -2408.9442
   3   2.0000     -88.521327     -2408.7878
   4   2.0000     -76.917990     -2093.0449
   5   2.0000     -76.913717     -2092.9286
   6   2.0000     -18.997731      -516.9545
   7   2.0000     -18.990915      -516.7691
   8   2.0000     -18.990724      -516.7639
   9   2.0000     -18.990633      -516.7614
  10   2.0000     -10.109154      -275.0841
  11   2.0000     -10.103065      -274.9184
  12   2.0000     -10.100124      -274.8384
  13   2.0000     -10.097266      -274.7606
  14   2.0000     -10.094866      -274.6953
  15   2.0000     -10.032623      -273.0015
  16   2.0000     -10.029460      -272.9155
  17   2.0000     -10.024203      -272.7724
  18   2.0000     -10.019111      -272.6339
  19   2.0000      -7.872716      -214.2275
  20   2.0000      -7.868015      -214.0996
  21   2.0000      -7.821715      -212.8397
  22   2.0000      -7.816014      -212.6846
  23   2.0000      -6.596591      -179.5024
  24   2.0000      -6.592074      -179.3795
  25   2.0000      -5.819543      -158.3578
  26   2.0000      -5.816647      -158.2790
  27   2.0000      -5.815247      -158.2409
  28   2.0000      -5.811570      -158.1409
  29   2.0000      -5.809761      -158.0916
  30   2.0000      -5.805180      -157.9670
  31   2.0000      -5.769292      -156.9904
  32   2.0000      -5.763667      -156.8374
  33   2.0000      -5.762014      -156.7924
  34   2.0000      -5.761799      -156.7865
  35   2.0000      -5.756341      -156.6380
  36   2.0000      -5.755988      -156.6284
  37   2.0000      -4.741940      -129.0348
  38   2.0000      -4.741456      -129.0216
  39   2.0000      -4.740515      -128.9960
  40   2.0000      -4.737404      -128.9113
  41   2.0000      -4.737371      -128.9104
  42   2.0000      -4.735634      -128.8631
  43   2.0000      -1.053570       -28.6691
  44   2.0000      -1.051948       -28.6250
  45   2.0000      -1.014541       -27.6071
  46   2.0000      -1.010355       -27.4932
  47   2.0000      -0.802489       -21.8368
  48   2.0000      -0.758661       -20.6442
  49   2.0000      -0.748973       -20.3806
  50   2.0000      -0.733710       -19.9653
  51   2.0000      -0.724244       -19.7077
  52   2.0000      -0.713153       -19.4059
  53   2.0000      -0.692027       -18.8310
  54   2.0000      -0.671517       -18.2729
  55   2.0000      -0.635455       -17.2916
  56   2.0000      -0.624916       -17.0048
  57   2.0000      -0.608180       -16.5494
  58   2.0000      -0.600583       -16.3427
  59   2.0000      -0.591703       -16.1011
  60   2.0000      -0.526337       -14.3224
  61   2.0000      -0.520425       -14.1615
  62   2.0000      -0.495802       -13.4915
  63   2.0000      -0.488814       -13.3013
  64   2.0000      -0.477233       -12.9862
  65   2.0000      -0.462998       -12.5988
  66   2.0000      -0.461733       -12.5644
  67   2.0000      -0.457348       -12.4451
  68   2.0000      -0.439692       -11.9646
  69   2.0000      -0.437254       -11.8983
  70   2.0000      -0.426343       -11.6014
  71   2.0000      -0.414955       -11.2915
  72   2.0000      -0.412825       -11.2335
  73   2.0000      -0.408032       -11.1031
  74   2.0000      -0.406303       -11.0561
  75   2.0000      -0.389678       -10.6037
  76   2.0000      -0.379083       -10.3154
  77   2.0000      -0.375703       -10.2234
  78   2.0000      -0.371490       -10.1088
  79   2.0000      -0.366280        -9.9670
  80   2.0000      -0.363008        -9.8779
  81   2.0000      -0.359582        -9.7847
  82   2.0000      -0.356500        -9.7009
  83   2.0000      -0.347585        -9.4583
  84   2.0000      -0.343837        -9.3563
  85   2.0000      -0.336013        -9.1434
  86   2.0000      -0.328227        -8.9315
  87   2.0000      -0.314355        -8.5540
  88   2.0000      -0.312473        -8.5028
  89   2.0000      -0.303604        -8.2615
  90   2.0000      -0.300887        -8.1875
  91   2.0000      -0.292191        -7.9509
  92   2.0000      -0.285554        -7.7703
  93   2.0000      -0.282299        -7.6817
  94   2.0000      -0.271458        -7.3867
  95   2.0000      -0.245053        -6.6682
  96   2.0000      -0.233891        -6.3645
  97   2.0000      -0.227127        -6.1804
  98   2.0000      -0.222334        -6.0500
  99   2.0000      -0.218605        -5.9485
 100   2.0000      -0.215099        -5.8531
 101   0.0000      -0.045536        -1.2391
 102   0.0000      -0.025133        -0.6839
 103   0.0000      -0.012120        -0.3298
 104   0.0000       0.003216         0.0875
 105   0.0000       0.008019         0.2182

MULLIKEN ATOMIC CHARGES
-----------------------
   0 C :   -0.455116
   1 C :   -0.140633
   2 O :   -0.290131
   3 P :    0.693781
   4 S :   -0.450898
   5 O :   -0.327713
   6 C :   -0.129250
   7 C :   -0.445468
   8 S :   -0.148589
   9 C :   -0.235211
  10 S :   -0.101484
  11 P :    0.664860
  12 S :   -0.475831
  13 O :   -0.301893
  14 C :   -0.149086
  15 C :   -0.453068
  16 O :   -0.270364
  17 C :   -0.151377
  18 C :   -0.442165
  19 H :    0.170459
  20 H :    0.143884
  21 H :    0.176181
  22 H :    0.166742
  23 H :    0.148283
  24 H :    0.159041
  25 H :    0.146923
  26 H :    0.151700
  27 H :    0.179409
  28 H :    0.144174
  29 H :    0.218174
  30 H :    0.201554
  31 H :    0.171555
  32 H :    0.149610
  33 H :    0.156082
  34 H :    0.176525
  35 H :    0.149040
  36 H :    0.173688
  37 H :    0.155900
  38 H :    0.148335
  39 H :    0.156584
  40 H :    0.165792
Sum of atomic charges:   -0.0000000

LOEWDIN ATOMIC CHARGES
----------------------
   0 C :   -0.408355
   1 C :    0.021289
   2 O :   -0.659492
   3 P :    0.370699
   4 S :   -0.109440
   5 O :   -0.675869
   6 C :    0.020503
   7 C :   -0.399731
   8 S :    0.163918
   9 C :   -0.413119
  10 S :    0.174376
  11 P :    0.374872
  12 S :   -0.127102
  13 O :   -0.660095
  14 C :    0.020418
  15 C :   -0.406524
  16 O :   -0.680469
  17 C :    0.020333
  18 C :   -0.398866
  19 H :    0.166526
  20 H :    0.157566
  21 H :    0.169205
  22 H :    0.179713
  23 H :    0.180587
  24 H :    0.177178
  25 H :    0.176887
  26 H :    0.158988
  27 H :    0.169216
  28 H :    0.157735
  29 H :    0.191432
  30 H :    0.193862
  31 H :    0.179497
  32 H :    0.180161
  33 H :    0.160502
  34 H :    0.165326
  35 H :    0.159807
  36 H :    0.181330
  37 H :    0.182275
  38 H :    0.159972
  39 H :    0.160941
  40 H :    0.163947

  Mayer bond orders larger than 0.100000
B(  0-C ,  1-C ) :   0.9293 B(  0-C , 19-H ) :   0.9600 B(  0-C , 20-H ) :   0.9621
B(  0-C , 21-H ) :   0.9589 B(  1-C ,  2-O ) :   0.7946 B(  1-C , 22-H ) :   0.9624
B(  1-C , 23-H ) :   0.9605 B(  2-O ,  3-P ) :   1.1131 B(  3-P ,  4-S ) :   1.8200
B(  3-P ,  5-O ) :   1.0720 B(  3-P ,  8-S ) :   1.0543 B(  5-O ,  6-C ) :   0.7838
B(  6-C ,  7-C ) :   0.9584 B(  6-C , 24-H ) :   0.9607 B(  6-C , 25-H ) :   0.9610
B(  7-C , 26-H ) :   0.9743 B(  7-C , 27-H ) :   0.9557 B(  7-C , 28-H ) :   0.9654
B(  8-S ,  9-C ) :   0.8891 B(  9-C , 10-S ) :   0.9177 B(  9-C , 29-H ) :   0.9134
B(  9-C , 30-H ) :   0.9135 B( 10-S , 11-P ) :   1.1023 B( 11-P , 12-S ) :   1.7488
B( 11-P , 13-O ) :   1.0647 B( 11-P , 16-O ) :   1.1440 B( 13-O , 14-C ) :   0.8132
B( 14-C , 15-C ) :   0.9217 B( 14-C , 31-H ) :   0.9672 B( 14-C , 32-H ) :   0.9579
B( 15-C , 33-H ) :   0.9682 B( 15-C , 34-H ) :   0.9628 B( 15-C , 35-H ) :   0.9585
B( 16-O , 17-C ) :   0.7939 B( 17-C , 18-C ) :   0.9199 B( 17-C , 36-H ) :   0.9639
B( 17-C , 37-H ) :   0.9612 B( 18-C , 38-H ) :   0.9617 B( 18-C , 39-H ) :   0.9722
B( 18-C , 40-H ) :   0.9604

Dispersion correction           -0.021549598
FINAL SINGLE POINT ENERGY     -2932.464616091253

DIPOLE MOMENT
-------------

Method             : SCF
Type of density    : Electron Density
Multiplicity       :   1
Irrep              :   0
Energy             : -2932.4896124400634108 Eh
Relativity type    :
Basis              : AO
                                X                 Y                 Z
Electronic contribution:      5.586841510       0.780700997      -4.062069601
Nuclear contribution   :     -6.306519847      -0.178852151       4.824714341
                        -----------------------------------------
Total Dipole Moment    :     -0.719678337       0.601848846       0.762644741
                        -----------------------------------------
Magnitude (a.u.)       :      1.209043400
Magnitude (Debye)      :      3.073144096

Rotational constants in cm-1:             0.013600             0.004512             0.004285
Rotational constants in MHz :           407.710302           135.255456           128.460300

                             ****ORCA TERMINATED NORMALLY****
TOTAL RUN TIME: 0 days 0 hours 1 minutes 22 seconds 830 msec
