                         Program Version 6.0.0  -   RELEASE  -
|  1> ! r2scan-3c def2/J RI DEFGRID2 scfconv6 printgap
|  2> %output
|  3>     printlevel normal
|  4> end
|  5> %cpcm
|  6>     smd true
|  7>     smdsolvent "water"
|  8> end
|  9> * xyz 0 1
| 10> C 0.5139401473 -2.2801748318 1.9180731726
| 11> C 1.8263628484 -1.630213766 2.3074710634
| 12> O 2.1306489152 -0.4880522726 1.4870483966
| 13> P 2.5353034994 -0.6410684368 -0.0350063594
| 14> S 3.3097479556 -2.3561805986 -0.5727311376
| 15> O 3.4672854705 0.6464960097 -0.0934875144
| 16> C 4.1161596383 1.0403642255 -1.319242049
| 17> C 5.5127831458 0.4562122595 -1.4055667497
| 18> S 0.8299897758 -0.0446575281 -1.1664511438
| 19> C 0.4396085992 1.4757154233 -0.2459474611
| 20> S -0.6693297216 1.2114878008 1.1631759072
| 21> P -2.3271604009 0.555840541 0.0361749428
| 22> S -2.6270213586 1.4163169896 -1.7048750161
| 23> O -3.5501611156 0.6296182257 1.0481168821
| 24> C -4.3810490984 1.7966655108 1.1727303931
| 25> C -3.633271407 2.9682377277 1.7759594034
| 26> O -2.0280221758 -1.0004414246 0.0136395835
| 27> C -2.5826139033 -1.8780111046 -0.9843164788
| 28> C -4.0808756852 -2.0299926802 -0.8271181084
| 29> H 0.5768130544 -2.6490732804 0.8938632791
| 30> H 0.3158295649 -3.1161919402 2.5810835633
| 31> H -0.3051533749 -1.5682328055 1.9845772325
| 32> H 2.6464565051 -2.3497979004 2.2196892533
| 33> H 1.7908121094 -1.2234098018 3.3187162407
| 34> H 3.5057046726 0.723440869 -2.172042779
| 35> H 4.1475896753 2.1312500601 -1.2794371871
| 36> H 6.0930501638 0.7501494045 -0.5355411929
| 37> H 5.4659824254 -0.6298824925 -1.4438970505
| 38> H 5.9988545385 0.8219905041 -2.3042735722
| 39> H -0.0435643004 2.1427742102 -0.959125037
| 40> H 1.3540382945 1.9075378204 0.1533823507
| 41> H -4.763723765 2.0560676039 0.1803623785
| 42> H -5.2003971603 1.4676606699 1.8132004477
| 43> H -3.1625300943 2.675538971 2.711108184
| 44> H -2.8622292133 3.3117493453 1.0874960659
| 45> H -4.3279416626 3.7815731229 1.9597998748
| 46> H -2.3310510542 -1.4804825783 -1.9731432863
| 47> H -2.0590571123 -2.8217967752 -0.8254201779
| 48> H -4.4437351656 -2.7725683104 -1.5307435106
| 49> H -4.321712282 -2.3405400843 0.1861527068
| 50> H -4.5722290768 -1.0792100146 -1.0311546671
| 51> *
| 52>
| 53>                          ****END OF INPUT****

CARTESIAN COORDINATES (ANGSTROEM)
---------------------------------
  C      0.513940   -2.280175    1.918073
  C      1.826363   -1.630214    2.307471
  O      2.130649   -0.488052    1.487048
  P      2.535303   -0.641068   -0.035006
  S      3.309748   -2.356181   -0.572731
  O      3.467285    0.646496   -0.093488
  C      4.116160    1.040364   -1.319242
  C      5.512783    0.456212   -1.405567
  S      0.829990   -0.044658   -1.166451
  C      0.439609    1.475715   -0.245947
  S     -0.669330    1.211488    1.163176
  P     -2.327160    0.555841    0.036175
  S     -2.627021    1.416317   -1.704875
  O     -3.550161    0.629618    1.048117
  C     -4.381049    1.796666    1.172730
  C     -3.633271    2.968238    1.775959
  O     -2.028022   -1.000441    0.013640
  C     -2.582614   -1.878011   -0.984316
  C     -4.080876   -2.029993   -0.827118
  H      0.576813   -2.649073    0.893863
  H      0.315830   -3.116192    2.581084
  H     -0.305153   -1.568233    1.984577
  H      2.646457   -2.349798    2.219689
  H      1.790812   -1.223410    3.318716
  H      3.505705    0.723441   -2.172043
  H      4.147590    2.131250   -1.279437
  H      6.093050    0.750149   -0.535541
  H      5.465982   -0.629882   -1.443897
  H      5.998855    0.821991   -2.304274
  H     -0.043564    2.142774   -0.959125
  H      1.354038    1.907538    0.153382
  H     -4.763724    2.056068    0.180362
  H     -5.200397    1.467661    1.813200
  H     -3.162530    2.675539    2.711108
  H     -2.862229    3.311749    1.087496
  H     -4.327942    3.781573    1.959800
  H     -2.331051   -1.480483   -1.973143
  H     -2.059057   -2.821797   -0.825420
  H     -4.443735   -2.772568   -1.530744
  H     -4.321712   -2.340540    0.186153
  H     -4.572229   -1.079210   -1.031155

 Total Charge           Charge          ....    0
 Multiplicity           Mult            ....    1
 Number of Electrons    NEL             ....  202
 Basis Dimension        Dim             ....  539

ORBITAL ENERGIES
----------------

  NO   OCC          E(Eh)            E(eV)
   0   2.0000     -88.578484     -2410.3431
   1   2.0000     -88.577697     -2410.3217
   2   2.0000     -88.530838     -2409.0466
   3   2.0000     -88.530578     -2409.0395
   4   2.0000     -76.919932     -2093.0978
   5   2.0000     -76.919595     -2093.0886
   6   2.0000     -18.996550      -516.9224
   7   2.0000     -18.995239      -516.8867
   8   2.0000     -18.993491      -516.8392
   9   2.0000     -18.991961      -516.7975
  10   2.0000     -10.105650      -274.9887
  11   2.0000     -10.090762      -274.5836
  12   2.0000     -10.090182      -274.5678
  13   2.0000     -10.089844      -274.5586
  14   2.0000     -10.088982      -274.5352
  15   2.0000     -10.018825      -272.6261
  16   2.0000     -10.018620      -272.6205
  17   2.0000     -10.016377      -272.5595
  18   2.0000     -10.015656      -272.5399
  19   2.0000      -7.872995      -214.2351
  20   2.0000      -7.871553      -214.1959
  21   2.0000      -7.825868      -212.9527
  22   2.0000      -7.825494      -212.9425
  23   2.0000      -6.598360      -179.5505
  24   2.0000      -6.598256      -179.5477
  25   2.0000      -5.819826      -158.3655
  26   2.0000      -5.818755      -158.3364
  27   2.0000      -5.816927      -158.2866
  28   2.0000      -5.815086      -158.2365
  29   2.0000      -5.810050      -158.0995
  30   2.0000      -5.808768      -158.0646
  31   2.0000      -5.773424      -157.1029
  32   2.0000      -5.773019      -157.0918
  33   2.0000      -5.766197      -156.9062
  34   2.0000      -5.765872      -156.8974
  35   2.0000      -5.765767      -156.8945
  36   2.0000      -5.765607      -156.8901
  37   2.0000      -4.743672      -129.0819
  38   2.0000      -4.743630      -129.0807
  39   2.0000      -4.743576      -129.0793
  40   2.0000      -4.743128      -129.0671
  41   2.0000      -4.742225      -129.0425
  42   2.0000      -4.741993      -129.0362
  43   2.0000      -1.055405       -28.7190
  44   2.0000      -1.053095       -28.6562
  45   2.0000      -1.013693       -27.5840
  46   2.0000      -1.012860       -27.5613
  47   2.0000      -0.801931       -21.8216
  48   2.0000      -0.755583       -20.5605
  49   2.0000      -0.743323       -20.2268
  50   2.0000      -0.723578       -19.6896
  51   2.0000      -0.719005       -19.5651
  52   2.0000      -0.712408       -19.3856
  53   2.0000      -0.694975       -18.9112
  54   2.0000      -0.675672       -18.3860
  55   2.0000      -0.631664       -17.1884
  56   2.0000      -0.623936       -16.9782
  57   2.0000      -0.599662       -16.3176
  58   2.0000      -0.596221       -16.2240
  59   2.0000      -0.588912       -16.0251
  60   2.0000      -0.523812       -14.2537
  61   2.0000      -0.514641       -14.0041
  62   2.0000      -0.491146       -13.3648
  63   2.0000      -0.487535       -13.2665
  64   2.0000      -0.475179       -12.9303
  65   2.0000      -0.462158       -12.5760
  66   2.0000      -0.454958       -12.3800
  67   2.0000      -0.453059       -12.3284
  68   2.0000      -0.435069       -11.8388
  69   2.0000      -0.432471       -11.7681
  70   2.0000      -0.422993       -11.5102
  71   2.0000      -0.413017       -11.2388
  72   2.0000      -0.407716       -11.0945
  73   2.0000      -0.405361       -11.0304
  74   2.0000      -0.403552       -10.9812
  75   2.0000      -0.384384       -10.4596
  76   2.0000      -0.378590       -10.3020
  77   2.0000      -0.371363       -10.1053
  78   2.0000      -0.365650        -9.9499
  79   2.0000      -0.361332        -9.8324
  80   2.0000      -0.353827        -9.6281
  81   2.0000      -0.352769        -9.5993
  82   2.0000      -0.348250        -9.4764
  83   2.0000      -0.343466        -9.3462
  84   2.0000      -0.342397        -9.3171
  85   2.0000      -0.335937        -9.1413
  86   2.0000      -0.324068        -8.8183
  87   2.0000      -0.308663        -8.3992
  88   2.0000      -0.305705        -8.3187
  89   2.0000      -0.302614        -8.2346
  90   2.0000      -0.298908        -8.1337
  91   2.0000      -0.290163        -7.8957
  92   2.0000      -0.284196        -7.7334
  93   2.0000      -0.279827        -7.6145
  94   2.0000      -0.273880        -7.4527
  95   2.0000      -0.247336        -6.7304
  96   2.0000      -0.239686        -6.5222
  97   2.0000      -0.231549        -6.3008
  98   2.0000      -0.230326        -6.2675
  99   2.0000      -0.224293        -6.1033
 100   2.0000      -0.221848        -6.0368
 101   0.0000      -0.047582        -1.2948
 102   0.0000      -0.030608        -0.8329
 103   0.0000      -0.014723        -0.4006
 104   0.0000      -0.001544        -0.0420
 105   0.0000       0.007622         0.2074

MULLIKEN ATOMIC CHARGES
-----------------------
   0 C :   -0.489114
   1 C :   -0.137854
   2 O :   -0.309242
   3 P :    0.713869
   4 S :   -0.502876
   5 O :   -0.346842
   6 C :   -0.119222
   7 C :   -0.489210
   8 S :   -0.173185
   9 C :   -0.244002
  10 S :   -0.105766
  11 P :    0.703073
  12 S :   -0.522742
  13 O :   -0.327777
  14 C :   -0.150388
  15 C :   -0.488954
  16 O :   -0.297133
  17 C :   -0.150887
  18 C :   -0.483865
  19 H :    0.168977
  20 H :    0.171116
  21 H :    0.174276
  22 H :    0.173440
  23 H :    0.176353
  24 H :    0.166702
  25 H :    0.176979
  26 H :    0.166242
  27 H :    0.169895
  28 H :    0.169318
  29 H :    0.237025
  30 H :    0.235407
  31 H :    0.178379
  32 H :    0.175946
  33 H :    0.169509
  34 H :    0.173047
  35 H :    0.173276
  36 H :    0.176869
  37 H :    0.178959
  38 H :    0.172103
  39 H :    0.170220
  40 H :    0.168079
Sum of atomic charges:    0.0000000

LOEWDIN ATOMIC CHARGES
----------------------
   0 C :   -0.411489
   1 C :    0.025688
   2 O :   -0.669368
   3 P :    0.374966
   4 S :   -0.146784
   5 O :   -0.685408
   6 C :    0.026943
   7 C :   -0.405179
   8 S :    0.151608
   9 C :   -0.403200
  10 S :    0.174208
  11 P :    0.380180
  12 S :   -0.155145
  13 O :   -0.671535
  14 C :    0.025973
  15 C :   -0.409635
  16 O :   -0.695128
  17 C :    0.022569
  18 C :   -0.402282
  19 H :    0.162850
  20 H :    0.167373
  21 H :    0.167158
  22 H :    0.182162
  23 H :    0.191747
  24 H :    0.180624
  25 H :    0.189687
  26 H :    0.162268
  27 H :    0.162620
  28 H :    0.167258
  29 H :    0.198055
  30 H :    0.205743
  31 H :    0.181714
  32 H :    0.191285
  33 H :    0.163718
  34 H :    0.161604
  35 H :    0.168626
  36 H :    0.181900
  37 H :    0.191051
  38 H :    0.168688
  39 H :    0.164298
  40 H :    0.162587

  Mayer bond orders larger than 0.100000
B(  0-C ,  1-C ) :   0.9177 B(  0-C , 19-H ) :   0.9626 B(  0-C , 20-H ) :   0.9567
B(  0-C , 21-H ) :   0.9587 B(  1-C ,  2-O ) :   0.7844 B(  1-C , 22-H ) :   0.9597
B(  1-C , 23-H ) :   0.9506 B(  2-O ,  3-P ) :   1.1174 B(  3-P ,  4-S ) :   1.7874
B(  3-P ,  5-O ) :   1.0804 B(  3-P ,  8-S ) :   1.0680 B(  5-O ,  6-C ) :   0.7717
B(  6-C ,  7-C ) :   0.9426 B(  6-C , 24-H ) :   0.9552 B(  6-C , 25-H ) :   0.9521
B(  7-C , 26-H ) :   0.9728 B(  7-C , 27-H ) :   0.9609 B(  7-C , 28-H ) :   0.9599
B(  8-S ,  9-C ) :   0.8858 B(  9-C , 10-S ) :   0.9129 B(  9-C , 29-H ) :   0.9071
B(  9-C , 30-H ) :   0.9029 B( 10-S , 11-P ) :   1.1139 B( 11-P , 12-S ) :   1.7042
B( 11-P , 13-O ) :   1.0733 B( 11-P , 16-O ) :   1.1481 B( 13-O , 14-C ) :   0.8011
B( 14-C , 15-C ) :   0.9084 B( 14-C , 31-H ) :   0.9658 B( 14-C , 32-H ) :   0.9483
B( 15-C , 33-H ) :   0.9654 B( 15-C , 34-H ) :   0.9637 B( 15-C , 35-H ) :   0.9533
B( 16-O , 17-C ) :   0.7815 B( 17-C , 18-C ) :   0.9109 B( 17-C , 36-H ) :   0.9601
B( 17-C , 37-H ) :   0.9521 B( 18-C , 38-H ) :   0.9559 B( 18-C , 39-H ) :   0.9711
B( 18-C , 40-H ) :   0.9595

Dispersion correction           -0.021549598
FINAL SINGLE POINT ENERGY     -2932.472616811165

DIPOLE MOMENT
-------------

Method             : SCF
Type of density    : Electron Density
Multiplicity       :   1
Irrep              :   0
Energy             : -2932.4976131599755718 Eh
Relativity type    :
Basis              : AO
                                X                 Y                 Z
Electronic contribution:      5.391086922       1.142050693      -3.815785288
Nuclear contribution   :     -6.306519847      -0.178852151       4.824714341
                        -----------------------------------------
Total Dipole Moment    :     -0.915432925       0.963198542       1.008929053
                        -----------------------------------------
Magnitude (a.u.)       :      1.668444397
Magnitude (Debye)      :      4.240848631

Rotational constants in cm-1:             0.013600             0.004512             0.004285
Rotational constants in MHz :           407.710302           135.255456           128.460300

                             ****ORCA TERMINATED NORMALLY****
TOTAL RUN TIME: 0 days 0 hours 1 minutes 47 seconds 294 msec
