                         Program Version 6.0.0  -   RELEASE  -
|  1> ! pbe def2-sv(p) def2/J RI DEFGRID1 loosescf d4 GCP(DFT/SV(P)) printgap
|  2> %output
|  3>     printlevel normal
|  4> end
|  5> * xyz 0 1
|  6> C 2.919569384 -2.9574692874 -1.8328786728
|  7> C 3.0655490851 -2.5011102355 -0.395239284
|  8> O 3.3987620551 -1.0929149036 -0.3267113067
|  9> P 2.328511024 0.0535126201 -0.08148549
| 10> S 3.225331051 1.7777546652 0.1049721759
| 11> O 1.44223242 -0.4362652515 1.1593339828
| 12> C 1.8539667186 -0.1722564338 2.5197624256
| 13> C 1.1375601864 1.0420683733 3.0745320066
| 14> S 0.9132865681 -0.1392227225 -1.633240916
| 15> C 0.1812065785 1.5066904954 -1.454794065
| 16> S -0.7395938851 1.7321682052 0.0847937016
| 17> P -2.1888331159 0.2328931494 -0.2856667491
| 18> S -2.8443854863 0.0946929393 -2.1198064589
| 19> O -3.3620066981 0.5411318989 0.7325444392
| 20> C -3.1979044057 0.5394420019 2.1728319716
| 21> C -3.0114629925 1.9485324944 2.698734663
| 22> O -1.4395985733 -1.0557139549 0.2968539235
| 23> C -1.5602131265 -2.3546196615 -0.3089595442
| 24> C -2.8955581966 -2.9900483983 0.0210075741
| 25> H 3.8208151631 -2.7195156542 -2.3908503629
| 26> H 2.7604334282 -4.0310977134 -1.8497102574
| 27> H 2.074277658 -2.4641818232 -2.3086502084
| 28> H 3.9048733447 -2.9993906114 0.093226387
| 29> H 2.1481279309 -2.6767422819 0.1721724571
| 30> H 1.5893863499 -1.0768707078 3.0703890386
| 31> H 2.9387494045 -0.0288402004 2.5448717966
| 32> H 0.0621440694 0.9079763021 3.0019930696
| 33> H 1.4167369554 1.17754314 4.1143508233
| 34> H 1.4148040266 1.9308024283 2.5117314671
| 35> H -0.4920377894 1.6342400937 -2.3023499518
| 36> H 0.9730871342 2.2560253244 -1.4558746377
| 37> H -4.1232462969 0.0987758146 2.5481624002
| 38> H -2.3515292574 -0.1012496835 2.4317868937
| 39> H -3.8456849723 2.5725929597 2.3907728483
| 40> H -2.9664928226 1.920229962 3.7830846923
| 41> H -2.0915735174 2.3848992126 2.3140466932
| 42> H -1.4367664525 -2.250694805 -1.3915050045
| 43> H -0.7254560139 -2.9225568618 0.1043947286
| 44> H -3.7008699972 -2.3756777326 -0.380996042
| 45> H -2.946574463 -3.9761653709 -0.4294148789
| 46> H -3.0211148592 -3.0771694857 1.0970463622
| 47> *
| 48>
| 49>                          ****END OF INPUT****

CARTESIAN COORDINATES (ANGSTROEM)
---------------------------------
  C      2.919569   -2.957469   -1.832879
  C      3.065549   -2.501110   -0.395239
  O      3.398762   -1.092915   -0.326711
  P      2.328511    0.053513   -0.081485
  S      3.225331    1.777755    0.104972
  O      1.442232   -0.436265    1.159334
  C      1.853967   -0.172256    2.519762
  C      1.137560    1.042068    3.074532
  S      0.913287   -0.139223   -1.633241
  C      0.181207    1.506690   -1.454794
  S     -0.739594    1.732168    0.084794
  P     -2.188833    0.232893   -0.285667
  S     -2.844385    0.094693   -2.119806
  O     -3.362007    0.541132    0.732544
  C     -3.197904    0.539442    2.172832
  C     -3.011463    1.948532    2.698735
  O     -1.439599   -1.055714    0.296854
  C     -1.560213   -2.354620   -0.308960
  C     -2.895558   -2.990048    0.021008
  H      3.820815   -2.719516   -2.390850
  H      2.760433   -4.031098   -1.849710
  H      2.074278   -2.464182   -2.308650
  H      3.904873   -2.999391    0.093226
  H      2.148128   -2.676742    0.172172
  H      1.589386   -1.076871    3.070389
  H      2.938749   -0.028840    2.544872
  H      0.062144    0.907976    3.001993
  H      1.416737    1.177543    4.114351
  H      1.414804    1.930802    2.511731
  H     -0.492038    1.634240   -2.302350
  H      0.973087    2.256025   -1.455875
  H     -4.123246    0.098776    2.548162
  H     -2.351529   -0.101250    2.431787
  H     -3.845685    2.572593    2.390773
  H     -2.966493    1.920230    3.783085
  H     -2.091574    2.384899    2.314047
  H     -1.436766   -2.250695   -1.391505
  H     -0.725456   -2.922557    0.104395
  H     -3.700870   -2.375678   -0.380996
  H     -2.946574   -3.976165   -0.429415
  H     -3.021115   -3.077169    1.097046

 Total Charge           Charge          ....    0
 Multiplicity           Mult            ....    1
 Number of Electrons    NEL             ....  202
 Basis Dimension        Dim             ....  334

ORBITAL ENERGIES
----------------

  NO   OCC          E(Eh)            E(eV)
   0   2.0000     -88.044676     -2395.8174
   1   2.0000     -88.041197     -2395.7228
   2   2.0000     -87.987693     -2394.2668
   3   2.0000     -87.986020     -2394.2213
   4   2.0000     -76.427072     -2079.6864
   5   2.0000     -76.426136     -2079.6609
   6   2.0000     -18.796797      -511.4868
   7   2.0000     -18.796001      -511.4652
   8   2.0000     -18.789166      -511.2792
   9   2.0000     -18.788982      -511.2742
  10   2.0000      -9.962960      -271.1059
  11   2.0000      -9.962718      -271.0993
  12   2.0000      -9.954868      -270.8857
  13   2.0000      -9.954820      -270.8844
  14   2.0000      -9.952021      -270.8083
  15   2.0000      -9.893503      -269.2159
  16   2.0000      -9.893258      -269.2092
  17   2.0000      -9.886305      -269.0200
  18   2.0000      -9.882264      -268.9101
  19   2.0000      -7.689619      -209.2452
  20   2.0000      -7.686235      -209.1531
  21   2.0000      -7.632934      -207.7027
  22   2.0000      -7.631339      -207.6593
  23   2.0000      -6.424723      -174.8256
  24   2.0000      -6.424123      -174.8093
  25   2.0000      -5.717469      -155.5802
  26   2.0000      -5.714291      -155.4938
  27   2.0000      -5.714090      -155.4883
  28   2.0000      -5.710886      -155.4011
  29   2.0000      -5.706424      -155.2797
  30   2.0000      -5.703038      -155.1876
  31   2.0000      -5.661972      -154.0701
  32   2.0000      -5.660377      -154.0267
  33   2.0000      -5.653490      -153.8393
  34   2.0000      -5.652988      -153.8256
  35   2.0000      -5.652082      -153.8010
  36   2.0000      -5.651189      -153.7767
  37   2.0000      -4.647634      -126.4686
  38   2.0000      -4.647150      -126.4554
  39   2.0000      -4.646070      -126.4260
  40   2.0000      -4.645477      -126.4098
  41   2.0000      -4.645303      -126.4051
  42   2.0000      -4.644546      -126.3845
  43   2.0000      -0.987138       -26.8614
  44   2.0000      -0.985950       -26.8291
  45   2.0000      -0.945279       -25.7224
  46   2.0000      -0.943487       -25.6736
  47   2.0000      -0.767194       -20.8764
  48   2.0000      -0.724946       -19.7268
  49   2.0000      -0.713832       -19.4244
  50   2.0000      -0.695907       -18.9366
  51   2.0000      -0.691885       -18.8272
  52   2.0000      -0.675748       -18.3880
  53   2.0000      -0.653197       -17.7744
  54   2.0000      -0.639855       -17.4113
  55   2.0000      -0.597062       -16.2469
  56   2.0000      -0.586493       -15.9593
  57   2.0000      -0.582053       -15.8385
  58   2.0000      -0.581172       -15.8145
  59   2.0000      -0.558927       -15.2092
  60   2.0000      -0.511507       -13.9188
  61   2.0000      -0.502326       -13.6690
  62   2.0000      -0.480904       -13.0861
  63   2.0000      -0.477546       -12.9947
  64   2.0000      -0.459148       -12.4941
  65   2.0000      -0.451137       -12.2761
  66   2.0000      -0.446607       -12.1528
  67   2.0000      -0.437139       -11.8952
  68   2.0000      -0.431661       -11.7461
  69   2.0000      -0.417796       -11.3688
  70   2.0000      -0.408416       -11.1136
  71   2.0000      -0.399757       -10.8779
  72   2.0000      -0.391634       -10.6569
  73   2.0000      -0.381986       -10.3944
  74   2.0000      -0.377367       -10.2687
  75   2.0000      -0.374796       -10.1987
  76   2.0000      -0.371924       -10.1206
  77   2.0000      -0.363321        -9.8865
  78   2.0000      -0.361307        -9.8317
  79   2.0000      -0.360296        -9.8041
  80   2.0000      -0.357714        -9.7339
  81   2.0000      -0.351238        -9.5577
  82   2.0000      -0.346896        -9.4395
  83   2.0000      -0.342791        -9.3278
  84   2.0000      -0.336137        -9.1468
  85   2.0000      -0.321805        -8.7568
  86   2.0000      -0.311559        -8.4780
  87   2.0000      -0.310117        -8.4387
  88   2.0000      -0.302922        -8.2429
  89   2.0000      -0.284567        -7.7435
  90   2.0000      -0.282844        -7.6966
  91   2.0000      -0.278534        -7.5793
  92   2.0000      -0.274364        -7.4658
  93   2.0000      -0.272151        -7.4056
  94   2.0000      -0.260012        -7.0753
  95   2.0000      -0.229778        -6.2526
  96   2.0000      -0.217239        -5.9114
  97   2.0000      -0.213789        -5.8175
  98   2.0000      -0.204264        -5.5583
  99   2.0000      -0.201267        -5.4768
 100   2.0000      -0.199530        -5.4295
 101   0.0000      -0.046556        -1.2669
 102   0.0000      -0.023283        -0.6336
 103   0.0000      -0.002364        -0.0643
 104   0.0000      -0.002013        -0.0548
 105   0.0000       0.002129         0.0579

MULLIKEN ATOMIC CHARGES
-----------------------
   0 C :   -0.301252
   1 C :   -0.037413
   2 O :   -0.366148
   3 P :    0.619262
   4 S :   -0.315129
   5 O :   -0.375603
   6 C :   -0.012276
   7 C :   -0.299104
   8 S :   -0.100008
   9 C :   -0.339591
  10 S :   -0.098796
  11 P :    0.622982
  12 S :   -0.314695
  13 O :   -0.365849
  14 C :   -0.041372
  15 C :   -0.303411
  16 O :   -0.376842
  17 C :   -0.014466
  18 C :   -0.302088
  19 H :    0.126816
  20 H :    0.111656
  21 H :    0.136009
  22 H :    0.111815
  23 H :    0.114610
  24 H :    0.098167
  25 H :    0.106107
  26 H :    0.119080
  27 H :    0.105155
  28 H :    0.129176
  29 H :    0.194429
  30 H :    0.192548
  31 H :    0.111803
  32 H :    0.121348
  33 H :    0.125649
  34 H :    0.112212
  35 H :    0.143250
  36 H :    0.113405
  37 H :    0.101906
  38 H :    0.128608
  39 H :    0.110718
  40 H :    0.107333
Sum of atomic charges:   -0.0000000

LOEWDIN ATOMIC CHARGES
----------------------
   0 C :   -0.361101
   1 C :   -0.118813
   2 O :   -0.245392
   3 P :    0.569896
   4 S :   -0.311110
   5 O :   -0.253293
   6 C :   -0.115730
   7 C :   -0.363748
   8 S :    0.096885
   9 C :   -0.479582
  10 S :    0.093672
  11 P :    0.572792
  12 S :   -0.308955
  13 O :   -0.242662
  14 C :   -0.117626
  15 C :   -0.361725
  16 O :   -0.247914
  17 C :   -0.124343
  18 C :   -0.364651
  19 H :    0.132500
  20 H :    0.131020
  21 H :    0.119551
  22 H :    0.121998
  23 H :    0.108728
  24 H :    0.114115
  25 H :    0.109439
  26 H :    0.118018
  27 H :    0.127020
  28 H :    0.124856
  29 H :    0.132574
  30 H :    0.131864
  31 H :    0.122239
  32 H :    0.109677
  33 H :    0.132341
  34 H :    0.131483
  35 H :    0.120357
  36 H :    0.106726
  37 H :    0.112161
  38 H :    0.125563
  39 H :    0.130185
  40 H :    0.120986

  Mayer bond orders larger than 0.100000
B(  0-C ,  1-C ) :   1.1687 B(  0-C , 19-H ) :   0.9457 B(  0-C , 20-H ) :   0.9382
B(  0-C , 21-H ) :   0.9336 B(  1-C ,  2-O ) :   0.9054 B(  1-C , 22-H ) :   0.9331
B(  1-C , 23-H ) :   0.9123 B(  2-O ,  3-P ) :   1.1184 B(  3-P ,  4-S ) :   1.6337
B(  3-P ,  5-O ) :   1.0799 B(  3-P ,  8-S ) :   0.9604 B(  4-S ,  8-S ) :   0.1024
B(  5-O ,  6-C ) :   0.9031 B(  6-C ,  7-C ) :   1.1747 B(  6-C , 24-H ) :   0.9328
B(  6-C , 25-H ) :   0.9130 B(  7-C , 26-H ) :   0.9368 B(  7-C , 27-H ) :   0.9374
B(  7-C , 28-H ) :   0.9338 B(  8-S ,  9-C ) :   1.0047 B(  9-C , 10-S ) :   1.0110
B(  9-C , 29-H ) :   0.8823 B(  9-C , 30-H ) :   0.8785 B( 10-S , 11-P ) :   0.9596
B( 10-S , 12-S ) :   0.1019 B( 11-P , 12-S ) :   1.6275 B( 11-P , 13-O ) :   1.1287
B( 11-P , 16-O ) :   1.0718 B( 13-O , 14-C ) :   0.9003 B( 14-C , 15-C ) :   1.1695
B( 14-C , 31-H ) :   0.9323 B( 14-C , 32-H ) :   0.9105 B( 15-C , 33-H ) :   0.9442
B( 15-C , 34-H ) :   0.9384 B( 15-C , 35-H ) :   0.9291 B( 16-O , 17-C ) :   0.9057
B( 17-C , 18-C ) :   1.1622 B( 17-C , 36-H ) :   0.9092 B( 17-C , 37-H ) :   0.9297
B( 18-C , 38-H ) :   0.9351 B( 18-C , 39-H ) :   0.9406 B( 18-C , 40-H ) :   0.9477

Dispersion correction           -0.067505345
FINAL SINGLE POINT ENERGY     -2929.517181659249

DIPOLE MOMENT
-------------

Method             : SCF
Type of density    : Electron Density
Multiplicity       :   1
Irrep              :   0
Energy             : -2929.6356620266269601 Eh
Relativity type    :
Basis              : AO
                                X                 Y                 Z
Electronic contribution:      4.302516968      13.574106243     -15.450147861
Nuclear contribution   :     -4.453905215     -15.225614068      17.035032272
                        -----------------------------------------
Total Dipole Moment    :     -0.151388248      -1.651507824       1.584884411
                        -----------------------------------------
Magnitude (a.u.)       :      2.293960569
Magnitude (Debye)      :      5.830784386

Rotational constants in cm-1:             0.010678             0.006114             0.005293
Rotational constants in MHz :           320.131325           183.287393           158.677067

                             ****ORCA TERMINATED NORMALLY****
TOTAL RUN TIME: 0 days 0 hours 0 minutes 22 seconds 350 msec
