                         Program Version 6.0.0  -   RELEASE  -
|  1> ! pbe def2-sv(p) def2/J RI DEFGRID1 loosescf d4 GCP(DFT/SV(P)) printgap
|  2> %output
|  3>     printlevel normal
|  4> end
|  5> * xyz 0 1
|  6> C 0.6929383405 -3.1296590748 0.8846733345
|  7> C 0.7143625234 -1.8758148031 1.7376927763
|  8> O 1.9753160222 -1.1891654498 1.6663673634
|  9> P 2.5039954971 -0.354086799 0.4302557497
| 10> S 3.0973580116 -1.3208580592 -1.1751925419
| 11> O 3.6589475173 0.3650918806 1.2342324706
| 12> C 4.796357522 0.9444743289 0.5730647791
| 13> C 4.4332663226 2.2113180418 -0.1762968303
| 14> S 1.0334119792 1.164362482 0.0975033097
| 15> C 0.4424507885 0.6235585202 -1.5262064316
| 16> S -0.7932070589 -0.6983935373 -1.4413561589
| 17> P -2.3236910589 0.4850941638 -0.5905871474
| 18> S -2.4977130942 2.3250873993 -1.2262379145
| 19> O -1.9621975781 0.3516362978 0.9658096925
| 20> C -2.2519424741 1.3955986274 1.9095184919
| 21> C -3.7249446404 1.4130538844 2.2630200729
| 22> O -3.6485050318 -0.3394470465 -0.855059875
| 23> C -3.7591741792 -1.7821221194 -0.8738194031
| 24> C -3.5387071106 -2.3948382762 0.4932696164
| 25> H 1.548193422 -3.7561865685 1.1244781828
| 26> H -0.2208797014 -3.682033865 1.0793480913
| 27> H 0.7327808481 -2.8760096365 -0.173181033
| 28> H 0.6157644822 -2.1179688011 2.7978106903
| 29> H -0.0853963644 -1.1868634852 1.4470072078
| 30> H 5.4974829749 1.1448176323 1.3843189363
| 31> H 5.2217964674 0.2013782163 -0.1096266265
| 32> H 3.7872449322 1.9740967729 -1.0205606366
| 33> H 3.9118890747 2.9022887004 0.4813686525
| 34> H 5.3381171914 2.6809605526 -0.5485016842
| 35> H 1.2781498069 0.2222063952 -2.1017551121
| 36> H 0.0007301684 1.4957773489 -2.0071505798
| 37> H -1.6259517473 1.164619066 2.7725955897
| 38> H -1.9445096541 2.353819399 1.4783142386
| 39> H -4.0249112756 0.4573810672 2.6843139085
| 40> H -3.9149872992 2.200906176 2.984887699
| 41> H -4.3120289212 1.6048491242 1.3648205348
| 42> H -4.7752763517 -1.9515134144 -1.2336604567
| 43> H -3.0399673284 -2.1737063611 -1.5981979951
| 44> H -3.6939756402 -3.4672115811 0.4283533649
| 45> H -2.5232463294 -2.2020205548 0.831694349
| 46> H -4.2383158256 -1.9753749912 1.2113566509
| 47> *
| 48>
| 49>                          ****END OF INPUT****

CARTESIAN COORDINATES (ANGSTROEM)
---------------------------------
  C      0.692938   -3.129659    0.884673
  C      0.714363   -1.875815    1.737693
  O      1.975316   -1.189165    1.666367
  P      2.503995   -0.354087    0.430256
  S      3.097358   -1.320858   -1.175193
  O      3.658948    0.365092    1.234232
  C      4.796358    0.944474    0.573065
  C      4.433266    2.211318   -0.176297
  S      1.033412    1.164362    0.097503
  C      0.442451    0.623559   -1.526206
  S     -0.793207   -0.698394   -1.441356
  P     -2.323691    0.485094   -0.590587
  S     -2.497713    2.325087   -1.226238
  O     -1.962198    0.351636    0.965810
  C     -2.251942    1.395599    1.909518
  C     -3.724945    1.413054    2.263020
  O     -3.648505   -0.339447   -0.855060
  C     -3.759174   -1.782122   -0.873819
  C     -3.538707   -2.394838    0.493270
  H      1.548193   -3.756187    1.124478
  H     -0.220880   -3.682034    1.079348
  H      0.732781   -2.876010   -0.173181
  H      0.615764   -2.117969    2.797811
  H     -0.085396   -1.186863    1.447007
  H      5.497483    1.144818    1.384319
  H      5.221796    0.201378   -0.109627
  H      3.787245    1.974097   -1.020561
  H      3.911889    2.902289    0.481369
  H      5.338117    2.680961   -0.548502
  H      1.278150    0.222206   -2.101755
  H      0.000730    1.495777   -2.007151
  H     -1.625952    1.164619    2.772596
  H     -1.944510    2.353819    1.478314
  H     -4.024911    0.457381    2.684314
  H     -3.914987    2.200906    2.984888
  H     -4.312029    1.604849    1.364821
  H     -4.775276   -1.951513   -1.233660
  H     -3.039967   -2.173706   -1.598198
  H     -3.693976   -3.467212    0.428353
  H     -2.523246   -2.202021    0.831694
  H     -4.238316   -1.975375    1.211357

 Total Charge           Charge          ....    0
 Multiplicity           Mult            ....    1
 Number of Electrons    NEL             ....  202
 Basis Dimension        Dim             ....  334

ORBITAL ENERGIES
----------------

  NO   OCC          E(Eh)            E(eV)
   0   2.0000     -88.048763     -2395.9287
   1   2.0000     -88.045533     -2395.8407
   2   2.0000     -87.992726     -2394.4038
   3   2.0000     -87.990304     -2394.3379
   4   2.0000     -76.430994     -2079.7931
   5   2.0000     -76.428932     -2079.7370
   6   2.0000     -18.801016      -511.6016
   7   2.0000     -18.795897      -511.4623
   8   2.0000     -18.791089      -511.3315
   9   2.0000     -18.789557      -511.2898
  10   2.0000      -9.967481      -271.2290
  11   2.0000      -9.956214      -270.9224
  12   2.0000      -9.952346      -270.8171
  13   2.0000      -9.951541      -270.7952
  14   2.0000      -9.950979      -270.7799
  15   2.0000      -9.898414      -269.3495
  16   2.0000      -9.887577      -269.0547
  17   2.0000      -9.883349      -268.9396
  18   2.0000      -9.879568      -268.8367
  19   2.0000      -7.693692      -209.3560
  20   2.0000      -7.690092      -209.2581
  21   2.0000      -7.637564      -207.8287
  22   2.0000      -7.635513      -207.7729
  23   2.0000      -6.428825      -174.9372
  24   2.0000      -6.426178      -174.8652
  25   2.0000      -5.721406      -155.6874
  26   2.0000      -5.718334      -155.6038
  27   2.0000      -5.717947      -155.5932
  28   2.0000      -5.714596      -155.5021
  29   2.0000      -5.710704      -155.3962
  30   2.0000      -5.707177      -155.3002
  31   2.0000      -5.666318      -154.1883
  32   2.0000      -5.664575      -154.1409
  33   2.0000      -5.658166      -153.9665
  34   2.0000      -5.657935      -153.9602
  35   2.0000      -5.656320      -153.9163
  36   2.0000      -5.655286      -153.8882
  37   2.0000      -4.651630      -126.5773
  38   2.0000      -4.650393      -126.5436
  39   2.0000      -4.649239      -126.5122
  40   2.0000      -4.648420      -126.4899
  41   2.0000      -4.648253      -126.4854
  42   2.0000      -4.646645      -126.4416
  43   2.0000      -0.990133       -26.9429
  44   2.0000      -0.989604       -26.9285
  45   2.0000      -0.951959       -25.9041
  46   2.0000      -0.944623       -25.7045
  47   2.0000      -0.767708       -20.8904
  48   2.0000      -0.725450       -19.7405
  49   2.0000      -0.714613       -19.4456
  50   2.0000      -0.697279       -18.9739
  51   2.0000      -0.682224       -18.5643
  52   2.0000      -0.678672       -18.4676
  53   2.0000      -0.655474       -17.8363
  54   2.0000      -0.643449       -17.5091
  55   2.0000      -0.603581       -16.4243
  56   2.0000      -0.598658       -16.2903
  57   2.0000      -0.582803       -15.8589
  58   2.0000      -0.570413       -15.5217
  59   2.0000      -0.564376       -15.3575
  60   2.0000      -0.504981       -13.7412
  61   2.0000      -0.493797       -13.4369
  62   2.0000      -0.483702       -13.1622
  63   2.0000      -0.468604       -12.7514
  64   2.0000      -0.463674       -12.6172
  65   2.0000      -0.451776       -12.2934
  66   2.0000      -0.441830       -12.0228
  67   2.0000      -0.435196       -11.8423
  68   2.0000      -0.421749       -11.4764
  69   2.0000      -0.420973       -11.4553
  70   2.0000      -0.417708       -11.3664
  71   2.0000      -0.408251       -11.1091
  72   2.0000      -0.397242       -10.8095
  73   2.0000      -0.392345       -10.6763
  74   2.0000      -0.382159       -10.3991
  75   2.0000      -0.379649       -10.3308
  76   2.0000      -0.372129       -10.1261
  77   2.0000      -0.362019        -9.8510
  78   2.0000      -0.361145        -9.8273
  79   2.0000      -0.355034        -9.6610
  80   2.0000      -0.351668        -9.5694
  81   2.0000      -0.348653        -9.4873
  82   2.0000      -0.343265        -9.3407
  83   2.0000      -0.339175        -9.2294
  84   2.0000      -0.335069        -9.1177
  85   2.0000      -0.321906        -8.7595
  86   2.0000      -0.314853        -8.5676
  87   2.0000      -0.312790        -8.5115
  88   2.0000      -0.298441        -8.1210
  89   2.0000      -0.289134        -7.8677
  90   2.0000      -0.285279        -7.7628
  91   2.0000      -0.280528        -7.6335
  92   2.0000      -0.271835        -7.3970
  93   2.0000      -0.268649        -7.3103
  94   2.0000      -0.260872        -7.0987
  95   2.0000      -0.236743        -6.4421
  96   2.0000      -0.220775        -6.0076
  97   2.0000      -0.216626        -5.8947
  98   2.0000      -0.207785        -5.6541
  99   2.0000      -0.206230        -5.6118
 100   2.0000      -0.204348        -5.5606
 101   0.0000      -0.049815        -1.3555
 102   0.0000      -0.031115        -0.8467
 103   0.0000      -0.011607        -0.3158
 104   0.0000      -0.000114        -0.0031
 105   0.0000       0.007464         0.2031

MULLIKEN ATOMIC CHARGES
-----------------------
   0 C :   -0.310786
   1 C :   -0.056603
   2 O :   -0.351377
   3 P :    0.604963
   4 S :   -0.331547
   5 O :   -0.356655
   6 C :   -0.004972
   7 C :   -0.310000
   8 S :   -0.093803
   9 C :   -0.349090
  10 S :   -0.112146
  11 P :    0.621398
  12 S :   -0.310379
  13 O :   -0.376868
  14 C :   -0.007474
  15 C :   -0.310154
  16 O :   -0.368415
  17 C :   -0.024798
  18 C :   -0.331120
  19 H :    0.117085
  20 H :    0.106006
  21 H :    0.132672
  22 H :    0.102649
  23 H :    0.153264
  24 H :    0.107256
  25 H :    0.114340
  26 H :    0.120784
  27 H :    0.118326
  28 H :    0.112488
  29 H :    0.194733
  30 H :    0.195557
  31 H :    0.103282
  32 H :    0.115983
  33 H :    0.113582
  34 H :    0.114351
  35 H :    0.127320
  36 H :    0.118733
  37 H :    0.126185
  38 H :    0.117496
  39 H :    0.142285
  40 H :    0.125449
Sum of atomic charges:    0.0000000

LOEWDIN ATOMIC CHARGES
----------------------
   0 C :   -0.369158
   1 C :   -0.125541
   2 O :   -0.230834
   3 P :    0.571974
   4 S :   -0.309072
   5 O :   -0.233160
   6 C :   -0.119419
   7 C :   -0.367283
   8 S :    0.084997
   9 C :   -0.484869
  10 S :    0.090395
  11 P :    0.571452
  12 S :   -0.303678
  13 O :   -0.248515
  14 C :   -0.124039
  15 C :   -0.363581
  16 O :   -0.241158
  17 C :   -0.114188
  18 C :   -0.366988
  19 H :    0.127511
  20 H :    0.124851
  21 H :    0.115391
  22 H :    0.118477
  23 H :    0.105157
  24 H :    0.119842
  25 H :    0.110371
  26 H :    0.119492
  27 H :    0.125438
  28 H :    0.130545
  29 H :    0.127008
  30 H :    0.131559
  31 H :    0.116770
  32 H :    0.109181
  33 H :    0.121607
  34 H :    0.131772
  35 H :    0.125512
  36 H :    0.126202
  37 H :    0.110349
  38 H :    0.133233
  39 H :    0.123834
  40 H :    0.128562

  Mayer bond orders larger than 0.100000
B(  0-C ,  1-C ) :   1.1626 B(  0-C , 19-H ) :   0.9435 B(  0-C , 20-H ) :   0.9354
B(  0-C , 21-H ) :   0.9304 B(  1-C ,  2-O ) :   0.9146 B(  1-C , 22-H ) :   0.9345
B(  1-C , 23-H ) :   0.8916 B(  2-O ,  3-P ) :   1.1377 B(  3-P ,  4-S ) :   1.5970
B(  3-P ,  5-O ) :   1.1336 B(  3-P ,  8-S ) :   0.9312 B(  4-S ,  8-S ) :   0.1207
B(  5-O ,  6-C ) :   0.9116 B(  6-C ,  7-C ) :   1.1631 B(  6-C , 24-H ) :   0.9338
B(  6-C , 25-H ) :   0.9142 B(  7-C , 26-H ) :   0.9388 B(  7-C , 27-H ) :   0.9451
B(  7-C , 28-H ) :   0.9387 B(  8-S ,  9-C ) :   1.0147 B(  9-C , 10-S ) :   1.0040
B(  9-C , 29-H ) :   0.8635 B(  9-C , 30-H ) :   0.8737 B( 10-S , 11-P ) :   0.9580
B( 11-P , 12-S ) :   1.6320 B( 11-P , 13-O ) :   1.0650 B( 11-P , 16-O ) :   1.1268
B( 13-O , 14-C ) :   0.9003 B( 14-C , 15-C ) :   1.1626 B( 14-C , 31-H ) :   0.9324
B( 14-C , 32-H ) :   0.9092 B( 15-C , 33-H ) :   0.9445 B( 15-C , 34-H ) :   0.9401
B( 15-C , 35-H ) :   0.9370 B( 16-O , 17-C ) :   0.9060 B( 17-C , 18-C ) :   1.1622
B( 17-C , 36-H ) :   0.9341 B( 17-C , 37-H ) :   0.9168 B( 18-C , 38-H ) :   0.9355
B( 18-C , 39-H ) :   0.9312 B( 18-C , 40-H ) :   0.9408

Dispersion correction           -0.066859959
FINAL SINGLE POINT ENERGY     -2929.522696413067

DIPOLE MOMENT
-------------

Method             : SCF
Type of density    : Electron Density
Multiplicity       :   1
Irrep              :   0
Energy             : -2929.6419366375885147 Eh
Relativity type    :
Basis              : AO
                                X                 Y                 Z
Electronic contribution:      5.764098949       6.135351328     -11.688748663
Nuclear contribution   :     -6.252501118      -6.725508203      12.753348244
                        -----------------------------------------
Total Dipole Moment    :     -0.488402169      -0.590156875       1.064599581
                        -----------------------------------------
Magnitude (a.u.)       :      1.311561696
Magnitude (Debye)      :      3.333724896

Rotational constants in cm-1:             0.012542             0.005076             0.004637
Rotational constants in MHz :           375.996785           152.177974           139.024001

                             ****ORCA TERMINATED NORMALLY****
TOTAL RUN TIME: 0 days 0 hours 0 minutes 21 seconds 711 msec
