                         Program Version 6.0.0  -   RELEASE  -
|  1> ! r2scan-3c def2/J RI DEFGRID2 scfconv6 printgap
|  2> %output
|  3>     printlevel normal
|  4> end
|  5> * xyz 0 1
|  6> C 5.3719402952 -2.0672963454 -1.6995178392
|  7> C 4.2979860096 -1.0005976511 -1.7748172231
|  8> O 3.2832804652 -1.319911627 -0.8012013592
|  9> P 2.3453079259 -0.2124318279 -0.1545051611
| 10> S 3.2813544695 1.4169308369 0.4176557412
| 11> O 1.6166327315 -1.0372957171 0.9786579489
| 12> C 2.1678803828 -1.1497905328 2.3156968371
| 13> C 1.0485743768 -1.0037016457 3.325878185
| 14> S 0.805832898 0.0423340323 -1.5728003624
| 15> C 0.1355038754 1.5698063312 -0.8554564783
| 16> S -0.7824429161 1.2798249443 0.6674122906
| 17> P -2.4381578906 0.2997875251 -0.270875147
| 18> S -2.9675978905 1.0209116884 -2.009637033
| 19> O -3.512056368 0.2387938172 0.8967996213
| 20> C -3.9384880956 1.3606660163 1.6940916576
| 21> C -4.4538203269 2.5124303546 0.8573836156
| 22> O -2.0432956614 -1.2162376902 -0.4334704115
| 23> C -1.6665069411 -2.0674946096 0.6749827678
| 24> C -2.8140638734 -2.9843958448 1.0445068419
| 25> H 5.8281494134 -2.0698608785 -0.7135699796
| 26> H 4.9375737509 -3.0443146613 -1.8903067811
| 27> H 6.1321726402 -1.85925572 -2.4451957768
| 28> H 3.8250059487 -0.9769392633 -2.7598214047
| 29> H 4.7026056662 -0.0087277652 -1.5460121668
| 30> H 2.645969442 -2.1287702228 2.3813013972
| 31> H 2.9215295131 -0.3666512872 2.4501713289
| 32> H 0.3246395512 -1.8041352331 3.2053775656
| 33> H 1.4697664276 -1.0501094076 4.3250261049
| 34> H 0.5509281656 -0.0458382776 3.1933516856
| 35> H -0.5337603743 1.9970242896 -1.6033376411
| 36> H 0.9557261295 2.2466243488 -0.6144883478
| 37> H -4.7252284341 0.942435301 2.3243737584
| 38> H -3.0949599952 1.6797411797 2.312405257
| 39> H -3.6488518491 2.9290519053 0.2538085234
| 40> H -5.241722247 2.1736440693 0.1888592415
| 41> H -4.8435422366 3.2867092715 1.5102678634
| 42> H -0.7997085808 -2.6274875219 0.3167969015
| 43> H -1.3716681242 -1.4391220777 1.5195995704
| 44> H -3.1128975502 -3.5712813051 0.1804294961
| 45> H -2.4977601127 -3.6517387647 1.8400560526
| 46> H -3.6660404209 -2.3992137025 1.3807202701
| 47> *
| 48>
| 49>                          ****END OF INPUT****

CARTESIAN COORDINATES (ANGSTROEM)
---------------------------------
  C      5.371940   -2.067296   -1.699518
  C      4.297986   -1.000598   -1.774817
  O      3.283280   -1.319912   -0.801201
  P      2.345308   -0.212432   -0.154505
  S      3.281354    1.416931    0.417656
  O      1.616633   -1.037296    0.978658
  C      2.167880   -1.149791    2.315697
  C      1.048574   -1.003702    3.325878
  S      0.805833    0.042334   -1.572800
  C      0.135504    1.569806   -0.855456
  S     -0.782443    1.279825    0.667412
  P     -2.438158    0.299788   -0.270875
  S     -2.967598    1.020912   -2.009637
  O     -3.512056    0.238794    0.896800
  C     -3.938488    1.360666    1.694092
  C     -4.453820    2.512430    0.857384
  O     -2.043296   -1.216238   -0.433470
  C     -1.666507   -2.067495    0.674983
  C     -2.814064   -2.984396    1.044507
  H      5.828149   -2.069861   -0.713570
  H      4.937574   -3.044315   -1.890307
  H      6.132173   -1.859256   -2.445196
  H      3.825006   -0.976939   -2.759821
  H      4.702606   -0.008728   -1.546012
  H      2.645969   -2.128770    2.381301
  H      2.921530   -0.366651    2.450171
  H      0.324640   -1.804135    3.205378
  H      1.469766   -1.050109    4.325026
  H      0.550928   -0.045838    3.193352
  H     -0.533760    1.997024   -1.603338
  H      0.955726    2.246624   -0.614488
  H     -4.725228    0.942435    2.324374
  H     -3.094960    1.679741    2.312405
  H     -3.648852    2.929052    0.253809
  H     -5.241722    2.173644    0.188859
  H     -4.843542    3.286709    1.510268
  H     -0.799709   -2.627488    0.316797
  H     -1.371668   -1.439122    1.519600
  H     -3.112898   -3.571281    0.180429
  H     -2.497760   -3.651739    1.840056
  H     -3.666040   -2.399214    1.380720

 Total Charge           Charge          ....    0
 Multiplicity           Mult            ....    1
 Number of Electrons    NEL             ....  202
 Basis Dimension        Dim             ....  539

ORBITAL ENERGIES
----------------

  NO   OCC          E(Eh)            E(eV)
   0   2.0000     -88.576252     -2410.2824
   1   2.0000     -88.575355     -2410.2579
   2   2.0000     -88.521759     -2408.7995
   3   2.0000     -88.516138     -2408.6466
   4   2.0000     -76.915111     -2092.9666
   5   2.0000     -76.913596     -2092.9253
   6   2.0000     -18.997480      -516.9477
   7   2.0000     -18.994339      -516.8622
   8   2.0000     -18.994332      -516.8620
   9   2.0000     -18.987731      -516.6824
  10   2.0000     -10.107660      -275.0434
  11   2.0000     -10.102743      -274.9096
  12   2.0000     -10.102058      -274.8910
  13   2.0000     -10.099550      -274.8227
  14   2.0000     -10.098111      -274.7836
  15   2.0000     -10.036576      -273.1091
  16   2.0000     -10.034234      -273.0454
  17   2.0000     -10.030479      -272.9432
  18   2.0000     -10.029056      -272.9045
  19   2.0000      -7.870322      -214.1624
  20   2.0000      -7.869787      -214.1478
  21   2.0000      -7.816651      -212.7019
  22   2.0000      -7.810955      -212.5469
  23   2.0000      -6.593828      -179.4272
  24   2.0000      -6.591917      -179.3752
  25   2.0000      -5.817234      -158.2950
  26   2.0000      -5.816500      -158.2750
  27   2.0000      -5.814207      -158.2126
  28   2.0000      -5.813569      -158.1953
  29   2.0000      -5.807424      -158.0280
  30   2.0000      -5.807126      -158.0199
  31   2.0000      -5.764152      -156.8505
  32   2.0000      -5.758769      -156.7041
  33   2.0000      -5.756927      -156.6540
  34   2.0000      -5.756767      -156.6496
  35   2.0000      -5.751218      -156.4986
  36   2.0000      -5.750811      -156.4875
  37   2.0000      -4.739310      -128.9632
  38   2.0000      -4.738728      -128.9473
  39   2.0000      -4.737764      -128.9211
  40   2.0000      -4.737543      -128.9151
  41   2.0000      -4.737124      -128.9037
  42   2.0000      -4.735093      -128.8484
  43   2.0000      -1.052834       -28.6491
  44   2.0000      -1.052117       -28.6296
  45   2.0000      -1.012909       -27.5627
  46   2.0000      -1.010766       -27.5044
  47   2.0000      -0.802978       -21.8501
  48   2.0000      -0.762323       -20.7439
  49   2.0000      -0.753145       -20.4941
  50   2.0000      -0.736676       -20.0460
  51   2.0000      -0.736207       -20.0332
  52   2.0000      -0.711529       -19.3617
  53   2.0000      -0.684731       -18.6325
  54   2.0000      -0.669202       -18.2099
  55   2.0000      -0.629256       -17.1229
  56   2.0000      -0.622034       -16.9264
  57   2.0000      -0.607345       -16.5267
  58   2.0000      -0.605398       -16.4737
  59   2.0000      -0.593832       -16.1590
  60   2.0000      -0.538329       -14.6487
  61   2.0000      -0.525166       -14.2905
  62   2.0000      -0.502820       -13.6824
  63   2.0000      -0.494500       -13.4560
  64   2.0000      -0.478450       -13.0193
  65   2.0000      -0.465077       -12.6554
  66   2.0000      -0.459514       -12.5040
  67   2.0000      -0.455532       -12.3957
  68   2.0000      -0.452645       -12.3171
  69   2.0000      -0.432887       -11.7795
  70   2.0000      -0.428287       -11.6543
  71   2.0000      -0.413843       -11.2612
  72   2.0000      -0.412708       -11.2304
  73   2.0000      -0.401780       -10.9330
  74   2.0000      -0.398153       -10.8343
  75   2.0000      -0.392775       -10.6879
  76   2.0000      -0.378241       -10.2925
  77   2.0000      -0.375760       -10.2250
  78   2.0000      -0.372851       -10.1458
  79   2.0000      -0.369508       -10.0548
  80   2.0000      -0.364804        -9.9268
  81   2.0000      -0.361452        -9.8356
  82   2.0000      -0.359346        -9.7783
  83   2.0000      -0.355015        -9.6604
  84   2.0000      -0.352110        -9.5814
  85   2.0000      -0.336016        -9.1435
  86   2.0000      -0.328300        -8.9335
  87   2.0000      -0.316653        -8.6166
  88   2.0000      -0.313843        -8.5401
  89   2.0000      -0.307531        -8.3684
  90   2.0000      -0.303707        -8.2643
  91   2.0000      -0.297120        -8.0850
  92   2.0000      -0.291774        -7.9396
  93   2.0000      -0.280362        -7.6290
  94   2.0000      -0.271889        -7.3985
  95   2.0000      -0.248141        -6.7523
  96   2.0000      -0.233318        -6.3489
  97   2.0000      -0.224730        -6.1152
  98   2.0000      -0.216432        -5.8894
  99   2.0000      -0.213088        -5.7984
 100   2.0000      -0.210964        -5.7406
 101   0.0000      -0.046208        -1.2574
 102   0.0000      -0.024926        -0.6783
 103   0.0000      -0.005027        -0.1368
 104   0.0000       0.000304         0.0083
 105   0.0000       0.013344         0.3631

MULLIKEN ATOMIC CHARGES
-----------------------
   0 C :   -0.444608
   1 C :   -0.143728
   2 O :   -0.297458
   3 P :    0.692319
   4 S :   -0.501422
   5 O :   -0.255654
   6 C :   -0.117639
   7 C :   -0.479520
   8 S :   -0.114507
   9 C :   -0.237908
  10 S :   -0.178924
  11 P :    0.646356
  12 S :   -0.429165
  13 O :   -0.295431
  14 C :   -0.163092
  15 C :   -0.424625
  16 O :   -0.258131
  17 C :   -0.100147
  18 C :   -0.479737
  19 H :    0.155947
  20 H :    0.153995
  21 H :    0.147639
  22 H :    0.151498
  23 H :    0.170642
  24 H :    0.150751
  25 H :    0.171183
  26 H :    0.148821
  27 H :    0.148382
  28 H :    0.173941
  29 H :    0.217667
  30 H :    0.216498
  31 H :    0.149587
  32 H :    0.151490
  33 H :    0.170846
  34 H :    0.164810
  35 H :    0.146492
  36 H :    0.169983
  37 H :    0.155175
  38 H :    0.159664
  39 H :    0.143926
  40 H :    0.164082
Sum of atomic charges:   -0.0000000

LOEWDIN ATOMIC CHARGES
----------------------
   0 C :   -0.386195
   1 C :    0.021926
   2 O :   -0.662345
   3 P :    0.369672
   4 S :   -0.147523
   5 O :   -0.668007
   6 C :    0.023667
   7 C :   -0.396489
   8 S :    0.188056
   9 C :   -0.423889
  10 S :    0.129613
  11 P :    0.381092
  12 S :   -0.100483
  13 O :   -0.667988
  14 C :    0.023659
  15 C :   -0.405085
  16 O :   -0.653659
  17 C :    0.017412
  18 C :   -0.392087
  19 H :    0.160295
  20 H :    0.159679
  21 H :    0.160419
  22 H :    0.172245
  23 H :    0.181412
  24 H :    0.172604
  25 H :    0.183643
  26 H :    0.154919
  27 H :    0.160098
  28 H :    0.165788
  29 H :    0.193954
  30 H :    0.192853
  31 H :    0.180941
  32 H :    0.171669
  33 H :    0.167614
  34 H :    0.166021
  35 H :    0.158528
  36 H :    0.185187
  37 H :    0.176288
  38 H :    0.162675
  39 H :    0.157472
  40 H :    0.164347

  Mayer bond orders larger than 0.100000
B(  0-C ,  1-C ) :   0.9576 B(  0-C , 19-H ) :   0.9721 B(  0-C , 20-H ) :   0.9716
B(  0-C , 21-H ) :   0.9645 B(  1-C ,  2-O ) :   0.7743 B(  1-C , 22-H ) :   0.9457
B(  1-C , 23-H ) :   0.9521 B(  2-O ,  3-P ) :   1.0873 B(  3-P ,  4-S ) :   1.7266
B(  3-P ,  5-O ) :   1.1632 B(  3-P ,  8-S ) :   1.0964 B(  5-O ,  6-C ) :   0.7609
B(  6-C ,  7-C ) :   0.9488 B(  6-C , 24-H ) :   0.9498 B(  6-C , 25-H ) :   0.9543
B(  7-C , 26-H ) :   0.9729 B(  7-C , 27-H ) :   0.9630 B(  7-C , 28-H ) :   0.9698
B(  8-S ,  9-C ) :   0.9216 B(  9-C , 10-S ) :   0.9196 B(  9-C , 29-H ) :   0.9029
B(  9-C , 30-H ) :   0.9029 B( 10-S , 11-P ) :   0.9903 B( 11-P , 12-S ) :   1.8677
B( 11-P , 13-O ) :   1.0393 B( 11-P , 16-O ) :   1.1351 B( 13-O , 14-C ) :   0.8035
B( 14-C , 15-C ) :   0.9445 B( 14-C , 31-H ) :   0.9586 B( 14-C , 32-H ) :   0.9608
B( 15-C , 33-H ) :   0.9536 B( 15-C , 34-H ) :   0.9656 B( 15-C , 35-H ) :   0.9616
B( 16-O , 17-C ) :   0.7397 B( 17-C , 18-C ) :   0.9360 B( 17-C , 36-H ) :   0.9546
B( 17-C , 37-H ) :   0.9644 B( 18-C , 38-H ) :   0.9724 B( 18-C , 39-H ) :   0.9670
B( 18-C , 40-H ) :   0.9712

Dispersion correction           -0.021144233
FINAL SINGLE POINT ENERGY     -2932.461417378499

DIPOLE MOMENT
-------------

Method             : SCF
Type of density    : Electron Density
Multiplicity       :   1
Irrep              :   0
Energy             : -2932.4867763951797315 Eh
Relativity type    :
Basis              : AO
                                X                 Y                 Z
Electronic contribution:     -0.467226001      10.336982651     -13.760512732
Nuclear contribution   :      0.774560791     -11.295652792      15.294182324
                        -----------------------------------------
Total Dipole Moment    :      0.307334790      -0.958670141       1.533669592
                        -----------------------------------------
Magnitude (a.u.)       :      1.834569576
Magnitude (Debye)      :      4.663105280

Rotational constants in cm-1:             0.012770             0.004626             0.004416
Rotational constants in MHz :           382.842707           138.693137           132.387256

                             ****ORCA TERMINATED NORMALLY****
TOTAL RUN TIME: 0 days 0 hours 1 minutes 17 seconds 210 msec
