                         Program Version 6.0.0  -   RELEASE  -
|  1> ! r2scan-3c def2/J RI DEFGRID2 scfconv6 printgap
|  2> %output
|  3>     printlevel normal
|  4> end
|  5> %cpcm
|  6>     smd true
|  7>     smdsolvent "water"
|  8> end
|  9> * xyz 0 1
| 10> C 5.3719402952 -2.0672963454 -1.6995178392
| 11> C 4.2979860096 -1.0005976511 -1.7748172231
| 12> O 3.2832804652 -1.319911627 -0.8012013592
| 13> P 2.3453079259 -0.2124318279 -0.1545051611
| 14> S 3.2813544695 1.4169308369 0.4176557412
| 15> O 1.6166327315 -1.0372957171 0.9786579489
| 16> C 2.1678803828 -1.1497905328 2.3156968371
| 17> C 1.0485743768 -1.0037016457 3.325878185
| 18> S 0.805832898 0.0423340323 -1.5728003624
| 19> C 0.1355038754 1.5698063312 -0.8554564783
| 20> S -0.7824429161 1.2798249443 0.6674122906
| 21> P -2.4381578906 0.2997875251 -0.270875147
| 22> S -2.9675978905 1.0209116884 -2.009637033
| 23> O -3.512056368 0.2387938172 0.8967996213
| 24> C -3.9384880956 1.3606660163 1.6940916576
| 25> C -4.4538203269 2.5124303546 0.8573836156
| 26> O -2.0432956614 -1.2162376902 -0.4334704115
| 27> C -1.6665069411 -2.0674946096 0.6749827678
| 28> C -2.8140638734 -2.9843958448 1.0445068419
| 29> H 5.8281494134 -2.0698608785 -0.7135699796
| 30> H 4.9375737509 -3.0443146613 -1.8903067811
| 31> H 6.1321726402 -1.85925572 -2.4451957768
| 32> H 3.8250059487 -0.9769392633 -2.7598214047
| 33> H 4.7026056662 -0.0087277652 -1.5460121668
| 34> H 2.645969442 -2.1287702228 2.3813013972
| 35> H 2.9215295131 -0.3666512872 2.4501713289
| 36> H 0.3246395512 -1.8041352331 3.2053775656
| 37> H 1.4697664276 -1.0501094076 4.3250261049
| 38> H 0.5509281656 -0.0458382776 3.1933516856
| 39> H -0.5337603743 1.9970242896 -1.6033376411
| 40> H 0.9557261295 2.2466243488 -0.6144883478
| 41> H -4.7252284341 0.942435301 2.3243737584
| 42> H -3.0949599952 1.6797411797 2.312405257
| 43> H -3.6488518491 2.9290519053 0.2538085234
| 44> H -5.241722247 2.1736440693 0.1888592415
| 45> H -4.8435422366 3.2867092715 1.5102678634
| 46> H -0.7997085808 -2.6274875219 0.3167969015
| 47> H -1.3716681242 -1.4391220777 1.5195995704
| 48> H -3.1128975502 -3.5712813051 0.1804294961
| 49> H -2.4977601127 -3.6517387647 1.8400560526
| 50> H -3.6660404209 -2.3992137025 1.3807202701
| 51> *
| 52>
| 53>                          ****END OF INPUT****

CARTESIAN COORDINATES (ANGSTROEM)
---------------------------------
  C      5.371940   -2.067296   -1.699518
  C      4.297986   -1.000598   -1.774817
  O      3.283280   -1.319912   -0.801201
  P      2.345308   -0.212432   -0.154505
  S      3.281354    1.416931    0.417656
  O      1.616633   -1.037296    0.978658
  C      2.167880   -1.149791    2.315697
  C      1.048574   -1.003702    3.325878
  S      0.805833    0.042334   -1.572800
  C      0.135504    1.569806   -0.855456
  S     -0.782443    1.279825    0.667412
  P     -2.438158    0.299788   -0.270875
  S     -2.967598    1.020912   -2.009637
  O     -3.512056    0.238794    0.896800
  C     -3.938488    1.360666    1.694092
  C     -4.453820    2.512430    0.857384
  O     -2.043296   -1.216238   -0.433470
  C     -1.666507   -2.067495    0.674983
  C     -2.814064   -2.984396    1.044507
  H      5.828149   -2.069861   -0.713570
  H      4.937574   -3.044315   -1.890307
  H      6.132173   -1.859256   -2.445196
  H      3.825006   -0.976939   -2.759821
  H      4.702606   -0.008728   -1.546012
  H      2.645969   -2.128770    2.381301
  H      2.921530   -0.366651    2.450171
  H      0.324640   -1.804135    3.205378
  H      1.469766   -1.050109    4.325026
  H      0.550928   -0.045838    3.193352
  H     -0.533760    1.997024   -1.603338
  H      0.955726    2.246624   -0.614488
  H     -4.725228    0.942435    2.324374
  H     -3.094960    1.679741    2.312405
  H     -3.648852    2.929052    0.253809
  H     -5.241722    2.173644    0.188859
  H     -4.843542    3.286709    1.510268
  H     -0.799709   -2.627488    0.316797
  H     -1.371668   -1.439122    1.519600
  H     -3.112898   -3.571281    0.180429
  H     -2.497760   -3.651739    1.840056
  H     -3.666040   -2.399214    1.380720

 Total Charge           Charge          ....    0
 Multiplicity           Mult            ....    1
 Number of Electrons    NEL             ....  202
 Basis Dimension        Dim             ....  539

ORBITAL ENERGIES
----------------

  NO   OCC          E(Eh)            E(eV)
   0   2.0000     -88.581817     -2410.4338
   1   2.0000     -88.578839     -2410.3528
   2   2.0000     -88.528540     -2408.9840
   3   2.0000     -88.528072     -2408.9713
   4   2.0000     -76.920735     -2093.1196
   5   2.0000     -76.919662     -2093.0904
   6   2.0000     -18.997804      -516.9565
   7   2.0000     -18.996016      -516.9079
   8   2.0000     -18.994304      -516.8613
   9   2.0000     -18.993526      -516.8401
  10   2.0000     -10.104462      -274.9564
  11   2.0000     -10.094094      -274.6743
  12   2.0000     -10.090420      -274.5743
  13   2.0000     -10.089896      -274.5600
  14   2.0000     -10.089392      -274.5463
  15   2.0000     -10.019537      -272.6455
  16   2.0000     -10.018933      -272.6290
  17   2.0000     -10.018460      -272.6162
  18   2.0000     -10.018383      -272.6141
  19   2.0000      -7.876011      -214.3172
  20   2.0000      -7.873191      -214.2404
  21   2.0000      -7.823705      -212.8938
  22   2.0000      -7.823290      -212.8826
  23   2.0000      -6.599094      -179.5705
  24   2.0000      -6.598372      -179.5508
  25   2.0000      -5.822868      -158.4483
  26   2.0000      -5.819942      -158.3687
  27   2.0000      -5.819868      -158.3667
  28   2.0000      -5.817006      -158.2888
  29   2.0000      -5.813193      -158.1850
  30   2.0000      -5.810467      -158.1108
  31   2.0000      -5.771156      -157.0411
  32   2.0000      -5.770962      -157.0359
  33   2.0000      -5.763981      -156.8459
  34   2.0000      -5.763822      -156.8416
  35   2.0000      -5.763565      -156.8346
  36   2.0000      -5.763198      -156.8246
  37   2.0000      -4.744860      -129.1142
  38   2.0000      -4.744265      -129.0980
  39   2.0000      -4.743780      -129.0848
  40   2.0000      -4.743276      -129.0711
  41   2.0000      -4.742430      -129.0481
  42   2.0000      -4.742197      -129.0417
  43   2.0000      -1.055124       -28.7114
  44   2.0000      -1.052694       -28.6453
  45   2.0000      -1.013072       -27.5671
  46   2.0000      -1.012583       -27.5538
  47   2.0000      -0.806323       -21.9412
  48   2.0000      -0.757992       -20.6260
  49   2.0000      -0.746749       -20.3201
  50   2.0000      -0.727103       -19.7855
  51   2.0000      -0.724202       -19.7065
  52   2.0000      -0.710645       -19.3376
  53   2.0000      -0.688458       -18.7339
  54   2.0000      -0.675431       -18.3794
  55   2.0000      -0.625324       -17.0159
  56   2.0000      -0.617937       -16.8149
  57   2.0000      -0.601795       -16.3757
  58   2.0000      -0.597672       -16.2635
  59   2.0000      -0.589880       -16.0514
  60   2.0000      -0.533727       -14.5235
  61   2.0000      -0.521171       -14.1818
  62   2.0000      -0.497717       -13.5436
  63   2.0000      -0.489722       -13.3260
  64   2.0000      -0.478566       -13.0225
  65   2.0000      -0.460643       -12.5347
  66   2.0000      -0.454269       -12.3613
  67   2.0000      -0.448601       -12.2071
  68   2.0000      -0.444879       -12.1058
  69   2.0000      -0.430352       -11.7105
  70   2.0000      -0.424151       -11.5417
  71   2.0000      -0.411873       -11.2076
  72   2.0000      -0.408003       -11.1023
  73   2.0000      -0.398903       -10.8547
  74   2.0000      -0.392441       -10.6789
  75   2.0000      -0.388345       -10.5674
  76   2.0000      -0.377325       -10.2675
  77   2.0000      -0.368205       -10.0194
  78   2.0000      -0.362966        -9.8768
  79   2.0000      -0.359760        -9.7896
  80   2.0000      -0.356342        -9.6965
  81   2.0000      -0.352378        -9.5887
  82   2.0000      -0.349185        -9.5018
  83   2.0000      -0.348046        -9.4708
  84   2.0000      -0.345717        -9.4074
  85   2.0000      -0.332865        -9.0577
  86   2.0000      -0.323092        -8.7918
  87   2.0000      -0.312328        -8.4989
  88   2.0000      -0.308681        -8.3996
  89   2.0000      -0.305043        -8.3006
  90   2.0000      -0.300843        -8.1864
  91   2.0000      -0.294113        -8.0032
  92   2.0000      -0.288468        -7.8496
  93   2.0000      -0.279811        -7.6140
  94   2.0000      -0.273461        -7.4413
  95   2.0000      -0.252805        -6.8792
  96   2.0000      -0.240014        -6.5311
  97   2.0000      -0.233064        -6.3420
  98   2.0000      -0.225510        -6.1364
  99   2.0000      -0.223181        -6.0731
 100   2.0000      -0.221703        -6.0328
 101   0.0000      -0.052021        -1.4156
 102   0.0000      -0.031954        -0.8695
 103   0.0000      -0.008499        -0.2313
 104   0.0000      -0.004939        -0.1344
 105   0.0000       0.012830         0.3491

MULLIKEN ATOMIC CHARGES
-----------------------
   0 C :   -0.484544
   1 C :   -0.138265
   2 O :   -0.320832
   3 P :    0.720170
   4 S :   -0.543774
   5 O :   -0.278099
   6 C :   -0.112979
   7 C :   -0.507973
   8 S :   -0.141601
   9 C :   -0.243809
  10 S :   -0.169956
  11 P :    0.667161
  12 S :   -0.493989
  13 O :   -0.313072
  14 C :   -0.162245
  15 C :   -0.463358
  16 O :   -0.289189
  17 C :   -0.092903
  18 C :   -0.525788
  19 H :    0.166309
  20 H :    0.165992
  21 H :    0.169688
  22 H :    0.172116
  23 H :    0.170852
  24 H :    0.174450
  25 H :    0.169794
  26 H :    0.170934
  27 H :    0.169617
  28 H :    0.171169
  29 H :    0.231866
  30 H :    0.234544
  31 H :    0.178432
  32 H :    0.172529
  33 H :    0.164927
  34 H :    0.170443
  35 H :    0.173621
  36 H :    0.182222
  37 H :    0.176211
  38 H :    0.168139
  39 H :    0.171423
  40 H :    0.169766
Sum of atomic charges:   -0.0000000

LOEWDIN ATOMIC CHARGES
----------------------
   0 C :   -0.389953
   1 C :    0.025924
   2 O :   -0.673477
   3 P :    0.374330
   4 S :   -0.175115
   5 O :   -0.677305
   6 C :    0.029998
   7 C :   -0.398044
   8 S :    0.170248
   9 C :   -0.420210
  10 S :    0.141572
  11 P :    0.384170
  12 S :   -0.148972
  13 O :   -0.672025
  14 C :    0.031814
  15 C :   -0.408937
  16 O :   -0.677728
  17 C :    0.022825
  18 C :   -0.393987
  19 H :    0.162580
  20 H :    0.163102
  21 H :    0.168972
  22 H :    0.180305
  23 H :    0.181793
  24 H :    0.182926
  25 H :    0.183428
  26 H :    0.162927
  27 H :    0.168031
  28 H :    0.163964
  29 H :    0.197819
  30 H :    0.197902
  31 H :    0.193419
  32 H :    0.179830
  33 H :    0.162142
  34 H :    0.164539
  35 H :    0.168781
  36 H :    0.190218
  37 H :    0.184599
  38 H :    0.163913
  39 H :    0.168878
  40 H :    0.164806

  Mayer bond orders larger than 0.100000
B(  0-C ,  1-C ) :   0.9538 B(  0-C , 19-H ) :   0.9693 B(  0-C , 20-H ) :   0.9687
B(  0-C , 21-H ) :   0.9588 B(  1-C ,  2-O ) :   0.7661 B(  1-C , 22-H ) :   0.9373
B(  1-C , 23-H ) :   0.9494 B(  2-O ,  3-P ) :   1.0954 B(  3-P ,  4-S ) :   1.6953
B(  3-P ,  5-O ) :   1.1761 B(  3-P ,  8-S ) :   1.1026 B(  5-O ,  6-C ) :   0.7499
B(  6-C ,  7-C ) :   0.9475 B(  6-C , 24-H ) :   0.9398 B(  6-C , 25-H ) :   0.9530
B(  7-C , 26-H ) :   0.9667 B(  7-C , 27-H ) :   0.9582 B(  7-C , 28-H ) :   0.9682
B(  8-S ,  9-C ) :   0.9075 B(  9-C , 10-S ) :   0.9083 B(  9-C , 29-H ) :   0.8990
B(  9-C , 30-H ) :   0.8999 B( 10-S , 11-P ) :   1.0025 B( 11-P , 12-S ) :   1.8303
B( 11-P , 13-O ) :   1.0609 B( 11-P , 16-O ) :   1.1419 B( 13-O , 14-C ) :   0.7917
B( 14-C , 15-C ) :   0.9218 B( 14-C , 31-H ) :   0.9487 B( 14-C , 32-H ) :   0.9570
B( 15-C , 33-H ) :   0.9574 B( 15-C , 34-H ) :   0.9669 B( 15-C , 35-H ) :   0.9558
B( 16-O , 17-C ) :   0.7243 B( 17-C , 18-C ) :   0.9344 B( 17-C , 36-H ) :   0.9462
B( 17-C , 37-H ) :   0.9522 B( 18-C , 38-H ) :   0.9716 B( 18-C , 39-H ) :   0.9594
B( 18-C , 40-H ) :   0.9699

Dispersion correction           -0.021144233
FINAL SINGLE POINT ENERGY     -2932.471883376918

DIPOLE MOMENT
-------------

Method             : SCF
Type of density    : Electron Density
Multiplicity       :   1
Irrep              :   0
Energy             : -2932.4972423935987536 Eh
Relativity type    :
Basis              : AO
                                X                 Y                 Z
Electronic contribution:     -0.293344476      10.141402736     -12.965694426
Nuclear contribution   :      0.774560791     -11.295652792      15.294182324
                        -----------------------------------------
Total Dipole Moment    :      0.481216315      -1.154250056       2.328487898
                        -----------------------------------------
Magnitude (a.u.)       :      2.643050932
Magnitude (Debye)      :      6.718101572

Rotational constants in cm-1:             0.012770             0.004626             0.004416
Rotational constants in MHz :           382.842707           138.693137           132.387256

                             ****ORCA TERMINATED NORMALLY****
TOTAL RUN TIME: 0 days 0 hours 1 minutes 50 seconds 464 msec
