                         Program Version 6.0.1  -  RELEASE   -
|  1> ! pbe def2-sv(p) def2/J RI DEFGRID1 loosescf d4 GCP(DFT/SV(P)) printgap
|  2> %output
|  3>     printlevel normal
|  4> end
|  5> * xyz 0 1
|  6> C 1.9299613234 -3.0565192378 0.3316658513
|  7> C 2.9883323311 -2.0063938291 0.0347793714
|  8> O 2.3776846226 -0.8345734567 -0.5384647354
|  9> C 2.2488738691 -0.7725529978 -1.8546674328
| 10> O 2.7169124247 -1.5784217318 -2.624656528
| 11> C 1.4597612424 0.4479859288 -2.2879728129
| 12> C 0.326424456 0.7597200649 -1.3182649714
| 13> H -0.2672387298 1.6037622793 -1.6847646932
| 14> C 0.8190929794 1.1116326377 0.0716255184
| 15> O 0.3020532847 0.6563148033 1.0728022685
| 16> O 1.7798096195 1.9910583149 0.0518684594
| 17> C 2.2922503533 2.4703807555 1.3148110528
| 18> C 3.2760689324 1.4850291157 1.9218053063
| 19> S -0.789633529 -0.6772563305 -1.1515002725
| 20> P -2.1019054625 0.1072984443 0.3382378699
| 21> S -2.2896116892 2.0437105691 0.5572172525
| 22> O -3.4935690342 -0.4225004821 -0.2377949678
| 23> C -3.7590404431 -1.809652331 -0.4998285832
| 24> O -2.014907681 -0.8104872961 1.6448582241
| 25> C -1.3937960733 -0.4940381812 2.8898360795
| 26> H 1.4762622373 -3.401465317 -0.5947996635
| 27> H 2.3866289394 -3.8981485275 0.8414532102
| 28> H 1.1506195571 -2.633211143 0.9612588378
| 29> H 3.7340032919 -2.3889305625 -0.6673826239
| 30> H 3.4704552984 -1.6555482129 0.9478687063
| 31> H 1.0697268742 0.2579278869 -3.2875241535
| 32> H 2.1362539679 1.3048634193 -2.32574848
| 33> H 2.7743326211 3.4139860135 1.0602249747
| 34> H 1.4464289868 2.6444876707 1.9857471901
| 35> H 2.7685962133 0.5554417345 2.1665921134
| 36> H 4.079694511 1.2780961022 1.2203282685
| 37> H 3.6919196565 1.910224286 2.8291979131
| 38> H -4.7431299439 -1.8289591572 -0.9611861994
| 39> H -3.7571142216 -2.3715967299 0.4324396214
| 40> H -3.0079950134 -2.2111191021 -1.1813832299
| 41> H -1.9788006344 -1.0101690769 3.6482125721
| 42> H -1.4118724713 0.5825607315 3.0593143541
| 43> H -0.3639728704 -0.8449251458 2.8865124418
| 44> *
| 45>
| 46>                          ****END OF INPUT****

CARTESIAN COORDINATES (ANGSTROEM)
---------------------------------
  C      1.929961   -3.056519    0.331666
  C      2.988332   -2.006394    0.034779
  O      2.377685   -0.834573   -0.538465
  C      2.248874   -0.772553   -1.854667
  O      2.716912   -1.578422   -2.624657
  C      1.459761    0.447986   -2.287973
  C      0.326424    0.759720   -1.318265
  H     -0.267239    1.603762   -1.684765
  C      0.819093    1.111633    0.071626
  O      0.302053    0.656315    1.072802
  O      1.779810    1.991058    0.051868
  C      2.292250    2.470381    1.314811
  C      3.276069    1.485029    1.921805
  S     -0.789634   -0.677256   -1.151500
  P     -2.101905    0.107298    0.338238
  S     -2.289612    2.043711    0.557217
  O     -3.493569   -0.422500   -0.237795
  C     -3.759040   -1.809652   -0.499829
  O     -2.014908   -0.810487    1.644858
  C     -1.393796   -0.494038    2.889836
  H      1.476262   -3.401465   -0.594800
  H      2.386629   -3.898149    0.841453
  H      1.150620   -2.633211    0.961259
  H      3.734003   -2.388931   -0.667383
  H      3.470455   -1.655548    0.947869
  H      1.069727    0.257928   -3.287524
  H      2.136254    1.304863   -2.325748
  H      2.774333    3.413986    1.060225
  H      1.446429    2.644488    1.985747
  H      2.768596    0.555442    2.166592
  H      4.079695    1.278096    1.220328
  H      3.691920    1.910224    2.829198
  H     -4.743130   -1.828959   -0.961186
  H     -3.757114   -2.371597    0.432440
  H     -3.007995   -2.211119   -1.181383
  H     -1.978801   -1.010169    3.648213
  H     -1.411872    0.582561    3.059314
  H     -0.363973   -0.844925    2.886512

 Total Charge           Charge          ....    0
 Multiplicity           Mult            ....    1
 Number of Electrons    NEL             ....  174
 Basis Dimension        Dim             ....  316

ORBITAL ENERGIES
----------------

  NO   OCC          E(Eh)            E(eV)
   0   2.0000     -88.034764     -2395.5477
   1   2.0000     -87.969685     -2393.7768
   2   2.0000     -76.419481     -2079.4798
   3   2.0000     -18.822290      -512.1806
   4   2.0000     -18.812901      -511.9251
   5   2.0000     -18.784112      -511.1417
   6   2.0000     -18.773661      -510.8573
   7   2.0000     -18.755213      -510.3553
   8   2.0000     -18.744293      -510.0582
   9   2.0000     -10.028243      -272.8824
  10   2.0000     -10.019068      -272.6327
  11   2.0000      -9.961170      -271.0572
  12   2.0000      -9.953955      -270.8609
  13   2.0000      -9.951778      -270.8016
  14   2.0000      -9.939579      -270.4697
  15   2.0000      -9.936356      -270.3820
  16   2.0000      -9.921968      -269.9905
  17   2.0000      -9.897945      -269.3368
  18   2.0000      -9.888297      -269.0743
  19   2.0000      -7.679553      -208.9713
  20   2.0000      -7.615189      -207.2198
  21   2.0000      -6.415215      -174.5669
  22   2.0000      -5.707428      -155.3070
  23   2.0000      -5.704422      -155.2252
  24   2.0000      -5.696197      -155.0014
  25   2.0000      -5.644619      -153.5979
  26   2.0000      -5.635983      -153.3629
  27   2.0000      -5.634585      -153.3249
  28   2.0000      -4.638052      -126.2078
  29   2.0000      -4.637078      -126.1813
  30   2.0000      -4.635764      -126.1455
  31   2.0000      -1.032636       -28.0995
  32   2.0000      -1.018290       -27.7091
  33   2.0000      -0.972599       -26.4658
  34   2.0000      -0.936275       -25.4773
  35   2.0000      -0.927074       -25.2270
  36   2.0000      -0.923056       -25.1176
  37   2.0000      -0.772212       -21.0130
  38   2.0000      -0.716740       -19.5035
  39   2.0000      -0.712479       -19.3875
  40   2.0000      -0.690856       -18.7991
  41   2.0000      -0.657260       -17.8850
  42   2.0000      -0.630794       -17.1648
  43   2.0000      -0.629476       -17.1289
  44   2.0000      -0.607671       -16.5356
  45   2.0000      -0.600949       -16.3527
  46   2.0000      -0.575146       -15.6505
  47   2.0000      -0.512563       -13.9476
  48   2.0000      -0.507398       -13.8070
  49   2.0000      -0.504382       -13.7249
  50   2.0000      -0.488065       -13.2809
  51   2.0000      -0.471154       -12.8207
  52   2.0000      -0.467797       -12.7294
  53   2.0000      -0.448057       -12.1922
  54   2.0000      -0.446723       -12.1560
  55   2.0000      -0.437462       -11.9039
  56   2.0000      -0.427635       -11.6365
  57   2.0000      -0.420749       -11.4492
  58   2.0000      -0.412239       -11.2176
  59   2.0000      -0.410985       -11.1835
  60   2.0000      -0.402674       -10.9573
  61   2.0000      -0.398740       -10.8503
  62   2.0000      -0.392277       -10.6744
  63   2.0000      -0.386939       -10.5292
  64   2.0000      -0.381688       -10.3863
  65   2.0000      -0.372303       -10.1309
  66   2.0000      -0.367384        -9.9970
  67   2.0000      -0.359951        -9.7948
  68   2.0000      -0.352996        -9.6055
  69   2.0000      -0.348364        -9.4795
  70   2.0000      -0.337589        -9.1863
  71   2.0000      -0.332355        -9.0438
  72   2.0000      -0.329420        -8.9640
  73   2.0000      -0.312192        -8.4952
  74   2.0000      -0.310761        -8.4562
  75   2.0000      -0.298083        -8.1113
  76   2.0000      -0.293945        -7.9986
  77   2.0000      -0.288331        -7.8459
  78   2.0000      -0.281096        -7.6490
  79   2.0000      -0.266854        -7.2615
  80   2.0000      -0.260264        -7.0821
  81   2.0000      -0.253396        -6.8953
  82   2.0000      -0.242454        -6.5975
  83   2.0000      -0.230114        -6.2617
  84   2.0000      -0.210551        -5.7294
  85   2.0000      -0.193280        -5.2594
  86   2.0000      -0.182774        -4.9735
  87   0.0000      -0.048304        -1.3144
  88   0.0000      -0.037706        -1.0260
  89   0.0000      -0.022510        -0.6125
  90   0.0000      -0.001241        -0.0338
  91   0.0000       0.023727         0.6456

MULLIKEN ATOMIC CHARGES
-----------------------
   0 C :   -0.306819
   1 C :   -0.020999
   2 O :   -0.241138
   3 C :    0.107104
   4 O :   -0.187976
   5 C :   -0.088983
   6 C :   -0.298220
   7 H :    0.158672
   8 C :    0.248386
   9 O :   -0.204505
  10 O :   -0.223746
  11 C :   -0.009491
  12 C :   -0.319394
  13 S :   -0.119530
  14 P :    0.643558
  15 S :   -0.337501
  16 O :   -0.369367
  17 C :   -0.112444
  18 O :   -0.398302
  19 C :   -0.086710
  20 H :    0.125005
  21 H :    0.110828
  22 H :    0.129394
  23 H :    0.113001
  24 H :    0.104680
  25 H :    0.128544
  26 H :    0.142026
  27 H :    0.108842
  28 H :    0.118992
  29 H :    0.136001
  30 H :    0.118135
  31 H :    0.117300
  32 H :    0.128955
  33 H :    0.117383
  34 H :    0.118900
  35 H :    0.115054
  36 H :    0.115380
  37 H :    0.118985
Sum of atomic charges:   -0.0000000

LOEWDIN ATOMIC CHARGES
----------------------
   0 C :   -0.356117
   1 C :   -0.109882
   2 O :   -0.053291
   3 C :    0.028325
   4 O :   -0.154550
   5 C :   -0.245438
   6 C :   -0.263263
   7 H :    0.149207
   8 C :    0.018692
   9 O :   -0.162145
  10 O :   -0.036968
  11 C :   -0.103048
  12 C :   -0.357374
  13 S :    0.086629
  14 P :    0.588709
  15 S :   -0.332964
  16 O :   -0.255873
  17 C :   -0.214573
  18 O :   -0.254597
  19 C :   -0.207478
  20 H :    0.130083
  21 H :    0.129109
  22 H :    0.127198
  23 H :    0.121712
  24 H :    0.115426
  25 H :    0.146600
  26 H :    0.154796
  27 H :    0.121496
  28 H :    0.125268
  29 H :    0.128802
  30 H :    0.126001
  31 H :    0.133004
  32 H :    0.124640
  33 H :    0.112118
  34 H :    0.103803
  35 H :    0.115118
  36 H :    0.111310
  37 H :    0.109518

  Mayer bond orders larger than 0.100000
B(  0-C ,  1-C ) :   1.1789 B(  0-C , 20-H ) :   0.9444 B(  0-C , 21-H ) :   0.9421
B(  0-C , 22-H ) :   0.9426 B(  1-C ,  2-O ) :   0.9088 B(  1-C , 23-H ) :   0.9115
B(  1-C , 24-H ) :   0.9294 B(  2-O ,  3-C ) :   1.1969 B(  3-C ,  4-O ) :   2.0788
B(  3-C ,  5-C ) :   1.0038 B(  5-C ,  6-C ) :   1.0616 B(  5-C , 25-H ) :   0.9046
B(  5-C , 26-H ) :   0.8779 B(  6-C ,  7-H ) :   0.8525 B(  6-C ,  8-C ) :   0.8816
B(  6-C , 13-S ) :   1.0495 B(  8-C ,  9-O ) :   1.9252 B(  8-C , 10-O ) :   1.2708
B(  9-O , 14-P ) :   0.1049 B( 10-O , 11-C ) :   0.9075 B( 11-C , 12-C ) :   1.1720
B( 11-C , 27-H ) :   0.9372 B( 11-C , 28-H ) :   0.9190 B( 12-C , 29-H ) :   0.9372
B( 12-C , 30-H ) :   0.9455 B( 12-C , 31-H ) :   0.9408 B( 13-S , 14-P ) :   0.9191
B( 13-S , 15-S ) :   0.1067 B( 14-P , 15-S ) :   1.6022 B( 14-P , 16-O ) :   1.1014
B( 14-P , 18-O ) :   1.0839 B( 16-O , 17-C ) :   0.9365 B( 17-C , 32-H ) :   0.9607
B( 17-C , 33-H ) :   0.9460 B( 17-C , 34-H ) :   0.9361 B( 18-O , 19-C ) :   0.9323
B( 19-C , 35-H ) :   0.9532 B( 19-C , 36-H ) :   0.9407 B( 19-C , 37-H ) :   0.9484

Dispersion correction           -0.054151533
FINAL SINGLE POINT ENERGY     -1979.011187404018

DIPOLE MOMENT
-------------

Method             : SCF
Type of density    : Electron Density
Multiplicity       :   1
Irrep              :   0
Energy             : -1979.1419046838577742 Eh
Relativity type    :
Basis              : AO
                                X                 Y                 Z
Electronic contribution:    -14.380078864       7.850854494      -9.380579480
Nuclear contribution   :     15.740620837      -8.305481854      10.341084164
                        -----------------------------------------
Total Dipole Moment    :      1.360541973      -0.454627360       0.960504685
                        -----------------------------------------
Magnitude (a.u.)       :      1.726363156
Magnitude (Debye)      :      4.388066417

Rotational constants in cm-1:             0.013252             0.007999             0.006801
Rotational constants in MHz :           397.272066           239.801134           203.881162

                             ****ORCA TERMINATED NORMALLY****
TOTAL RUN TIME: 0 days 0 hours 0 minutes 32 seconds 101 msec
