                         Program Version 6.0.0  -   RELEASE  -
|  1> ! pbe def2-sv(p) def2/J RI DEFGRID1 loosescf d4 GCP(DFT/SV(P)) printgap
|  2> %output
|  3>     printlevel normal
|  4> end
|  5> * xyz 0 1
|  6> C 4.5656053705 -1.7122979275 -0.6761225822
|  7> C 4.6416769865 -0.2540682527 -0.2718108439
|  8> O 3.4874139832 0.1664312211 0.4750808782
|  9> P 2.0415704952 0.2914170734 -0.1775016518
| 10> S 2.0408588357 0.9561690275 -2.0255852089
| 11> O 1.2898809015 1.1524809487 0.9191432272
| 12> C 1.27828795 2.5921101809 0.906562801
| 13> C 2.6536204896 3.1781490917 1.1425876151
| 14> S 1.2010386859 -1.6025425972 0.1815029419
| 15> C 0.0060694644 -1.7110359068 -1.1971366911
| 16> S -1.6953119128 -1.9389818456 -0.6377576124
| 17> P -2.0141870186 0.0127645099 0.1399055399
| 18> S -1.4337751939 1.5000495634 -0.9911675931
| 19> O -1.3060557749 0.0386156374 1.547795521
| 20> C -1.4542845229 -0.9705070694 2.5773727187
| 21> C -2.6107595449 -0.6493137828 3.5006085375
| 22> O -3.5583533405 0.0153490908 0.5164327581
| 23> C -4.5875352849 0.3714313787 -0.4241553452
| 24> C -4.7242821065 -0.6424602269 -1.5412866074
| 25> H 4.3566586065 -2.3348471342 0.1901370317
| 26> H 3.7738715905 -1.853118702 -1.4105903149
| 27> H 5.5111601893 -2.0107602546 -1.117281941
| 28> H 4.7303813522 0.3840485644 -1.1570307391
| 29> H 5.4740591764 -0.0668031611 0.4078553738
| 30> H 0.868392327 2.9258655525 -0.0530104729
| 31> H 0.579620622 2.8498605281 1.7043455628
| 32> H 3.0876992581 2.7628066099 2.0484109443
| 33> H 3.3043037072 2.9481578376 0.2996594609
| 34> H 2.5699583912 4.2561763853 1.2390545405
| 35> H 0.2489513411 -2.5931772428 -1.783601115
| 36> H 0.0834452992 -0.8022018114 -1.800486624
| 37> H -1.5870203994 -1.9461744712 2.1010091282
| 38> H -0.4984931143 -0.948362807 3.1049353605
| 39> H -2.489596735 0.3458411443 3.9199387007
| 40> H -3.5507887233 -0.6895897792 2.9572517548
| 41> H -2.6301168659 -1.3775283801 4.3054776943
| 42> H -5.4900113532 0.4217637368 0.1866785751
| 43> H -4.3566801731 1.3619082891 -0.8283794725
| 44> H -4.8207590124 -1.6453572219 -1.1332021455
| 45> H -5.6036834052 -0.4061641987 -2.1317740789
| 46> H -3.84841798 -0.6082987281 -2.187078154
| 47> *
| 48>
| 49>                          ****END OF INPUT****

CARTESIAN COORDINATES (ANGSTROEM)
---------------------------------
  C      4.565605   -1.712298   -0.676123
  C      4.641677   -0.254068   -0.271811
  O      3.487414    0.166431    0.475081
  P      2.041570    0.291417   -0.177502
  S      2.040859    0.956169   -2.025585
  O      1.289881    1.152481    0.919143
  C      1.278288    2.592110    0.906563
  C      2.653620    3.178149    1.142588
  S      1.201039   -1.602543    0.181503
  C      0.006069   -1.711036   -1.197137
  S     -1.695312   -1.938982   -0.637758
  P     -2.014187    0.012765    0.139906
  S     -1.433775    1.500050   -0.991168
  O     -1.306056    0.038616    1.547796
  C     -1.454285   -0.970507    2.577373
  C     -2.610760   -0.649314    3.500609
  O     -3.558353    0.015349    0.516433
  C     -4.587535    0.371431   -0.424155
  C     -4.724282   -0.642460   -1.541287
  H      4.356659   -2.334847    0.190137
  H      3.773872   -1.853119   -1.410590
  H      5.511160   -2.010760   -1.117282
  H      4.730381    0.384049   -1.157031
  H      5.474059   -0.066803    0.407855
  H      0.868392    2.925866   -0.053010
  H      0.579621    2.849861    1.704346
  H      3.087699    2.762807    2.048411
  H      3.304304    2.948158    0.299659
  H      2.569958    4.256176    1.239055
  H      0.248951   -2.593177   -1.783601
  H      0.083445   -0.802202   -1.800487
  H     -1.587020   -1.946174    2.101009
  H     -0.498493   -0.948363    3.104935
  H     -2.489597    0.345841    3.919939
  H     -3.550789   -0.689590    2.957252
  H     -2.630117   -1.377528    4.305478
  H     -5.490011    0.421764    0.186679
  H     -4.356680    1.361908   -0.828379
  H     -4.820759   -1.645357   -1.133202
  H     -5.603683   -0.406164   -2.131774
  H     -3.848418   -0.608299   -2.187078

 Total Charge           Charge          ....    0
 Multiplicity           Mult            ....    1
 Number of Electrons    NEL             ....  202
 Basis Dimension        Dim             ....  334

ORBITAL ENERGIES
----------------

  NO   OCC          E(Eh)            E(eV)
   0   2.0000     -88.044832     -2395.8217
   1   2.0000     -88.040395     -2395.7009
   2   2.0000     -87.982590     -2394.1280
   3   2.0000     -87.981392     -2394.0954
   4   2.0000     -76.424280     -2079.6104
   5   2.0000     -76.420485     -2079.5071
   6   2.0000     -18.795385      -511.4484
   7   2.0000     -18.788217      -511.2534
   8   2.0000     -18.788208      -511.2531
   9   2.0000     -18.778363      -510.9852
  10   2.0000      -9.954942      -270.8877
  11   2.0000      -9.953809      -270.8569
  12   2.0000      -9.950486      -270.7665
  13   2.0000      -9.948539      -270.7135
  14   2.0000      -9.937813      -270.4216
  15   2.0000      -9.885199      -268.9899
  16   2.0000      -9.883904      -268.9547
  17   2.0000      -9.881185      -268.8807
  18   2.0000      -9.875423      -268.7239
  19   2.0000      -7.689854      -209.2516
  20   2.0000      -7.685554      -209.1346
  21   2.0000      -7.627461      -207.5538
  22   2.0000      -7.626342      -207.5233
  23   2.0000      -6.421788      -174.7457
  24   2.0000      -6.418064      -174.6444
  25   2.0000      -5.717626      -155.5845
  26   2.0000      -5.714188      -155.4910
  27   2.0000      -5.713418      -155.4700
  28   2.0000      -5.710139      -155.3808
  29   2.0000      -5.707095      -155.2980
  30   2.0000      -5.702383      -155.1697
  31   2.0000      -5.656338      -153.9168
  32   2.0000      -5.655300      -153.8885
  33   2.0000      -5.648289      -153.6977
  34   2.0000      -5.647491      -153.6760
  35   2.0000      -5.646820      -153.6578
  36   2.0000      -5.646572      -153.6510
  37   2.0000      -4.644665      -126.3878
  38   2.0000      -4.643579      -126.3582
  39   2.0000      -4.641939      -126.3136
  40   2.0000      -4.640312      -126.2693
  41   2.0000      -4.639676      -126.2520
  42   2.0000      -4.638967      -126.2327
  43   2.0000      -0.986721       -26.8501
  44   2.0000      -0.979601       -26.6563
  45   2.0000      -0.944442       -25.6996
  46   2.0000      -0.936916       -25.4948
  47   2.0000      -0.761872       -20.7316
  48   2.0000      -0.718481       -19.5509
  49   2.0000      -0.706106       -19.2141
  50   2.0000      -0.689727       -18.7684
  51   2.0000      -0.682378       -18.5684
  52   2.0000      -0.672226       -18.2922
  53   2.0000      -0.649216       -17.6661
  54   2.0000      -0.632340       -17.2069
  55   2.0000      -0.600187       -16.3319
  56   2.0000      -0.590463       -16.0673
  57   2.0000      -0.573893       -15.6164
  58   2.0000      -0.565663       -15.3925
  59   2.0000      -0.559265       -15.2184
  60   2.0000      -0.497663       -13.5421
  61   2.0000      -0.485480       -13.2106
  62   2.0000      -0.473721       -12.8906
  63   2.0000      -0.465071       -12.6552
  64   2.0000      -0.449782       -12.2392
  65   2.0000      -0.443859       -12.0780
  66   2.0000      -0.440909       -11.9977
  67   2.0000      -0.434140       -11.8136
  68   2.0000      -0.427240       -11.6258
  69   2.0000      -0.415635       -11.3100
  70   2.0000      -0.411721       -11.2035
  71   2.0000      -0.391180       -10.6445
  72   2.0000      -0.386247       -10.5103
  73   2.0000      -0.383609       -10.4385
  74   2.0000      -0.379495       -10.3266
  75   2.0000      -0.376786       -10.2529
  76   2.0000      -0.365865        -9.9557
  77   2.0000      -0.356662        -9.7053
  78   2.0000      -0.351797        -9.5729
  79   2.0000      -0.349686        -9.5154
  80   2.0000      -0.346490        -9.4285
  81   2.0000      -0.342501        -9.3199
  82   2.0000      -0.337602        -9.1866
  83   2.0000      -0.335734        -9.1358
  84   2.0000      -0.331331        -9.0160
  85   2.0000      -0.314958        -8.5705
  86   2.0000      -0.307080        -8.3561
  87   2.0000      -0.294599        -8.0164
  88   2.0000      -0.290728        -7.9111
  89   2.0000      -0.289429        -7.8758
  90   2.0000      -0.274570        -7.4714
  91   2.0000      -0.269531        -7.3343
  92   2.0000      -0.264396        -7.1946
  93   2.0000      -0.260908        -7.0997
  94   2.0000      -0.256977        -6.9927
  95   2.0000      -0.236702        -6.4410
  96   2.0000      -0.218711        -5.9514
  97   2.0000      -0.214327        -5.8321
  98   2.0000      -0.203444        -5.5360
  99   2.0000      -0.193822        -5.2742
 100   2.0000      -0.186255        -5.0683
 101   0.0000      -0.038466        -1.0467
 102   0.0000      -0.029400        -0.8000
 103   0.0000      -0.010668        -0.2903
 104   0.0000       0.014179         0.3858
 105   0.0000       0.024601         0.6694

MULLIKEN ATOMIC CHARGES
-----------------------
   0 C :   -0.308751
   1 C :   -0.003300
   2 O :   -0.375494
   3 P :    0.613012
   4 S :   -0.319608
   5 O :   -0.353148
   6 C :   -0.001680
   7 C :   -0.302360
   8 S :   -0.095741
   9 C :   -0.355890
  10 S :   -0.105479
  11 P :    0.601346
  12 S :   -0.301475
  13 O :   -0.343165
  14 C :   -0.011518
  15 C :   -0.289500
  16 O :   -0.379804
  17 C :   -0.000451
  18 C :   -0.321525
  19 H :    0.116311
  20 H :    0.120539
  21 H :    0.110829
  22 H :    0.109056
  23 H :    0.103173
  24 H :    0.122568
  25 H :    0.100785
  26 H :    0.111955
  27 H :    0.119054
  28 H :    0.108817
  29 H :    0.182918
  30 H :    0.210552
  31 H :    0.101616
  32 H :    0.109251
  33 H :    0.116715
  34 H :    0.120663
  35 H :    0.108192
  36 H :    0.104436
  37 H :    0.113142
  38 H :    0.116763
  39 H :    0.115114
  40 H :    0.132081
Sum of atomic charges:   -0.0000000

LOEWDIN ATOMIC CHARGES
----------------------
   0 C :   -0.369211
   1 C :   -0.120170
   2 O :   -0.245892
   3 P :    0.571694
   4 S :   -0.312197
   5 O :   -0.231128
   6 C :   -0.118499
   7 C :   -0.365963
   8 S :    0.085029
   9 C :   -0.479092
  10 S :    0.079087
  11 P :    0.565865
  12 S :   -0.291903
  13 O :   -0.225804
  14 C :   -0.118843
  15 C :   -0.361129
  16 O :   -0.246907
  17 C :   -0.117741
  18 C :   -0.371735
  19 H :    0.123330
  20 H :    0.119576
  21 H :    0.129681
  22 H :    0.109266
  23 H :    0.117613
  24 H :    0.109341
  25 H :    0.117943
  26 H :    0.123822
  27 H :    0.120709
  28 H :    0.128865
  29 H :    0.137104
  30 H :    0.127092
  31 H :    0.100423
  32 H :    0.119861
  33 H :    0.127271
  34 H :    0.124525
  35 H :    0.128846
  36 H :    0.118124
  37 H :    0.112902
  38 H :    0.122887
  39 H :    0.132246
  40 H :    0.123111

  Mayer bond orders larger than 0.100000
B(  0-C ,  1-C ) :   1.1676 B(  0-C , 19-H ) :   0.9440 B(  0-C , 20-H ) :   0.9370
B(  0-C , 21-H ) :   0.9381 B(  1-C ,  2-O ) :   0.9127 B(  1-C , 22-H ) :   0.9142
B(  1-C , 23-H ) :   0.9341 B(  2-O ,  3-P ) :   1.0955 B(  3-P ,  4-S ) :   1.5940
B(  3-P ,  5-O ) :   1.1493 B(  3-P ,  8-S ) :   0.9615 B(  4-S ,  8-S ) :   0.1154
B(  5-O ,  6-C ) :   0.9047 B(  6-C ,  7-C ) :   1.1572 B(  6-C , 24-H ) :   0.9135
B(  6-C , 25-H ) :   0.9361 B(  7-C , 26-H ) :   0.9449 B(  7-C , 27-H ) :   0.9378
B(  7-C , 28-H ) :   0.9393 B(  8-S ,  9-C ) :   0.9931 B(  9-C , 10-S ) :   1.0021
B(  9-C , 29-H ) :   0.9117 B(  9-C , 30-H ) :   0.8481 B( 10-S , 11-P ) :   0.9434
B( 10-S , 12-S ) :   0.1043 B( 11-P , 12-S ) :   1.6428 B( 11-P , 13-O ) :   1.1498
B( 11-P , 16-O ) :   1.0837 B( 13-O , 14-C ) :   0.8944 B( 14-C , 15-C ) :   1.1621
B( 14-C , 31-H ) :   0.9084 B( 14-C , 32-H ) :   0.9334 B( 15-C , 33-H ) :   0.9478
B( 15-C , 34-H ) :   0.9403 B( 15-C , 35-H ) :   0.9397 B( 16-O , 17-C ) :   0.9052
B( 17-C , 18-C ) :   1.1664 B( 17-C , 36-H ) :   0.9339 B( 17-C , 37-H ) :   0.9160
B( 18-C , 38-H ) :   0.9439 B( 18-C , 39-H ) :   0.9373 B( 18-C , 40-H ) :   0.9345

Dispersion correction           -0.068137485
FINAL SINGLE POINT ENERGY     -2929.521147168033

DIPOLE MOMENT
-------------

Method             : SCF
Type of density    : Electron Density
Multiplicity       :   1
Irrep              :   0
Energy             : -2929.6390476713354474 Eh
Relativity type    :
Basis              : AO
                                X                 Y                 Z
Electronic contribution:     -0.012124781      -1.407688703      -7.578974856
Nuclear contribution   :     -0.298340185       0.693782650       8.499724479
                        -----------------------------------------
Total Dipole Moment    :     -0.310464966      -0.713906053       0.920749623
                        -----------------------------------------
Magnitude (a.u.)       :      1.205748820
Magnitude (Debye)      :      3.064769938

Rotational constants in cm-1:             0.012823             0.005237             0.005092
Rotational constants in MHz :           384.429126           156.998272           152.653516

                             ****ORCA TERMINATED NORMALLY****
TOTAL RUN TIME: 0 days 0 hours 0 minutes 22 seconds 866 msec
