                         Program Version 6.0.0  -   RELEASE  -
|  1> ! r2scan-3c def2/J RI DEFGRID2 scfconv6 printgap
|  2> %output
|  3>     printlevel normal
|  4> end
|  5> * xyz 0 1
|  6> C 4.9854834259 -2.6964282672 -0.7770855055
|  7> C 4.0361810824 -1.5947991688 -1.2029240054
|  8> O 3.051638532 -1.4355870022 -0.1619081795
|  9> P 2.1239681429 -0.1523451061 -0.0773555716
| 10> S 3.051013518 1.5760035156 -0.196491282
| 11> O 1.317540254 -0.4389580346 1.2519181324
| 12> C 1.6689173502 0.1791812858 2.5078163442
| 13> C 2.9793966603 -0.3603700447 3.0392008277
| 14> S 0.6623164705 -0.5121943468 -1.566000127
| 15> C -0.0264202416 1.1648550076 -1.5580637426
| 16> S -0.8495030818 1.5718536578 -0.0041186322
| 17> P -2.6698695188 0.4976813085 -0.3287275123
| 18> S -3.182370524 0.3659796999 -2.21276264
| 19> O -3.7195049096 1.291305468 0.5348178171
| 20> C -3.8974428361 1.1747172905 1.9696354395
| 21> C -2.6315762193 1.4793684712 2.7406479481
| 22> O -2.5721175397 -0.8925317285 0.4444933048
| 23> C -2.2046958781 -2.1479630381 -0.1632577824
| 24> C -1.152510688 -2.830970629 0.6867243734
| 25> H 4.4316148996 -3.6147786737 -0.6064609634
| 26> H 5.7181258045 -2.8578883573 -1.5609176499
| 27> H 5.4969923441 -2.4175524236 0.1396060544
| 28> H 3.5163485834 -1.8513028106 -2.1300944989
| 29> H 4.5584787982 -0.64169847 -1.3382885941
| 30> H 1.7216021164 1.2622285579 2.3593776645
| 31> H 0.8324026144 -0.0635717929 3.1640713992
| 32> H 3.7887858494 -0.0872544401 2.3628654025
| 33> H 3.1770418853 0.0676672963 4.01683862
| 34> H 2.9367991301 -1.4434020318 3.1169510601
| 35> H -0.745932187 1.2162358857 -2.376372697
| 36> H 0.7807567148 1.8857479858 -1.6868629966
| 37> H -4.6837366939 1.9011822401 2.1796097458
| 38> H -4.2533317963 0.1656644901 2.1858480021
| 39> H -2.2457265901 2.4588829786 2.4679846221
| 40> H -2.8498326604 1.4630029387 3.8039629925
| 41> H -1.871622829 0.7316354126 2.5215619609
| 42> H -3.1199417452 -2.7430168491 -0.2090277661
| 43> H -1.8490165358 -1.971352007 -1.1828283131
| 44> H -0.9215078806 -3.7968160413 0.2496156966
| 45> H -0.2439181196 -2.2353451565 0.7247281177
| 46> H -1.5245660568 -2.9721710427 1.6973421473
| 47> *
| 48>
| 49>                          ****END OF INPUT****

CARTESIAN COORDINATES (ANGSTROEM)
---------------------------------
  C      4.985483   -2.696428   -0.777086
  C      4.036181   -1.594799   -1.202924
  O      3.051639   -1.435587   -0.161908
  P      2.123968   -0.152345   -0.077356
  S      3.051014    1.576004   -0.196491
  O      1.317540   -0.438958    1.251918
  C      1.668917    0.179181    2.507816
  C      2.979397   -0.360370    3.039201
  S      0.662316   -0.512194   -1.566000
  C     -0.026420    1.164855   -1.558064
  S     -0.849503    1.571854   -0.004119
  P     -2.669870    0.497681   -0.328728
  S     -3.182371    0.365980   -2.212763
  O     -3.719505    1.291305    0.534818
  C     -3.897443    1.174717    1.969635
  C     -2.631576    1.479368    2.740648
  O     -2.572118   -0.892532    0.444493
  C     -2.204696   -2.147963   -0.163258
  C     -1.152511   -2.830971    0.686724
  H      4.431615   -3.614779   -0.606461
  H      5.718126   -2.857888   -1.560918
  H      5.496992   -2.417552    0.139606
  H      3.516349   -1.851303   -2.130094
  H      4.558479   -0.641698   -1.338289
  H      1.721602    1.262229    2.359378
  H      0.832403   -0.063572    3.164071
  H      3.788786   -0.087254    2.362865
  H      3.177042    0.067667    4.016839
  H      2.936799   -1.443402    3.116951
  H     -0.745932    1.216236   -2.376373
  H      0.780757    1.885748   -1.686863
  H     -4.683737    1.901182    2.179610
  H     -4.253332    0.165664    2.185848
  H     -2.245727    2.458883    2.467985
  H     -2.849833    1.463003    3.803963
  H     -1.871623    0.731635    2.521562
  H     -3.119942   -2.743017   -0.209028
  H     -1.849017   -1.971352   -1.182828
  H     -0.921508   -3.796816    0.249616
  H     -0.243918   -2.235345    0.724728
  H     -1.524566   -2.972171    1.697342

 Total Charge           Charge          ....    0
 Multiplicity           Mult            ....    1
 Number of Electrons    NEL             ....  202
 Basis Dimension        Dim             ....  539

ORBITAL ENERGIES
----------------

  NO   OCC          E(Eh)            E(eV)
   0   2.0000     -88.577461     -2410.3153
   1   2.0000     -88.570942     -2410.1379
   2   2.0000     -88.525353     -2408.8973
   3   2.0000     -88.516895     -2408.6672
   4   2.0000     -76.918145     -2093.0491
   5   2.0000     -76.913978     -2092.9357
   6   2.0000     -18.998454      -516.9742
   7   2.0000     -18.995561      -516.8955
   8   2.0000     -18.992571      -516.8141
   9   2.0000     -18.989788      -516.7384
  10   2.0000     -10.107406      -275.0365
  11   2.0000     -10.103810      -274.9387
  12   2.0000     -10.102602      -274.9058
  13   2.0000     -10.100841      -274.8579
  14   2.0000     -10.094929      -274.6970
  15   2.0000     -10.038806      -273.1698
  16   2.0000     -10.037754      -273.1412
  17   2.0000     -10.032730      -273.0045
  18   2.0000     -10.024647      -272.7845
  19   2.0000      -7.871814      -214.2029
  20   2.0000      -7.865223      -214.0236
  21   2.0000      -7.820042      -212.7941
  22   2.0000      -7.811754      -212.5686
  23   2.0000      -6.596857      -179.5096
  24   2.0000      -6.592041      -179.3786
  25   2.0000      -5.818561      -158.3311
  26   2.0000      -5.815686      -158.2529
  27   2.0000      -5.812231      -158.1588
  28   2.0000      -5.809061      -158.0726
  29   2.0000      -5.809021      -158.0715
  30   2.0000      -5.802280      -157.8881
  31   2.0000      -5.767632      -156.9453
  32   2.0000      -5.760315      -156.7461
  33   2.0000      -5.760122      -156.7409
  34   2.0000      -5.759430      -156.7221
  35   2.0000      -5.752067      -156.5217
  36   2.0000      -5.751680      -156.5112
  37   2.0000      -4.742210      -129.0421
  38   2.0000      -4.741822      -129.0315
  39   2.0000      -4.740641      -128.9994
  40   2.0000      -4.738006      -128.9277
  41   2.0000      -4.736624      -128.8901
  42   2.0000      -4.735725      -128.8656
  43   2.0000      -1.056358       -28.7450
  44   2.0000      -1.049947       -28.5705
  45   2.0000      -1.017361       -27.6838
  46   2.0000      -1.007822       -27.4242
  47   2.0000      -0.801459       -21.8088
  48   2.0000      -0.762956       -20.7611
  49   2.0000      -0.754587       -20.5333
  50   2.0000      -0.737900       -20.0793
  51   2.0000      -0.735979       -20.0270
  52   2.0000      -0.711485       -19.3605
  53   2.0000      -0.685989       -18.6667
  54   2.0000      -0.667643       -18.1675
  55   2.0000      -0.634894       -17.2763
  56   2.0000      -0.627746       -17.0818
  57   2.0000      -0.607967       -16.5436
  58   2.0000      -0.604379       -16.4460
  59   2.0000      -0.590952       -16.0806
  60   2.0000      -0.534079       -14.5330
  61   2.0000      -0.525035       -14.2869
  62   2.0000      -0.502389       -13.6707
  63   2.0000      -0.495872       -13.4934
  64   2.0000      -0.478055       -13.0086
  65   2.0000      -0.467965       -12.7340
  66   2.0000      -0.461151       -12.5486
  67   2.0000      -0.457750       -12.4560
  68   2.0000      -0.444806       -12.1038
  69   2.0000      -0.441597       -12.0165
  70   2.0000      -0.428524       -11.6607
  71   2.0000      -0.418252       -11.3812
  72   2.0000      -0.404920       -11.0184
  73   2.0000      -0.402166       -10.9435
  74   2.0000      -0.399868       -10.8810
  75   2.0000      -0.391468       -10.6524
  76   2.0000      -0.384331       -10.4582
  77   2.0000      -0.378264       -10.2931
  78   2.0000      -0.376828       -10.2540
  79   2.0000      -0.368429       -10.0255
  80   2.0000      -0.366607        -9.9759
  81   2.0000      -0.364938        -9.9305
  82   2.0000      -0.360060        -9.7977
  83   2.0000      -0.355960        -9.6862
  84   2.0000      -0.347215        -9.4482
  85   2.0000      -0.338534        -9.2120
  86   2.0000      -0.325976        -8.8703
  87   2.0000      -0.320305        -8.7159
  88   2.0000      -0.316354        -8.6084
  89   2.0000      -0.305729        -8.3193
  90   2.0000      -0.303661        -8.2630
  91   2.0000      -0.295023        -8.0280
  92   2.0000      -0.290288        -7.8991
  93   2.0000      -0.281920        -7.6714
  94   2.0000      -0.269390        -7.3305
  95   2.0000      -0.248207        -6.7540
  96   2.0000      -0.231190        -6.2910
  97   2.0000      -0.228330        -6.2132
  98   2.0000      -0.218142        -5.9359
  99   2.0000      -0.215851        -5.8736
 100   2.0000      -0.209573        -5.7028
 101   0.0000      -0.048547        -1.3210
 102   0.0000      -0.024791        -0.6746
 103   0.0000      -0.004109        -0.1118
 104   0.0000      -0.001570        -0.0427
 105   0.0000       0.011718         0.3189

MULLIKEN ATOMIC CHARGES
-----------------------
   0 C :   -0.437609
   1 C :   -0.158289
   2 O :   -0.284154
   3 P :    0.678329
   4 S :   -0.479081
   5 O :   -0.263776
   6 C :   -0.147403
   7 C :   -0.450125
   8 S :   -0.161570
   9 C :   -0.229480
  10 S :   -0.128781
  11 P :    0.635401
  12 S :   -0.455233
  13 O :   -0.285911
  14 C :   -0.090437
  15 C :   -0.520005
  16 O :   -0.277084
  17 C :   -0.103796
  18 C :   -0.471517
  19 H :    0.153969
  20 H :    0.148558
  21 H :    0.154970
  22 H :    0.153385
  23 H :    0.170989
  24 H :    0.177675
  25 H :    0.149635
  26 H :    0.171394
  27 H :    0.148133
  28 H :    0.156466
  29 H :    0.217996
  30 H :    0.220345
  31 H :    0.152904
  32 H :    0.159798
  33 H :    0.173965
  34 H :    0.154734
  35 H :    0.179940
  36 H :    0.149747
  37 H :    0.165518
  38 H :    0.144930
  39 H :    0.180033
  40 H :    0.145437
Sum of atomic charges:   -0.0000000

LOEWDIN ATOMIC CHARGES
----------------------
   0 C :   -0.384754
   1 C :    0.021519
   2 O :   -0.663355
   3 P :    0.372041
   4 S :   -0.129788
   5 O :   -0.685199
   6 C :    0.016383
   7 C :   -0.399375
   8 S :    0.153673
   9 C :   -0.427008
  10 S :    0.154504
  11 P :    0.389578
  12 S :   -0.108505
  13 O :   -0.646686
  14 C :    0.034208
  15 C :   -0.409507
  16 O :   -0.674024
  17 C :    0.017648
  18 C :   -0.400083
  19 H :    0.160260
  20 H :    0.160777
  21 H :    0.160301
  22 H :    0.172676
  23 H :    0.180695
  24 H :    0.182285
  25 H :    0.179262
  26 H :    0.166420
  27 H :    0.160179
  28 H :    0.160429
  29 H :    0.195090
  30 H :    0.191798
  31 H :    0.183512
  32 H :    0.176677
  33 H :    0.165135
  34 H :    0.161338
  35 H :    0.165959
  36 H :    0.173726
  37 H :    0.180793
  38 H :    0.159669
  39 H :    0.175551
  40 H :    0.156199

  Mayer bond orders larger than 0.100000
B(  0-C ,  1-C ) :   0.9563 B(  0-C , 19-H ) :   0.9714 B(  0-C , 20-H ) :   0.9641
B(  0-C , 21-H ) :   0.9711 B(  1-C ,  2-O ) :   0.7781 B(  1-C , 22-H ) :   0.9453
B(  1-C , 23-H ) :   0.9511 B(  2-O ,  3-P ) :   1.0928 B(  3-P ,  4-S ) :   1.7574
B(  3-P ,  5-O ) :   1.1468 B(  3-P ,  8-S ) :   1.0553 B(  5-O ,  6-C ) :   0.7821
B(  6-C ,  7-C ) :   0.9250 B(  6-C , 24-H ) :   0.9604 B(  6-C , 25-H ) :   0.9601
B(  7-C , 26-H ) :   0.9589 B(  7-C , 27-H ) :   0.9621 B(  7-C , 28-H ) :   0.9725
B(  8-S ,  9-C ) :   0.8974 B(  9-C , 10-S ) :   0.9049 B(  9-C , 29-H ) :   0.8996
B(  9-C , 30-H ) :   0.9098 B( 10-S , 11-P ) :   1.0008 B( 11-P , 12-S ) :   1.8436
B( 11-P , 13-O ) :   1.1646 B( 11-P , 16-O ) :   1.0335 B( 13-O , 14-C ) :   0.8022
B( 14-C , 15-C ) :   0.8962 B( 14-C , 31-H ) :   0.9537 B( 14-C , 32-H ) :   0.9751
B( 15-C , 33-H ) :   0.9660 B( 15-C , 34-H ) :   0.9532 B( 15-C , 35-H ) :   0.9675
B( 16-O , 17-C ) :   0.7408 B( 17-C , 18-C ) :   0.9364 B( 17-C , 36-H ) :   0.9571
B( 17-C , 37-H ) :   0.9558 B( 18-C , 38-H ) :   0.9697 B( 18-C , 39-H ) :   0.9571
B( 18-C , 40-H ) :   0.9713

Dispersion correction           -0.021628980
FINAL SINGLE POINT ENERGY     -2932.461323686861

DIPOLE MOMENT
-------------

Method             : SCF
Type of density    : Electron Density
Multiplicity       :   1
Irrep              :   0
Energy             : -2932.4862591566902665 Eh
Relativity type    :
Basis              : AO
                                X                 Y                 Z
Electronic contribution:    -11.626588511      13.776677046     -17.497428547
Nuclear contribution   :     12.336215212     -15.000156222      19.177835385
                        -----------------------------------------
Total Dipole Moment    :      0.709626701      -1.223479176       1.680406838
                        -----------------------------------------
Magnitude (a.u.)       :      2.196414917
Magnitude (Debye)      :      5.582843044

Rotational constants in cm-1:             0.012398             0.004994             0.004678
Rotational constants in MHz :           371.682431           149.706280           140.244566

                             ****ORCA TERMINATED NORMALLY****
TOTAL RUN TIME: 0 days 0 hours 1 minutes 21 seconds 623 msec
