                         Program Version 6.0.0  -   RELEASE  -
|  1> ! r2scan-3c def2/J RI DEFGRID2 scfconv6 printgap
|  2> %output
|  3>     printlevel normal
|  4> end
|  5> %cpcm
|  6>     smd true
|  7>     smdsolvent "water"
|  8> end
|  9> * xyz 0 1
| 10> C 4.9854834259 -2.6964282672 -0.7770855055
| 11> C 4.0361810824 -1.5947991688 -1.2029240054
| 12> O 3.051638532 -1.4355870022 -0.1619081795
| 13> P 2.1239681429 -0.1523451061 -0.0773555716
| 14> S 3.051013518 1.5760035156 -0.196491282
| 15> O 1.317540254 -0.4389580346 1.2519181324
| 16> C 1.6689173502 0.1791812858 2.5078163442
| 17> C 2.9793966603 -0.3603700447 3.0392008277
| 18> S 0.6623164705 -0.5121943468 -1.566000127
| 19> C -0.0264202416 1.1648550076 -1.5580637426
| 20> S -0.8495030818 1.5718536578 -0.0041186322
| 21> P -2.6698695188 0.4976813085 -0.3287275123
| 22> S -3.182370524 0.3659796999 -2.21276264
| 23> O -3.7195049096 1.291305468 0.5348178171
| 24> C -3.8974428361 1.1747172905 1.9696354395
| 25> C -2.6315762193 1.4793684712 2.7406479481
| 26> O -2.5721175397 -0.8925317285 0.4444933048
| 27> C -2.2046958781 -2.1479630381 -0.1632577824
| 28> C -1.152510688 -2.830970629 0.6867243734
| 29> H 4.4316148996 -3.6147786737 -0.6064609634
| 30> H 5.7181258045 -2.8578883573 -1.5609176499
| 31> H 5.4969923441 -2.4175524236 0.1396060544
| 32> H 3.5163485834 -1.8513028106 -2.1300944989
| 33> H 4.5584787982 -0.64169847 -1.3382885941
| 34> H 1.7216021164 1.2622285579 2.3593776645
| 35> H 0.8324026144 -0.0635717929 3.1640713992
| 36> H 3.7887858494 -0.0872544401 2.3628654025
| 37> H 3.1770418853 0.0676672963 4.01683862
| 38> H 2.9367991301 -1.4434020318 3.1169510601
| 39> H -0.745932187 1.2162358857 -2.376372697
| 40> H 0.7807567148 1.8857479858 -1.6868629966
| 41> H -4.6837366939 1.9011822401 2.1796097458
| 42> H -4.2533317963 0.1656644901 2.1858480021
| 43> H -2.2457265901 2.4588829786 2.4679846221
| 44> H -2.8498326604 1.4630029387 3.8039629925
| 45> H -1.871622829 0.7316354126 2.5215619609
| 46> H -3.1199417452 -2.7430168491 -0.2090277661
| 47> H -1.8490165358 -1.971352007 -1.1828283131
| 48> H -0.9215078806 -3.7968160413 0.2496156966
| 49> H -0.2439181196 -2.2353451565 0.7247281177
| 50> H -1.5245660568 -2.9721710427 1.6973421473
| 51> *
| 52>
| 53>                          ****END OF INPUT****

CARTESIAN COORDINATES (ANGSTROEM)
---------------------------------
  C      4.985483   -2.696428   -0.777086
  C      4.036181   -1.594799   -1.202924
  O      3.051639   -1.435587   -0.161908
  P      2.123968   -0.152345   -0.077356
  S      3.051014    1.576004   -0.196491
  O      1.317540   -0.438958    1.251918
  C      1.668917    0.179181    2.507816
  C      2.979397   -0.360370    3.039201
  S      0.662316   -0.512194   -1.566000
  C     -0.026420    1.164855   -1.558064
  S     -0.849503    1.571854   -0.004119
  P     -2.669870    0.497681   -0.328728
  S     -3.182371    0.365980   -2.212763
  O     -3.719505    1.291305    0.534818
  C     -3.897443    1.174717    1.969635
  C     -2.631576    1.479368    2.740648
  O     -2.572118   -0.892532    0.444493
  C     -2.204696   -2.147963   -0.163258
  C     -1.152511   -2.830971    0.686724
  H      4.431615   -3.614779   -0.606461
  H      5.718126   -2.857888   -1.560918
  H      5.496992   -2.417552    0.139606
  H      3.516349   -1.851303   -2.130094
  H      4.558479   -0.641698   -1.338289
  H      1.721602    1.262229    2.359378
  H      0.832403   -0.063572    3.164071
  H      3.788786   -0.087254    2.362865
  H      3.177042    0.067667    4.016839
  H      2.936799   -1.443402    3.116951
  H     -0.745932    1.216236   -2.376373
  H      0.780757    1.885748   -1.686863
  H     -4.683737    1.901182    2.179610
  H     -4.253332    0.165664    2.185848
  H     -2.245727    2.458883    2.467985
  H     -2.849833    1.463003    3.803963
  H     -1.871623    0.731635    2.521562
  H     -3.119942   -2.743017   -0.209028
  H     -1.849017   -1.971352   -1.182828
  H     -0.921508   -3.796816    0.249616
  H     -0.243918   -2.235345    0.724728
  H     -1.524566   -2.972171    1.697342

 Total Charge           Charge          ....    0
 Multiplicity           Mult            ....    1
 Number of Electrons    NEL             ....  202
 Basis Dimension        Dim             ....  539

ORBITAL ENERGIES
----------------

  NO   OCC          E(Eh)            E(eV)
   0   2.0000     -88.580092     -2410.3868
   1   2.0000     -88.577082     -2410.3049
   2   2.0000     -88.530043     -2409.0249
   3   2.0000     -88.529788     -2409.0180
   4   2.0000     -76.922260     -2093.1611
   5   2.0000     -76.920425     -2093.1112
   6   2.0000     -18.997518      -516.9488
   7   2.0000     -18.996562      -516.9227
   8   2.0000     -18.994625      -516.8700
   9   2.0000     -18.993602      -516.8422
  10   2.0000     -10.102480      -274.9025
  11   2.0000     -10.094202      -274.6772
  12   2.0000     -10.091276      -274.5976
  13   2.0000     -10.090312      -274.5713
  14   2.0000     -10.089636      -274.5529
  15   2.0000     -10.022586      -272.7284
  16   2.0000     -10.020056      -272.6596
  17   2.0000     -10.018887      -272.6278
  18   2.0000     -10.016146      -272.5532
  19   2.0000      -7.874487      -214.2757
  20   2.0000      -7.871328      -214.1897
  21   2.0000      -7.825025      -212.9298
  22   2.0000      -7.825022      -212.9297
  23   2.0000      -6.600359      -179.6049
  24   2.0000      -6.599160      -179.5723
  25   2.0000      -5.821219      -158.4034
  26   2.0000      -5.818363      -158.3257
  27   2.0000      -5.818315      -158.3244
  28   2.0000      -5.815094      -158.2367
  29   2.0000      -5.811736      -158.1454
  30   2.0000      -5.808447      -158.0559
  31   2.0000      -5.772573      -157.0797
  32   2.0000      -5.772548      -157.0790
  33   2.0000      -5.765343      -156.8830
  34   2.0000      -5.765293      -156.8816
  35   2.0000      -5.765116      -156.8768
  36   2.0000      -5.764999      -156.8736
  37   2.0000      -4.746275      -129.1527
  38   2.0000      -4.744908      -129.1155
  39   2.0000      -4.744456      -129.1032
  40   2.0000      -4.744173      -129.0955
  41   2.0000      -4.744118      -129.0940
  42   2.0000      -4.743045      -129.0648
  43   2.0000      -1.055111       -28.7110
  44   2.0000      -1.053514       -28.6676
  45   2.0000      -1.015335       -27.6287
  46   2.0000      -1.010804       -27.5054
  47   2.0000      -0.804508       -21.8918
  48   2.0000      -0.758486       -20.6395
  49   2.0000      -0.746539       -20.3144
  50   2.0000      -0.728369       -19.8199
  51   2.0000      -0.724892       -19.7253
  52   2.0000      -0.710396       -19.3308
  53   2.0000      -0.688732       -18.7414
  54   2.0000      -0.674123       -18.3438
  55   2.0000      -0.631735       -17.1904
  56   2.0000      -0.622793       -16.9471
  57   2.0000      -0.601697       -16.3730
  58   2.0000      -0.593416       -16.1477
  59   2.0000      -0.589690       -16.0463
  60   2.0000      -0.529239       -14.4013
  61   2.0000      -0.522025       -14.2050
  62   2.0000      -0.496674       -13.5152
  63   2.0000      -0.490994       -13.3606
  64   2.0000      -0.477213       -12.9856
  65   2.0000      -0.462575       -12.5873
  66   2.0000      -0.455791       -12.4027
  67   2.0000      -0.447427       -12.1751
  68   2.0000      -0.440653       -11.9908
  69   2.0000      -0.437764       -11.9122
  70   2.0000      -0.425239       -11.5714
  71   2.0000      -0.411198       -11.1893
  72   2.0000      -0.404506       -11.0072
  73   2.0000      -0.399696       -10.8763
  74   2.0000      -0.396691       -10.7945
  75   2.0000      -0.385220       -10.4824
  76   2.0000      -0.382450       -10.4070
  77   2.0000      -0.369099       -10.0437
  78   2.0000      -0.363578        -9.8935
  79   2.0000      -0.360282        -9.8038
  80   2.0000      -0.357458        -9.7269
  81   2.0000      -0.354898        -9.6573
  82   2.0000      -0.351871        -9.5749
  83   2.0000      -0.349668        -9.5150
  84   2.0000      -0.341818        -9.3013
  85   2.0000      -0.331872        -9.0307
  86   2.0000      -0.322252        -8.7689
  87   2.0000      -0.314452        -8.5567
  88   2.0000      -0.310190        -8.4407
  89   2.0000      -0.302943        -8.2435
  90   2.0000      -0.299786        -8.1576
  91   2.0000      -0.291255        -7.9255
  92   2.0000      -0.289156        -7.8683
  93   2.0000      -0.279255        -7.5989
  94   2.0000      -0.272222        -7.4075
  95   2.0000      -0.251593        -6.8462
  96   2.0000      -0.240308        -6.5391
  97   2.0000      -0.236121        -6.4252
  98   2.0000      -0.226966        -6.1760
  99   2.0000      -0.224535        -6.1099
 100   2.0000      -0.219395        -5.9700
 101   0.0000      -0.053751        -1.4626
 102   0.0000      -0.031392        -0.8542
 103   0.0000      -0.009702        -0.2640
 104   0.0000      -0.004464        -0.1215
 105   0.0000       0.011112         0.3024

MULLIKEN ATOMIC CHARGES
-----------------------
   0 C :   -0.481241
   1 C :   -0.148566
   2 O :   -0.310580
   3 P :    0.711190
   4 S :   -0.526517
   5 O :   -0.286230
   6 C :   -0.139491
   7 C :   -0.490634
   8 S :   -0.164262
   9 C :   -0.240883
  10 S :   -0.138401
  11 P :    0.643483
  12 S :   -0.512016
  13 O :   -0.317827
  14 C :   -0.091775
  15 C :   -0.546102
  16 O :   -0.291342
  17 C :   -0.093651
  18 C :   -0.506192
  19 H :    0.166244
  20 H :    0.170014
  21 H :    0.166440
  22 H :    0.171662
  23 H :    0.173015
  24 H :    0.178818
  25 H :    0.180039
  26 H :    0.168785
  27 H :    0.173081
  28 H :    0.171033
  29 H :    0.229838
  30 H :    0.239742
  31 H :    0.176349
  32 H :    0.178739
  33 H :    0.179572
  34 H :    0.182153
  35 H :    0.182901
  36 H :    0.173159
  37 H :    0.163420
  38 H :    0.169800
  39 H :    0.169778
  40 H :    0.166452
Sum of atomic charges:   -0.0000000

LOEWDIN ATOMIC CHARGES
----------------------
   0 C :   -0.388409
   1 C :    0.026292
   2 O :   -0.674073
   3 P :    0.377190
   4 S :   -0.159824
   5 O :   -0.694193
   6 C :    0.021737
   7 C :   -0.402587
   8 S :    0.152417
   9 C :   -0.424435
  10 S :    0.151576
  11 P :    0.388859
  12 S :   -0.152521
  13 O :   -0.667970
  14 C :    0.040702
  15 C :   -0.407797
  16 O :   -0.677121
  17 C :    0.021480
  18 C :   -0.402158
  19 H :    0.163584
  20 H :    0.169194
  21 H :    0.162910
  22 H :    0.180004
  23 H :    0.181829
  24 H :    0.182729
  25 H :    0.191339
  26 H :    0.163041
  27 H :    0.169355
  28 H :    0.164317
  29 H :    0.198006
  30 H :    0.197035
  31 H :    0.193510
  32 H :    0.184592
  33 H :    0.165566
  34 H :    0.172831
  35 H :    0.165403
  36 H :    0.183179
  37 H :    0.179771
  38 H :    0.168990
  39 H :    0.170628
  40 H :    0.163019

  Mayer bond orders larger than 0.100000
B(  0-C ,  1-C ) :   0.9519 B(  0-C , 19-H ) :   0.9688 B(  0-C , 20-H ) :   0.9581
B(  0-C , 21-H ) :   0.9689 B(  1-C ,  2-O ) :   0.7718 B(  1-C , 22-H ) :   0.9365
B(  1-C , 23-H ) :   0.9477 B(  2-O ,  3-P ) :   1.1005 B(  3-P ,  4-S ) :   1.7172
B(  3-P ,  5-O ) :   1.1579 B(  3-P ,  8-S ) :   1.0665 B(  5-O ,  6-C ) :   0.7695
B(  6-C ,  7-C ) :   0.9136 B(  6-C , 24-H ) :   0.9565 B(  6-C , 25-H ) :   0.9498
B(  7-C , 26-H ) :   0.9592 B(  7-C , 27-H ) :   0.9563 B(  7-C , 28-H ) :   0.9711
B(  8-S ,  9-C ) :   0.8934 B(  9-C , 10-S ) :   0.8936 B(  9-C , 29-H ) :   0.8982
B(  9-C , 30-H ) :   0.9043 B( 10-S , 11-P ) :   1.0167 B( 11-P , 12-S ) :   1.8191
B( 11-P , 13-O ) :   1.1728 B( 11-P , 16-O ) :   1.0423 B( 13-O , 14-C ) :   0.7877
B( 14-C , 15-C ) :   0.8832 B( 14-C , 31-H ) :   0.9440 B( 14-C , 32-H ) :   0.9668
B( 15-C , 33-H ) :   0.9635 B( 15-C , 34-H ) :   0.9460 B( 15-C , 35-H ) :   0.9640
B( 16-O , 17-C ) :   0.7292 B( 17-C , 18-C ) :   0.9350 B( 17-C , 36-H ) :   0.9469
B( 17-C , 37-H ) :   0.9535 B( 18-C , 38-H ) :   0.9640 B( 18-C , 39-H ) :   0.9592
B( 18-C , 40-H ) :   0.9672

Dispersion correction           -0.021628980
FINAL SINGLE POINT ENERGY     -2932.470797283711

DIPOLE MOMENT
-------------

Method             : SCF
Type of density    : Electron Density
Multiplicity       :   1
Irrep              :   0
Energy             : -2932.4957327535407785 Eh
Relativity type    :
Basis              : AO
                                X                 Y                 Z
Electronic contribution:    -11.439658468      13.345466360     -16.920132020
Nuclear contribution   :     12.336215212     -15.000156222      19.177835385
                        -----------------------------------------
Total Dipole Moment    :      0.896556743      -1.654689862       2.257703365
                        -----------------------------------------
Magnitude (a.u.)       :      2.939223880
Magnitude (Debye)      :      7.470913380

Rotational constants in cm-1:             0.012398             0.004994             0.004678
Rotational constants in MHz :           371.682431           149.706280           140.244566

                             ****ORCA TERMINATED NORMALLY****
TOTAL RUN TIME: 0 days 0 hours 1 minutes 52 seconds 235 msec
