                         Program Version 6.0.0  -   RELEASE  -
|  1> ! pbe def2-sv(p) def2/J RI DEFGRID1 loosescf d4 GCP(DFT/SV(P)) printgap
|  2> %output
|  3>     printlevel normal
|  4> end
|  5> * xyz 0 1
|  6> C 4.5594031758 -1.7406132193 -0.6219560382
|  7> C 4.6422216825 -0.2748609924 -0.2468669352
|  8> O 3.4864455233 0.1676696885 0.484715372
|  9> P 2.044681019 0.2887638163 -0.1784652011
| 10> S 2.0593908033 0.908928246 -2.041665674
| 11> O 1.2951013263 1.1786598379 0.8958301641
| 12> C 1.2844294068 2.6173206336 0.8444438528
| 13> C 2.6620108419 3.2078466771 1.0549938246
| 14> S 1.1891394055 -1.5905762768 0.2187450678
| 15> C 0.0123918341 -1.7289102269 -1.1731833733
| 16> S -1.6851912805 -1.9808281794 -0.6234905225
| 17> P -2.032929639 -0.0187926141 0.1225770971
| 18> S -1.420855124 1.4507752507 -1.0169642678
| 19> O -1.3311873733 0.0808911193 1.5296946524
| 20> C -1.5568440349 -0.857927907 2.6115581706
| 21> C -2.541171041 -0.290253233 3.6129056949
| 22> O -3.5701223431 -0.0660791763 0.5166516442
| 23> C -4.6299527071 -0.543351777 -0.3349376772
| 24> C -4.6636052552 0.1538534633 -1.6782681223
| 25> H 4.3422738436 -2.344284525 0.2556279951
| 26> H 3.7705669652 -1.891300832 -1.3576597167
| 27> H 5.5053289927 -2.0536433377 -1.0520964508
| 28> H 4.7396329141 0.344485177 -1.1443981687
| 29> H 5.4719594285 -0.0788400383 0.433556747
| 30> H 0.8676259402 2.924815845 -0.1208911132
| 31> H 0.5915063531 2.8972859902 1.6396076556
| 32> H 3.3073608057 2.9510252258 0.2156164278
| 33> H 2.5807088552 4.2884712564 1.1190090866
| 34> H 3.1006131782 2.8193452301 1.9705497603
| 35> H 0.2755318891 -2.6101290111 -1.7523087775
| 36> H 0.0775526374 -0.8215616441 -1.7806577665
| 37> H -1.9145477681 -1.8036227472 2.1943259497
| 38> H -0.5698031595 -1.0048520685 3.0552033666
| 39> H -3.5066897844 -0.1283879598 3.1410481507
| 40> H -2.6542391022 -0.9913226341 4.4339432607
| 41> H -2.177284721 0.6583148799 3.9979790722
| 42> H -4.5037284474 -1.6218721504 -0.4619083539
| 43> H -5.5336137394 -0.3387288379 0.2419251901
| 44> H -4.7234919806 1.2317223926 -1.546059548
| 45> H -3.7595374973 -0.0711317171 -2.2425646543
| 46> H -5.525790626 -0.1884628189 -2.2412982561
| 47> *
| 48>
| 49>                          ****END OF INPUT****

CARTESIAN COORDINATES (ANGSTROEM)
---------------------------------
  C      4.559403   -1.740613   -0.621956
  C      4.642222   -0.274861   -0.246867
  O      3.486446    0.167670    0.484715
  P      2.044681    0.288764   -0.178465
  S      2.059391    0.908928   -2.041666
  O      1.295101    1.178660    0.895830
  C      1.284429    2.617321    0.844444
  C      2.662011    3.207847    1.054994
  S      1.189139   -1.590576    0.218745
  C      0.012392   -1.728910   -1.173183
  S     -1.685191   -1.980828   -0.623491
  P     -2.032930   -0.018793    0.122577
  S     -1.420855    1.450775   -1.016964
  O     -1.331187    0.080891    1.529695
  C     -1.556844   -0.857928    2.611558
  C     -2.541171   -0.290253    3.612906
  O     -3.570122   -0.066079    0.516652
  C     -4.629953   -0.543352   -0.334938
  C     -4.663605    0.153853   -1.678268
  H      4.342274   -2.344285    0.255628
  H      3.770567   -1.891301   -1.357660
  H      5.505329   -2.053643   -1.052096
  H      4.739633    0.344485   -1.144398
  H      5.471959   -0.078840    0.433557
  H      0.867626    2.924816   -0.120891
  H      0.591506    2.897286    1.639608
  H      3.307361    2.951025    0.215616
  H      2.580709    4.288471    1.119009
  H      3.100613    2.819345    1.970550
  H      0.275532   -2.610129   -1.752309
  H      0.077553   -0.821562   -1.780658
  H     -1.914548   -1.803623    2.194326
  H     -0.569803   -1.004852    3.055203
  H     -3.506690   -0.128388    3.141048
  H     -2.654239   -0.991323    4.433943
  H     -2.177285    0.658315    3.997979
  H     -4.503728   -1.621872   -0.461908
  H     -5.533614   -0.338729    0.241925
  H     -4.723492    1.231722   -1.546060
  H     -3.759537   -0.071132   -2.242565
  H     -5.525791   -0.188463   -2.241298

 Total Charge           Charge          ....    0
 Multiplicity           Mult            ....    1
 Number of Electrons    NEL             ....  202
 Basis Dimension        Dim             ....  334

ORBITAL ENERGIES
----------------

  NO   OCC          E(Eh)            E(eV)
   0   2.0000     -88.046184     -2395.8585
   1   2.0000     -88.039820     -2395.6853
   2   2.0000     -87.982042     -2394.1131
   3   2.0000     -87.978124     -2394.0065
   4   2.0000     -76.423928     -2079.6008
   5   2.0000     -76.419853     -2079.4899
   6   2.0000     -18.796586      -511.4811
   7   2.0000     -18.787430      -511.2320
   8   2.0000     -18.786662      -511.2111
   9   2.0000     -18.777223      -510.9542
  10   2.0000      -9.960945      -271.0511
  11   2.0000      -9.955467      -270.9020
  12   2.0000      -9.950520      -270.7674
  13   2.0000      -9.948012      -270.6992
  14   2.0000      -9.937033      -270.4004
  15   2.0000      -9.884489      -268.9706
  16   2.0000      -9.883511      -268.9440
  17   2.0000      -9.880829      -268.8710
  18   2.0000      -9.874721      -268.7048
  19   2.0000      -7.691262      -209.2899
  20   2.0000      -7.685033      -209.1204
  21   2.0000      -7.626921      -207.5391
  22   2.0000      -7.623098      -207.4350
  23   2.0000      -6.421239      -174.7308
  24   2.0000      -6.417418      -174.6268
  25   2.0000      -5.718960      -155.6208
  26   2.0000      -5.715558      -155.5282
  27   2.0000      -5.712903      -155.4560
  28   2.0000      -5.709618      -155.3666
  29   2.0000      -5.708640      -155.3400
  30   2.0000      -5.701847      -155.1551
  31   2.0000      -5.655795      -153.9020
  32   2.0000      -5.652200      -153.8042
  33   2.0000      -5.647737      -153.6827
  34   2.0000      -5.646961      -153.6616
  35   2.0000      -5.643608      -153.5704
  36   2.0000      -5.643156      -153.5581
  37   2.0000      -4.644092      -126.3722
  38   2.0000      -4.643355      -126.3521
  39   2.0000      -4.641125      -126.2914
  40   2.0000      -4.639653      -126.2514
  41   2.0000      -4.639033      -126.2345
  42   2.0000      -4.638333      -126.2155
  43   2.0000      -0.987952       -26.8835
  44   2.0000      -0.978788       -26.6342
  45   2.0000      -0.943938       -25.6859
  46   2.0000      -0.936044       -25.4710
  47   2.0000      -0.762565       -20.7504
  48   2.0000      -0.718595       -19.5540
  49   2.0000      -0.706517       -19.2253
  50   2.0000      -0.690834       -18.7985
  51   2.0000      -0.681875       -18.5548
  52   2.0000      -0.671700       -18.2779
  53   2.0000      -0.648821       -17.6553
  54   2.0000      -0.632556       -17.2127
  55   2.0000      -0.597453       -16.2575
  56   2.0000      -0.587629       -15.9902
  57   2.0000      -0.572566       -15.5803
  58   2.0000      -0.566149       -15.4057
  59   2.0000      -0.562669       -15.3110
  60   2.0000      -0.501432       -13.6447
  61   2.0000      -0.484919       -13.1953
  62   2.0000      -0.474110       -12.9012
  63   2.0000      -0.464458       -12.6385
  64   2.0000      -0.453589       -12.3428
  65   2.0000      -0.443134       -12.0583
  66   2.0000      -0.436672       -11.8825
  67   2.0000      -0.434065       -11.8115
  68   2.0000      -0.430364       -11.7108
  69   2.0000      -0.412733       -11.2310
  70   2.0000      -0.411449       -11.1961
  71   2.0000      -0.397467       -10.8156
  72   2.0000      -0.386776       -10.5247
  73   2.0000      -0.384374       -10.4594
  74   2.0000      -0.382224       -10.4009
  75   2.0000      -0.376205       -10.2371
  76   2.0000      -0.357720        -9.7341
  77   2.0000      -0.355307        -9.6684
  78   2.0000      -0.349259        -9.5038
  79   2.0000      -0.346852        -9.4383
  80   2.0000      -0.343652        -9.3512
  81   2.0000      -0.341890        -9.3033
  82   2.0000      -0.339701        -9.2437
  83   2.0000      -0.334379        -9.0989
  84   2.0000      -0.331245        -9.0136
  85   2.0000      -0.319425        -8.6920
  86   2.0000      -0.306902        -8.3512
  87   2.0000      -0.297592        -8.0979
  88   2.0000      -0.290517        -7.9054
  89   2.0000      -0.286787        -7.8039
  90   2.0000      -0.277452        -7.5499
  91   2.0000      -0.271036        -7.3753
  92   2.0000      -0.264710        -7.2031
  93   2.0000      -0.261983        -7.1289
  94   2.0000      -0.254781        -6.9329
  95   2.0000      -0.237495        -6.4626
  96   2.0000      -0.218761        -5.9528
  97   2.0000      -0.211718        -5.7611
  98   2.0000      -0.200896        -5.4666
  99   2.0000      -0.191721        -5.2170
 100   2.0000      -0.183672        -4.9980
 101   0.0000      -0.039235        -1.0676
 102   0.0000      -0.029343        -0.7985
 103   0.0000      -0.013337        -0.3629
 104   0.0000       0.013836         0.3765
 105   0.0000       0.022399         0.6095

MULLIKEN ATOMIC CHARGES
-----------------------
   0 C :   -0.308675
   1 C :   -0.003128
   2 O :   -0.375666
   3 P :    0.613736
   4 S :   -0.320772
   5 O :   -0.352119
   6 C :   -0.000495
   7 C :   -0.302804
   8 S :   -0.094007
   9 C :   -0.353313
  10 S :   -0.118039
  11 P :    0.587142
  12 S :   -0.293519
  13 O :   -0.339004
  14 C :   -0.008328
  15 C :   -0.284659
  16 O :   -0.378918
  17 C :   -0.015576
  18 C :   -0.307408
  19 H :    0.116205
  20 H :    0.120171
  21 H :    0.110603
  22 H :    0.108959
  23 H :    0.103010
  24 H :    0.121831
  25 H :    0.100757
  26 H :    0.119005
  27 H :    0.108658
  28 H :    0.111826
  29 H :    0.182551
  30 H :    0.212623
  31 H :    0.094906
  32 H :    0.110109
  33 H :    0.117850
  34 H :    0.107718
  35 H :    0.117618
  36 H :    0.114531
  37 H :    0.109577
  38 H :    0.127607
  39 H :    0.128312
  40 H :    0.111122
Sum of atomic charges:    0.0000000

LOEWDIN ATOMIC CHARGES
----------------------
   0 C :   -0.369212
   1 C :   -0.120211
   2 O :   -0.246150
   3 P :    0.572628
   4 S :   -0.312755
   5 O :   -0.230490
   6 C :   -0.118108
   7 C :   -0.366245
   8 S :    0.084468
   9 C :   -0.477674
  10 S :    0.064145
  11 P :    0.562182
  12 S :   -0.287011
  13 O :   -0.225339
  14 C :   -0.117846
  15 C :   -0.358520
  16 O :   -0.246202
  17 C :   -0.115305
  18 C :   -0.369174
  19 H :    0.123284
  20 H :    0.119447
  21 H :    0.129547
  22 H :    0.109186
  23 H :    0.117539
  24 H :    0.109242
  25 H :    0.118008
  26 H :    0.120522
  27 H :    0.128793
  28 H :    0.123726
  29 H :    0.136601
  30 H :    0.127416
  31 H :    0.100482
  32 H :    0.119269
  33 H :    0.124958
  34 H :    0.128417
  35 H :    0.127599
  36 H :    0.107844
  37 H :    0.121213
  38 H :    0.131153
  39 H :    0.122509
  40 H :    0.130065

  Mayer bond orders larger than 0.100000
B(  0-C ,  1-C ) :   1.1675 B(  0-C , 19-H ) :   0.9441 B(  0-C , 20-H ) :   0.9371
B(  0-C , 21-H ) :   0.9381 B(  1-C ,  2-O ) :   0.9131 B(  1-C , 22-H ) :   0.9142
B(  1-C , 23-H ) :   0.9341 B(  2-O ,  3-P ) :   1.0950 B(  3-P ,  4-S ) :   1.5920
B(  3-P ,  5-O ) :   1.1514 B(  3-P ,  8-S ) :   0.9607 B(  4-S ,  8-S ) :   0.1152
B(  5-O ,  6-C ) :   0.9048 B(  6-C ,  7-C ) :   1.1569 B(  6-C , 24-H ) :   0.9136
B(  6-C , 25-H ) :   0.9362 B(  7-C , 26-H ) :   0.9374 B(  7-C , 27-H ) :   0.9393
B(  7-C , 28-H ) :   0.9448 B(  8-S ,  9-C ) :   0.9935 B(  9-C , 10-S ) :   1.0051
B(  9-C , 29-H ) :   0.9117 B(  9-C , 30-H ) :   0.8455 B( 10-S , 11-P ) :   0.9364
B( 10-S , 12-S ) :   0.1058 B( 11-P , 12-S ) :   1.6577 B( 11-P , 13-O ) :   1.1455
B( 11-P , 16-O ) :   1.0775 B( 13-O , 14-C ) :   0.8919 B( 14-C , 15-C ) :   1.1631
B( 14-C , 31-H ) :   0.9116 B( 14-C , 32-H ) :   0.9318 B( 15-C , 33-H ) :   0.9432
B( 15-C , 34-H ) :   0.9407 B( 15-C , 35-H ) :   0.9476 B( 16-O , 17-C ) :   0.9127
B( 17-C , 18-C ) :   1.1671 B( 17-C , 36-H ) :   0.9261 B( 17-C , 37-H ) :   0.9332
B( 18-C , 38-H ) :   0.9429 B( 18-C , 39-H ) :   0.9315 B( 18-C , 40-H ) :   0.9346

Dispersion correction           -0.068000379
FINAL SINGLE POINT ENERGY     -2929.518115730259

DIPOLE MOMENT
-------------

Method             : SCF
Type of density    : Electron Density
Multiplicity       :   1
Irrep              :   0
Energy             : -2929.6360634267907699 Eh
Relativity type    :
Basis              : AO
                                X                 Y                 Z
Electronic contribution:     -0.171869904      -2.749546086      -7.680909416
Nuclear contribution   :     -0.239744102       1.847337256       8.643130105
                        -----------------------------------------
Total Dipole Moment    :     -0.411614006      -0.902208830       0.962220689
                        -----------------------------------------
Magnitude (a.u.)       :      1.381765363
Magnitude (Debye)      :      3.512168435

Rotational constants in cm-1:             0.012735             0.005219             0.005092
Rotational constants in MHz :           381.778133           156.463669           152.662977

                             ****ORCA TERMINATED NORMALLY****
TOTAL RUN TIME: 0 days 0 hours 0 minutes 22 seconds 827 msec
