                         Program Version 6.0.0  -   RELEASE  -
|  1> ! wb97x-v def2-tzvp def2/J RIJCOSX DEFGRID2 scfconv7 GCP(DFT/TZ) printgap
|  2> %output
|  3>     printlevel normal
|  4> end
|  5> * xyz 0 1
|  6> C 1.252573010114239 -0.2907681589876883 0.003341293432338118
|  7> C 0.011246124501491563 0.5680520077704433 -0.050101662872783774
|  8> O -1.1422164505610732 -0.2972284678064555 0.04547089476362197
|  9> H 1.3016510496991553 -0.8475219321222013 0.9445168342722433
| 10> H 1.2688718410007453 -1.0045164308616437 -0.826388052903606
| 11> H 2.144474008592208 0.33893838065495574 -0.06892192358715768
| 12> H -0.023982656726534945 1.1330839285338092 -0.9917001706127397
| 13> H 0.006833407434350559 1.2881507905105765 0.7796930898555866
| 14> H -1.9260981854451886 0.26467933429611784 0.009873189350805939
| 15> *
| 16>
| 17>                          ****END OF INPUT****

CARTESIAN COORDINATES (ANGSTROEM)
---------------------------------
  C      1.252573   -0.290768    0.003341
  C      0.011246    0.568052   -0.050102
  O     -1.142216   -0.297228    0.045471
  H      1.301651   -0.847522    0.944517
  H      1.268872   -1.004516   -0.826388
  H      2.144474    0.338938   -0.068922
  H     -0.023983    1.133084   -0.991700
  H      0.006833    1.288151    0.779693
  H     -1.926098    0.264679    0.009873

 Total Charge           Charge          ....    0
 Multiplicity           Mult            ....    1
 Number of Electrons    NEL             ....   26
 Basis Dimension        Dim             ....  129

ORBITAL ENERGIES
----------------

  NO   OCC          E(Eh)            E(eV)
   0   2.0000     -21.667194      -589.5943
   1   2.0000     -12.092513      -329.0540
   2   2.0000     -12.034760      -327.4825
   3   2.0000      -1.664524       -45.2940
   4   2.0000      -1.266543       -34.4644
   5   2.0000      -1.117394       -30.4058
   6   2.0000      -1.030610       -28.0443
   7   2.0000      -0.935454       -25.4550
   8   2.0000      -0.932526       -25.3753
   9   2.0000      -0.840530       -22.8720
  10   2.0000      -0.828624       -22.5480
  11   2.0000      -0.803871       -21.8744
  12   2.0000      -0.763603       -20.7787
  13   0.0000      -0.138705        -3.7744
  14   0.0000      -0.039178        -1.0661
  15   0.0000       0.004914         0.1337
  16   0.0000       0.016025         0.4361
  17   0.0000       0.029022         0.7897

MULLIKEN ATOMIC CHARGES
-----------------------
   0 C :   -0.304391
   1 C :   -0.021967
   2 O :   -0.455043
   3 H :    0.111005
   4 H :    0.111103
   5 H :    0.101007
   6 H :    0.080499
   7 H :    0.080408
   8 H :    0.297381
Sum of atomic charges:    0.0000000

LOEWDIN ATOMIC CHARGES
----------------------
   0 C :   -0.309738
   1 C :   -0.361137
   2 O :   -0.070651
   3 H :    0.119757
   4 H :    0.119799
   5 H :    0.119641
   6 H :    0.108966
   7 H :    0.108961
   8 H :    0.164402

  Mayer bond orders larger than 0.100000
B(  0-C ,  1-C ) :   1.0051 B(  0-C ,  3-H ) :   0.9758 B(  0-C ,  4-H ) :   0.9758
B(  0-C ,  5-H ) :   0.9703 B(  1-C ,  2-O ) :   1.0414 B(  1-C ,  6-H ) :   0.9709
B(  1-C ,  7-H ) :   0.9707 B(  2-O ,  8-H ) :   0.9092

FINAL SINGLE POINT ENERGY      -155.045882371216

DIPOLE MOMENT
-------------

Method             : SCF
Type of density    : Electron Density
Multiplicity       :   1
Irrep              :   0
Energy             :  -155.0519349482160010 Eh
Relativity type    :
Basis              : AO
                                X                 Y                 Z
Electronic contribution:     -2.608422468      -0.467104858       0.086409827
Nuclear contribution   :      2.620331554       1.125644192      -0.144233355
                        -----------------------------------------
Total Dipole Moment    :      0.011909086       0.658539334      -0.057823528
                        -----------------------------------------
Magnitude (a.u.)       :      0.661180339
Magnitude (Debye)      :      1.680586863

Rotational constants in cm-1:             1.169155             0.308463             0.268888
Rotational constants in MHz :         35050.399529          9247.483306          8061.064626

                             ****ORCA TERMINATED NORMALLY****
TOTAL RUN TIME: 0 days 0 hours 0 minutes 27 seconds 791 msec
