                         Program Version 6.0.0  -   RELEASE  -
|  1> ! wb97x-v def2-tzvp def2/J RIJCOSX DEFGRID2 scfconv7 GCP(DFT/TZ) printgap
|  2> %output
|  3>     printlevel normal
|  4> end
|  5> %cpcm
|  6>     smd true
|  7>     smdsolvent "water"
|  8> end
|  9> * xyz 0 1
| 10> C 1.252573010114239 -0.2907681589876883 0.003341293432338118
| 11> C 0.011246124501491563 0.5680520077704433 -0.050101662872783774
| 12> O -1.1422164505610732 -0.2972284678064555 0.04547089476362197
| 13> H 1.3016510496991553 -0.8475219321222013 0.9445168342722433
| 14> H 1.2688718410007453 -1.0045164308616437 -0.826388052903606
| 15> H 2.144474008592208 0.33893838065495574 -0.06892192358715768
| 16> H -0.023982656726534945 1.1330839285338092 -0.9917001706127397
| 17> H 0.006833407434350559 1.2881507905105765 0.7796930898555866
| 18> H -1.9260981854451886 0.26467933429611784 0.009873189350805939
| 19> *
| 20>
| 21>                          ****END OF INPUT****

CARTESIAN COORDINATES (ANGSTROEM)
---------------------------------
  C      1.252573   -0.290768    0.003341
  C      0.011246    0.568052   -0.050102
  O     -1.142216   -0.297228    0.045471
  H      1.301651   -0.847522    0.944517
  H      1.268872   -1.004516   -0.826388
  H      2.144474    0.338938   -0.068922
  H     -0.023983    1.133084   -0.991700
  H      0.006833    1.288151    0.779693
  H     -1.926098    0.264679    0.009873

 Total Charge           Charge          ....    0
 Multiplicity           Mult            ....    1
 Number of Electrons    NEL             ....   26
 Basis Dimension        Dim             ....  129

ORBITAL ENERGIES
----------------

  NO   OCC          E(Eh)            E(eV)
   0   2.0000     -21.670593      -589.6868
   1   2.0000     -12.085082      -328.8518
   2   2.0000     -12.028283      -327.3062
   3   2.0000      -1.668070       -45.3905
   4   2.0000      -1.261754       -34.3341
   5   2.0000      -1.114482       -30.3266
   6   2.0000      -1.031893       -28.0792
   7   2.0000      -0.937230       -25.5033
   8   2.0000      -0.936107       -25.4728
   9   2.0000      -0.838170       -22.8078
  10   2.0000      -0.822987       -22.3946
  11   2.0000      -0.797910       -21.7122
  12   2.0000      -0.757589       -20.6151
  13   0.0000      -0.133540        -3.6338
  14   0.0000      -0.017948        -0.4884
  15   0.0000       0.012906         0.3512
  16   0.0000       0.029588         0.8051
  17   0.0000       0.040156         1.0927

MULLIKEN ATOMIC CHARGES
-----------------------
   0 C :   -0.350043
   1 C :   -0.026163
   2 O :   -0.564888
   3 H :    0.120728
   4 H :    0.120715
   5 H :    0.127118
   6 H :    0.106146
   7 H :    0.105993
   8 H :    0.360393
Sum of atomic charges:    0.0000000

LOEWDIN ATOMIC CHARGES
----------------------
   0 C :   -0.318965
   1 C :   -0.354984
   2 O :   -0.112869
   3 H :    0.119492
   4 H :    0.119494
   5 H :    0.127013
   6 H :    0.117162
   7 H :    0.117139
   8 H :    0.186517

  Mayer bond orders larger than 0.100000
B(  0-C ,  1-C ) :   0.9967 B(  0-C ,  3-H ) :   0.9717 B(  0-C ,  4-H ) :   0.9716
B(  0-C ,  5-H ) :   0.9683 B(  1-C ,  2-O ) :   0.9933 B(  1-C ,  6-H ) :   0.9756
B(  1-C ,  7-H ) :   0.9754 B(  2-O ,  8-H ) :   0.8711

FINAL SINGLE POINT ENERGY      -155.053586955937

DIPOLE MOMENT
-------------

Method             : SCF
Type of density    : Electron Density
Multiplicity       :   1
Irrep              :   0
Energy             :  -155.0596395329368136 Eh
Relativity type    :
Basis              : AO
                                X                 Y                 Z
Electronic contribution:     -2.586874310      -0.206374531       0.063598033
Nuclear contribution   :      2.620331554       1.125644192      -0.144233355
                        -----------------------------------------
Total Dipole Moment    :      0.033457243       0.919269661      -0.080635322
                        -----------------------------------------
Magnitude (a.u.)       :      0.923405735
Magnitude (Debye)      :      2.347110850

Rotational constants in cm-1:             1.169155             0.308463             0.268888
Rotational constants in MHz :         35050.399529          9247.483306          8061.064626

                             ****ORCA TERMINATED NORMALLY****
TOTAL RUN TIME: 0 days 0 hours 0 minutes 43 seconds 243 msec
