                         Program Version 6.0.0  -   RELEASE  -
|  1> ! r2scan-3c def2/J RI DEFGRID2 scfconv6 printgap
|  2> %output
|  3>     printlevel normal
|  4> end
|  5> * xyz 0 1
|  6> C 2.1414669743 2.1793474363 -1.1000461418
|  7> C 2.2937377361 2.3070924184 0.4010299694
|  8> O 1.6317062605 1.2374592675 1.1258836244
|  9> P 1.9873716167 -0.2955126258 1.0038426531
| 10> S 1.5400737721 -1.3020262274 2.6216267823
| 11> O 3.5324448271 -0.2507767922 0.6392809707
| 12> C 4.302718012 -1.4675337125 0.5558591342
| 13> C 5.7698505601 -1.0949122839 0.6206184158
| 14> S 1.0802794835 -1.0330378152 -0.7886001018
| 15> C -0.294967451 -1.9412075468 -0.0449167958
| 16> S -1.5005807713 -0.8792652111 0.7914515513
| 17> P -2.1246555654 0.2397501822 -0.9239571773
| 18> S -1.9306296073 -0.6143989 -2.6683798156
| 19> O -1.3326917793 1.6028899534 -0.820221812
| 20> C -1.4636567948 2.5067944797 0.3107312773
| 21> C -1.407300596 3.9272706836 -0.2122698465
| 22> O -3.6002700501 0.7023473683 -0.5451451953
| 23> C -4.7607900837 -0.0800734796 -0.8778155415
| 24> C -4.806040295 -1.3935667139 -0.1246253064
| 25> H 2.56680443 3.0581482877 -1.574997359
| 26> H 2.6642674707 1.2955078396 -1.4613838636
| 27> H 1.0931462376 2.0943855402 -1.3782707146
| 28> H 1.8056891503 3.2057885381 0.7818698587
| 29> H 3.3467045813 2.306644172 0.6867510704
| 30> H 4.0166921485 -2.1183105755 1.3887722853
| 31> H 4.0555678999 -1.9623874703 -0.3872906981
| 32> H 6.0217975702 -0.4265198768 -0.1974998855
| 33> H 5.9880868707 -0.5996730588 1.5625741064
| 34> H 6.3681916486 -1.9967582095 0.544164133
| 35> H 0.080412551 -2.6249310517 0.7154300857
| 36> H -0.7774240522 -2.4716946678 -0.8646154546
| 37> H -2.4100235374 2.3083767833 0.8166283396
| 38> H -0.6388188143 2.2891961084 0.9938414667
| 39> H -1.4713972504 4.615199934 0.6248356911
| 40> H -0.4778958106 4.096176716 -0.7484283121
| 41> H -2.2382247301 4.1068130967 -0.8891411672
| 42> H -5.595704064 0.5682657976 -0.6080823079
| 43> H -4.7580188244 -0.256081192 -1.9578203701
| 44> H -4.6906034396 -1.224330239 0.9432132181
| 45> H -5.7573505121 -1.881004233 -0.3120202067
| 46> H -4.0032418345 -2.0457303398 -0.4654001335
| 47> *
| 48>
| 49>                          ****END OF INPUT****

CARTESIAN COORDINATES (ANGSTROEM)
---------------------------------
  C      2.141467    2.179347   -1.100046
  C      2.293738    2.307092    0.401030
  O      1.631706    1.237459    1.125884
  P      1.987372   -0.295513    1.003843
  S      1.540074   -1.302026    2.621627
  O      3.532445   -0.250777    0.639281
  C      4.302718   -1.467534    0.555859
  C      5.769851   -1.094912    0.620618
  S      1.080279   -1.033038   -0.788600
  C     -0.294967   -1.941208   -0.044917
  S     -1.500581   -0.879265    0.791452
  P     -2.124656    0.239750   -0.923957
  S     -1.930630   -0.614399   -2.668380
  O     -1.332692    1.602890   -0.820222
  C     -1.463657    2.506794    0.310731
  C     -1.407301    3.927271   -0.212270
  O     -3.600270    0.702347   -0.545145
  C     -4.760790   -0.080073   -0.877816
  C     -4.806040   -1.393567   -0.124625
  H      2.566804    3.058148   -1.574997
  H      2.664267    1.295508   -1.461384
  H      1.093146    2.094386   -1.378271
  H      1.805689    3.205789    0.781870
  H      3.346705    2.306644    0.686751
  H      4.016692   -2.118311    1.388772
  H      4.055568   -1.962387   -0.387291
  H      6.021798   -0.426520   -0.197500
  H      5.988087   -0.599673    1.562574
  H      6.368192   -1.996758    0.544164
  H      0.080413   -2.624931    0.715430
  H     -0.777424   -2.471695   -0.864615
  H     -2.410024    2.308377    0.816628
  H     -0.638819    2.289196    0.993841
  H     -1.471397    4.615200    0.624836
  H     -0.477896    4.096177   -0.748428
  H     -2.238225    4.106813   -0.889141
  H     -5.595704    0.568266   -0.608082
  H     -4.758019   -0.256081   -1.957820
  H     -4.690603   -1.224330    0.943213
  H     -5.757351   -1.881004   -0.312020
  H     -4.003242   -2.045730   -0.465400

 Total Charge           Charge          ....    0
 Multiplicity           Mult            ....    1
 Number of Electrons    NEL             ....  202
 Basis Dimension        Dim             ....  539

ORBITAL ENERGIES
----------------

  NO   OCC          E(Eh)            E(eV)
   0   2.0000     -88.570869     -2410.1359
   1   2.0000     -88.569659     -2410.1029
   2   2.0000     -88.519575     -2408.7401
   3   2.0000     -88.516695     -2408.6617
   4   2.0000     -76.913300     -2092.9173
   5   2.0000     -76.912083     -2092.8842
   6   2.0000     -18.995689      -516.8990
   7   2.0000     -18.993023      -516.8264
   8   2.0000     -18.992231      -516.8049
   9   2.0000     -18.988549      -516.7047
  10   2.0000     -10.106316      -275.0068
  11   2.0000     -10.101293      -274.8701
  12   2.0000     -10.100486      -274.8482
  13   2.0000     -10.099430      -274.8195
  14   2.0000     -10.099083      -274.8100
  15   2.0000     -10.036103      -273.0962
  16   2.0000     -10.035597      -273.0825
  17   2.0000     -10.031359      -272.9672
  18   2.0000     -10.027649      -272.8662
  19   2.0000      -7.864912      -214.0151
  20   2.0000      -7.863694      -213.9820
  21   2.0000      -7.814441      -212.6418
  22   2.0000      -7.811568      -212.5636
  23   2.0000      -6.591702      -179.3693
  24   2.0000      -6.590504      -179.3367
  25   2.0000      -5.811877      -158.1492
  26   2.0000      -5.810614      -158.1149
  27   2.0000      -5.808647      -158.0613
  28   2.0000      -5.807583      -158.0324
  29   2.0000      -5.802114      -157.8835
  30   2.0000      -5.800795      -157.8477
  31   2.0000      -5.762205      -156.7976
  32   2.0000      -5.759317      -156.7190
  33   2.0000      -5.754536      -156.5889
  34   2.0000      -5.754494      -156.5878
  35   2.0000      -5.751767      -156.5135
  36   2.0000      -5.751534      -156.5072
  37   2.0000      -4.737697      -128.9193
  38   2.0000      -4.736434      -128.8849
  39   2.0000      -4.736355      -128.8828
  40   2.0000      -4.735296      -128.8539
  41   2.0000      -4.735172      -128.8506
  42   2.0000      -4.734075      -128.8207
  43   2.0000      -1.053780       -28.6748
  44   2.0000      -1.049873       -28.5685
  45   2.0000      -1.011798       -27.5324
  46   2.0000      -1.008013       -27.4294
  47   2.0000      -0.796827       -21.6828
  48   2.0000      -0.758701       -20.6453
  49   2.0000      -0.753028       -20.4909
  50   2.0000      -0.739200       -20.1146
  51   2.0000      -0.734057       -19.9747
  52   2.0000      -0.707712       -19.2578
  53   2.0000      -0.684024       -18.6133
  54   2.0000      -0.667398       -18.1608
  55   2.0000      -0.627112       -17.0646
  56   2.0000      -0.621480       -16.9113
  57   2.0000      -0.608775       -16.5656
  58   2.0000      -0.606658       -16.5080
  59   2.0000      -0.590580       -16.0705
  60   2.0000      -0.533800       -14.5254
  61   2.0000      -0.527086       -14.3427
  62   2.0000      -0.495969       -13.4960
  63   2.0000      -0.493906       -13.4399
  64   2.0000      -0.476103       -12.9554
  65   2.0000      -0.470588       -12.8054
  66   2.0000      -0.463600       -12.6152
  67   2.0000      -0.453257       -12.3338
  68   2.0000      -0.442281       -12.0351
  69   2.0000      -0.436303       -11.8724
  70   2.0000      -0.426871       -11.6157
  71   2.0000      -0.415435       -11.3046
  72   2.0000      -0.412338       -11.2203
  73   2.0000      -0.394698       -10.7403
  74   2.0000      -0.391343       -10.6490
  75   2.0000      -0.387999       -10.5580
  76   2.0000      -0.380799       -10.3621
  77   2.0000      -0.375286       -10.2121
  78   2.0000      -0.373810       -10.1719
  79   2.0000      -0.369913       -10.0658
  80   2.0000      -0.367128        -9.9901
  81   2.0000      -0.360391        -9.8067
  82   2.0000      -0.357605        -9.7309
  83   2.0000      -0.352107        -9.5813
  84   2.0000      -0.350807        -9.5459
  85   2.0000      -0.338161        -9.2018
  86   2.0000      -0.326113        -8.8740
  87   2.0000      -0.319652        -8.6982
  88   2.0000      -0.315813        -8.5937
  89   2.0000      -0.311105        -8.4656
  90   2.0000      -0.309018        -8.4088
  91   2.0000      -0.290976        -7.9179
  92   2.0000      -0.282114        -7.6767
  93   2.0000      -0.276156        -7.5146
  94   2.0000      -0.269784        -7.3412
  95   2.0000      -0.245824        -6.6892
  96   2.0000      -0.225640        -6.1400
  97   2.0000      -0.222736        -6.0609
  98   2.0000      -0.220477        -5.9995
  99   2.0000      -0.209976        -5.7137
 100   2.0000      -0.206015        -5.6060
 101   0.0000      -0.044719        -1.2169
 102   0.0000      -0.027696        -0.7537
 103   0.0000       0.000763         0.0207
 104   0.0000       0.002983         0.0812
 105   0.0000       0.013176         0.3585

MULLIKEN ATOMIC CHARGES
-----------------------
   0 C :   -0.527412
   1 C :   -0.071416
   2 O :   -0.279524
   3 P :    0.671967
   4 S :   -0.456962
   5 O :   -0.292606
   6 C :   -0.150816
   7 C :   -0.444435
   8 S :   -0.146293
   9 C :   -0.243223
  10 S :   -0.142316
  11 P :    0.657060
  12 S :   -0.442333
  13 O :   -0.266510
  14 C :   -0.135429
  15 C :   -0.461905
  16 O :   -0.294688
  17 C :   -0.169720
  18 C :   -0.432194
  19 H :    0.152928
  20 H :    0.160864
  21 H :    0.197822
  22 H :    0.150573
  23 H :    0.159886
  24 H :    0.170724
  25 H :    0.155638
  26 H :    0.151062
  27 H :    0.158847
  28 H :    0.147945
  29 H :    0.210138
  30 H :    0.209984
  31 H :    0.160283
  32 H :    0.183934
  33 H :    0.150717
  34 H :    0.152106
  35 H :    0.159417
  36 H :    0.147353
  37 H :    0.174029
  38 H :    0.155607
  39 H :    0.146817
  40 H :    0.172079
Sum of atomic charges:    0.0000000

LOEWDIN ATOMIC CHARGES
----------------------
   0 C :   -0.406705
   1 C :    0.028247
   2 O :   -0.657895
   3 P :    0.387049
   4 S :   -0.105902
   5 O :   -0.683489
   6 C :    0.018278
   7 C :   -0.386103
   8 S :    0.139198
   9 C :   -0.430689
  10 S :    0.141293
  11 P :    0.383572
  12 S :   -0.096792
  13 O :   -0.664154
  14 C :    0.018100
  15 C :   -0.386137
  16 O :   -0.681946
  17 C :    0.021230
  18 C :   -0.407814
  19 H :    0.160033
  20 H :    0.163023
  21 H :    0.177782
  22 H :    0.180454
  23 H :    0.179397
  24 H :    0.181711
  25 H :    0.173486
  26 H :    0.158462
  27 H :    0.161402
  28 H :    0.160891
  29 H :    0.190569
  30 H :    0.188578
  31 H :    0.180942
  32 H :    0.188371
  33 H :    0.160319
  34 H :    0.158933
  35 H :    0.162471
  36 H :    0.179063
  37 H :    0.180238
  38 H :    0.161251
  39 H :    0.158783
  40 H :    0.164501

  Mayer bond orders larger than 0.100000
B(  0-C ,  1-C ) :   0.8844 B(  0-C , 19-H ) :   0.9651 B(  0-C , 20-H ) :   0.9608
B(  0-C , 21-H ) :   0.9573 B(  1-C ,  2-O ) :   0.7689 B(  1-C , 22-H ) :   0.9594
B(  1-C , 23-H ) :   0.9622 B(  2-O ,  3-P ) :   1.1471 B(  3-P ,  4-S ) :   1.8051
B(  3-P ,  5-O ) :   1.0662 B(  3-P ,  8-S ) :   0.9871 B(  5-O ,  6-C ) :   0.7841
B(  6-C ,  7-C ) :   0.9543 B(  6-C , 24-H ) :   0.9491 B(  6-C , 25-H ) :   0.9403
B(  7-C , 26-H ) :   0.9717 B(  7-C , 27-H ) :   0.9721 B(  7-C , 28-H ) :   0.9637
B(  8-S ,  9-C ) :   0.8970 B(  9-C , 10-S ) :   0.9063 B(  9-C , 29-H ) :   0.9096
B(  9-C , 30-H ) :   0.9138 B( 10-S , 11-P ) :   1.0116 B( 11-P , 12-S ) :   1.8278
B( 11-P , 13-O ) :   1.1444 B( 11-P , 16-O ) :   1.0426 B( 13-O , 14-C ) :   0.6979
B( 14-C , 15-C ) :   0.9431 B( 14-C , 31-H ) :   0.9505 B( 14-C , 32-H ) :   0.9386
B( 15-C , 33-H ) :   0.9710 B( 15-C , 34-H ) :   0.9725 B( 15-C , 35-H ) :   0.9704
B( 16-O , 17-C ) :   0.8195 B( 17-C , 18-C ) :   0.9209 B( 17-C , 36-H ) :   0.9617
B( 17-C , 37-H ) :   0.9683 B( 18-C , 38-H ) :   0.9661 B( 18-C , 39-H ) :   0.9575
B( 18-C , 40-H ) :   0.9651

Dispersion correction           -0.021861646
FINAL SINGLE POINT ENERGY     -2932.462013492312

DIPOLE MOMENT
-------------

Method             : SCF
Type of density    : Electron Density
Multiplicity       :   1
Irrep              :   0
Energy             : -2932.4864721646831640 Eh
Relativity type    :
Basis              : AO
                                X                 Y                 Z
Electronic contribution:     -4.742507160     -10.915299800       1.695040258
Nuclear contribution   :      5.017412249      11.783711445      -1.740577418
                        -----------------------------------------
Total Dipole Moment    :      0.274905090       0.868411644      -0.045537160
                        -----------------------------------------
Magnitude (a.u.)       :      0.912022601
Magnitude (Debye)      :      2.318177224

Rotational constants in cm-1:             0.013010             0.005026             0.004549
Rotational constants in MHz :           390.041454           150.672484           136.366215

                             ****ORCA TERMINATED NORMALLY****
TOTAL RUN TIME: 0 days 0 hours 1 minutes 20 seconds 654 msec
