                         Program Version 6.0.0  -   RELEASE  -
|  1> ! r2scan-3c def2/J RI DEFGRID2 scfconv6 printgap
|  2> %output
|  3>     printlevel normal
|  4> end
|  5> %cpcm
|  6>     smd true
|  7>     smdsolvent "water"
|  8> end
|  9> * xyz 0 1
| 10> C 2.1414669743 2.1793474363 -1.1000461418
| 11> C 2.2937377361 2.3070924184 0.4010299694
| 12> O 1.6317062605 1.2374592675 1.1258836244
| 13> P 1.9873716167 -0.2955126258 1.0038426531
| 14> S 1.5400737721 -1.3020262274 2.6216267823
| 15> O 3.5324448271 -0.2507767922 0.6392809707
| 16> C 4.302718012 -1.4675337125 0.5558591342
| 17> C 5.7698505601 -1.0949122839 0.6206184158
| 18> S 1.0802794835 -1.0330378152 -0.7886001018
| 19> C -0.294967451 -1.9412075468 -0.0449167958
| 20> S -1.5005807713 -0.8792652111 0.7914515513
| 21> P -2.1246555654 0.2397501822 -0.9239571773
| 22> S -1.9306296073 -0.6143989 -2.6683798156
| 23> O -1.3326917793 1.6028899534 -0.820221812
| 24> C -1.4636567948 2.5067944797 0.3107312773
| 25> C -1.407300596 3.9272706836 -0.2122698465
| 26> O -3.6002700501 0.7023473683 -0.5451451953
| 27> C -4.7607900837 -0.0800734796 -0.8778155415
| 28> C -4.806040295 -1.3935667139 -0.1246253064
| 29> H 2.56680443 3.0581482877 -1.574997359
| 30> H 2.6642674707 1.2955078396 -1.4613838636
| 31> H 1.0931462376 2.0943855402 -1.3782707146
| 32> H 1.8056891503 3.2057885381 0.7818698587
| 33> H 3.3467045813 2.306644172 0.6867510704
| 34> H 4.0166921485 -2.1183105755 1.3887722853
| 35> H 4.0555678999 -1.9623874703 -0.3872906981
| 36> H 6.0217975702 -0.4265198768 -0.1974998855
| 37> H 5.9880868707 -0.5996730588 1.5625741064
| 38> H 6.3681916486 -1.9967582095 0.544164133
| 39> H 0.080412551 -2.6249310517 0.7154300857
| 40> H -0.7774240522 -2.4716946678 -0.8646154546
| 41> H -2.4100235374 2.3083767833 0.8166283396
| 42> H -0.6388188143 2.2891961084 0.9938414667
| 43> H -1.4713972504 4.615199934 0.6248356911
| 44> H -0.4778958106 4.096176716 -0.7484283121
| 45> H -2.2382247301 4.1068130967 -0.8891411672
| 46> H -5.595704064 0.5682657976 -0.6080823079
| 47> H -4.7580188244 -0.256081192 -1.9578203701
| 48> H -4.6906034396 -1.224330239 0.9432132181
| 49> H -5.7573505121 -1.881004233 -0.3120202067
| 50> H -4.0032418345 -2.0457303398 -0.4654001335
| 51> *
| 52>
| 53>                          ****END OF INPUT****

CARTESIAN COORDINATES (ANGSTROEM)
---------------------------------
  C      2.141467    2.179347   -1.100046
  C      2.293738    2.307092    0.401030
  O      1.631706    1.237459    1.125884
  P      1.987372   -0.295513    1.003843
  S      1.540074   -1.302026    2.621627
  O      3.532445   -0.250777    0.639281
  C      4.302718   -1.467534    0.555859
  C      5.769851   -1.094912    0.620618
  S      1.080279   -1.033038   -0.788600
  C     -0.294967   -1.941208   -0.044917
  S     -1.500581   -0.879265    0.791452
  P     -2.124656    0.239750   -0.923957
  S     -1.930630   -0.614399   -2.668380
  O     -1.332692    1.602890   -0.820222
  C     -1.463657    2.506794    0.310731
  C     -1.407301    3.927271   -0.212270
  O     -3.600270    0.702347   -0.545145
  C     -4.760790   -0.080073   -0.877816
  C     -4.806040   -1.393567   -0.124625
  H      2.566804    3.058148   -1.574997
  H      2.664267    1.295508   -1.461384
  H      1.093146    2.094386   -1.378271
  H      1.805689    3.205789    0.781870
  H      3.346705    2.306644    0.686751
  H      4.016692   -2.118311    1.388772
  H      4.055568   -1.962387   -0.387291
  H      6.021798   -0.426520   -0.197500
  H      5.988087   -0.599673    1.562574
  H      6.368192   -1.996758    0.544164
  H      0.080413   -2.624931    0.715430
  H     -0.777424   -2.471695   -0.864615
  H     -2.410024    2.308377    0.816628
  H     -0.638819    2.289196    0.993841
  H     -1.471397    4.615200    0.624836
  H     -0.477896    4.096177   -0.748428
  H     -2.238225    4.106813   -0.889141
  H     -5.595704    0.568266   -0.608082
  H     -4.758019   -0.256081   -1.957820
  H     -4.690603   -1.224330    0.943213
  H     -5.757351   -1.881004   -0.312020
  H     -4.003242   -2.045730   -0.465400

 Total Charge           Charge          ....    0
 Multiplicity           Mult            ....    1
 Number of Electrons    NEL             ....  202
 Basis Dimension        Dim             ....  539

ORBITAL ENERGIES
----------------

  NO   OCC          E(Eh)            E(eV)
   0   2.0000     -88.576115     -2410.2786
   1   2.0000     -88.575215     -2410.2541
   2   2.0000     -88.530161     -2409.0282
   3   2.0000     -88.527607     -2408.9587
   4   2.0000     -76.919462     -2093.0850
   5   2.0000     -76.918912     -2093.0700
   6   2.0000     -18.995994      -516.9073
   7   2.0000     -18.994899      -516.8775
   8   2.0000     -18.994145      -516.8570
   9   2.0000     -18.992239      -516.8051
  10   2.0000     -10.102293      -274.8974
  11   2.0000     -10.092999      -274.6445
  12   2.0000     -10.090388      -274.5734
  13   2.0000     -10.090294      -274.5708
  14   2.0000     -10.089925      -274.5608
  15   2.0000     -10.020109      -272.6610
  16   2.0000     -10.019772      -272.6518
  17   2.0000     -10.019590      -272.6469
  18   2.0000     -10.017987      -272.6033
  19   2.0000      -7.870185      -214.1586
  20   2.0000      -7.869298      -214.1345
  21   2.0000      -7.825363      -212.9390
  22   2.0000      -7.822848      -212.8705
  23   2.0000      -6.597900      -179.5380
  24   2.0000      -6.597375      -179.5237
  25   2.0000      -5.817135      -158.2923
  26   2.0000      -5.816203      -158.2669
  27   2.0000      -5.813933      -158.2051
  28   2.0000      -5.813194      -158.1851
  29   2.0000      -5.807403      -158.0275
  30   2.0000      -5.806413      -158.0005
  31   2.0000      -5.773034      -157.0922
  32   2.0000      -5.770483      -157.0228
  33   2.0000      -5.765514      -156.8876
  34   2.0000      -5.765390      -156.8842
  35   2.0000      -5.763029      -156.8200
  36   2.0000      -5.762875      -156.8158
  37   2.0000      -4.743817      -129.0858
  38   2.0000      -4.743156      -129.0678
  39   2.0000      -4.742612      -129.0530
  40   2.0000      -4.742159      -129.0407
  41   2.0000      -4.741517      -129.0232
  42   2.0000      -4.741059      -129.0108
  43   2.0000      -1.054503       -28.6945
  44   2.0000      -1.052335       -28.6355
  45   2.0000      -1.011868       -27.5343
  46   2.0000      -1.009873       -27.4800
  47   2.0000      -0.800434       -21.7809
  48   2.0000      -0.754376       -20.5276
  49   2.0000      -0.746307       -20.3080
  50   2.0000      -0.728053       -19.8113
  51   2.0000      -0.725100       -19.7310
  52   2.0000      -0.707889       -19.2626
  53   2.0000      -0.687990       -18.7212
  54   2.0000      -0.674645       -18.3580
  55   2.0000      -0.626196       -17.0397
  56   2.0000      -0.617244       -16.7961
  57   2.0000      -0.599236       -16.3061
  58   2.0000      -0.598967       -16.2987
  59   2.0000      -0.589995       -16.0546
  60   2.0000      -0.529877       -14.4187
  61   2.0000      -0.523044       -14.2328
  62   2.0000      -0.490580       -13.3494
  63   2.0000      -0.489557       -13.3215
  64   2.0000      -0.477393       -12.9905
  65   2.0000      -0.464670       -12.6443
  66   2.0000      -0.457889       -12.4598
  67   2.0000      -0.446352       -12.1458
  68   2.0000      -0.433849       -11.8056
  69   2.0000      -0.433450       -11.7948
  70   2.0000      -0.424327       -11.5465
  71   2.0000      -0.410447       -11.1688
  72   2.0000      -0.408698       -11.1213
  73   2.0000      -0.394954       -10.7472
  74   2.0000      -0.387909       -10.5555
  75   2.0000      -0.384827       -10.4717
  76   2.0000      -0.378859       -10.3093
  77   2.0000      -0.368287       -10.0216
  78   2.0000      -0.362770        -9.8715
  79   2.0000      -0.362075        -9.8526
  80   2.0000      -0.358036        -9.7427
  81   2.0000      -0.351584        -9.5671
  82   2.0000      -0.348135        -9.4732
  83   2.0000      -0.347388        -9.4529
  84   2.0000      -0.342672        -9.3246
  85   2.0000      -0.335268        -9.1231
  86   2.0000      -0.324306        -8.8248
  87   2.0000      -0.315578        -8.5873
  88   2.0000      -0.310811        -8.4576
  89   2.0000      -0.305863        -8.3229
  90   2.0000      -0.304039        -8.2733
  91   2.0000      -0.287700        -7.8287
  92   2.0000      -0.281597        -7.6626
  93   2.0000      -0.276642        -7.5278
  94   2.0000      -0.272605        -7.4180
  95   2.0000      -0.251604        -6.8465
  96   2.0000      -0.237247        -6.4558
  97   2.0000      -0.234469        -6.3802
  98   2.0000      -0.228475        -6.2171
  99   2.0000      -0.220794        -6.0081
 100   2.0000      -0.215544        -5.8653
 101   0.0000      -0.051112        -1.3908
 102   0.0000      -0.035789        -0.9739
 103   0.0000      -0.004505        -0.1226
 104   0.0000      -0.003113        -0.0847
 105   0.0000       0.012237         0.3330

MULLIKEN ATOMIC CHARGES
-----------------------
   0 C :   -0.563143
   1 C :   -0.063579
   2 O :   -0.311724
   3 P :    0.690638
   4 S :   -0.511802
   5 O :   -0.308047
   6 C :   -0.136968
   7 C :   -0.483875
   8 S :   -0.160164
   9 C :   -0.243716
  10 S :   -0.161917
  11 P :    0.683222
  12 S :   -0.492172
  13 O :   -0.302012
  14 C :   -0.114132
  15 C :   -0.507147
  16 O :   -0.314078
  17 C :   -0.163749
  18 C :   -0.470157
  19 H :    0.178780
  20 H :    0.169275
  21 H :    0.187147
  22 H :    0.179839
  23 H :    0.177131
  24 H :    0.171627
  25 H :    0.170860
  26 H :    0.165952
  27 H :    0.166544
  28 H :    0.169605
  29 H :    0.229347
  30 H :    0.233312
  31 H :    0.177984
  32 H :    0.184705
  33 H :    0.172767
  34 H :    0.169834
  35 H :    0.167125
  36 H :    0.175031
  37 H :    0.178298
  38 H :    0.167046
  39 H :    0.171572
  40 H :    0.170739
Sum of atomic charges:   -0.0000000

LOEWDIN ATOMIC CHARGES
----------------------
   0 C :   -0.407691
   1 C :    0.037065
   2 O :   -0.673305
   3 P :    0.389772
   4 S :   -0.148349
   5 O :   -0.687187
   6 C :    0.023554
   7 C :   -0.389141
   8 S :    0.133761
   9 C :   -0.423915
  10 S :    0.133463
  11 P :    0.387006
  12 S :   -0.133613
  13 O :   -0.682185
  14 C :    0.025209
  15 C :   -0.388269
  16 O :   -0.686720
  17 C :    0.026674
  18 C :   -0.410761
  19 H :    0.170579
  20 H :    0.162463
  21 H :    0.171792
  22 H :    0.193403
  23 H :    0.186479
  24 H :    0.181829
  25 H :    0.180001
  26 H :    0.163177
  27 H :    0.162990
  28 H :    0.169186
  29 H :    0.196827
  30 H :    0.196288
  31 H :    0.187126
  32 H :    0.190173
  33 H :    0.170063
  34 H :    0.164219
  35 H :    0.163244
  36 H :    0.190883
  37 H :    0.181283
  38 H :    0.163653
  39 H :    0.167786
  40 H :    0.161186

  Mayer bond orders larger than 0.100000
B(  0-C ,  1-C ) :   0.8711 B(  0-C , 19-H ) :   0.9569 B(  0-C , 20-H ) :   0.9608
B(  0-C , 21-H ) :   0.9609 B(  1-C ,  2-O ) :   0.7602 B(  1-C , 22-H ) :   0.9479
B(  1-C , 23-H ) :   0.9574 B(  2-O ,  3-P ) :   1.1572 B(  3-P ,  4-S ) :   1.7800
B(  3-P ,  5-O ) :   1.0801 B(  3-P ,  8-S ) :   0.9922 B(  5-O ,  6-C ) :   0.7755
B(  6-C ,  7-C ) :   0.9531 B(  6-C , 24-H ) :   0.9473 B(  6-C , 25-H ) :   0.9318
B(  7-C , 26-H ) :   0.9682 B(  7-C , 27-H ) :   0.9698 B(  7-C , 28-H ) :   0.9582
B(  8-S ,  9-C ) :   0.8858 B(  9-C , 10-S ) :   0.8933 B(  9-C , 29-H ) :   0.9049
B(  9-C , 30-H ) :   0.9077 B( 10-S , 11-P ) :   1.0115 B( 11-P , 12-S ) :   1.8059
B( 11-P , 13-O ) :   1.1510 B( 11-P , 16-O ) :   1.0550 B( 13-O , 14-C ) :   0.6935
B( 14-C , 15-C ) :   0.9370 B( 14-C , 31-H ) :   0.9431 B( 14-C , 32-H ) :   0.9313
B( 15-C , 33-H ) :   0.9627 B( 15-C , 34-H ) :   0.9691 B( 15-C , 35-H ) :   0.9705
B( 16-O , 17-C ) :   0.8082 B( 17-C , 18-C ) :   0.9094 B( 17-C , 36-H ) :   0.9510
B( 17-C , 37-H ) :   0.9667 B( 18-C , 38-H ) :   0.9643 B( 18-C , 39-H ) :   0.9522
B( 18-C , 40-H ) :   0.9657

Dispersion correction           -0.021861646
FINAL SINGLE POINT ENERGY     -2932.473257363511

DIPOLE MOMENT
-------------

Method             : SCF
Type of density    : Electron Density
Multiplicity       :   1
Irrep              :   0
Energy             : -2932.4977160358821493 Eh
Relativity type    :
Basis              : AO
                                X                 Y                 Z
Electronic contribution:     -4.688194966     -10.696343685       1.689857453
Nuclear contribution   :      5.017412249      11.783711445      -1.740577418
                        -----------------------------------------
Total Dipole Moment    :      0.329217284       1.087367759      -0.050719965
                        -----------------------------------------
Magnitude (a.u.)       :      1.137244555
Magnitude (Debye)      :      2.890645936

Rotational constants in cm-1:             0.013010             0.005026             0.004549
Rotational constants in MHz :           390.041454           150.672484           136.366215

                             ****ORCA TERMINATED NORMALLY****
TOTAL RUN TIME: 0 days 0 hours 1 minutes 51 seconds 853 msec
