                         Program Version 6.0.0  -   RELEASE  -
|  1> ! pbe def2-sv(p) def2/J RI DEFGRID1 loosescf d4 GCP(DFT/SV(P)) printgap
|  2> %output
|  3>     printlevel normal
|  4> end
|  5> * xyz 0 1
|  6> C 5.7130647716 -0.341768577 -0.7128495496
|  7> C 4.5966020311 -1.1897855397 -1.2845292436
|  8> O 3.4408287453 -1.2102892811 -0.4215074186
|  9> P 2.5274783786 0.0651011709 -0.1952136345
| 10> S 2.2785395609 1.1913658641 -1.7881653421
| 11> O 3.2226117808 0.7733111698 1.0446392875
| 12> C 2.931882414 2.1270573503 1.4312880924
| 13> C 1.5341486544 2.2669502206 1.9985213698
| 14> S 0.8551698013 -0.9130997726 0.620608163
| 15> C 0.0457542159 -1.2964829768 -0.9758830827
| 16> S -1.6688662061 -1.7725111994 -0.7404881801
| 17> P -2.5041849122 0.1301021971 -0.2141112101
| 18> S -1.3651597174 1.673519961 -0.6114003754
| 19> O -2.9622079631 -0.0139526068 1.3017620454
| 20> C -2.0410984914 0.0699816806 2.4055772624
| 21> C -2.8571899012 0.2071132534 3.6748138558
| 22> O -3.8810907182 0.2182437968 -0.9664729916
| 23> C -5.09379751 -0.4849718593 -0.591958482
| 24> C -4.9347860025 -1.9884597804 -0.6528847656
| 25> H 5.4122191984 0.7049405475 -0.6991254872
| 26> H 5.9405074916 -0.6558019909 0.3023563382
| 27> H 6.5981086782 -0.4463026961 -1.3326237421
| 28> H 4.8823903609 -2.2396556331 -1.3608164809
| 29> H 4.2883132858 -0.8119175447 -2.2648128567
| 30> H 3.6945498402 2.3546023352 2.1774193997
| 31> H 3.057117916 2.7743060524 0.5571032848
| 32> H 0.7950901578 2.1160694759 1.2109198897
| 33> H 1.3722766587 1.5322869515 2.7837196958
| 34> H 1.4071491484 3.2657438016 2.4035712221
| 35> H 0.542942839 -2.1459204723 -1.4384894206
| 36> H 0.1009272461 -0.4059204615 -1.6073888225
| 37> H -1.4270020526 -0.8354399871 2.4163404251
| 38> H -1.3890866245 0.9351328027 2.2498458725
| 39> H -2.1842596379 0.2655054905 4.523664335
| 40> H -3.4621134629 1.1084891912 3.6342136234
| 41> H -3.5100826478 -0.6525584227 3.7925003409
| 42> H -5.3785255163 -0.1598802138 0.4098665324
| 43> H -5.8205995532 -0.1259497056 -1.3221196981
| 44> H -4.5906276955 -2.2955628357 -1.6369992537
| 45> H -4.2111209038 -2.3234746629 0.0879508591
| 46> H -5.8934671908 -2.4543306416 -0.4469318515
| 47> *
| 48>
| 49>                          ****END OF INPUT****

CARTESIAN COORDINATES (ANGSTROEM)
---------------------------------
  C      5.713065   -0.341769   -0.712850
  C      4.596602   -1.189786   -1.284529
  O      3.440829   -1.210289   -0.421507
  P      2.527478    0.065101   -0.195214
  S      2.278540    1.191366   -1.788165
  O      3.222612    0.773311    1.044639
  C      2.931882    2.127057    1.431288
  C      1.534149    2.266950    1.998521
  S      0.855170   -0.913100    0.620608
  C      0.045754   -1.296483   -0.975883
  S     -1.668866   -1.772511   -0.740488
  P     -2.504185    0.130102   -0.214111
  S     -1.365160    1.673520   -0.611400
  O     -2.962208   -0.013953    1.301762
  C     -2.041098    0.069982    2.405577
  C     -2.857190    0.207113    3.674814
  O     -3.881091    0.218244   -0.966473
  C     -5.093798   -0.484972   -0.591958
  C     -4.934786   -1.988460   -0.652885
  H      5.412219    0.704941   -0.699125
  H      5.940507   -0.655802    0.302356
  H      6.598109   -0.446303   -1.332624
  H      4.882390   -2.239656   -1.360816
  H      4.288313   -0.811918   -2.264813
  H      3.694550    2.354602    2.177419
  H      3.057118    2.774306    0.557103
  H      0.795090    2.116069    1.210920
  H      1.372277    1.532287    2.783720
  H      1.407149    3.265744    2.403571
  H      0.542943   -2.145920   -1.438489
  H      0.100927   -0.405920   -1.607389
  H     -1.427002   -0.835440    2.416340
  H     -1.389087    0.935133    2.249846
  H     -2.184260    0.265505    4.523664
  H     -3.462113    1.108489    3.634214
  H     -3.510083   -0.652558    3.792500
  H     -5.378526   -0.159880    0.409867
  H     -5.820600   -0.125950   -1.322120
  H     -4.590628   -2.295563   -1.636999
  H     -4.211121   -2.323475    0.087951
  H     -5.893467   -2.454331   -0.446932

 Total Charge           Charge          ....    0
 Multiplicity           Mult            ....    1
 Number of Electrons    NEL             ....  202
 Basis Dimension        Dim             ....  334

ORBITAL ENERGIES
----------------

  NO   OCC          E(Eh)            E(eV)
   0   2.0000     -88.045303     -2395.8345
   1   2.0000     -88.036986     -2395.6082
   2   2.0000     -87.983490     -2394.1525
   3   2.0000     -87.980734     -2394.0775
   4   2.0000     -76.425364     -2079.6399
   5   2.0000     -76.422139     -2079.5521
   6   2.0000     -18.794086      -511.4131
   7   2.0000     -18.793842      -511.4064
   8   2.0000     -18.791643      -511.3466
   9   2.0000     -18.785362      -511.1757
  10   2.0000      -9.960358      -271.0351
  11   2.0000      -9.952646      -270.8253
  12   2.0000      -9.949911      -270.7508
  13   2.0000      -9.949896      -270.7504
  14   2.0000      -9.948013      -270.6992
  15   2.0000      -9.893921      -269.2273
  16   2.0000      -9.889918      -269.1183
  17   2.0000      -9.881802      -268.8975
  18   2.0000      -9.878538      -268.8087
  19   2.0000      -7.690004      -209.2556
  20   2.0000      -7.682176      -209.0426
  21   2.0000      -7.628327      -207.5773
  22   2.0000      -7.625525      -207.5011
  23   2.0000      -6.422894      -174.7758
  24   2.0000      -6.419815      -174.6920
  25   2.0000      -5.717984      -155.5943
  26   2.0000      -5.714303      -155.4941
  27   2.0000      -5.710081      -155.3792
  28   2.0000      -5.707211      -155.3011
  29   2.0000      -5.706999      -155.2954
  30   2.0000      -5.698781      -155.0717
  31   2.0000      -5.657118      -153.9380
  32   2.0000      -5.654640      -153.8706
  33   2.0000      -5.649006      -153.7173
  34   2.0000      -5.648597      -153.7061
  35   2.0000      -5.645937      -153.6338
  36   2.0000      -5.645686      -153.6269
  37   2.0000      -4.645818      -126.4191
  38   2.0000      -4.644515      -126.3837
  39   2.0000      -4.643135      -126.3461
  40   2.0000      -4.642344      -126.3246
  41   2.0000      -4.641482      -126.3011
  42   2.0000      -4.640367      -126.2708
  43   2.0000      -0.990116       -26.9424
  44   2.0000      -0.983810       -26.7708
  45   2.0000      -0.945787       -25.7362
  46   2.0000      -0.943389       -25.6709
  47   2.0000      -0.760971       -20.7071
  48   2.0000      -0.722524       -19.6609
  49   2.0000      -0.710265       -19.3273
  50   2.0000      -0.696070       -18.9410
  51   2.0000      -0.684546       -18.6275
  52   2.0000      -0.673372       -18.3234
  53   2.0000      -0.648807       -17.6549
  54   2.0000      -0.632266       -17.2048
  55   2.0000      -0.599051       -16.3010
  56   2.0000      -0.592216       -16.1150
  57   2.0000      -0.575872       -15.6703
  58   2.0000      -0.569750       -15.5037
  59   2.0000      -0.558056       -15.1855
  60   2.0000      -0.506186       -13.7740
  61   2.0000      -0.490233       -13.3399
  62   2.0000      -0.477347       -12.9893
  63   2.0000      -0.470550       -12.8043
  64   2.0000      -0.448543       -12.2055
  65   2.0000      -0.447369       -12.1735
  66   2.0000      -0.446576       -12.1519
  67   2.0000      -0.436082       -11.8664
  68   2.0000      -0.432005       -11.7555
  69   2.0000      -0.416271       -11.3273
  70   2.0000      -0.412435       -11.2229
  71   2.0000      -0.396569       -10.7912
  72   2.0000      -0.391628       -10.6567
  73   2.0000      -0.389516       -10.5993
  74   2.0000      -0.379923       -10.3382
  75   2.0000      -0.377477       -10.2717
  76   2.0000      -0.367047        -9.9879
  77   2.0000      -0.360102        -9.7989
  78   2.0000      -0.353557        -9.6208
  79   2.0000      -0.352245        -9.5851
  80   2.0000      -0.346530        -9.4296
  81   2.0000      -0.345719        -9.4075
  82   2.0000      -0.340972        -9.2783
  83   2.0000      -0.339545        -9.2395
  84   2.0000      -0.331319        -9.0156
  85   2.0000      -0.314931        -8.5697
  86   2.0000      -0.311345        -8.4721
  87   2.0000      -0.302687        -8.2365
  88   2.0000      -0.296023        -8.0552
  89   2.0000      -0.291394        -7.9292
  90   2.0000      -0.280175        -7.6239
  91   2.0000      -0.275724        -7.5028
  92   2.0000      -0.270322        -7.3558
  93   2.0000      -0.263138        -7.1604
  94   2.0000      -0.258454        -7.0329
  95   2.0000      -0.233493        -6.3537
  96   2.0000      -0.218440        -5.9441
  97   2.0000      -0.207763        -5.6535
  98   2.0000      -0.200640        -5.4597
  99   2.0000      -0.193771        -5.2728
 100   2.0000      -0.191207        -5.2030
 101   0.0000      -0.043508        -1.1839
 102   0.0000      -0.030943        -0.8420
 103   0.0000      -0.008465        -0.2303
 104   0.0000       0.007127         0.1939
 105   0.0000       0.017177         0.4674

MULLIKEN ATOMIC CHARGES
-----------------------
   0 C :   -0.306487
   1 C :   -0.003912
   2 O :   -0.370383
   3 P :    0.614226
   4 S :   -0.321454
   5 O :   -0.372322
   6 C :    0.005924
   7 C :   -0.361690
   8 S :   -0.101617
   9 C :   -0.335870
  10 S :   -0.125520
  11 P :    0.604329
  12 S :   -0.286764
  13 O :   -0.388721
  14 C :   -0.032952
  15 C :   -0.272988
  16 O :   -0.359568
  17 C :    0.006551
  18 C :   -0.336797
  19 H :    0.122093
  20 H :    0.116973
  21 H :    0.110952
  22 H :    0.103259
  23 H :    0.108955
  24 H :    0.102619
  25 H :    0.110865
  26 H :    0.172243
  27 H :    0.111528
  28 H :    0.111806
  29 H :    0.179216
  30 H :    0.210922
  31 H :    0.109800
  32 H :    0.123183
  33 H :    0.111971
  34 H :    0.118162
  35 H :    0.112669
  36 H :    0.111922
  37 H :    0.113740
  38 H :    0.131813
  39 H :    0.131649
  40 H :    0.119673
Sum of atomic charges:    0.0000000

LOEWDIN ATOMIC CHARGES
----------------------
   0 C :   -0.364313
   1 C :   -0.118943
   2 O :   -0.246976
   3 P :    0.571028
   4 S :   -0.309407
   5 O :   -0.242371
   6 C :   -0.117490
   7 C :   -0.377518
   8 S :    0.079665
   9 C :   -0.479989
  10 S :    0.073241
  11 P :    0.564520
  12 S :   -0.282791
  13 O :   -0.251715
  14 C :   -0.122642
  15 C :   -0.350035
  16 O :   -0.235403
  17 C :   -0.107394
  18 C :   -0.372622
  19 H :    0.122933
  20 H :    0.126516
  21 H :    0.129689
  22 H :    0.117840
  23 H :    0.109424
  24 H :    0.117310
  25 H :    0.111630
  26 H :    0.122939
  27 H :    0.120166
  28 H :    0.131001
  29 H :    0.133710
  30 H :    0.124596
  31 H :    0.103699
  32 H :    0.113003
  33 H :    0.131178
  34 H :    0.127842
  35 H :    0.124864
  36 H :    0.115628
  37 H :    0.124324
  38 H :    0.129861
  39 H :    0.118156
  40 H :    0.134846

  Mayer bond orders larger than 0.100000
B(  0-C ,  1-C ) :   1.1645 B(  0-C , 19-H ) :   0.9381 B(  0-C , 20-H ) :   0.9464
B(  0-C , 21-H ) :   0.9389 B(  1-C ,  2-O ) :   0.9119 B(  1-C , 22-H ) :   0.9350
B(  1-C , 23-H ) :   0.9148 B(  2-O ,  3-P ) :   1.1181 B(  3-P ,  4-S ) :   1.6071
B(  3-P ,  5-O ) :   1.1096 B(  3-P ,  8-S ) :   0.9663 B(  4-S ,  8-S ) :   0.1155
B(  5-O ,  6-C ) :   0.9066 B(  6-C ,  7-C ) :   1.1643 B(  6-C , 24-H ) :   0.9332
B(  6-C , 25-H ) :   0.9153 B(  7-C , 26-H ) :   0.9133 B(  7-C , 27-H ) :   0.9431
B(  7-C , 28-H ) :   0.9367 B(  8-S ,  9-C ) :   0.9762 B(  9-C , 10-S ) :   1.0211
B(  9-C , 29-H ) :   0.9046 B(  9-C , 30-H ) :   0.8528 B( 10-S , 11-P ) :   0.9216
B( 10-S , 12-S ) :   0.1155 B( 11-P , 12-S ) :   1.6747 B( 11-P , 13-O ) :   1.0655
B( 11-P , 16-O ) :   1.1477 B( 13-O , 14-C ) :   0.9019 B( 14-C , 15-C ) :   1.1571
B( 14-C , 31-H ) :   0.9201 B( 14-C , 32-H ) :   0.9124 B( 15-C , 33-H ) :   0.9421
B( 15-C , 34-H ) :   0.9503 B( 15-C , 35-H ) :   0.9509 B( 16-O , 17-C ) :   0.8970
B( 17-C , 18-C ) :   1.1702 B( 17-C , 36-H ) :   0.9270 B( 17-C , 37-H ) :   0.9336
B( 18-C , 38-H ) :   0.9417 B( 18-C , 39-H ) :   0.9304 B( 18-C , 40-H ) :   0.9350

Dispersion correction           -0.064397625
FINAL SINGLE POINT ENERGY     -2929.516958840757

DIPOLE MOMENT
-------------

Method             : SCF
Type of density    : Electron Density
Multiplicity       :   1
Irrep              :   0
Energy             : -2929.6371793740581779 Eh
Relativity type    :
Basis              : AO
                                X                 Y                 Z
Electronic contribution:     -0.506054192      -0.209065954     -12.860577978
Nuclear contribution   :      0.184452114      -0.648045043      14.000214159
                        -----------------------------------------
Total Dipole Moment    :     -0.321602078      -0.857110997       1.139636181
                        -----------------------------------------
Magnitude (a.u.)       :      1.461792661
Magnitude (Debye)      :      3.715581662

Rotational constants in cm-1:             0.014163             0.004415             0.004075
Rotational constants in MHz :           424.587636           132.369469           122.175909

                             ****ORCA TERMINATED NORMALLY****
TOTAL RUN TIME: 0 days 0 hours 0 minutes 20 seconds 722 msec
