                         Program Version 6.0.1  -  RELEASE   -
|  1> ! pbe def2-sv(p) def2/J RI DEFGRID1 loosescf d4 GCP(DFT/SV(P)) printgap
|  2> %output
|  3>     printlevel normal
|  4> end
|  5> * xyz 0 1
|  6> C 5.2795036199 -1.9765809421 -1.5031473414
|  7> C 4.5128821399 -0.6663590651 -1.4164673337
|  8> O 3.0917395053 -0.8988141483 -1.3961675565
|  9> C 2.5137271243 -1.1377064563 -0.2339741751
| 10> O 3.0919134171 -1.179210515 0.8270287073
| 11> C 1.0201924959 -1.3661793751 -0.3960928607
| 12> C 0.3704809266 -0.1869108237 -1.1231873231
| 13> H 0.834747351 -0.0574755416 -2.1045693678
| 14> C 0.5175511057 1.0923390357 -0.3238797564
| 15> O -0.4357181079 1.732972968 0.0720718135
| 16> O 1.7708443649 1.4022155917 -0.1284248203
| 17> C 2.0773672976 2.5017379578 0.7580069814
| 18> C 2.1079875731 2.0164426978 2.1976931891
| 19> S -1.3964775513 -0.4660276529 -1.4492951642
| 20> P -2.321989672 0.0554436606 0.4003788377
| 21> S -1.3883553688 -0.2357068285 2.1005257715
| 22> O -3.0636359865 1.4457325361 0.2808882444
| 23> C -3.9315007249 1.7696631388 -0.822033796
| 24> O -3.611421099 -0.9048428272 0.2782926986
| 25> C -3.5100473621 -2.3215947911 0.4322072794
| 26> H 5.1050329636 -2.5711707285 -0.6093151753
| 27> H 4.9584957081 -2.5418445329 -2.3736214362
| 28> H 6.3408926661 -1.7666176863 -1.5840348486
| 29> H 4.6756588052 -0.0508772682 -2.3012022364
| 30> H 4.7876688184 -0.1164956134 -0.5122392922
| 31> H 0.5830475364 -1.5019606695 0.5957761928
| 32> H 0.8674418042 -2.2694220085 -0.9885387104
| 33> H 3.0570239862 2.8477747554 0.4293296251
| 34> H 1.3243119881 3.2821860505 0.6212046449
| 35> H 2.79373123 1.1777679896 2.2947684118
| 36> H 2.4279323298 2.8241941752 2.8468846861
| 37> H 1.1176527059 1.684620799 2.5065390006
| 38> H -4.7883199335 1.0981807916 -0.8299657109
| 39> H -3.3850952371 1.6924636073 -1.7621116302
| 40> H -4.2421100014 2.795594366 -0.6420268784
| 41> H -3.0586409499 -2.7596594259 -0.4577918947
| 42> H -4.5291179362 -2.6775876395 0.5600727414
| 43> H -2.911253691 -2.5608291746 1.3130095467
| 44> *
| 45>
| 46>                          ****END OF INPUT****

CARTESIAN COORDINATES (ANGSTROEM)
---------------------------------
  C      5.279504   -1.976581   -1.503147
  C      4.512882   -0.666359   -1.416467
  O      3.091740   -0.898814   -1.396168
  C      2.513727   -1.137706   -0.233974
  O      3.091913   -1.179211    0.827029
  C      1.020192   -1.366179   -0.396093
  C      0.370481   -0.186911   -1.123187
  H      0.834747   -0.057476   -2.104569
  C      0.517551    1.092339   -0.323880
  O     -0.435718    1.732973    0.072072
  O      1.770844    1.402216   -0.128425
  C      2.077367    2.501738    0.758007
  C      2.107988    2.016443    2.197693
  S     -1.396478   -0.466028   -1.449295
  P     -2.321990    0.055444    0.400379
  S     -1.388355   -0.235707    2.100526
  O     -3.063636    1.445733    0.280888
  C     -3.931501    1.769663   -0.822034
  O     -3.611421   -0.904843    0.278293
  C     -3.510047   -2.321595    0.432207
  H      5.105033   -2.571171   -0.609315
  H      4.958496   -2.541845   -2.373621
  H      6.340893   -1.766618   -1.584035
  H      4.675659   -0.050877   -2.301202
  H      4.787669   -0.116496   -0.512239
  H      0.583048   -1.501961    0.595776
  H      0.867442   -2.269422   -0.988539
  H      3.057024    2.847775    0.429330
  H      1.324312    3.282186    0.621205
  H      2.793731    1.177768    2.294768
  H      2.427932    2.824194    2.846885
  H      1.117653    1.684621    2.506539
  H     -4.788320    1.098181   -0.829966
  H     -3.385095    1.692464   -1.762112
  H     -4.242110    2.795594   -0.642027
  H     -3.058641   -2.759659   -0.457792
  H     -4.529118   -2.677588    0.560073
  H     -2.911254   -2.560829    1.313010

 Total Charge           Charge          ....    0
 Multiplicity           Mult            ....    1
 Number of Electrons    NEL             ....  174
 Basis Dimension        Dim             ....  316

ORBITAL ENERGIES
----------------

  NO   OCC          E(Eh)            E(eV)
   0   2.0000     -88.038697     -2395.6547
   1   2.0000     -87.973886     -2393.8911
   2   2.0000     -76.421255     -2079.5281
   3   2.0000     -18.820374      -512.1284
   4   2.0000     -18.805036      -511.7110
   5   2.0000     -18.781392      -511.0677
   6   2.0000     -18.780153      -511.0339
   7   2.0000     -18.753686      -510.3137
   8   2.0000     -18.740158      -509.9456
   9   2.0000     -10.025742      -272.8143
  10   2.0000     -10.011933      -272.4385
  11   2.0000      -9.953698      -270.8539
  12   2.0000      -9.952967      -270.8340
  13   2.0000      -9.952328      -270.8166
  14   2.0000      -9.941924      -270.5335
  15   2.0000      -9.935324      -270.3539
  16   2.0000      -9.908200      -269.6158
  17   2.0000      -9.890630      -269.1377
  18   2.0000      -9.877802      -268.7887
  19   2.0000      -7.683554      -209.0801
  20   2.0000      -7.618935      -207.3217
  21   2.0000      -6.417025      -174.6161
  22   2.0000      -5.711491      -155.4176
  23   2.0000      -5.707936      -155.3208
  24   2.0000      -5.700589      -155.1209
  25   2.0000      -5.648220      -153.6959
  26   2.0000      -5.639637      -153.4623
  27   2.0000      -5.638580      -153.4336
  28   2.0000      -4.639901      -126.2581
  29   2.0000      -4.639098      -126.2363
  30   2.0000      -4.637339      -126.1884
  31   2.0000      -1.029906       -28.0252
  32   2.0000      -1.012466       -27.5506
  33   2.0000      -0.976323       -26.5671
  34   2.0000      -0.934844       -25.4384
  35   2.0000      -0.929349       -25.2889
  36   2.0000      -0.917136       -24.9565
  37   2.0000      -0.768938       -20.9239
  38   2.0000      -0.712353       -19.3841
  39   2.0000      -0.708333       -19.2747
  40   2.0000      -0.686874       -18.6908
  41   2.0000      -0.658339       -17.9143
  42   2.0000      -0.627485       -17.0747
  43   2.0000      -0.621046       -16.8995
  44   2.0000      -0.612731       -16.6733
  45   2.0000      -0.596255       -16.2249
  46   2.0000      -0.569117       -15.4865
  47   2.0000      -0.511962       -13.9312
  48   2.0000      -0.505029       -13.7425
  49   2.0000      -0.500009       -13.6059
  50   2.0000      -0.485991       -13.2245
  51   2.0000      -0.467304       -12.7160
  52   2.0000      -0.465273       -12.6607
  53   2.0000      -0.445901       -12.1336
  54   2.0000      -0.444885       -12.1059
  55   2.0000      -0.427999       -11.6465
  56   2.0000      -0.422703       -11.5023
  57   2.0000      -0.419070       -11.4035
  58   2.0000      -0.413662       -11.2563
  59   2.0000      -0.406637       -11.0652
  60   2.0000      -0.402492       -10.9524
  61   2.0000      -0.396695       -10.7946
  62   2.0000      -0.391114       -10.6428
  63   2.0000      -0.384578       -10.4649
  64   2.0000      -0.380283       -10.3480
  65   2.0000      -0.365067        -9.9340
  66   2.0000      -0.362120        -9.8538
  67   2.0000      -0.349145        -9.5007
  68   2.0000      -0.345968        -9.4143
  69   2.0000      -0.339126        -9.2281
  70   2.0000      -0.336890        -9.1672
  71   2.0000      -0.330996        -9.0069
  72   2.0000      -0.325364        -8.8536
  73   2.0000      -0.314434        -8.5562
  74   2.0000      -0.300220        -8.1694
  75   2.0000      -0.298783        -8.1303
  76   2.0000      -0.292507        -7.9595
  77   2.0000      -0.288518        -7.8510
  78   2.0000      -0.273382        -7.4391
  79   2.0000      -0.264728        -7.2036
  80   2.0000      -0.261774        -7.1232
  81   2.0000      -0.251870        -6.8537
  82   2.0000      -0.240568        -6.5462
  83   2.0000      -0.231074        -6.2878
  84   2.0000      -0.216633        -5.8949
  85   2.0000      -0.192851        -5.2477
  86   2.0000      -0.186413        -5.0725
  87   0.0000      -0.044101        -1.2000
  88   0.0000      -0.036124        -0.9830
  89   0.0000      -0.021198        -0.5768
  90   0.0000       0.006153         0.1674
  91   0.0000       0.027555         0.7498

MULLIKEN ATOMIC CHARGES
-----------------------
   0 C :   -0.304564
   1 C :   -0.010289
   2 O :   -0.243333
   3 C :    0.112236
   4 O :   -0.193765
   5 C :   -0.046188
   6 C :   -0.320325
   7 H :    0.157110
   8 C :    0.214977
   9 O :   -0.180096
  10 O :   -0.223275
  11 C :   -0.010968
  12 C :   -0.325283
  13 S :   -0.095669
  14 P :    0.619873
  15 S :   -0.313259
  16 O :   -0.356632
  17 C :   -0.101619
  18 O :   -0.398081
  19 C :   -0.099096
  20 H :    0.129117
  21 H :    0.113526
  22 H :    0.113657
  23 H :    0.101102
  24 H :    0.106939
  25 H :    0.120204
  26 H :    0.117455
  27 H :    0.103229
  28 H :    0.114787
  29 H :    0.135020
  30 H :    0.109763
  31 H :    0.143764
  32 H :    0.122234
  33 H :    0.114710
  34 H :    0.129122
  35 H :    0.108338
  36 H :    0.120523
  37 H :    0.114757
Sum of atomic charges:   -0.0000000

LOEWDIN ATOMIC CHARGES
----------------------
   0 C :   -0.356040
   1 C :   -0.110075
   2 O :   -0.064408
   3 C :    0.024529
   4 O :   -0.159574
   5 C :   -0.249621
   6 C :   -0.268328
   7 H :    0.150395
   8 C :    0.023669
   9 O :   -0.148890
  10 O :   -0.031997
  11 C :   -0.104791
  12 C :   -0.362058
  13 S :    0.095137
  14 P :    0.589243
  15 S :   -0.313049
  16 O :   -0.233256
  17 C :   -0.208693
  18 O :   -0.268751
  19 C :   -0.220827
  20 H :    0.131633
  21 H :    0.124690
  22 H :    0.131028
  23 H :    0.116942
  24 H :    0.119166
  25 H :    0.134754
  26 H :    0.142239
  27 H :    0.117862
  28 H :    0.122892
  29 H :    0.132558
  30 H :    0.129521
  31 H :    0.133212
  32 H :    0.114466
  33 H :    0.108426
  34 H :    0.125279
  35 H :    0.104300
  36 H :    0.120092
  37 H :    0.108326

  Mayer bond orders larger than 0.100000
B(  0-C ,  1-C ) :   1.1747 B(  0-C , 20-H ) :   0.9457 B(  0-C , 21-H ) :   0.9487
B(  0-C , 22-H ) :   0.9441 B(  1-C ,  2-O ) :   0.9168 B(  1-C , 23-H ) :   0.9372
B(  1-C , 24-H ) :   0.9136 B(  2-O ,  3-C ) :   1.1939 B(  3-C ,  4-O ) :   2.0428
B(  3-C ,  5-C ) :   1.0188 B(  5-C ,  6-C ) :   1.0275 B(  5-C , 25-H ) :   0.8767
B(  5-C , 26-H ) :   0.8863 B(  6-C ,  7-H ) :   0.8640 B(  6-C ,  8-C ) :   0.8992
B(  6-C , 13-S ) :   1.0262 B(  8-C ,  9-O ) :   1.9819 B(  8-C , 10-O ) :   1.2650
B(  9-O , 14-P ) :   0.1112 B( 10-O , 11-C ) :   0.8881 B( 11-C , 12-C ) :   1.1789
B( 11-C , 27-H ) :   0.9364 B( 11-C , 28-H ) :   0.9148 B( 12-C , 29-H ) :   0.9395
B( 12-C , 30-H ) :   0.9403 B( 12-C , 31-H ) :   0.9319 B( 13-S , 14-P ) :   0.9349
B( 13-S , 15-S ) :   0.1117 B( 14-P , 15-S ) :   1.6015 B( 14-P , 16-O ) :   1.1279
B( 14-P , 18-O ) :   1.0391 B( 16-O , 17-C ) :   0.9244 B( 17-C , 32-H ) :   0.9462
B( 17-C , 33-H ) :   0.9401 B( 17-C , 34-H ) :   0.9596 B( 18-O , 19-C ) :   0.9409
B( 19-C , 35-H ) :   0.9464 B( 19-C , 36-H ) :   0.9589 B( 19-C , 37-H ) :   0.9319

Dispersion correction           -0.052713776
FINAL SINGLE POINT ENERGY     -1979.014139108104

DIPOLE MOMENT
-------------

Method             : SCF
Type of density    : Electron Density
Multiplicity       :   1
Irrep              :   0
Energy             : -1979.1449736849986039 Eh
Relativity type    :
Basis              : AO
                                X                 Y                 Z
Electronic contribution:    -16.459438466       1.547175280       1.495876414
Nuclear contribution   :     17.140195807      -1.385755599      -3.190055867
                        -----------------------------------------
Total Dipole Moment    :      0.680757341       0.161419681      -1.694179453
                        -----------------------------------------
Magnitude (a.u.)       :      1.832956871
Magnitude (Debye)      :      4.659006108

Rotational constants in cm-1:             0.016889             0.006061             0.005515
Rotational constants in MHz :           506.332626           181.710607           165.328287

                             ****ORCA TERMINATED NORMALLY****
TOTAL RUN TIME: 0 days 0 hours 0 minutes 45 seconds 970 msec
