                         Program Version 6.0.0  -   RELEASE  -
|  1> ! pbe def2-sv(p) def2/J RI DEFGRID1 loosescf d4 GCP(DFT/SV(P)) printgap
|  2> %output
|  3>     printlevel normal
|  4> end
|  5> * xyz 0 1
|  6> C 3.732063444 1.7186764493 -1.7528847905
|  7> C 2.4135021892 1.0599179124 -2.0953994144
|  8> O 2.2314690609 -0.1851596761 -1.3929518458
|  9> P 2.1082909497 -0.283337513 0.1812444438
| 10> S 1.1516988542 1.1835612186 1.0797694989
| 11> O 3.6225386381 -0.4215022472 0.6417263493
| 12> C 4.0340923723 -0.2461353635 2.0071548911
| 13> C 3.5002713585 -1.3433580197 2.9051849758
| 14> S 1.4102215828 -2.2642388123 0.321645557
| 15> C -0.2484960546 -2.1031300429 -0.3912151203
| 16> S -1.5091813312 -1.5139628338 0.7952285166
| 17> P -2.0864038194 0.299554628 -0.1189070852
| 18> S -1.1335789 0.8505035146 -1.7471518403
| 19> O -2.0577785246 1.2370028973 1.149587108
| 20> C -2.0120013931 2.6752841127 1.0786282388
| 21> C -3.2286146639 3.2582821707 0.3918482365
| 22> O -3.6606168037 0.1655873672 -0.3370293729
| 23> C -4.2465588224 -0.3657629098 -1.5347866013
| 24> C -3.951177872 -1.841319243 -1.7157081831
| 25> H 3.8727709164 2.5889552361 -2.3862181409
| 26> H 3.7280272507 2.0358120805 -0.7105932838
| 27> H 4.550241676 1.0197700529 -1.9058322881
| 28> H 2.3598053449 0.7717854772 -3.1461407301
| 29> H 1.5716869841 1.7185013142 -1.8584615102
| 30> H 5.1235314804 -0.2587811101 1.9564664751
| 31> H 3.6868297629 0.7340139088 2.3506257176
| 32> H 3.9228972705 -1.2347431763 3.8988803226
| 33> H 2.4148872112 -1.2715719542 2.9735992096
| 34> H 3.7596568764 -2.3197861355 2.5038645596
| 35> H -0.529885743 -3.1076962835 -0.6947629423
| 36> H -0.213157484 -1.4190548923 -1.2433166257
| 37> H -1.9476084873 2.9792308086 2.1243729915
| 38> H -1.0895305812 2.9632487797 0.56388436
| 39> H -3.2410537926 2.9640351097 -0.6573156108
| 40> H -4.136027282 2.8984793778 0.8698969174
| 41> H -3.189158312 4.3412919211 0.4538315335
| 42> H -5.3141477833 -0.1822244548 -1.4066657052
| 43> H -3.8699154313 0.2080667049 -2.3879953535
| 44> H -4.2130778643 -2.3917225888 -0.8156322704
| 45> H -4.5269257034 -2.2221210352 -2.5531720674
| 46> H -2.8913018766 -1.9852969621 -1.9222654294
| 47> *
| 48>
| 49>                          ****END OF INPUT****

CARTESIAN COORDINATES (ANGSTROEM)
---------------------------------
  C      3.732063    1.718676   -1.752885
  C      2.413502    1.059918   -2.095399
  O      2.231469   -0.185160   -1.392952
  P      2.108291   -0.283338    0.181244
  S      1.151699    1.183561    1.079769
  O      3.622539   -0.421502    0.641726
  C      4.034092   -0.246135    2.007155
  C      3.500271   -1.343358    2.905185
  S      1.410222   -2.264239    0.321646
  C     -0.248496   -2.103130   -0.391215
  S     -1.509181   -1.513963    0.795229
  P     -2.086404    0.299555   -0.118907
  S     -1.133579    0.850504   -1.747152
  O     -2.057779    1.237003    1.149587
  C     -2.012001    2.675284    1.078628
  C     -3.228615    3.258282    0.391848
  O     -3.660617    0.165587   -0.337029
  C     -4.246559   -0.365763   -1.534787
  C     -3.951178   -1.841319   -1.715708
  H      3.872771    2.588955   -2.386218
  H      3.728027    2.035812   -0.710593
  H      4.550242    1.019770   -1.905832
  H      2.359805    0.771785   -3.146141
  H      1.571687    1.718501   -1.858462
  H      5.123531   -0.258781    1.956466
  H      3.686830    0.734014    2.350626
  H      3.922897   -1.234743    3.898880
  H      2.414887   -1.271572    2.973599
  H      3.759657   -2.319786    2.503865
  H     -0.529886   -3.107696   -0.694763
  H     -0.213157   -1.419055   -1.243317
  H     -1.947608    2.979231    2.124373
  H     -1.089531    2.963249    0.563884
  H     -3.241054    2.964035   -0.657316
  H     -4.136027    2.898479    0.869897
  H     -3.189158    4.341292    0.453832
  H     -5.314148   -0.182224   -1.406666
  H     -3.869915    0.208067   -2.387995
  H     -4.213078   -2.391723   -0.815632
  H     -4.526926   -2.222121   -2.553172
  H     -2.891302   -1.985297   -1.922265

 Total Charge           Charge          ....    0
 Multiplicity           Mult            ....    1
 Number of Electrons    NEL             ....  202
 Basis Dimension        Dim             ....  334

ORBITAL ENERGIES
----------------

  NO   OCC          E(Eh)            E(eV)
   0   2.0000     -88.039462     -2395.6755
   1   2.0000     -88.037656     -2395.6264
   2   2.0000     -87.989212     -2394.3082
   3   2.0000     -87.980597     -2394.0738
   4   2.0000     -76.424259     -2079.6098
   5   2.0000     -76.421741     -2079.5413
   6   2.0000     -18.789188      -511.2798
   7   2.0000     -18.785017      -511.1663
   8   2.0000     -18.784771      -511.1596
   9   2.0000     -18.784640      -511.1561
  10   2.0000      -9.955307      -270.8977
  11   2.0000      -9.949787      -270.7475
  12   2.0000      -9.949500      -270.7397
  13   2.0000      -9.947055      -270.6731
  14   2.0000      -9.942892      -270.5598
  15   2.0000      -9.884644      -268.9748
  16   2.0000      -9.881748      -268.8960
  17   2.0000      -9.880087      -268.8508
  18   2.0000      -9.878282      -268.8017
  19   2.0000      -7.685109      -209.1225
  20   2.0000      -7.683086      -209.0674
  21   2.0000      -7.633871      -207.7282
  22   2.0000      -7.625196      -207.4921
  23   2.0000      -6.421592      -174.7404
  24   2.0000      -6.419291      -174.6778
  25   2.0000      -5.713017      -155.4591
  26   2.0000      -5.710999      -155.4042
  27   2.0000      -5.709593      -155.3659
  28   2.0000      -5.707764      -155.3162
  29   2.0000      -5.701960      -155.1582
  30   2.0000      -5.699777      -155.0988
  31   2.0000      -5.662540      -154.0856
  32   2.0000      -5.655078      -153.8825
  33   2.0000      -5.654017      -153.8536
  34   2.0000      -5.653682      -153.8445
  35   2.0000      -5.645883      -153.6323
  36   2.0000      -5.645452      -153.6206
  37   2.0000      -4.643791      -126.3640
  38   2.0000      -4.643237      -126.3489
  39   2.0000      -4.642545      -126.3301
  40   2.0000      -4.641789      -126.3095
  41   2.0000      -4.641111      -126.2911
  42   2.0000      -4.639770      -126.2546
  43   2.0000      -0.982560       -26.7368
  44   2.0000      -0.982022       -26.7222
  45   2.0000      -0.941976       -25.6325
  46   2.0000      -0.939595       -25.5677
  47   2.0000      -0.758749       -20.6466
  48   2.0000      -0.718400       -19.5487
  49   2.0000      -0.704385       -19.1673
  50   2.0000      -0.685024       -18.6405
  51   2.0000      -0.683191       -18.5906
  52   2.0000      -0.671005       -18.2590
  53   2.0000      -0.651426       -17.7262
  54   2.0000      -0.633781       -17.2461
  55   2.0000      -0.603282       -16.4161
  56   2.0000      -0.591257       -16.0889
  57   2.0000      -0.570128       -15.5140
  58   2.0000      -0.569252       -15.4901
  59   2.0000      -0.557827       -15.1792
  60   2.0000      -0.491790       -13.3823
  61   2.0000      -0.485498       -13.2111
  62   2.0000      -0.469784       -12.7835
  63   2.0000      -0.467262       -12.7149
  64   2.0000      -0.450028       -12.2459
  65   2.0000      -0.442276       -12.0349
  66   2.0000      -0.437624       -11.9084
  67   2.0000      -0.434708       -11.8290
  68   2.0000      -0.424840       -11.5605
  69   2.0000      -0.413977       -11.2649
  70   2.0000      -0.409184       -11.1345
  71   2.0000      -0.393708       -10.7133
  72   2.0000      -0.390640       -10.6299
  73   2.0000      -0.386318       -10.5122
  74   2.0000      -0.380065       -10.3421
  75   2.0000      -0.378185       -10.2909
  76   2.0000      -0.370977       -10.0948
  77   2.0000      -0.351770        -9.5722
  78   2.0000      -0.351150        -9.5553
  79   2.0000      -0.346223        -9.4212
  80   2.0000      -0.344314        -9.3693
  81   2.0000      -0.341540        -9.2938
  82   2.0000      -0.339108        -9.2276
  83   2.0000      -0.333391        -9.0720
  84   2.0000      -0.329621        -8.9694
  85   2.0000      -0.311143        -8.4666
  86   2.0000      -0.308553        -8.3962
  87   2.0000      -0.292358        -7.9555
  88   2.0000      -0.291898        -7.9429
  89   2.0000      -0.282553        -7.6887
  90   2.0000      -0.276875        -7.5342
  91   2.0000      -0.269481        -7.3329
  92   2.0000      -0.267880        -7.2894
  93   2.0000      -0.262596        -7.1456
  94   2.0000      -0.257196        -6.9987
  95   2.0000      -0.234203        -6.3730
  96   2.0000      -0.221205        -6.0193
  97   2.0000      -0.211246        -5.7483
  98   2.0000      -0.204568        -5.5666
  99   2.0000      -0.194132        -5.2826
 100   2.0000      -0.185553        -5.0492
 101   0.0000      -0.037757        -1.0274
 102   0.0000      -0.029355        -0.7988
 103   0.0000      -0.013407        -0.3648
 104   0.0000       0.004926         0.1340
 105   0.0000       0.022814         0.6208

MULLIKEN ATOMIC CHARGES
-----------------------
   0 C :   -0.307059
   1 C :   -0.007752
   2 O :   -0.367683
   3 P :    0.615822
   4 S :   -0.329915
   5 O :   -0.372974
   6 C :   -0.002680
   7 C :   -0.324473
   8 S :   -0.076699
   9 C :   -0.373121
  10 S :   -0.069403
  11 P :    0.624363
  12 S :   -0.332485
  13 O :   -0.362400
  14 C :   -0.000468
  15 C :   -0.308185
  16 O :   -0.371656
  17 C :    0.000482
  18 C :   -0.318016
  19 H :    0.109853
  20 H :    0.120711
  21 H :    0.115317
  22 H :    0.102145
  23 H :    0.125625
  24 H :    0.104220
  25 H :    0.110155
  26 H :    0.113797
  27 H :    0.134140
  28 H :    0.119586
  29 H :    0.184578
  30 H :    0.203646
  31 H :    0.106696
  32 H :    0.119170
  33 H :    0.122838
  34 H :    0.117275
  35 H :    0.110308
  36 H :    0.103748
  37 H :    0.107245
  38 H :    0.121409
  39 H :    0.111794
  40 H :    0.120046
Sum of atomic charges:    0.0000000

LOEWDIN ATOMIC CHARGES
----------------------
   0 C :   -0.366420
   1 C :   -0.119046
   2 O :   -0.238484
   3 P :    0.570147
   4 S :   -0.316110
   5 O :   -0.242728
   6 C :   -0.120812
   7 C :   -0.371595
   8 S :    0.093430
   9 C :   -0.481540
  10 S :    0.089359
  11 P :    0.577230
  12 S :   -0.305397
  13 O :   -0.231963
  14 C :   -0.113173
  15 C :   -0.366827
  16 O :   -0.247835
  17 C :   -0.119993
  18 C :   -0.368999
  19 H :    0.129496
  20 H :    0.121405
  21 H :    0.125356
  22 H :    0.118385
  23 H :    0.108668
  24 H :    0.118222
  25 H :    0.109540
  26 H :    0.131676
  27 H :    0.124189
  28 H :    0.124177
  29 H :    0.136586
  30 H :    0.123622
  31 H :    0.120932
  32 H :    0.110504
  33 H :    0.121524
  34 H :    0.126433
  35 H :    0.129841
  36 H :    0.118253
  37 H :    0.107677
  38 H :    0.125763
  39 H :    0.130030
  40 H :    0.118474

  Mayer bond orders larger than 0.100000
B(  0-C ,  1-C ) :   1.1629 B(  0-C , 19-H ) :   0.9388 B(  0-C , 20-H ) :   0.9361
B(  0-C , 21-H ) :   0.9448 B(  1-C ,  2-O ) :   0.9001 B(  1-C , 22-H ) :   0.9364
B(  1-C , 23-H ) :   0.9095 B(  2-O ,  3-P ) :   1.1276 B(  3-P ,  4-S ) :   1.6101
B(  3-P ,  5-O ) :   1.0997 B(  3-P ,  8-S ) :   0.9667 B(  4-S ,  8-S ) :   0.1143
B(  5-O ,  6-C ) :   0.9081 B(  6-C ,  7-C ) :   1.1661 B(  6-C , 24-H ) :   0.9330
B(  6-C , 25-H ) :   0.9134 B(  7-C , 26-H ) :   0.9379 B(  7-C , 27-H ) :   0.9333
B(  7-C , 28-H ) :   0.9437 B(  8-S ,  9-C ) :   1.0000 B(  9-C , 10-S ) :   1.0021
B(  9-C , 29-H ) :   0.9093 B(  9-C , 30-H ) :   0.8487 B( 10-S , 11-P ) :   0.9641
B( 10-S , 12-S ) :   0.1158 B( 11-P , 12-S ) :   1.5642 B( 11-P , 13-O ) :   1.1503
B( 11-P , 16-O ) :   1.0904 B( 13-O , 14-C ) :   0.9019 B( 14-C , 15-C ) :   1.1636
B( 14-C , 31-H ) :   0.9361 B( 14-C , 32-H ) :   0.9173 B( 15-C , 33-H ) :   0.9355
B( 15-C , 34-H ) :   0.9446 B( 15-C , 35-H ) :   0.9379 B( 16-O , 17-C ) :   0.9224
B( 17-C , 18-C ) :   1.1642 B( 17-C , 36-H ) :   0.9339 B( 17-C , 37-H ) :   0.9149
B( 18-C , 38-H ) :   0.9423 B( 18-C , 39-H ) :   0.9378 B( 18-C , 40-H ) :   0.9386

Dispersion correction           -0.067986613
FINAL SINGLE POINT ENERGY     -2929.520820854351

DIPOLE MOMENT
-------------

Method             : SCF
Type of density    : Electron Density
Multiplicity       :   1
Irrep              :   0
Energy             : -2929.6381216836007297 Eh
Relativity type    :
Basis              : AO
                                X                 Y                 Z
Electronic contribution:      0.081511346      -8.287858784       3.547327049
Nuclear contribution   :     -0.176062489       8.332023066      -3.813874852
                        -----------------------------------------
Total Dipole Moment    :     -0.094551142       0.044164282      -0.266547802
                        -----------------------------------------
Magnitude (a.u.)       :      0.286248377
Magnitude (Debye)      :      0.727585552

Rotational constants in cm-1:             0.012181             0.005371             0.004996
Rotational constants in MHz :           365.172500           161.010930           149.780040

                             ****ORCA TERMINATED NORMALLY****
TOTAL RUN TIME: 0 days 0 hours 0 minutes 21 seconds 400 msec
