                         Program Version 6.0.1  -  RELEASE   -
|  1> ! r2scan-3c def2/J RI DEFGRID2 scfconv6 printgap
|  2> %output
|  3>     printlevel normal
|  4> end
|  5> * xyz 0 1
|  6> C 5.2961954693 -2.2844711973 -0.819317487
|  7> C 4.6136782949 -1.181175708 -0.0261968465
|  8> O 3.1870633499 -1.3782840483 0.009883576
|  9> C 2.4630878939 -0.8960050104 -0.9764430095
| 10> O 2.902256685 -0.2719612956 -1.9182311452
| 11> C 0.9923358006 -1.228064371 -0.7972808788
| 12> C 0.1543976544 -0.0551226201 -1.2856054825
| 13> H 0.4890196038 0.2281862943 -2.2911084958
| 14> C 0.2767440909 1.1772170897 -0.4112041119
| 15> O -0.6013436325 2.0158131979 -0.3366899401
| 16> O 1.4318971886 1.2473804646 0.1927980316
| 17> C 1.6632006003 2.3676353134 1.0722767988
| 18> C 3.0713504662 2.2474191064 1.6170049486
| 19> S -1.6109499159 -0.4515248652 -1.4673156081
| 20> P -2.3131303612 -0.0180289492 0.4918751993
| 21> S -1.0490154614 -0.1882494397 1.9756984722
| 22> O -3.102801585 1.3466436439 0.5167602729
| 23> C -4.0142801616 1.7447564258 -0.5258230736
| 24> O -3.546464257 -1.0374298272 0.584737006
| 25> C -3.3417102662 -2.4524453543 0.6691740255
| 26> H 4.9854908238 -2.2433184517 -1.8607399929
| 27> H 6.3716499238 -2.150872067 -0.7671618471
| 28> H 5.0350669932 -3.2559298718 -0.4089577316
| 29> H 4.8182731898 -0.2024287066 -0.4688687031
| 30> H 4.9180832698 -1.1975638856 1.0202840215
| 31> H 0.8009115851 -1.4529739601 0.2526191066
| 32> H 0.7640023474 -2.10736857 -1.4028505559
| 33> H 1.5158962737 3.2894409796 0.501533226
| 34> H 0.911610634 2.3242044245 1.8675662788
| 35> H 3.7887900901 2.2710851543 0.8018102435
| 36> H 3.2648177108 3.0751331135 2.2907210047
| 37> H 3.1773764899 1.3111409312 2.1569601929
| 38> H -3.447504841 2.0074328881 -1.4187116813
| 39> H -4.5294192464 2.6166273079 -0.1314474047
| 40> H -4.7160742886 0.9407595512 -0.740227859
| 41> H -3.0117184501 -2.8363934231 -0.2956294429
| 42> H -4.3076357977 -2.8708436959 0.9399433422
| 43> H -2.6002903212 -2.6777730938 1.4371760207
| 44> *
| 45>
| 46>                          ****END OF INPUT****

CARTESIAN COORDINATES (ANGSTROEM)
---------------------------------
  C      5.296195   -2.284471   -0.819317
  C      4.613678   -1.181176   -0.026197
  O      3.187063   -1.378284    0.009884
  C      2.463088   -0.896005   -0.976443
  O      2.902257   -0.271961   -1.918231
  C      0.992336   -1.228064   -0.797281
  C      0.154398   -0.055123   -1.285605
  H      0.489020    0.228186   -2.291108
  C      0.276744    1.177217   -0.411204
  O     -0.601344    2.015813   -0.336690
  O      1.431897    1.247380    0.192798
  C      1.663201    2.367635    1.072277
  C      3.071350    2.247419    1.617005
  S     -1.610950   -0.451525   -1.467316
  P     -2.313130   -0.018029    0.491875
  S     -1.049015   -0.188249    1.975698
  O     -3.102802    1.346644    0.516760
  C     -4.014280    1.744756   -0.525823
  O     -3.546464   -1.037430    0.584737
  C     -3.341710   -2.452445    0.669174
  H      4.985491   -2.243318   -1.860740
  H      6.371650   -2.150872   -0.767162
  H      5.035067   -3.255930   -0.408958
  H      4.818273   -0.202429   -0.468869
  H      4.918083   -1.197564    1.020284
  H      0.800912   -1.452974    0.252619
  H      0.764002   -2.107369   -1.402851
  H      1.515896    3.289441    0.501533
  H      0.911611    2.324204    1.867566
  H      3.788790    2.271085    0.801810
  H      3.264818    3.075133    2.290721
  H      3.177376    1.311141    2.156960
  H     -3.447505    2.007433   -1.418712
  H     -4.529419    2.616627   -0.131447
  H     -4.716074    0.940760   -0.740228
  H     -3.011718   -2.836393   -0.295629
  H     -4.307636   -2.870844    0.939943
  H     -2.600290   -2.677773    1.437176

 Total Charge           Charge          ....    0
 Multiplicity           Mult            ....    1
 Number of Electrons    NEL             ....  174
 Basis Dimension        Dim             ....  510

ORBITAL ENERGIES
----------------

  NO   OCC          E(Eh)            E(eV)
   0   2.0000     -88.575419     -2410.2597
   1   2.0000     -88.515618     -2408.6324
   2   2.0000     -76.912148     -2092.8859
   3   2.0000     -19.006703      -517.1987
   4   2.0000     -19.002186      -517.0758
   5   2.0000     -18.987759      -516.6832
   6   2.0000     -18.985819      -516.6304
   7   2.0000     -18.932280      -515.1735
   8   2.0000     -18.931871      -515.1624
   9   2.0000     -10.164234      -276.5829
  10   2.0000     -10.159204      -276.4460
  11   2.0000     -10.096195      -274.7314
  12   2.0000     -10.095585      -274.7148
  13   2.0000     -10.093099      -274.6472
  14   2.0000     -10.089950      -274.5615
  15   2.0000     -10.089512      -274.5496
  16   2.0000     -10.052405      -273.5399
  17   2.0000     -10.032474      -272.9975
  18   2.0000     -10.032334      -272.9937
  19   2.0000      -7.869683      -214.1450
  20   2.0000      -7.810724      -212.5406
  21   2.0000      -6.590183      -179.3280
  22   2.0000      -5.816719      -158.2810
  23   2.0000      -5.813473      -158.1927
  24   2.0000      -5.806722      -158.0089
  25   2.0000      -5.758560      -156.6984
  26   2.0000      -5.750958      -156.4915
  27   2.0000      -5.750518      -156.4795
  28   2.0000      -4.735821      -128.8682
  29   2.0000      -4.735344      -128.8553
  30   2.0000      -4.733703      -128.8106
  31   2.0000      -1.085940       -29.5499
  32   2.0000      -1.078172       -29.3385
  33   2.0000      -1.045332       -28.4449
  34   2.0000      -1.003335       -27.3021
  35   2.0000      -0.984568       -26.7915
  36   2.0000      -0.982453       -26.7339
  37   2.0000      -0.809751       -22.0345
  38   2.0000      -0.753608       -20.5067
  39   2.0000      -0.750130       -20.4121
  40   2.0000      -0.728931       -19.8352
  41   2.0000      -0.697166       -18.9709
  42   2.0000      -0.671844       -18.2818
  43   2.0000      -0.658723       -17.9248
  44   2.0000      -0.649716       -17.6797
  45   2.0000      -0.627041       -17.0626
  46   2.0000      -0.594735       -16.1836
  47   2.0000      -0.542738       -14.7686
  48   2.0000      -0.530615       -14.4388
  49   2.0000      -0.529353       -14.4044
  50   2.0000      -0.496143       -13.5007
  51   2.0000      -0.488613       -13.2958
  52   2.0000      -0.485885       -13.2216
  53   2.0000      -0.462822       -12.5940
  54   2.0000      -0.459316       -12.4986
  55   2.0000      -0.456859       -12.4318
  56   2.0000      -0.447028       -12.1642
  57   2.0000      -0.440451       -11.9853
  58   2.0000      -0.431286       -11.7359
  59   2.0000      -0.427417       -11.6306
  60   2.0000      -0.419873       -11.4253
  61   2.0000      -0.414760       -11.2862
  62   2.0000      -0.408185       -11.1073
  63   2.0000      -0.400326       -10.8934
  64   2.0000      -0.393686       -10.7127
  65   2.0000      -0.377365       -10.2686
  66   2.0000      -0.376686       -10.2502
  67   2.0000      -0.374163       -10.1815
  68   2.0000      -0.362381        -9.8609
  69   2.0000      -0.356294        -9.6953
  70   2.0000      -0.347285        -9.4501
  71   2.0000      -0.342085        -9.3086
  72   2.0000      -0.335804        -9.1377
  73   2.0000      -0.325492        -8.8571
  74   2.0000      -0.320303        -8.7159
  75   2.0000      -0.315295        -8.5796
  76   2.0000      -0.311706        -8.4820
  77   2.0000      -0.307564        -8.3692
  78   2.0000      -0.287962        -7.8359
  79   2.0000      -0.278670        -7.5830
  80   2.0000      -0.274415        -7.4672
  81   2.0000      -0.270306        -7.3554
  82   2.0000      -0.251608        -6.8466
  83   2.0000      -0.245521        -6.6810
  84   2.0000      -0.231418        -6.2972
  85   2.0000      -0.213939        -5.8216
  86   2.0000      -0.211825        -5.7640
  87   0.0000      -0.045208        -1.2302
  88   0.0000      -0.027448        -0.7469
  89   0.0000      -0.011578        -0.3150
  90   0.0000       0.008587         0.2337
  91   0.0000       0.019963         0.5432

MULLIKEN ATOMIC CHARGES
-----------------------
   0 C :   -0.480075
   1 C :   -0.131669
   2 O :   -0.159235
   3 C :    0.331949
   4 O :   -0.414975
   5 C :   -0.448299
   6 C :    0.084325
   7 H :    0.223950
   8 C :    0.154097
   9 O :   -0.374898
  10 O :   -0.053622
  11 C :   -0.138532
  12 C :   -0.465349
  13 S :   -0.177016
  14 P :    0.755443
  15 S :   -0.451246
  16 O :   -0.288941
  17 C :   -0.298225
  18 O :   -0.350832
  19 C :   -0.298834
  20 H :    0.172774
  21 H :    0.148482
  22 H :    0.154795
  23 H :    0.169722
  24 H :    0.151492
  25 H :    0.220370
  26 H :    0.185749
  27 H :    0.158526
  28 H :    0.177591
  29 H :    0.156570
  30 H :    0.149456
  31 H :    0.160138
  32 H :    0.177640
  33 H :    0.155076
  34 H :    0.161192
  35 H :    0.156271
  36 H :    0.152230
  37 H :    0.173910
Sum of atomic charges:   -0.0000000

LOEWDIN ATOMIC CHARGES
----------------------
   0 C :   -0.388968
   1 C :    0.027124
   2 O :   -0.575348
   3 C :    0.355473
   4 O :   -0.439807
   5 C :   -0.212939
   6 C :   -0.197830
   7 H :    0.217715
   8 C :    0.338039
   9 O :   -0.446420
  10 O :   -0.578687
  11 C :    0.040753
  12 C :   -0.385072
  13 S :    0.202361
  14 P :    0.405973
  15 S :   -0.069701
  16 O :   -0.638450
  17 C :   -0.050051
  18 O :   -0.685215
  19 C :   -0.062787
  20 H :    0.165177
  21 H :    0.159664
  22 H :    0.158246
  23 H :    0.188378
  24 H :    0.179156
  25 H :    0.202238
  26 H :    0.186482
  27 H :    0.181830
  28 H :    0.189798
  29 H :    0.160016
  30 H :    0.160946
  31 H :    0.162147
  32 H :    0.177465
  33 H :    0.181130
  34 H :    0.170321
  35 H :    0.167868
  36 H :    0.177071
  37 H :    0.175903

  Mayer bond orders larger than 0.100000
B(  0-C ,  1-C ) :   0.9360 B(  0-C , 20-H ) :   0.9721 B(  0-C , 21-H ) :   0.9649
B(  0-C , 22-H ) :   0.9745 B(  1-C ,  2-O ) :   0.7973 B(  1-C , 23-H ) :   0.9676
B(  1-C , 24-H ) :   0.9601 B(  2-O ,  3-C ) :   1.0874 B(  3-C ,  4-O ) :   1.8667
B(  3-C ,  5-C ) :   0.8641 B(  3-C , 10-O ) :   0.1111 B(  4-O ,  6-C ) :   0.1072
B(  5-C ,  6-C ) :   0.8930 B(  5-C , 25-H ) :   0.9762 B(  5-C , 26-H ) :   0.9456
B(  6-C ,  7-H ) :   0.8863 B(  6-C ,  8-C ) :   0.9461 B(  6-C , 13-S ) :   0.8308
B(  8-C ,  9-O ) :   1.7755 B(  8-C , 10-O ) :   1.1688 B( 10-O , 11-C ) :   0.7980
B( 11-C , 12-C ) :   0.9365 B( 11-C , 27-H ) :   0.9521 B( 11-C , 28-H ) :   0.9471
B( 12-C , 29-H ) :   0.9723 B( 12-C , 30-H ) :   0.9653 B( 12-C , 31-H ) :   0.9703
B( 13-S , 14-P ) :   1.0113 B( 14-P , 15-S ) :   1.7563 B( 14-P , 16-O ) :   1.2062
B( 14-P , 18-O ) :   1.0180 B( 16-O , 17-C ) :   0.7958 B( 17-C , 32-H ) :   0.9562
B( 17-C , 33-H ) :   0.9648 B( 17-C , 34-H ) :   0.9642 B( 18-O , 19-C ) :   0.8338
B( 19-C , 35-H ) :   0.9564 B( 19-C , 36-H ) :   0.9684 B( 19-C , 37-H ) :   0.9593

Dispersion correction           -0.017635697
FINAL SINGLE POINT ENERGY     -1981.452863090240

DIPOLE MOMENT
-------------

Method             : SCF
Type of density    : Electron Density
Multiplicity       :   1
Irrep              :   0
Energy             : -1981.4725449537845634 Eh
Relativity type    :
Basis              : AO
                                X                 Y                 Z
Electronic contribution:    -18.813535631       2.129720725      -1.119574842
Nuclear contribution   :     19.249118688      -2.687110090       0.922932138
                        -----------------------------------------
Total Dipole Moment    :      0.435583057      -0.557389365      -0.196642704
                        -----------------------------------------
Magnitude (a.u.)       :      0.734223302
Magnitude (Debye)      :      1.866247320

Rotational constants in cm-1:             0.016721             0.006046             0.005472
Rotational constants in MHz :           501.291078           181.266962           164.031555

                             ****ORCA TERMINATED NORMALLY****
TOTAL RUN TIME: 0 days 0 hours 1 minutes 23 seconds 427 msec
