                         Program Version 6.0.1  -  RELEASE   -
|  1> ! r2scan-3c def2/J RI DEFGRID2 scfconv6 printgap
|  2> %output
|  3>     printlevel normal
|  4> end
|  5> %cpcm
|  6>     smd true
|  7>     smdsolvent "water"
|  8> end
|  9> * xyz 0 1
| 10> C 5.2961954693 -2.2844711973 -0.819317487
| 11> C 4.6136782949 -1.181175708 -0.0261968465
| 12> O 3.1870633499 -1.3782840483 0.009883576
| 13> C 2.4630878939 -0.8960050104 -0.9764430095
| 14> O 2.902256685 -0.2719612956 -1.9182311452
| 15> C 0.9923358006 -1.228064371 -0.7972808788
| 16> C 0.1543976544 -0.0551226201 -1.2856054825
| 17> H 0.4890196038 0.2281862943 -2.2911084958
| 18> C 0.2767440909 1.1772170897 -0.4112041119
| 19> O -0.6013436325 2.0158131979 -0.3366899401
| 20> O 1.4318971886 1.2473804646 0.1927980316
| 21> C 1.6632006003 2.3676353134 1.0722767988
| 22> C 3.0713504662 2.2474191064 1.6170049486
| 23> S -1.6109499159 -0.4515248652 -1.4673156081
| 24> P -2.3131303612 -0.0180289492 0.4918751993
| 25> S -1.0490154614 -0.1882494397 1.9756984722
| 26> O -3.102801585 1.3466436439 0.5167602729
| 27> C -4.0142801616 1.7447564258 -0.5258230736
| 28> O -3.546464257 -1.0374298272 0.584737006
| 29> C -3.3417102662 -2.4524453543 0.6691740255
| 30> H 4.9854908238 -2.2433184517 -1.8607399929
| 31> H 6.3716499238 -2.150872067 -0.7671618471
| 32> H 5.0350669932 -3.2559298718 -0.4089577316
| 33> H 4.8182731898 -0.2024287066 -0.4688687031
| 34> H 4.9180832698 -1.1975638856 1.0202840215
| 35> H 0.8009115851 -1.4529739601 0.2526191066
| 36> H 0.7640023474 -2.10736857 -1.4028505559
| 37> H 1.5158962737 3.2894409796 0.501533226
| 38> H 0.911610634 2.3242044245 1.8675662788
| 39> H 3.7887900901 2.2710851543 0.8018102435
| 40> H 3.2648177108 3.0751331135 2.2907210047
| 41> H 3.1773764899 1.3111409312 2.1569601929
| 42> H -3.447504841 2.0074328881 -1.4187116813
| 43> H -4.5294192464 2.6166273079 -0.1314474047
| 44> H -4.7160742886 0.9407595512 -0.740227859
| 45> H -3.0117184501 -2.8363934231 -0.2956294429
| 46> H -4.3076357977 -2.8708436959 0.9399433422
| 47> H -2.6002903212 -2.6777730938 1.4371760207
| 48> *
| 49>
| 50>                          ****END OF INPUT****

CARTESIAN COORDINATES (ANGSTROEM)
---------------------------------
  C      5.296195   -2.284471   -0.819317
  C      4.613678   -1.181176   -0.026197
  O      3.187063   -1.378284    0.009884
  C      2.463088   -0.896005   -0.976443
  O      2.902257   -0.271961   -1.918231
  C      0.992336   -1.228064   -0.797281
  C      0.154398   -0.055123   -1.285605
  H      0.489020    0.228186   -2.291108
  C      0.276744    1.177217   -0.411204
  O     -0.601344    2.015813   -0.336690
  O      1.431897    1.247380    0.192798
  C      1.663201    2.367635    1.072277
  C      3.071350    2.247419    1.617005
  S     -1.610950   -0.451525   -1.467316
  P     -2.313130   -0.018029    0.491875
  S     -1.049015   -0.188249    1.975698
  O     -3.102802    1.346644    0.516760
  C     -4.014280    1.744756   -0.525823
  O     -3.546464   -1.037430    0.584737
  C     -3.341710   -2.452445    0.669174
  H      4.985491   -2.243318   -1.860740
  H      6.371650   -2.150872   -0.767162
  H      5.035067   -3.255930   -0.408958
  H      4.818273   -0.202429   -0.468869
  H      4.918083   -1.197564    1.020284
  H      0.800912   -1.452974    0.252619
  H      0.764002   -2.107369   -1.402851
  H      1.515896    3.289441    0.501533
  H      0.911611    2.324204    1.867566
  H      3.788790    2.271085    0.801810
  H      3.264818    3.075133    2.290721
  H      3.177376    1.311141    2.156960
  H     -3.447505    2.007433   -1.418712
  H     -4.529419    2.616627   -0.131447
  H     -4.716074    0.940760   -0.740228
  H     -3.011718   -2.836393   -0.295629
  H     -4.307636   -2.870844    0.939943
  H     -2.600290   -2.677773    1.437176

 Total Charge           Charge          ....    0
 Multiplicity           Mult            ....    1
 Number of Electrons    NEL             ....  174
 Basis Dimension        Dim             ....  510

ORBITAL ENERGIES
----------------

  NO   OCC          E(Eh)            E(eV)
   0   2.0000     -88.581816     -2410.4338
   1   2.0000     -88.529091     -2408.9990
   2   2.0000     -76.922203     -2093.1595
   3   2.0000     -19.015403      -517.4354
   4   2.0000     -19.007585      -517.2227
   5   2.0000     -18.996927      -516.9327
   6   2.0000     -18.993406      -516.8368
   7   2.0000     -18.948958      -515.6274
   8   2.0000     -18.946169      -515.5515
   9   2.0000     -10.177714      -276.9497
  10   2.0000     -10.169919      -276.7376
  11   2.0000     -10.099472      -274.8206
  12   2.0000     -10.089415      -274.5469
  13   2.0000     -10.085566      -274.4422
  14   2.0000     -10.084842      -274.4225
  15   2.0000     -10.081207      -274.3236
  16   2.0000     -10.052796      -273.5505
  17   2.0000     -10.020771      -272.6790
  18   2.0000     -10.019195      -272.6362
  19   2.0000      -7.875988      -214.3165
  20   2.0000      -7.824445      -212.9140
  21   2.0000      -6.600386      -179.6056
  22   2.0000      -5.823063      -158.4536
  23   2.0000      -5.819813      -158.3652
  24   2.0000      -5.812961      -158.1787
  25   2.0000      -5.772184      -157.0691
  26   2.0000      -5.764723      -156.8661
  27   2.0000      -5.764241      -156.8530
  28   2.0000      -4.745995      -129.1451
  29   2.0000      -4.745480      -129.1311
  30   2.0000      -4.744002      -129.0909
  31   2.0000      -1.095851       -29.8196
  32   2.0000      -1.085179       -29.5292
  33   2.0000      -1.053767       -28.6745
  34   2.0000      -1.010800       -27.5053
  35   2.0000      -0.999765       -27.2050
  36   2.0000      -0.994647       -27.0657
  37   2.0000      -0.814032       -22.1509
  38   2.0000      -0.750870       -20.4322
  39   2.0000      -0.747459       -20.3394
  40   2.0000      -0.730814       -19.8864
  41   2.0000      -0.698079       -18.9957
  42   2.0000      -0.669617       -18.2212
  43   2.0000      -0.662430       -18.0256
  44   2.0000      -0.652027       -17.7426
  45   2.0000      -0.622626       -16.9425
  46   2.0000      -0.593712       -16.1557
  47   2.0000      -0.544089       -14.8054
  48   2.0000      -0.533818       -14.5259
  49   2.0000      -0.526253       -14.3201
  50   2.0000      -0.501299       -13.6410
  51   2.0000      -0.491719       -13.3804
  52   2.0000      -0.489201       -13.3118
  53   2.0000      -0.470485       -12.8025
  54   2.0000      -0.465587       -12.6693
  55   2.0000      -0.462603       -12.5881
  56   2.0000      -0.450183       -12.2501
  57   2.0000      -0.445970       -12.1355
  58   2.0000      -0.439081       -11.9480
  59   2.0000      -0.427498       -11.6328
  60   2.0000      -0.418545       -11.3892
  61   2.0000      -0.412353       -11.2207
  62   2.0000      -0.410735       -11.1767
  63   2.0000      -0.399108       -10.8603
  64   2.0000      -0.391490       -10.6530
  65   2.0000      -0.380968       -10.3667
  66   2.0000      -0.370856       -10.0915
  67   2.0000      -0.368351       -10.0233
  68   2.0000      -0.360841        -9.8190
  69   2.0000      -0.355027        -9.6608
  70   2.0000      -0.344821        -9.3831
  71   2.0000      -0.343666        -9.3516
  72   2.0000      -0.334185        -9.0936
  73   2.0000      -0.328614        -8.9420
  74   2.0000      -0.322617        -8.7789
  75   2.0000      -0.317201        -8.6315
  76   2.0000      -0.314532        -8.5589
  77   2.0000      -0.307032        -8.3548
  78   2.0000      -0.294157        -8.0044
  79   2.0000      -0.286340        -7.7917
  80   2.0000      -0.280105        -7.6220
  81   2.0000      -0.277599        -7.5539
  82   2.0000      -0.263807        -7.1786
  83   2.0000      -0.261222        -7.1082
  84   2.0000      -0.242942        -6.6108
  85   2.0000      -0.228409        -6.2153
  86   2.0000      -0.224453        -6.1077
  87   0.0000      -0.053203        -1.4477
  88   0.0000      -0.038270        -1.0414
  89   0.0000      -0.020813        -0.5663
  90   0.0000       0.002585         0.0703
  91   0.0000       0.011420         0.3107

MULLIKEN ATOMIC CHARGES
-----------------------
   0 C :   -0.505858
   1 C :   -0.133205
   2 O :   -0.181114
   3 C :    0.366066
   4 O :   -0.484943
   5 C :   -0.458479
   6 C :    0.074116
   7 H :    0.256387
   8 C :    0.186690
   9 O :   -0.433117
  10 O :   -0.071798
  11 C :   -0.135237
  12 C :   -0.508314
  13 S :   -0.173387
  14 P :    0.754096
  15 S :   -0.485303
  16 O :   -0.338439
  17 C :   -0.304007
  18 O :   -0.380283
  19 C :   -0.304210
  20 H :    0.170458
  21 H :    0.172132
  22 H :    0.167882
  23 H :    0.175987
  24 H :    0.178604
  25 H :    0.221761
  26 H :    0.223793
  27 H :    0.177527
  28 H :    0.178407
  29 H :    0.171437
  30 H :    0.172478
  31 H :    0.170288
  32 H :    0.181772
  33 H :    0.182273
  34 H :    0.184740
  35 H :    0.174551
  36 H :    0.179724
  37 H :    0.176528
Sum of atomic charges:   -0.0000000

LOEWDIN ATOMIC CHARGES
----------------------
   0 C :   -0.391195
   1 C :    0.033132
   2 O :   -0.580457
   3 C :    0.363945
   4 O :   -0.486055
   5 C :   -0.206976
   6 C :   -0.194434
   7 H :    0.229223
   8 C :    0.343415
   9 O :   -0.492937
  10 O :   -0.581318
  11 C :    0.043295
  12 C :   -0.385377
  13 S :    0.216502
  14 P :    0.401542
  15 S :   -0.098352
  16 O :   -0.670597
  17 C :   -0.044052
  18 O :   -0.697246
  19 C :   -0.056359
  20 H :    0.162986
  21 H :    0.168488
  22 H :    0.162820
  23 H :    0.191107
  24 H :    0.190883
  25 H :    0.201865
  26 H :    0.202770
  27 H :    0.188606
  28 H :    0.189374
  29 H :    0.164690
  30 H :    0.170007
  31 H :    0.164801
  32 H :    0.180397
  33 H :    0.192196
  34 H :    0.181050
  35 H :    0.176024
  36 H :    0.188830
  37 H :    0.177408

  Mayer bond orders larger than 0.100000
B(  0-C ,  1-C ) :   0.9340 B(  0-C , 20-H ) :   0.9692 B(  0-C , 21-H ) :   0.9597
B(  0-C , 22-H ) :   0.9704 B(  1-C ,  2-O ) :   0.7803 B(  1-C , 23-H ) :   0.9611
B(  1-C , 24-H ) :   0.9499 B(  2-O ,  3-C ) :   1.1017 B(  3-C ,  4-O ) :   1.8095
B(  3-C ,  5-C ) :   0.8802 B(  3-C , 10-O ) :   0.1079 B(  5-C ,  6-C ) :   0.8725
B(  5-C , 25-H ) :   0.9802 B(  5-C , 26-H ) :   0.9238 B(  6-C ,  7-H ) :   0.8833
B(  6-C ,  8-C ) :   0.9450 B(  6-C , 13-S ) :   0.8154 B(  8-C ,  9-O ) :   1.7328
B(  8-C , 10-O ) :   1.1847 B( 10-O , 11-C ) :   0.7830 B( 11-C , 12-C ) :   0.9393
B( 11-C , 27-H ) :   0.9443 B( 11-C , 28-H ) :   0.9389 B( 12-C , 29-H ) :   0.9695
B( 12-C , 30-H ) :   0.9590 B( 12-C , 31-H ) :   0.9674 B( 13-S , 14-P ) :   1.0306
B( 14-P , 15-S ) :   1.7578 B( 14-P , 16-O ) :   1.1923 B( 14-P , 18-O ) :   1.0221
B( 16-O , 17-C ) :   0.7902 B( 17-C , 32-H ) :   0.9483 B( 17-C , 33-H ) :   0.9540
B( 17-C , 34-H ) :   0.9539 B( 18-O , 19-C ) :   0.8257 B( 19-C , 35-H ) :   0.9493
B( 19-C , 36-H ) :   0.9581 B( 19-C , 37-H ) :   0.9548

Dispersion correction           -0.017635697
FINAL SINGLE POINT ENERGY     -1981.467777437551

DIPOLE MOMENT
-------------

Method             : SCF
Type of density    : Electron Density
Multiplicity       :   1
Irrep              :   0
Energy             : -1981.4874593010956687 Eh
Relativity type    :
Basis              : AO
                                X                 Y                 Z
Electronic contribution:    -18.620026410       1.616980457      -1.334477014
Nuclear contribution   :     19.249118688      -2.687110090       0.922932138
                        -----------------------------------------
Total Dipole Moment    :      0.629092279      -1.070129633      -0.411544876
                        -----------------------------------------
Magnitude (a.u.)       :      1.307785805
Magnitude (Debye)      :      3.324127344

Rotational constants in cm-1:             0.016721             0.006046             0.005472
Rotational constants in MHz :           501.291078           181.266962           164.031555

                             ****ORCA TERMINATED NORMALLY****
TOTAL RUN TIME: 0 days 0 hours 1 minutes 47 seconds 88 msec
