                         Program Version 6.0.0  -   RELEASE  -
|  1> ! pbe def2-sv(p) def2/J RI DEFGRID1 loosescf d4 GCP(DFT/SV(P)) printgap
|  2> %output
|  3>     printlevel normal
|  4> end
|  5> * xyz 0 1
|  6> C 5.3719402952 -2.0672963454 -1.6995178392
|  7> C 4.2979860096 -1.0005976511 -1.7748172231
|  8> O 3.2832804652 -1.319911627 -0.8012013592
|  9> P 2.3453079259 -0.2124318279 -0.1545051611
| 10> S 3.2813544695 1.4169308369 0.4176557412
| 11> O 1.6166327315 -1.0372957171 0.9786579489
| 12> C 2.1678803828 -1.1497905328 2.3156968371
| 13> C 1.0485743768 -1.0037016457 3.325878185
| 14> S 0.805832898 0.0423340323 -1.5728003624
| 15> C 0.1355038754 1.5698063312 -0.8554564783
| 16> S -0.7824429161 1.2798249443 0.6674122906
| 17> P -2.4381578906 0.2997875251 -0.270875147
| 18> S -2.9675978905 1.0209116884 -2.009637033
| 19> O -3.512056368 0.2387938172 0.8967996213
| 20> C -3.9384880956 1.3606660163 1.6940916576
| 21> C -4.4538203269 2.5124303546 0.8573836156
| 22> O -2.0432956614 -1.2162376902 -0.4334704115
| 23> C -1.6665069411 -2.0674946096 0.6749827678
| 24> C -2.8140638734 -2.9843958448 1.0445068419
| 25> H 5.8281494134 -2.0698608785 -0.7135699796
| 26> H 4.9375737509 -3.0443146613 -1.8903067811
| 27> H 6.1321726402 -1.85925572 -2.4451957768
| 28> H 3.8250059487 -0.9769392633 -2.7598214047
| 29> H 4.7026056662 -0.0087277652 -1.5460121668
| 30> H 2.645969442 -2.1287702228 2.3813013972
| 31> H 2.9215295131 -0.3666512872 2.4501713289
| 32> H 0.3246395512 -1.8041352331 3.2053775656
| 33> H 1.4697664276 -1.0501094076 4.3250261049
| 34> H 0.5509281656 -0.0458382776 3.1933516856
| 35> H -0.5337603743 1.9970242896 -1.6033376411
| 36> H 0.9557261295 2.2466243488 -0.6144883478
| 37> H -4.7252284341 0.942435301 2.3243737584
| 38> H -3.0949599952 1.6797411797 2.312405257
| 39> H -3.6488518491 2.9290519053 0.2538085234
| 40> H -5.241722247 2.1736440693 0.1888592415
| 41> H -4.8435422366 3.2867092715 1.5102678634
| 42> H -0.7997085808 -2.6274875219 0.3167969015
| 43> H -1.3716681242 -1.4391220777 1.5195995704
| 44> H -3.1128975502 -3.5712813051 0.1804294961
| 45> H -2.4977601127 -3.6517387647 1.8400560526
| 46> H -3.6660404209 -2.3992137025 1.3807202701
| 47> *
| 48>
| 49>                          ****END OF INPUT****

CARTESIAN COORDINATES (ANGSTROEM)
---------------------------------
  C      5.371940   -2.067296   -1.699518
  C      4.297986   -1.000598   -1.774817
  O      3.283280   -1.319912   -0.801201
  P      2.345308   -0.212432   -0.154505
  S      3.281354    1.416931    0.417656
  O      1.616633   -1.037296    0.978658
  C      2.167880   -1.149791    2.315697
  C      1.048574   -1.003702    3.325878
  S      0.805833    0.042334   -1.572800
  C      0.135504    1.569806   -0.855456
  S     -0.782443    1.279825    0.667412
  P     -2.438158    0.299788   -0.270875
  S     -2.967598    1.020912   -2.009637
  O     -3.512056    0.238794    0.896800
  C     -3.938488    1.360666    1.694092
  C     -4.453820    2.512430    0.857384
  O     -2.043296   -1.216238   -0.433470
  C     -1.666507   -2.067495    0.674983
  C     -2.814064   -2.984396    1.044507
  H      5.828149   -2.069861   -0.713570
  H      4.937574   -3.044315   -1.890307
  H      6.132173   -1.859256   -2.445196
  H      3.825006   -0.976939   -2.759821
  H      4.702606   -0.008728   -1.546012
  H      2.645969   -2.128770    2.381301
  H      2.921530   -0.366651    2.450171
  H      0.324640   -1.804135    3.205378
  H      1.469766   -1.050109    4.325026
  H      0.550928   -0.045838    3.193352
  H     -0.533760    1.997024   -1.603338
  H      0.955726    2.246624   -0.614488
  H     -4.725228    0.942435    2.324374
  H     -3.094960    1.679741    2.312405
  H     -3.648852    2.929052    0.253809
  H     -5.241722    2.173644    0.188859
  H     -4.843542    3.286709    1.510268
  H     -0.799709   -2.627488    0.316797
  H     -1.371668   -1.439122    1.519600
  H     -3.112898   -3.571281    0.180429
  H     -2.497760   -3.651739    1.840056
  H     -3.666040   -2.399214    1.380720

 Total Charge           Charge          ....    0
 Multiplicity           Mult            ....    1
 Number of Electrons    NEL             ....  202
 Basis Dimension        Dim             ....  334

ORBITAL ENERGIES
----------------

  NO   OCC          E(Eh)            E(eV)
   0   2.0000     -88.043132     -2395.7754
   1   2.0000     -88.042210     -2395.7503
   2   2.0000     -87.989434     -2394.3142
   3   2.0000     -87.982282     -2394.1196
   4   2.0000     -76.427484     -2079.6976
   5   2.0000     -76.426304     -2079.6655
   6   2.0000     -18.798871      -511.5433
   7   2.0000     -18.795050      -511.4393
   8   2.0000     -18.794909      -511.4355
   9   2.0000     -18.788179      -511.2523
  10   2.0000      -9.961716      -271.0721
  11   2.0000      -9.955886      -270.9134
  12   2.0000      -9.953910      -270.8597
  13   2.0000      -9.951669      -270.7987
  14   2.0000      -9.950724      -270.7730
  15   2.0000      -9.890984      -269.1474
  16   2.0000      -9.889662      -269.1114
  17   2.0000      -9.884876      -268.9812
  18   2.0000      -9.884530      -268.9717
  19   2.0000      -7.687885      -209.1980
  20   2.0000      -7.687597      -209.1902
  21   2.0000      -7.634431      -207.7434
  22   2.0000      -7.627653      -207.5590
  23   2.0000      -6.425516      -174.8472
  24   2.0000      -6.423519      -174.7928
  25   2.0000      -5.715511      -155.5270
  26   2.0000      -5.715414      -155.5243
  27   2.0000      -5.712450      -155.4437
  28   2.0000      -5.712223      -155.4375
  29   2.0000      -5.705112      -155.2440
  30   2.0000      -5.704470      -155.2265
  31   2.0000      -5.663111      -154.1011
  32   2.0000      -5.656739      -153.9277
  33   2.0000      -5.655080      -153.8826
  34   2.0000      -5.654794      -153.8748
  35   2.0000      -5.648187      -153.6950
  36   2.0000      -5.647675      -153.6810
  37   2.0000      -4.648003      -126.4786
  38   2.0000      -4.647247      -126.4580
  39   2.0000      -4.646428      -126.4357
  40   2.0000      -4.645964      -126.4231
  41   2.0000      -4.645514      -126.4109
  42   2.0000      -4.643501      -126.3561
  43   2.0000      -0.990075       -26.9413
  44   2.0000      -0.989408       -26.9232
  45   2.0000      -0.948027       -25.7971
  46   2.0000      -0.945543       -25.7295
  47   2.0000      -0.765617       -20.8335
  48   2.0000      -0.724576       -19.7167
  49   2.0000      -0.712741       -19.3947
  50   2.0000      -0.692294       -18.8383
  51   2.0000      -0.691904       -18.8277
  52   2.0000      -0.675999       -18.3949
  53   2.0000      -0.649761       -17.6809
  54   2.0000      -0.638543       -17.3756
  55   2.0000      -0.597962       -16.2714
  56   2.0000      -0.590541       -16.0694
  57   2.0000      -0.573449       -15.6044
  58   2.0000      -0.571844       -15.5607
  59   2.0000      -0.562454       -15.3052
  60   2.0000      -0.513194       -13.9647
  61   2.0000      -0.500686       -13.6244
  62   2.0000      -0.484111       -13.1733
  63   2.0000      -0.474952       -12.9241
  64   2.0000      -0.460815       -12.5394
  65   2.0000      -0.446741       -12.1564
  66   2.0000      -0.441210       -12.0059
  67   2.0000      -0.437708       -11.9106
  68   2.0000      -0.434599       -11.8260
  69   2.0000      -0.415010       -11.2930
  70   2.0000      -0.410492       -11.1701
  71   2.0000      -0.397777       -10.8241
  72   2.0000      -0.394847       -10.7443
  73   2.0000      -0.385785       -10.4977
  74   2.0000      -0.381849       -10.3906
  75   2.0000      -0.378103       -10.2887
  76   2.0000      -0.362947        -9.8763
  77   2.0000      -0.359971        -9.7953
  78   2.0000      -0.356755        -9.7078
  79   2.0000      -0.354286        -9.6406
  80   2.0000      -0.349721        -9.5164
  81   2.0000      -0.347540        -9.4570
  82   2.0000      -0.344289        -9.3686
  83   2.0000      -0.340111        -9.2549
  84   2.0000      -0.337538        -9.1849
  85   2.0000      -0.322301        -8.7702
  86   2.0000      -0.314820        -8.5667
  87   2.0000      -0.301853        -8.2138
  88   2.0000      -0.299110        -8.1392
  89   2.0000      -0.291964        -7.9447
  90   2.0000      -0.288012        -7.8372
  91   2.0000      -0.282348        -7.6831
  92   2.0000      -0.276350        -7.5199
  93   2.0000      -0.265614        -7.2277
  94   2.0000      -0.257990        -7.0203
  95   2.0000      -0.235827        -6.4172
  96   2.0000      -0.221020        -6.0143
  97   2.0000      -0.211460        -5.7541
  98   2.0000      -0.204031        -5.5520
  99   2.0000      -0.199909        -5.4398
 100   2.0000      -0.197399        -5.3715
 101   0.0000      -0.044192        -1.2025
 102   0.0000      -0.023929        -0.6512
 103   0.0000      -0.007748        -0.2108
 104   0.0000       0.000621         0.0169
 105   0.0000       0.011376         0.3096

MULLIKEN ATOMIC CHARGES
-----------------------
   0 C :   -0.281570
   1 C :   -0.011002
   2 O :   -0.379902
   3 P :    0.612335
   4 S :   -0.341871
   5 O :   -0.362695
   6 C :   -0.012951
   7 C :   -0.292852
   8 S :   -0.060131
   9 C :   -0.378544
  10 S :   -0.103380
  11 P :    0.593801
  12 S :   -0.307610
  13 O :   -0.380360
  14 C :   -0.012577
  15 C :   -0.307243
  16 O :   -0.343430
  17 C :   -0.022657
  18 C :   -0.284907
  19 H :    0.116477
  20 H :    0.117243
  21 H :    0.113445
  22 H :    0.105342
  23 H :    0.108162
  24 H :    0.105449
  25 H :    0.109376
  26 H :    0.119776
  27 H :    0.111970
  28 H :    0.127701
  29 H :    0.196077
  30 H :    0.195310
  31 H :    0.109056
  32 H :    0.113400
  33 H :    0.126874
  34 H :    0.127445
  35 H :    0.111755
  36 H :    0.112336
  37 H :    0.107419
  38 H :    0.120755
  39 H :    0.105824
  40 H :    0.116353
Sum of atomic charges:    0.0000000

LOEWDIN ATOMIC CHARGES
----------------------
   0 C :   -0.350601
   1 C :   -0.119513
   2 O :   -0.250899
   3 P :    0.567674
   4 S :   -0.325501
   5 O :   -0.241242
   6 C :   -0.116197
   7 C :   -0.354751
   8 S :    0.096127
   9 C :   -0.488219
  10 S :    0.067703
  11 P :    0.568183
  12 S :   -0.304615
  13 O :   -0.245265
  14 C :   -0.114792
  15 C :   -0.368271
  16 O :   -0.228216
  17 C :   -0.117154
  18 C :   -0.357383
  19 H :    0.127254
  20 H :    0.126993
  21 H :    0.131531
  22 H :    0.112883
  23 H :    0.108146
  24 H :    0.115280
  25 H :    0.107913
  26 H :    0.121970
  27 H :    0.130960
  28 H :    0.126215
  29 H :    0.129035
  30 H :    0.128517
  31 H :    0.120921
  32 H :    0.107944
  33 H :    0.122319
  34 H :    0.131064
  35 H :    0.130393
  36 H :    0.119523
  37 H :    0.102790
  38 H :    0.129121
  39 H :    0.127039
  40 H :    0.125120

  Mayer bond orders larger than 0.100000
B(  0-C ,  1-C ) :   1.1617 B(  0-C , 19-H ) :   0.9511 B(  0-C , 20-H ) :   0.9508
B(  0-C , 21-H ) :   0.9418 B(  1-C ,  2-O ) :   0.9033 B(  1-C , 22-H ) :   0.9310
B(  1-C , 23-H ) :   0.9069 B(  2-O ,  3-P ) :   1.1138 B(  3-P ,  4-S ) :   1.6010
B(  3-P ,  5-O ) :   1.1317 B(  3-P ,  8-S ) :   0.9809 B(  4-S ,  8-S ) :   0.1087
B(  5-O ,  6-C ) :   0.8935 B(  6-C ,  7-C ) :   1.1704 B(  6-C , 24-H ) :   0.9327
B(  6-C , 25-H ) :   0.9011 B(  7-C , 26-H ) :   0.9407 B(  7-C , 27-H ) :   0.9386
B(  7-C , 28-H ) :   0.9427 B(  8-S ,  9-C ) :   1.0047 B(  9-C , 10-S ) :   1.0086
B(  9-C , 29-H ) :   0.8687 B(  9-C , 30-H ) :   0.8703 B( 10-S , 11-P ) :   0.9370
B( 10-S , 12-S ) :   0.1097 B( 11-P , 12-S ) :   1.6473 B( 11-P , 13-O ) :   1.0799
B( 11-P , 16-O ) :   1.1455 B( 13-O , 14-C ) :   0.9113 B( 14-C , 15-C ) :   1.1674
B( 14-C , 31-H ) :   0.9331 B( 14-C , 32-H ) :   0.9257 B( 15-C , 33-H ) :   0.9321
B( 15-C , 34-H ) :   0.9433 B( 15-C , 35-H ) :   0.9349 B( 16-O , 17-C ) :   0.8902
B( 17-C , 18-C ) :   1.1593 B( 17-C , 36-H ) :   0.9322 B( 17-C , 37-H ) :   0.9056
B( 18-C , 38-H ) :   0.9468 B( 18-C , 39-H ) :   0.9416 B( 18-C , 40-H ) :   0.9439

Dispersion correction           -0.063982714
FINAL SINGLE POINT ENERGY     -2929.522045906973

DIPOLE MOMENT
-------------

Method             : SCF
Type of density    : Electron Density
Multiplicity       :   1
Irrep              :   0
Energy             : -2929.6423401972651845 Eh
Relativity type    :
Basis              : AO
                                X                 Y                 Z
Electronic contribution:     -0.463582392      10.408380709     -13.846905750
Nuclear contribution   :      0.774560791     -11.295652792      15.294182324
                        -----------------------------------------
Total Dipole Moment    :      0.310978400      -0.887272083       1.447276574
                        -----------------------------------------
Magnitude (a.u.)       :      1.725853063
Magnitude (Debye)      :      4.386769864

Rotational constants in cm-1:             0.012770             0.004626             0.004416
Rotational constants in MHz :           382.842707           138.693137           132.387256

                             ****ORCA TERMINATED NORMALLY****
TOTAL RUN TIME: 0 days 0 hours 0 minutes 21 seconds 418 msec
