                         Program Version 6.0.0  -   RELEASE  -
|  1> ! pbe def2-sv(p) def2/J RI DEFGRID1 loosescf d4 GCP(DFT/SV(P)) printgap
|  2> %output
|  3>     printlevel normal
|  4> end
|  5> * xyz 0 1
|  6> C 4.4869846194 -1.8738554283 -1.8041518357
|  7> C 4.5052645487 -0.6223998868 -0.9497326602
|  8> O 3.4164193973 0.2581076752 -1.3357327283
|  9> P 2.1562101564 0.5280863394 -0.4311786897
| 10> S 0.9453398443 1.760507031 -1.3462710537
| 11> O 2.8328162787 1.0294974435 0.9120886883
| 12> C 2.1070827862 1.5410880213 2.0462377049
| 13> C 3.1037213812 2.2377645401 2.948919833
| 14> S 1.3785005818 -1.3882258355 0.080918834
| 15> C 0.1814685804 -1.5588750862 -1.2835831319
| 16> S -1.4611428651 -2.0749070744 -0.7214972177
| 17> P -2.1780210628 -0.2672701526 0.0886150238
| 18> S -1.1634029956 0.661742701 1.4930365438
| 19> O -3.6578694564 -0.6494399503 0.5209964833
| 20> C -3.9779283157 -1.1207872728 1.8411974963
| 21> C -3.3851685048 -2.4880542328 2.113923421
| 22> O -2.405573001 0.5233818093 -1.2633767154
| 23> C -2.6250885322 1.9461957191 -1.3181673001
| 24> C -3.9063073258 2.351194019 -0.6217552182
| 25> H 5.3743409104 -2.4609206488 -1.5899326989
| 26> H 3.6057572655 -2.4717111538 -1.5853669391
| 27> H 4.4805505516 -1.6044532357 -2.8566248092
| 28> H 5.4099915367 -0.0368250155 -1.1184425893
| 29> H 4.4145038279 -0.8616961497 0.1115451967
| 30> H 1.3328374258 2.2281776491 1.6911560789
| 31> H 1.6176134436 0.7052633699 2.5530164521
| 32> H 3.864672685 1.5346717082 3.2743742888
| 33> H 3.580982259 3.0551443927 2.4156042678
| 34> H 2.5804076793 2.629686068 3.8146015621
| 35> H 0.5229797033 -2.3466766232 -1.9495463053
| 36> H 0.1072516401 -0.5993360464 -1.8017035263
| 37> H -3.6083795414 -0.3903206696 2.5683888612
| 38> H -5.0683210443 -1.1417489894 1.8545424608
| 39> H -3.7406139737 -2.8503866654 3.0731507752
| 40> H -3.6716719407 -3.1869890088 1.3321329717
| 41> H -2.2978138753 -2.4219367352 2.141735851
| 42> H -1.7583389641 2.4477428741 -0.875545781
| 43> H -2.6544978732 2.1603010679 -2.3873934138
| 44> H -3.8214248342 2.1655811573 0.4484691187
| 45> H -4.0814723977 3.4102148746 -0.7830662143
| 46> H -4.7429204943 1.7788731134 -1.0142453233
| 47> *
| 48>
| 49>                          ****END OF INPUT****

CARTESIAN COORDINATES (ANGSTROEM)
---------------------------------
  C      4.486985   -1.873855   -1.804152
  C      4.505265   -0.622400   -0.949733
  O      3.416419    0.258108   -1.335733
  P      2.156210    0.528086   -0.431179
  S      0.945340    1.760507   -1.346271
  O      2.832816    1.029497    0.912089
  C      2.107083    1.541088    2.046238
  C      3.103721    2.237765    2.948920
  S      1.378501   -1.388226    0.080919
  C      0.181469   -1.558875   -1.283583
  S     -1.461143   -2.074907   -0.721497
  P     -2.178021   -0.267270    0.088615
  S     -1.163403    0.661743    1.493037
  O     -3.657869   -0.649440    0.520996
  C     -3.977928   -1.120787    1.841197
  C     -3.385169   -2.488054    2.113923
  O     -2.405573    0.523382   -1.263377
  C     -2.625089    1.946196   -1.318167
  C     -3.906307    2.351194   -0.621755
  H      5.374341   -2.460921   -1.589933
  H      3.605757   -2.471711   -1.585367
  H      4.480551   -1.604453   -2.856625
  H      5.409992   -0.036825   -1.118443
  H      4.414504   -0.861696    0.111545
  H      1.332837    2.228178    1.691156
  H      1.617613    0.705263    2.553016
  H      3.864673    1.534672    3.274374
  H      3.580982    3.055144    2.415604
  H      2.580408    2.629686    3.814602
  H      0.522980   -2.346677   -1.949546
  H      0.107252   -0.599336   -1.801704
  H     -3.608380   -0.390321    2.568389
  H     -5.068321   -1.141749    1.854542
  H     -3.740614   -2.850387    3.073151
  H     -3.671672   -3.186989    1.332133
  H     -2.297814   -2.421937    2.141736
  H     -1.758339    2.447743   -0.875546
  H     -2.654498    2.160301   -2.387393
  H     -3.821425    2.165581    0.448469
  H     -4.081472    3.410215   -0.783066
  H     -4.742920    1.778873   -1.014245

 Total Charge           Charge          ....    0
 Multiplicity           Mult            ....    1
 Number of Electrons    NEL             ....  202
 Basis Dimension        Dim             ....  334

ORBITAL ENERGIES
----------------

  NO   OCC          E(Eh)            E(eV)
   0   2.0000     -88.041318     -2395.7261
   1   2.0000     -88.038694     -2395.6546
   2   2.0000     -87.981746     -2394.1050
   3   2.0000     -87.980955     -2394.0835
   4   2.0000     -76.423000     -2079.5756
   5   2.0000     -76.422532     -2079.5628
   6   2.0000     -18.792592      -511.3724
   7   2.0000     -18.790261      -511.3090
   8   2.0000     -18.786201      -511.1985
   9   2.0000     -18.784106      -511.1415
  10   2.0000      -9.955319      -270.8980
  11   2.0000      -9.954314      -270.8706
  12   2.0000      -9.950754      -270.7738
  13   2.0000      -9.947456      -270.6840
  14   2.0000      -9.941780      -270.5296
  15   2.0000      -9.886500      -269.0253
  16   2.0000      -9.885012      -268.9849
  17   2.0000      -9.883315      -268.9387
  18   2.0000      -9.877520      -268.7810
  19   2.0000      -7.686854      -209.1699
  20   2.0000      -7.683576      -209.0807
  21   2.0000      -7.626535      -207.5286
  22   2.0000      -7.626119      -207.5173
  23   2.0000      -6.420460      -174.7096
  24   2.0000      -6.420208      -174.7027
  25   2.0000      -5.714713      -155.5052
  26   2.0000      -5.711409      -155.4154
  27   2.0000      -5.711393      -155.4149
  28   2.0000      -5.708220      -155.3286
  29   2.0000      -5.703710      -155.2058
  30   2.0000      -5.700508      -155.1187
  31   2.0000      -5.655307      -153.8887
  32   2.0000      -5.655104      -153.8832
  33   2.0000      -5.647200      -153.6681
  34   2.0000      -5.646945      -153.6612
  35   2.0000      -5.646805      -153.6574
  36   2.0000      -5.645923      -153.6334
  37   2.0000      -4.642996      -126.3423
  38   2.0000      -4.642961      -126.3414
  39   2.0000      -4.642242      -126.3218
  40   2.0000      -4.641963      -126.3142
  41   2.0000      -4.641003      -126.2881
  42   2.0000      -4.640460      -126.2733
  43   2.0000      -0.985921       -26.8283
  44   2.0000      -0.982966       -26.7479
  45   2.0000      -0.942097       -25.6358
  46   2.0000      -0.941722       -25.6256
  47   2.0000      -0.759830       -20.6760
  48   2.0000      -0.720529       -19.6066
  49   2.0000      -0.707331       -19.2475
  50   2.0000      -0.689721       -18.7683
  51   2.0000      -0.684376       -18.6228
  52   2.0000      -0.671259       -18.2659
  53   2.0000      -0.649249       -17.6670
  54   2.0000      -0.632906       -17.2222
  55   2.0000      -0.597592       -16.2613
  56   2.0000      -0.582616       -15.8538
  57   2.0000      -0.571281       -15.5453
  58   2.0000      -0.569215       -15.4891
  59   2.0000      -0.560066       -15.2402
  60   2.0000      -0.508316       -13.8320
  61   2.0000      -0.487856       -13.2752
  62   2.0000      -0.477586       -12.9958
  63   2.0000      -0.469038       -12.7632
  64   2.0000      -0.450782       -12.2664
  65   2.0000      -0.445877       -12.1329
  66   2.0000      -0.436794       -11.8858
  67   2.0000      -0.433144       -11.7864
  68   2.0000      -0.429632       -11.6909
  69   2.0000      -0.418078       -11.3765
  70   2.0000      -0.410552       -11.1717
  71   2.0000      -0.390872       -10.6362
  72   2.0000      -0.388304       -10.5663
  73   2.0000      -0.383278       -10.4295
  74   2.0000      -0.379679       -10.3316
  75   2.0000      -0.373262       -10.1570
  76   2.0000      -0.364615        -9.9217
  77   2.0000      -0.354026        -9.6335
  78   2.0000      -0.351997        -9.5783
  79   2.0000      -0.350260        -9.5310
  80   2.0000      -0.345720        -9.4075
  81   2.0000      -0.344163        -9.3651
  82   2.0000      -0.339096        -9.2273
  83   2.0000      -0.335531        -9.1303
  84   2.0000      -0.331590        -9.0230
  85   2.0000      -0.312926        -8.5151
  86   2.0000      -0.308473        -8.3940
  87   2.0000      -0.297633        -8.0990
  88   2.0000      -0.295186        -8.0324
  89   2.0000      -0.292776        -7.9668
  90   2.0000      -0.277863        -7.5610
  91   2.0000      -0.271408        -7.3854
  92   2.0000      -0.267833        -7.2881
  93   2.0000      -0.260467        -7.0877
  94   2.0000      -0.257759        -7.0140
  95   2.0000      -0.241001        -6.5580
  96   2.0000      -0.222516        -6.0550
  97   2.0000      -0.204726        -5.5709
  98   2.0000      -0.201778        -5.4907
  99   2.0000      -0.191728        -5.2172
 100   2.0000      -0.184042        -5.0080
 101   0.0000      -0.039010        -1.0615
 102   0.0000      -0.029727        -0.8089
 103   0.0000      -0.010577        -0.2878
 104   0.0000       0.004433         0.1206
 105   0.0000       0.022056         0.6002

MULLIKEN ATOMIC CHARGES
-----------------------
   0 C :   -0.287774
   1 C :   -0.008096
   2 O :   -0.357995
   3 P :    0.605856
   4 S :   -0.307677
   5 O :   -0.383057
   6 C :   -0.026938
   7 C :   -0.273918
   8 S :   -0.104465
   9 C :   -0.349361
  10 S :   -0.084929
  11 P :    0.622790
  12 S :   -0.336871
  13 O :   -0.372344
  14 C :   -0.002126
  15 C :   -0.322828
  16 O :   -0.366645
  17 C :   -0.009152
  18 C :   -0.307655
  19 H :    0.108631
  20 H :    0.115481
  21 H :    0.119868
  22 H :    0.111269
  23 H :    0.103240
  24 H :    0.119753
  25 H :    0.117692
  26 H :    0.110874
  27 H :    0.118136
  28 H :    0.113498
  29 H :    0.181553
  30 H :    0.196439
  31 H :    0.109477
  32 H :    0.104999
  33 H :    0.113498
  34 H :    0.119976
  35 H :    0.130264
  36 H :    0.129105
  37 H :    0.104048
  38 H :    0.119903
  39 H :    0.110593
  40 H :    0.114889
Sum of atomic charges:    0.0000000

LOEWDIN ATOMIC CHARGES
----------------------
   0 C :   -0.359618
   1 C :   -0.112780
   2 O :   -0.241419
   3 P :    0.568306
   4 S :   -0.296158
   5 O :   -0.245208
   6 C :   -0.119240
   7 C :   -0.350874
   8 S :    0.061001
   9 C :   -0.478503
  10 S :    0.093339
  11 P :    0.573662
  12 S :   -0.318961
  13 O :   -0.242539
  14 C :   -0.120456
  15 C :   -0.371498
  16 O :   -0.237161
  17 C :   -0.118686
  18 C :   -0.366613
  19 H :    0.129265
  20 H :    0.119046
  21 H :    0.128895
  22 H :    0.121833
  23 H :    0.107333
  24 H :    0.111423
  25 H :    0.110800
  26 H :    0.124289
  27 H :    0.127945
  28 H :    0.131806
  29 H :    0.134926
  30 H :    0.124210
  31 H :    0.109381
  32 H :    0.118613
  33 H :    0.131452
  34 H :    0.124428
  35 H :    0.122500
  36 H :    0.110143
  37 H :    0.119441
  38 H :    0.120709
  39 H :    0.129873
  40 H :    0.125095

  Mayer bond orders larger than 0.100000
B(  0-C ,  1-C ) :   1.1631 B(  0-C , 19-H ) :   0.9402 B(  0-C , 20-H ) :   0.9388
B(  0-C , 21-H ) :   0.9464 B(  1-C ,  2-O ) :   0.8908 B(  1-C , 22-H ) :   0.9346
B(  1-C , 23-H ) :   0.9178 B(  2-O ,  3-P ) :   1.1349 B(  3-P ,  4-S ) :   1.6353
B(  3-P ,  5-O ) :   1.1074 B(  3-P ,  8-S ) :   0.9450 B(  4-S ,  8-S ) :   0.1137
B(  4-S , 30-H ) :   0.1042 B(  5-O ,  6-C ) :   0.8965 B(  6-C ,  7-C ) :   1.1531
B(  6-C , 24-H ) :   0.9153 B(  6-C , 25-H ) :   0.9276 B(  7-C , 26-H ) :   0.9506
B(  7-C , 27-H ) :   0.9500 B(  7-C , 28-H ) :   0.9423 B(  8-S ,  9-C ) :   0.9910
B(  9-C , 10-S ) :   1.0055 B(  9-C , 29-H ) :   0.9113 B(  9-C , 30-H ) :   0.8519
B( 10-S , 11-P ) :   0.9635 B( 10-S , 12-S ) :   0.1159 B( 11-P , 12-S ) :   1.6083
B( 11-P , 13-O ) :   1.1019 B( 11-P , 16-O ) :   1.1326 B( 13-O , 14-C ) :   0.9077
B( 14-C , 15-C ) :   1.1660 B( 14-C , 31-H ) :   0.9134 B( 14-C , 32-H ) :   0.9331
B( 15-C , 33-H ) :   0.9379 B( 15-C , 34-H ) :   0.9439 B( 15-C , 35-H ) :   0.9335
B( 16-O , 17-C ) :   0.8995 B( 17-C , 18-C ) :   1.1625 B( 17-C , 36-H ) :   0.9101
B( 17-C , 37-H ) :   0.9362 B( 18-C , 38-H ) :   0.9357 B( 18-C , 39-H ) :   0.9389
B( 18-C , 40-H ) :   0.9448

Dispersion correction           -0.065588014
FINAL SINGLE POINT ENERGY     -2929.518164676632

DIPOLE MOMENT
-------------

Method             : SCF
Type of density    : Electron Density
Multiplicity       :   1
Irrep              :   0
Energy             : -2929.6368049647903717 Eh
Relativity type    :
Basis              : AO
                                X                 Y                 Z
Electronic contribution:     -1.161124489      -2.027750405      -8.473093125
Nuclear contribution   :      1.387947937       1.449202876       9.043914248
                        -----------------------------------------
Total Dipole Moment    :      0.226823449      -0.578547529       0.570821123
                        -----------------------------------------
Magnitude (a.u.)       :      0.843802628
Magnitude (Debye)      :      2.144775832

Rotational constants in cm-1:             0.011619             0.005104             0.004788
Rotational constants in MHz :           348.343645           153.015139           143.552928

                             ****ORCA TERMINATED NORMALLY****
TOTAL RUN TIME: 0 days 0 hours 0 minutes 20 seconds 686 msec
