                         Program Version 6.0.0  -   RELEASE  -
|  1> ! pbe def2-sv(p) def2/J RI DEFGRID1 loosescf d4 GCP(DFT/SV(P)) printgap
|  2> %output
|  3>     printlevel normal
|  4> end
|  5> * xyz 0 1
|  6> C 5.4527818977 -0.7097491671 -0.9157636857
|  7> C 4.7860114981 -0.2092551645 0.3508024342
|  8> O 3.4515999224 -0.7372903766 0.4922099366
|  9> P 2.1736754463 -0.0838925401 -0.1899432948
| 10> S 2.051395194 -0.129554666 -2.1477753068
| 11> O 2.1663180474 1.3710724016 0.4569856426
| 12> C 1.8794766253 2.5930990261 -0.2410807227
| 13> C 3.1593115622 3.3749080939 -0.4594559548
| 14> S 0.8060197698 -1.2505910826 0.9033954552
| 15> C -0.2348791779 -1.9093740687 -0.4528842079
| 16> S -1.9813272161 -1.9018681197 -0.0129435464
| 17> P -2.1841951955 0.1960731719 0.2914831959
| 18> S -1.150442451 1.3444915655 -0.9124883562
| 19> O -1.8122032808 0.4826106668 1.7948848495
| 20> C -2.0591633978 -0.3838336304 2.9299576409
| 21> C -3.5150379948 -0.7723091694 3.0642194514
| 22> O -3.7501905041 0.4537275807 0.2633605537
| 23> C -4.4775943871 0.7243803512 -0.9476555952
| 24> C -4.4835254775 -0.4575296144 -1.8954374629
| 25> H 5.4608615494 -1.7961661551 -0.9278670247
| 26> H 4.9149750339 -0.3592680061 -1.7944138332
| 27> H 6.4732255348 -0.3416935569 -0.9531454884
| 28> H 4.7415857224 0.8830259898 0.3714859507
| 29> H 5.3053638497 -0.5699652523 1.2407163387
| 30> H 1.3963188759 2.3611549428 -1.1954965227
| 31> H 1.1730870246 3.1344073429 0.3908029536
| 32> H 3.8223987894 2.8252067262 -1.1249947744
| 33> H 2.9155676272 4.3289265729 -0.9154047084
| 34> H 3.6612094926 3.5468206297 0.4890492739
| 35> H 0.0324701683 -2.9477211764 -0.6315833185
| 36> H -0.0659282162 -1.2988818363 -1.3446248906
| 37> H -1.4196450695 -1.2654996279 2.8258677195
| 38> H -1.7193445652 0.2160309587 3.7753908589
| 39> H -4.1401902824 0.1161839923 3.0941525487
| 40> H -3.8198250272 -1.3899051565 2.2217438236
| 41> H -3.6459255275 -1.3365724786 3.9823606495
| 42> H -5.4821178092 0.9642421517 -0.5964206169
| 43> H -4.0326723007 1.6007753057 -1.4294588484
| 44> H -3.4822179537 -0.6249242357 -2.2895101471
| 45> H -4.8131206602 -1.3561175121 -1.3804702768
| 46> H -5.1537036369 -0.2484154185 -2.7230932818
| 47> *
| 48>
| 49>                          ****END OF INPUT****

CARTESIAN COORDINATES (ANGSTROEM)
---------------------------------
  C      5.452782   -0.709749   -0.915764
  C      4.786011   -0.209255    0.350802
  O      3.451600   -0.737290    0.492210
  P      2.173675   -0.083893   -0.189943
  S      2.051395   -0.129555   -2.147775
  O      2.166318    1.371072    0.456986
  C      1.879477    2.593099   -0.241081
  C      3.159312    3.374908   -0.459456
  S      0.806020   -1.250591    0.903395
  C     -0.234879   -1.909374   -0.452884
  S     -1.981327   -1.901868   -0.012944
  P     -2.184195    0.196073    0.291483
  S     -1.150442    1.344492   -0.912488
  O     -1.812203    0.482611    1.794885
  C     -2.059163   -0.383834    2.929958
  C     -3.515038   -0.772309    3.064219
  O     -3.750191    0.453728    0.263361
  C     -4.477594    0.724380   -0.947656
  C     -4.483525   -0.457530   -1.895437
  H      5.460862   -1.796166   -0.927867
  H      4.914975   -0.359268   -1.794414
  H      6.473226   -0.341694   -0.953145
  H      4.741586    0.883026    0.371486
  H      5.305364   -0.569965    1.240716
  H      1.396319    2.361155   -1.195497
  H      1.173087    3.134407    0.390803
  H      3.822399    2.825207   -1.124995
  H      2.915568    4.328927   -0.915405
  H      3.661209    3.546821    0.489049
  H      0.032470   -2.947721   -0.631583
  H     -0.065928   -1.298882   -1.344625
  H     -1.419645   -1.265500    2.825868
  H     -1.719345    0.216031    3.775391
  H     -4.140190    0.116184    3.094153
  H     -3.819825   -1.389905    2.221744
  H     -3.645926   -1.336572    3.982361
  H     -5.482118    0.964242   -0.596421
  H     -4.032672    1.600775   -1.429459
  H     -3.482218   -0.624924   -2.289510
  H     -4.813121   -1.356118   -1.380470
  H     -5.153704   -0.248415   -2.723093

 Total Charge           Charge          ....    0
 Multiplicity           Mult            ....    1
 Number of Electrons    NEL             ....  202
 Basis Dimension        Dim             ....  334

ORBITAL ENERGIES
----------------

  NO   OCC          E(Eh)            E(eV)
   0   2.0000     -88.046862     -2395.8769
   1   2.0000     -88.036487     -2395.5946
   2   2.0000     -87.983936     -2394.1646
   3   2.0000     -87.980532     -2394.0720
   4   2.0000     -76.425926     -2079.6552
   5   2.0000     -76.421048     -2079.5224
   6   2.0000     -18.793356      -511.3932
   7   2.0000     -18.788467      -511.2602
   8   2.0000     -18.784037      -511.1396
   9   2.0000     -18.783350      -511.1209
  10   2.0000      -9.954188      -270.8672
  11   2.0000      -9.953017      -270.8354
  12   2.0000      -9.952097      -270.8103
  13   2.0000      -9.950723      -270.7729
  14   2.0000      -9.939783      -270.4752
  15   2.0000      -9.887351      -269.0485
  16   2.0000      -9.884052      -268.9587
  17   2.0000      -9.880637      -268.8658
  18   2.0000      -9.878259      -268.8011
  19   2.0000      -7.691604      -209.2992
  20   2.0000      -7.681547      -209.0255
  21   2.0000      -7.628819      -207.5907
  22   2.0000      -7.625407      -207.4979
  23   2.0000      -6.423018      -174.7792
  24   2.0000      -6.418608      -174.6592
  25   2.0000      -5.719442      -155.6339
  26   2.0000      -5.715985      -155.5399
  27   2.0000      -5.709558      -155.3650
  28   2.0000      -5.708803      -155.3444
  29   2.0000      -5.706222      -155.2742
  30   2.0000      -5.698156      -155.0547
  31   2.0000      -5.657639      -153.9522
  32   2.0000      -5.654390      -153.8638
  33   2.0000      -5.649779      -153.7383
  34   2.0000      -5.648713      -153.7093
  35   2.0000      -5.645856      -153.6316
  36   2.0000      -5.645642      -153.6257
  37   2.0000      -4.645753      -126.4174
  38   2.0000      -4.644931      -126.3950
  39   2.0000      -4.643263      -126.3496
  40   2.0000      -4.641153      -126.2922
  41   2.0000      -4.639981      -126.2603
  42   2.0000      -4.639515      -126.2476
  43   2.0000      -0.986091       -26.8329
  44   2.0000      -0.978743       -26.6329
  45   2.0000      -0.944509       -25.7014
  46   2.0000      -0.935592       -25.4587
  47   2.0000      -0.761506       -20.7216
  48   2.0000      -0.719983       -19.5917
  49   2.0000      -0.708882       -19.2897
  50   2.0000      -0.690180       -18.7807
  51   2.0000      -0.681690       -18.5497
  52   2.0000      -0.672290       -18.2939
  53   2.0000      -0.649716       -17.6797
  54   2.0000      -0.632996       -17.2247
  55   2.0000      -0.598782       -16.2937
  56   2.0000      -0.588465       -16.0130
  57   2.0000      -0.575864       -15.6701
  58   2.0000      -0.569726       -15.5030
  59   2.0000      -0.557255       -15.1637
  60   2.0000      -0.498324       -13.5601
  61   2.0000      -0.488953       -13.3051
  62   2.0000      -0.471229       -12.8228
  63   2.0000      -0.469974       -12.7886
  64   2.0000      -0.448086       -12.1930
  65   2.0000      -0.447273       -12.1709
  66   2.0000      -0.441879       -12.0241
  67   2.0000      -0.432869       -11.7790
  68   2.0000      -0.426112       -11.5951
  69   2.0000      -0.413470       -11.2511
  70   2.0000      -0.407565       -11.0904
  71   2.0000      -0.397290       -10.8108
  72   2.0000      -0.393953       -10.7200
  73   2.0000      -0.383110       -10.4250
  74   2.0000      -0.378575       -10.3015
  75   2.0000      -0.370668       -10.0864
  76   2.0000      -0.365333        -9.9412
  77   2.0000      -0.358867        -9.7653
  78   2.0000      -0.352372        -9.5885
  79   2.0000      -0.347719        -9.4619
  80   2.0000      -0.346785        -9.4365
  81   2.0000      -0.343913        -9.3583
  82   2.0000      -0.337552        -9.1853
  83   2.0000      -0.334532        -9.1031
  84   2.0000      -0.333666        -9.0795
  85   2.0000      -0.312503        -8.5036
  86   2.0000      -0.306891        -8.3509
  87   2.0000      -0.292339        -7.9549
  88   2.0000      -0.291349        -7.9280
  89   2.0000      -0.285967        -7.7816
  90   2.0000      -0.282707        -7.6928
  91   2.0000      -0.273088        -7.4311
  92   2.0000      -0.271578        -7.3900
  93   2.0000      -0.262132        -7.1330
  94   2.0000      -0.257650        -7.0110
  95   2.0000      -0.232686        -6.3317
  96   2.0000      -0.219034        -5.9602
  97   2.0000      -0.211813        -5.7637
  98   2.0000      -0.197550        -5.3756
  99   2.0000      -0.195657        -5.3241
 100   2.0000      -0.187581        -5.1043
 101   0.0000      -0.043486        -1.1833
 102   0.0000      -0.032120        -0.8740
 103   0.0000      -0.006298        -0.1714
 104   0.0000       0.011316         0.3079
 105   0.0000       0.020218         0.5502

MULLIKEN ATOMIC CHARGES
-----------------------
   0 C :   -0.299354
   1 C :   -0.018477
   2 O :   -0.372483
   3 P :    0.652949
   4 S :   -0.326262
   5 O :   -0.381615
   6 C :   -0.021887
   7 C :   -0.287133
   8 S :   -0.106086
   9 C :   -0.342538
  10 S :   -0.118121
  11 P :    0.598845
  12 S :   -0.318367
  13 O :   -0.351028
  14 C :   -0.001279
  15 C :   -0.306621
  16 O :   -0.372212
  17 C :    0.000114
  18 C :   -0.320143
  19 H :    0.115629
  20 H :    0.129469
  21 H :    0.105359
  22 H :    0.105805
  23 H :    0.106069
  24 H :    0.129457
  25 H :    0.109189
  26 H :    0.113533
  27 H :    0.112274
  28 H :    0.113222
  29 H :    0.181813
  30 H :    0.213013
  31 H :    0.111628
  32 H :    0.109974
  33 H :    0.122271
  34 H :    0.118704
  35 H :    0.113455
  36 H :    0.104465
  37 H :    0.114123
  38 H :    0.132203
  39 H :    0.115702
  40 H :    0.114342
Sum of atomic charges:    0.0000000

LOEWDIN ATOMIC CHARGES
----------------------
   0 C :   -0.364909
   1 C :   -0.114723
   2 O :   -0.248636
   3 P :    0.571381
   4 S :   -0.301973
   5 O :   -0.242478
   6 C :   -0.123964
   7 C :   -0.359591
   8 S :    0.084168
   9 C :   -0.476786
  10 S :    0.077807
  11 P :    0.570168
  12 S :   -0.301955
  13 O :   -0.231435
  14 C :   -0.114665
  15 C :   -0.366543
  16 O :   -0.242675
  17 C :   -0.116955
  18 C :   -0.371286
  19 H :    0.127460
  20 H :    0.122334
  21 H :    0.127187
  22 H :    0.108889
  23 H :    0.119265
  24 H :    0.105172
  25 H :    0.117610
  26 H :    0.121154
  27 H :    0.131206
  28 H :    0.122387
  29 H :    0.135619
  30 H :    0.124207
  31 H :    0.103327
  32 H :    0.123166
  33 H :    0.128837
  34 H :    0.116653
  35 H :    0.131422
  36 H :    0.118542
  37 H :    0.113412
  38 H :    0.123026
  39 H :    0.122380
  40 H :    0.131794

  Mayer bond orders larger than 0.100000
B(  0-C ,  1-C ) :   1.1662 B(  0-C , 19-H ) :   0.9470 B(  0-C , 20-H ) :   0.9326
B(  0-C , 21-H ) :   0.9395 B(  1-C ,  2-O ) :   0.9121 B(  1-C , 22-H ) :   0.9161
B(  1-C , 23-H ) :   0.9360 B(  2-O ,  3-P ) :   1.1148 B(  3-P ,  4-S ) :   1.6102
B(  3-P ,  5-O ) :   1.1109 B(  3-P ,  8-S ) :   0.9548 B(  4-S ,  8-S ) :   0.1154
B(  5-O ,  6-C ) :   0.9020 B(  6-C ,  7-C ) :   1.1571 B(  6-C , 24-H ) :   0.9006
B(  6-C , 25-H ) :   0.9331 B(  7-C , 26-H ) :   0.9389 B(  7-C , 27-H ) :   0.9402
B(  7-C , 28-H ) :   0.9449 B(  8-S ,  9-C ) :   0.9992 B(  9-C , 10-S ) :   1.0026
B(  9-C , 29-H ) :   0.9095 B(  9-C , 30-H ) :   0.8485 B( 10-S , 11-P ) :   0.9350
B( 10-S , 12-S ) :   0.1053 B( 11-P , 12-S ) :   1.6234 B( 11-P , 13-O ) :   1.1476
B( 11-P , 16-O ) :   1.0974 B( 13-O , 14-C ) :   0.9001 B( 14-C , 15-C ) :   1.1689
B( 14-C , 31-H ) :   0.9139 B( 14-C , 32-H ) :   0.9341 B( 15-C , 33-H ) :   0.9430
B( 15-C , 34-H ) :   0.9377 B( 15-C , 35-H ) :   0.9363 B( 16-O , 17-C ) :   0.9050
B( 17-C , 18-C ) :   1.1658 B( 17-C , 36-H ) :   0.9341 B( 17-C , 37-H ) :   0.9167
B( 18-C , 38-H ) :   0.9343 B( 18-C , 39-H ) :   0.9445 B( 18-C , 40-H ) :   0.9371

Dispersion correction           -0.066288598
FINAL SINGLE POINT ENERGY     -2929.516439062668

DIPOLE MOMENT
-------------

Method             : SCF
Type of density    : Electron Density
Multiplicity       :   1
Irrep              :   0
Energy             : -2929.6348398608465686 Eh
Relativity type    :
Basis              : AO
                                X                 Y                 Z
Electronic contribution:     -2.368486063      -6.057568450      -0.209968693
Nuclear contribution   :      2.009313633       6.022474682       1.034621889
                        -----------------------------------------
Total Dipole Moment    :     -0.359172430      -0.035093768       0.824653197
                        -----------------------------------------
Magnitude (a.u.)       :      0.900160709
Magnitude (Debye)      :      2.288026690

Rotational constants in cm-1:             0.013750             0.004730             0.004522
Rotational constants in MHz :           412.213431           141.813062           135.561023

                             ****ORCA TERMINATED NORMALLY****
TOTAL RUN TIME: 0 days 0 hours 0 minutes 21 seconds 3 msec
