                         Program Version 6.0.0  -   RELEASE  -
|  1> ! pbe def2-sv(p) def2/J RI DEFGRID1 loosescf d4 GCP(DFT/SV(P)) printgap
|  2> %output
|  3>     printlevel normal
|  4> end
|  5> * xyz 0 1
|  6> C 2.3558680327 -2.1278880242 2.7536450635
|  7> C 1.903525852 -1.8405873361 1.3358700608
|  8> O 1.8916824124 -0.4111814862 1.1326418801
|  9> P 2.4272115255 0.3397801474 -0.1629387423
| 10> S 3.4762145894 -0.783742374 -1.3816954429
| 11> O 3.1136294427 1.6470919666 0.4042704973
| 12> C 4.532632744 1.718383081 0.6609395003
| 13> C 4.9564397772 0.7763698232 1.7685498453
| 14> S 0.7459087041 1.3232585227 -0.9877197357
| 15> C 0.0435773244 -0.1430214327 -1.7983501377
| 16> S -0.9274152863 -1.1598425104 -0.6678992591
| 17> P -2.5083806567 0.2517959079 -0.3778608578
| 18> S -2.977746978 1.2223697468 -2.0132784509
| 19> O -2.1214807477 1.227341015 0.7929014456
| 20> C -2.2125995162 0.9430756261 2.2125182423
| 21> C -1.2711734051 -0.160593339 2.6443495897
| 22> O -3.6593032035 -0.6290101907 0.2646309104
| 23> C -4.3896911262 -1.5903540947 -0.5280313083
| 24> C -5.6465911164 -1.9587934726 0.23333347
| 25> H 3.3785338239 -1.7945917087 2.9058933078
| 26> H 1.7089851244 -1.6180858959 3.4613841875
| 27> H 2.3015751531 -3.197736025 2.9262033413
| 28> H 0.8875399706 -2.2027883018 1.1622530804
| 29> H 2.5744448516 -2.2937006199 0.598503569
| 30> H 5.0636530275 1.486533196 -0.2675260764
| 31> H 4.6954888949 2.7630138187 0.9295798431
| 32> H 4.356330386 0.9493642527 2.6582262571
| 33> H 4.8259348633 -0.2547522135 1.4413196742
| 34> H 6.0040683101 0.9415014477 2.000423703
| 35> H 0.8464406591 -0.7653433775 -2.1951988346
| 36> H -0.6076985651 0.2194476263 -2.594361351
| 37> H -1.9501138855 1.8983371717 2.6699993623
| 38> H -3.248768473 0.6897476522 2.4426741324
| 39> H -0.2524138826 0.0764628686 2.3464242974
| 40> H -1.3140095334 -0.2568333586 3.7249599443
| 41> H -1.5637421095 -1.105833025 2.1911731167
| 42> H -4.6231171129 -1.136523763 -1.4965597732
| 43> H -3.7456535126 -2.4593465365 -0.6852935076
| 44> H -6.2625636001 -1.077199347 0.3870197214
| 45> H -6.2067582213 -2.6897026773 -0.340350767
| 46> H -5.3872789239 -2.3821889461 1.1991154421
| 47> *
| 48>
| 49>                          ****END OF INPUT****

CARTESIAN COORDINATES (ANGSTROEM)
---------------------------------
  C      2.355868   -2.127888    2.753645
  C      1.903526   -1.840587    1.335870
  O      1.891682   -0.411181    1.132642
  P      2.427212    0.339780   -0.162939
  S      3.476215   -0.783742   -1.381695
  O      3.113629    1.647092    0.404270
  C      4.532633    1.718383    0.660940
  C      4.956440    0.776370    1.768550
  S      0.745909    1.323259   -0.987720
  C      0.043577   -0.143021   -1.798350
  S     -0.927415   -1.159843   -0.667899
  P     -2.508381    0.251796   -0.377861
  S     -2.977747    1.222370   -2.013278
  O     -2.121481    1.227341    0.792901
  C     -2.212600    0.943076    2.212518
  C     -1.271173   -0.160593    2.644350
  O     -3.659303   -0.629010    0.264631
  C     -4.389691   -1.590354   -0.528031
  C     -5.646591   -1.958793    0.233333
  H      3.378534   -1.794592    2.905893
  H      1.708985   -1.618086    3.461384
  H      2.301575   -3.197736    2.926203
  H      0.887540   -2.202788    1.162253
  H      2.574445   -2.293701    0.598504
  H      5.063653    1.486533   -0.267526
  H      4.695489    2.763014    0.929580
  H      4.356330    0.949364    2.658226
  H      4.825935   -0.254752    1.441320
  H      6.004068    0.941501    2.000424
  H      0.846441   -0.765343   -2.195199
  H     -0.607699    0.219448   -2.594361
  H     -1.950114    1.898337    2.669999
  H     -3.248768    0.689748    2.442674
  H     -0.252414    0.076463    2.346424
  H     -1.314010   -0.256833    3.724960
  H     -1.563742   -1.105833    2.191173
  H     -4.623117   -1.136524   -1.496560
  H     -3.745654   -2.459347   -0.685294
  H     -6.262564   -1.077199    0.387020
  H     -6.206758   -2.689703   -0.340351
  H     -5.387279   -2.382189    1.199115

 Total Charge           Charge          ....    0
 Multiplicity           Mult            ....    1
 Number of Electrons    NEL             ....  202
 Basis Dimension        Dim             ....  334

ORBITAL ENERGIES
----------------

  NO   OCC          E(Eh)            E(eV)
   0   2.0000     -88.040428     -2395.7019
   1   2.0000     -88.035762     -2395.5749
   2   2.0000     -87.991182     -2394.3618
   3   2.0000     -87.983486     -2394.1524
   4   2.0000     -76.427604     -2079.7008
   5   2.0000     -76.427255     -2079.6913
   6   2.0000     -18.801400      -511.6121
   7   2.0000     -18.794985      -511.4376
   8   2.0000     -18.794441      -511.4227
   9   2.0000     -18.792085      -511.3586
  10   2.0000      -9.958458      -270.9834
  11   2.0000      -9.957758      -270.9644
  12   2.0000      -9.957557      -270.9589
  13   2.0000      -9.951168      -270.7850
  14   2.0000      -9.948933      -270.7242
  15   2.0000      -9.893514      -269.2162
  16   2.0000      -9.890670      -269.1388
  17   2.0000      -9.890553      -269.1356
  18   2.0000      -9.887481      -269.0520
  19   2.0000      -7.685317      -209.1281
  20   2.0000      -7.681113      -209.0137
  21   2.0000      -7.636166      -207.7906
  22   2.0000      -7.628796      -207.5901
  23   2.0000      -6.425060      -174.8348
  24   2.0000      -6.425008      -174.8334
  25   2.0000      -5.712963      -155.4576
  26   2.0000      -5.709957      -155.3758
  27   2.0000      -5.709007      -155.3500
  28   2.0000      -5.705919      -155.2660
  29   2.0000      -5.702457      -155.1717
  30   2.0000      -5.697723      -155.0429
  31   2.0000      -5.664920      -154.1503
  32   2.0000      -5.657780      -153.9560
  33   2.0000      -5.657176      -153.9396
  34   2.0000      -5.656100      -153.9103
  35   2.0000      -5.649520      -153.7312
  36   2.0000      -5.648748      -153.7102
  37   2.0000      -4.648163      -126.4830
  38   2.0000      -4.647554      -126.4664
  39   2.0000      -4.646720      -126.4437
  40   2.0000      -4.646587      -126.4401
  41   2.0000      -4.645610      -126.4135
  42   2.0000      -4.645100      -126.3996
  43   2.0000      -0.992867       -27.0173
  44   2.0000      -0.987842       -26.8806
  45   2.0000      -0.948285       -25.8041
  46   2.0000      -0.948112       -25.7994
  47   2.0000      -0.762161       -20.7395
  48   2.0000      -0.725581       -19.7441
  49   2.0000      -0.713843       -19.4247
  50   2.0000      -0.696536       -18.9537
  51   2.0000      -0.692436       -18.8422
  52   2.0000      -0.674429       -18.3521
  53   2.0000      -0.651025       -17.7153
  54   2.0000      -0.635866       -17.3028
  55   2.0000      -0.604259       -16.4427
  56   2.0000      -0.593836       -16.1591
  57   2.0000      -0.577347       -15.7104
  58   2.0000      -0.571643       -15.5552
  59   2.0000      -0.558929       -15.2092
  60   2.0000      -0.511072       -13.9070
  61   2.0000      -0.502037       -13.6611
  62   2.0000      -0.480971       -13.0879
  63   2.0000      -0.477209       -12.9855
  64   2.0000      -0.461238       -12.5509
  65   2.0000      -0.448773       -12.2117
  66   2.0000      -0.444321       -12.0906
  67   2.0000      -0.436256       -11.8711
  68   2.0000      -0.433612       -11.7992
  69   2.0000      -0.416683       -11.3385
  70   2.0000      -0.408059       -11.1038
  71   2.0000      -0.402627       -10.9560
  72   2.0000      -0.395854       -10.7717
  73   2.0000      -0.383909       -10.4467
  74   2.0000      -0.376849       -10.2546
  75   2.0000      -0.374044       -10.1783
  76   2.0000      -0.371989       -10.1223
  77   2.0000      -0.361847        -9.8463
  78   2.0000      -0.359872        -9.7926
  79   2.0000      -0.355917        -9.6850
  80   2.0000      -0.353465        -9.6183
  81   2.0000      -0.350016        -9.5244
  82   2.0000      -0.345254        -9.3948
  83   2.0000      -0.342927        -9.3315
  84   2.0000      -0.338366        -9.2074
  85   2.0000      -0.327629        -8.9152
  86   2.0000      -0.312268        -8.4973
  87   2.0000      -0.307260        -8.3610
  88   2.0000      -0.298851        -8.1321
  89   2.0000      -0.295548        -8.0423
  90   2.0000      -0.286990        -7.8094
  91   2.0000      -0.279250        -7.5988
  92   2.0000      -0.276512        -7.5243
  93   2.0000      -0.265096        -7.2136
  94   2.0000      -0.258131        -7.0241
  95   2.0000      -0.233052        -6.3417
  96   2.0000      -0.219405        -5.9703
  97   2.0000      -0.213942        -5.8217
  98   2.0000      -0.204719        -5.5707
  99   2.0000      -0.199032        -5.4159
 100   2.0000      -0.195677        -5.3246
 101   0.0000      -0.046189        -1.2569
 102   0.0000      -0.024512        -0.6670
 103   0.0000      -0.000785        -0.0214
 104   0.0000       0.004773         0.1299
 105   0.0000       0.014936         0.4064

MULLIKEN ATOMIC CHARGES
-----------------------
   0 C :   -0.292905
   1 C :   -0.021119
   2 O :   -0.376641
   3 P :    0.625715
   4 S :   -0.333419
   5 O :   -0.377279
   6 C :    0.001784
   7 C :   -0.325956
   8 S :   -0.046572
   9 C :   -0.382153
  10 S :   -0.118965
  11 P :    0.618198
  12 S :   -0.313365
  13 O :   -0.351791
  14 C :    0.013651
  15 C :   -0.358124
  16 O :   -0.390032
  17 C :   -0.011341
  18 C :   -0.281219
  19 H :    0.118017
  20 H :    0.117090
  21 H :    0.110930
  22 H :    0.114798
  23 H :    0.111652
  24 H :    0.116078
  25 H :    0.110059
  26 H :    0.121262
  27 H :    0.129147
  28 H :    0.116051
  29 H :    0.183796
  30 H :    0.200796
  31 H :    0.112117
  32 H :    0.108578
  33 H :    0.155243
  34 H :    0.110379
  35 H :    0.118283
  36 H :    0.110218
  37 H :    0.105323
  38 H :    0.122481
  39 H :    0.115219
  40 H :    0.114019
Sum of atomic charges:    0.0000000

LOEWDIN ATOMIC CHARGES
----------------------
   0 C :   -0.352226
   1 C :   -0.127389
   2 O :   -0.243700
   3 P :    0.573701
   4 S :   -0.319386
   5 O :   -0.245127
   6 C :   -0.111781
   7 C :   -0.367520
   8 S :    0.101169
   9 C :   -0.490511
  10 S :    0.065310
  11 P :    0.570307
  12 S :   -0.308541
  13 O :   -0.230860
  14 C :   -0.104257
  15 C :   -0.375940
  16 O :   -0.249937
  17 C :   -0.118935
  18 C :   -0.350371
  19 H :    0.124573
  20 H :    0.125281
  21 H :    0.130955
  22 H :    0.103702
  23 H :    0.105726
  24 H :    0.114505
  25 H :    0.121611
  26 H :    0.126823
  27 H :    0.120580
  28 H :    0.132674
  29 H :    0.126531
  30 H :    0.130472
  31 H :    0.124119
  32 H :    0.113666
  33 H :    0.130462
  34 H :    0.129297
  35 H :    0.115301
  36 H :    0.111978
  37 H :    0.109736
  38 H :    0.129845
  39 H :    0.132700
  40 H :    0.125455

  Mayer bond orders larger than 0.100000
B(  0-C ,  1-C ) :   1.1646 B(  0-C , 19-H ) :   0.9461 B(  0-C , 20-H ) :   0.9508
B(  0-C , 21-H ) :   0.9408 B(  1-C ,  2-O ) :   0.8870 B(  1-C , 22-H ) :   0.9142
B(  1-C , 23-H ) :   0.9000 B(  2-O ,  3-P ) :   1.0914 B(  3-P ,  4-S ) :   1.5901
B(  3-P ,  5-O ) :   1.1323 B(  3-P ,  8-S ) :   0.9715 B(  4-S ,  8-S ) :   0.1009
B(  5-O ,  6-C ) :   0.9071 B(  6-C ,  7-C ) :   1.1612 B(  6-C , 24-H ) :   0.9206
B(  6-C , 25-H ) :   0.9349 B(  7-C , 26-H ) :   0.9444 B(  7-C , 27-H ) :   0.9281
B(  7-C , 28-H ) :   0.9363 B(  8-S ,  9-C ) :   1.0095 B(  9-C , 10-S ) :   1.0002
B(  9-C , 29-H ) :   0.8717 B(  9-C , 30-H ) :   0.8702 B( 10-S , 11-P ) :   0.9324
B( 10-S , 12-S ) :   0.1112 B( 11-P , 12-S ) :   1.6513 B( 11-P , 13-O ) :   1.1494
B( 11-P , 16-O ) :   1.0775 B( 13-O , 14-C ) :   0.8963 B( 14-C , 15-C ) :   1.1693
B( 14-C , 31-H ) :   0.9337 B( 14-C , 32-H ) :   0.9282 B( 15-C , 33-H ) :   0.9207
B( 15-C , 34-H ) :   0.9345 B( 15-C , 35-H ) :   0.9390 B( 16-O , 17-C ) :   0.8981
B( 17-C , 18-C ) :   1.1599 B( 17-C , 36-H ) :   0.9101 B( 17-C , 37-H ) :   0.9285
B( 18-C , 38-H ) :   0.9506 B( 18-C , 39-H ) :   0.9415 B( 18-C , 40-H ) :   0.9512

Dispersion correction           -0.064338476
FINAL SINGLE POINT ENERGY     -2929.520345497850

DIPOLE MOMENT
-------------

Method             : SCF
Type of density    : Electron Density
Multiplicity       :   1
Irrep              :   0
Energy             : -2929.6414149947950136 Eh
Relativity type    :
Basis              : AO
                                X                 Y                 Z
Electronic contribution:     -1.475142866      12.822978782     -22.580434868
Nuclear contribution   :      1.441182297     -13.850463915      24.559186441
                        -----------------------------------------
Total Dipole Moment    :     -0.033960568      -1.027485134       1.978751573
                        -----------------------------------------
Magnitude (a.u.)       :      2.229873720
Magnitude (Debye)      :      5.667888561

Rotational constants in cm-1:             0.013887             0.004490             0.004158
Rotational constants in MHz :           416.324620           134.599432           124.654202

                             ****ORCA TERMINATED NORMALLY****
TOTAL RUN TIME: 0 days 0 hours 0 minutes 21 seconds 65 msec
