                         Program Version 6.0.0  -   RELEASE  -
|  1> ! pbe def2-sv(p) def2/J RI DEFGRID1 loosescf d4 GCP(DFT/SV(P)) printgap
|  2> %output
|  3>     printlevel normal
|  4> end
|  5> * xyz 0 1
|  6> C 5.0105754433 1.2594497969 0.7422044248
|  7> C 3.6935308525 1.5503401103 0.0520218733
|  8> O 2.590058776 0.9909299558 0.808148669
|  9> P 1.9024611261 -0.3890680701 0.4882675656
| 10> S 0.6260281238 -0.7928467981 1.9163361113
| 11> O 3.1316978815 -1.3920797256 0.3878029619
| 12> C 3.1075427794 -2.6795557782 -0.2557859002
| 13> C 1.9187692551 -3.5259614192 0.1481338505
| 14> S 1.3376553132 -0.2970906288 -1.5736965969
| 15> C 0.304747792 1.2108346369 -1.6396772694
| 16> S -0.5729797428 1.6330304781 -0.1177074465
| 17> P -2.1545061734 0.2037093798 -0.3236132158
| 18> S -1.702700495 -1.6413387055 -0.7792529827
| 19> O -3.0617794381 0.7847415323 -1.4733047678
| 20> C -3.6887324688 2.0933814471 -1.4552318278
| 21> C -3.017852324 3.0137048021 -2.4560873794
| 22> O -3.0470380261 0.4989538801 0.954504852
| 23> C -2.7473462116 0.2104025124 2.3315863998
| 24> C -2.966541044 -1.2522976277 2.6584090986
| 25> H 5.1874457101 0.1877314089 0.7791451759
| 26> H 5.8142361893 1.7382470254 0.1914942862
| 27> H 4.9908754027 1.6440074627 1.7581575201
| 28> H 3.6800298312 1.1370734805 -0.9604625097
| 29> H 3.4885917336 2.6221333161 0.0236813948
| 30> H 3.1132009714 -2.5173034461 -1.3373861163
| 31> H 4.0463785594 -3.1408448449 0.0562965675
| 32> H 2.0017168963 -4.506571224 -0.3092601659
| 33> H 1.8779161434 -3.6345839917 1.2297725486
| 34> H 0.9882271422 -3.0643794538 -0.18558486
| 35> H -0.4131658645 1.0358843712 -2.4408687583
| 36> H 0.946993467 2.0587934658 -1.8664344621
| 37> H -4.7282620545 1.9032488626 -1.7265049472
| 38> H -3.6428945667 2.5001034167 -0.4435900681
| 39> H -2.9871594558 2.5401808082 -3.4335497683
| 40> H -3.58960291 3.9337344029 -2.5246821658
| 41> H -2.0047317369 3.2503401643 -2.1408541381
| 42> H -1.7171225995 0.5019698742 2.5508344243
| 43> H -3.4391489486 0.8496581579 2.8838649606
| 44> H -2.8411189888 -1.3999846175 3.7259203368
| 45> H -3.9653185841 -1.5605451694 2.3607521012
| 46> H -2.235154215 -1.8656327695 2.1359602181
| 47> *
| 48>
| 49>                          ****END OF INPUT****

CARTESIAN COORDINATES (ANGSTROEM)
---------------------------------
  C      5.010575    1.259450    0.742204
  C      3.693531    1.550340    0.052022
  O      2.590059    0.990930    0.808149
  P      1.902461   -0.389068    0.488268
  S      0.626028   -0.792847    1.916336
  O      3.131698   -1.392080    0.387803
  C      3.107543   -2.679556   -0.255786
  C      1.918769   -3.525961    0.148134
  S      1.337655   -0.297091   -1.573697
  C      0.304748    1.210835   -1.639677
  S     -0.572980    1.633030   -0.117707
  P     -2.154506    0.203709   -0.323613
  S     -1.702700   -1.641339   -0.779253
  O     -3.061779    0.784742   -1.473305
  C     -3.688732    2.093381   -1.455232
  C     -3.017852    3.013705   -2.456087
  O     -3.047038    0.498954    0.954505
  C     -2.747346    0.210403    2.331586
  C     -2.966541   -1.252298    2.658409
  H      5.187446    0.187731    0.779145
  H      5.814236    1.738247    0.191494
  H      4.990875    1.644007    1.758158
  H      3.680030    1.137073   -0.960463
  H      3.488592    2.622133    0.023681
  H      3.113201   -2.517303   -1.337386
  H      4.046379   -3.140845    0.056297
  H      2.001717   -4.506571   -0.309260
  H      1.877916   -3.634584    1.229773
  H      0.988227   -3.064379   -0.185585
  H     -0.413166    1.035884   -2.440869
  H      0.946993    2.058793   -1.866434
  H     -4.728262    1.903249   -1.726505
  H     -3.642895    2.500103   -0.443590
  H     -2.987159    2.540181   -3.433550
  H     -3.589603    3.933734   -2.524682
  H     -2.004732    3.250340   -2.140854
  H     -1.717123    0.501970    2.550834
  H     -3.439149    0.849658    2.883865
  H     -2.841119   -1.399985    3.725920
  H     -3.965319   -1.560545    2.360752
  H     -2.235154   -1.865633    2.135960

 Total Charge           Charge          ....    0
 Multiplicity           Mult            ....    1
 Number of Electrons    NEL             ....  202
 Basis Dimension        Dim             ....  334

ORBITAL ENERGIES
----------------

  NO   OCC          E(Eh)            E(eV)
   0   2.0000     -88.042475     -2395.7575
   1   2.0000     -88.037980     -2395.6352
   2   2.0000     -87.974375     -2393.9044
   3   2.0000     -87.971815     -2393.8348
   4   2.0000     -76.422197     -2079.5537
   5   2.0000     -76.421687     -2079.5398
   6   2.0000     -18.788729      -511.2673
   7   2.0000     -18.787825      -511.2427
   8   2.0000     -18.787225      -511.2264
   9   2.0000     -18.785274      -511.1733
  10   2.0000      -9.963189      -271.1121
  11   2.0000      -9.954764      -270.8829
  12   2.0000      -9.954334      -270.8712
  13   2.0000      -9.954237      -270.8686
  14   2.0000      -9.946686      -270.6631
  15   2.0000      -9.889316      -269.1020
  16   2.0000      -9.885667      -269.0027
  17   2.0000      -9.874716      -268.7047
  18   2.0000      -9.870288      -268.5842
  19   2.0000      -7.686839      -209.1695
  20   2.0000      -7.682460      -209.0504
  21   2.0000      -7.619434      -207.3353
  22   2.0000      -7.617075      -207.2712
  23   2.0000      -6.418908      -174.6674
  24   2.0000      -6.418515      -174.6567
  25   2.0000      -5.714666      -155.5040
  26   2.0000      -5.711420      -155.4156
  27   2.0000      -5.710454      -155.3894
  28   2.0000      -5.706959      -155.2943
  29   2.0000      -5.703825      -155.2090
  30   2.0000      -5.699431      -155.0894
  31   2.0000      -5.648626      -153.7069
  32   2.0000      -5.646278      -153.6430
  33   2.0000      -5.640020      -153.4727
  34   2.0000      -5.639319      -153.4537
  35   2.0000      -5.637310      -153.3990
  36   2.0000      -5.637239      -153.3971
  37   2.0000      -4.642066      -126.3170
  38   2.0000      -4.641469      -126.3008
  39   2.0000      -4.641071      -126.2900
  40   2.0000      -4.640501      -126.2745
  41   2.0000      -4.638604      -126.2228
  42   2.0000      -4.638533      -126.2209
  43   2.0000      -0.983933       -26.7742
  44   2.0000      -0.983256       -26.7558
  45   2.0000      -0.941822       -25.6283
  46   2.0000      -0.939008       -25.5517
  47   2.0000      -0.761095       -20.7104
  48   2.0000      -0.716971       -19.5098
  49   2.0000      -0.710582       -19.3359
  50   2.0000      -0.686952       -18.6929
  51   2.0000      -0.684959       -18.6387
  52   2.0000      -0.669161       -18.2088
  53   2.0000      -0.647803       -17.6276
  54   2.0000      -0.634311       -17.2605
  55   2.0000      -0.582219       -15.8430
  56   2.0000      -0.579361       -15.7652
  57   2.0000      -0.575105       -15.6494
  58   2.0000      -0.573521       -15.6063
  59   2.0000      -0.569170       -15.4879
  60   2.0000      -0.505086       -13.7441
  61   2.0000      -0.496899       -13.5213
  62   2.0000      -0.472677       -12.8622
  63   2.0000      -0.470042       -12.7905
  64   2.0000      -0.455881       -12.4051
  65   2.0000      -0.443849       -12.0777
  66   2.0000      -0.439241       -11.9523
  67   2.0000      -0.435052       -11.8384
  68   2.0000      -0.426891       -11.6163
  69   2.0000      -0.411804       -11.2058
  70   2.0000      -0.402089       -10.9414
  71   2.0000      -0.398890       -10.8543
  72   2.0000      -0.394404       -10.7323
  73   2.0000      -0.386348       -10.5131
  74   2.0000      -0.381103       -10.3703
  75   2.0000      -0.369795       -10.0626
  76   2.0000      -0.358807        -9.7636
  77   2.0000      -0.354665        -9.6509
  78   2.0000      -0.352663        -9.5964
  79   2.0000      -0.351643        -9.5687
  80   2.0000      -0.339201        -9.2301
  81   2.0000      -0.338096        -9.2001
  82   2.0000      -0.335558        -9.1310
  83   2.0000      -0.332634        -9.0514
  84   2.0000      -0.325965        -8.8700
  85   2.0000      -0.318136        -8.6569
  86   2.0000      -0.315532        -8.5861
  87   2.0000      -0.295256        -8.0343
  88   2.0000      -0.291770        -7.9395
  89   2.0000      -0.288072        -7.8388
  90   2.0000      -0.286034        -7.7834
  91   2.0000      -0.275302        -7.4914
  92   2.0000      -0.268493        -7.3061
  93   2.0000      -0.258639        -7.0379
  94   2.0000      -0.252406        -6.8683
  95   2.0000      -0.244189        -6.6447
  96   2.0000      -0.220568        -6.0020
  97   2.0000      -0.202052        -5.4981
  98   2.0000      -0.184045        -5.0081
  99   2.0000      -0.178059        -4.8452
 100   2.0000      -0.175403        -4.7730
 101   0.0000      -0.051297        -1.3959
 102   0.0000      -0.027412        -0.7459
 103   0.0000      -0.017503        -0.4763
 104   0.0000       0.002375         0.0646
 105   0.0000       0.018599         0.5061

MULLIKEN ATOMIC CHARGES
-----------------------
   0 C :   -0.286279
   1 C :   -0.017862
   2 O :   -0.354595
   3 P :    0.605911
   4 S :   -0.306512
   5 O :   -0.381597
   6 C :   -0.011722
   7 C :   -0.328416
   8 S :   -0.122215
   9 C :   -0.315283
  10 S :   -0.109174
  11 P :    0.606430
  12 S :   -0.288582
  13 O :   -0.363100
  14 C :   -0.005257
  15 C :   -0.297349
  16 O :   -0.382177
  17 C :   -0.015056
  18 C :   -0.306872
  19 H :    0.123542
  20 H :    0.107005
  21 H :    0.120357
  22 H :    0.096955
  23 H :    0.103881
  24 H :    0.113036
  25 H :    0.107111
  26 H :    0.109015
  27 H :    0.126638
  28 H :    0.153522
  29 H :    0.188205
  30 H :    0.179920
  31 H :    0.110484
  32 H :    0.105016
  33 H :    0.119704
  34 H :    0.110943
  35 H :    0.116862
  36 H :    0.125490
  37 H :    0.098565
  38 H :    0.106087
  39 H :    0.111160
  40 H :    0.146213
Sum of atomic charges:   -0.0000000

LOEWDIN ATOMIC CHARGES
----------------------
   0 C :   -0.357770
   1 C :   -0.120049
   2 O :   -0.235831
   3 P :    0.565105
   4 S :   -0.299926
   5 O :   -0.248148
   6 C :   -0.115911
   7 C :   -0.374250
   8 S :    0.059687
   9 C :   -0.470451
  10 S :    0.077540
  11 P :    0.562612
  12 S :   -0.293194
  13 O :   -0.242027
  14 C :   -0.113064
  15 C :   -0.361790
  16 O :   -0.242784
  17 C :   -0.115159
  18 C :   -0.365585
  19 H :    0.127664
  20 H :    0.128097
  21 H :    0.128995
  22 H :    0.101420
  23 H :    0.116948
  24 H :    0.107675
  25 H :    0.119983
  26 H :    0.129470
  27 H :    0.129329
  28 H :    0.125981
  29 H :    0.133318
  30 H :    0.131174
  31 H :    0.121654
  32 H :    0.109688
  33 H :    0.127514
  34 H :    0.130371
  35 H :    0.117881
  36 H :    0.107907
  37 H :    0.115219
  38 H :    0.128864
  39 H :    0.124733
  40 H :    0.127110

  Mayer bond orders larger than 0.100000
B(  0-C ,  1-C ) :   1.1668 B(  0-C , 19-H ) :   0.9426 B(  0-C , 20-H ) :   0.9399
B(  0-C , 21-H ) :   0.9475 B(  1-C ,  2-O ) :   0.9009 B(  1-C , 22-H ) :   0.9049
B(  1-C , 23-H ) :   0.9346 B(  2-O ,  3-P ) :   1.1219 B(  3-P ,  4-S ) :   1.6421
B(  3-P ,  5-O ) :   1.0769 B(  3-P ,  8-S ) :   0.9569 B(  4-S ,  8-S ) :   0.1187
B(  5-O ,  6-C ) :   0.9124 B(  6-C ,  7-C ) :   1.1694 B(  6-C , 24-H ) :   0.9252
B(  6-C , 25-H ) :   0.9326 B(  7-C , 26-H ) :   0.9329 B(  7-C , 27-H ) :   0.9399
B(  7-C , 28-H ) :   0.9251 B(  8-S ,  9-C ) :   0.9795 B(  9-C , 10-S ) :   1.0212
B(  9-C , 29-H ) :   0.8966 B(  9-C , 30-H ) :   0.9097 B( 10-S , 11-P ) :   0.9133
B( 10-S , 12-S ) :   0.1152 B( 11-P , 12-S ) :   1.6904 B( 11-P , 13-O ) :   1.1133
B( 11-P , 16-O ) :   1.1021 B( 13-O , 14-C ) :   0.8976 B( 14-C , 15-C ) :   1.1646
B( 14-C , 31-H ) :   0.9352 B( 14-C , 32-H ) :   0.9176 B( 15-C , 33-H ) :   0.9455
B( 15-C , 34-H ) :   0.9403 B( 15-C , 35-H ) :   0.9363 B( 16-O , 17-C ) :   0.8992
B( 17-C , 18-C ) :   1.1736 B( 17-C , 36-H ) :   0.9112 B( 17-C , 37-H ) :   0.9344
B( 18-C , 38-H ) :   0.9381 B( 18-C , 39-H ) :   0.9466 B( 18-C , 40-H ) :   0.9291

Dispersion correction           -0.068369243
FINAL SINGLE POINT ENERGY     -2929.501819235296

DIPOLE MOMENT
-------------

Method             : SCF
Type of density    : Electron Density
Multiplicity       :   1
Irrep              :   0
Energy             : -2929.6176500078349818 Eh
Relativity type    :
Basis              : AO
                                X                 Y                 Z
Electronic contribution:     -3.938413269      -2.844748010      -0.804850729
Nuclear contribution   :      4.517760352       4.163243145       0.185457556
                        -----------------------------------------
Total Dipole Moment    :      0.579347083       1.318495135      -0.619393173
                        -----------------------------------------
Magnitude (a.u.)       :      1.567711825
Magnitude (Debye)      :      3.984806781

Rotational constants in cm-1:             0.011725             0.005703             0.005017
Rotational constants in MHz :           351.507716           170.964219           150.402910

                             ****ORCA TERMINATED NORMALLY****
TOTAL RUN TIME: 0 days 0 hours 0 minutes 21 seconds 343 msec
