                         Program Version 6.0.0  -   RELEASE  -
|  1> ! pbe def2-sv(p) def2/J RI DEFGRID1 loosescf d4 GCP(DFT/SV(P)) printgap
|  2> %output
|  3>     printlevel normal
|  4> end
|  5> * xyz 0 1
|  6> C 4.0297615867 -1.4257779802 -2.3348485967
|  7> C 4.6011207581 -1.1598579263 -0.9569701329
|  8> O 3.5840744686 -1.1234472133 0.0591685931
|  9> P 2.4863691768 0.0230308933 0.1266454167
| 10> S 3.136697887 1.8138705922 -0.3197125104
| 11> O 1.9942646054 -0.0385374587 1.6226096032
| 12> C 1.20170363 -1.072124131 2.2535869991
| 13> C 1.8137371834 -2.4491170022 2.1143299474
| 14> S 0.8763430426 -0.7065890551 -1.0707491815
| 15> C 0.0670745881 0.8922750407 -1.2893852932
| 16> S -0.6925959063 1.5046998752 0.2384145126
| 17> P -2.4629574653 0.3533639546 0.0936672914
| 18> S -3.2367131018 0.1584556523 -1.7020781017
| 19> O -3.3914288333 0.9588841245 1.2312673902
| 20> C -3.7132677227 2.3510209707 1.4027574711
| 21> C -4.233845915 2.9980111004 0.1360310924
| 22> O -2.0619569686 -1.0198295459 0.7729762608
| 23> C -2.6203715094 -2.3018432805 0.4018476974
| 24> C -1.5014938286 -3.3007582425 0.1882391686
| 25> H 3.4347316302 -0.5747462956 -2.6626258039
| 26> H 4.843882571 -1.5737962424 -3.0370632654
| 27> H 3.3995842686 -2.3113443795 -2.3209047629
| 28> H 5.1393686127 -0.2069678638 -0.9419338602
| 29> H 5.2621510108 -1.9648431376 -0.6329826579
| 30> H 1.1635299574 -0.7498136939 3.2954984556
| 31> H 0.1945617237 -1.0425562788 1.8272567564
| 32> H 2.8431319286 -2.437665456 2.4630227489
| 33> H 1.2426730111 -3.1534162124 2.7120265786
| 34> H 1.7986042098 -2.7666205732 1.073741365
| 35> H -0.7038834706 0.7671336962 -2.0513521506
| 36> H 0.8103406617 1.6327678579 -1.5865896856
| 37> H -4.4717846494 2.3437528189 2.1876491345
| 38> H -2.8164370754 2.8653255321 1.7599210951
| 39> H -4.5459067587 4.0145927237 0.3530443029
| 40> H -3.4529968426 3.0226236684 -0.6232056844
| 41> H -5.0794702748 2.4379699656 -0.2564830937
| 42> H -3.2738964234 -2.6016674259 1.2232160034
| 43> H -3.2149751127 -2.1759965988 -0.5091187855
| 44> H -0.852134137 -2.9714809125 -0.6193832769
| 45> H -0.9144291835 -3.4076840112 1.0952583024
| 46> H -1.935612193 -4.260381093 -0.0730576862
| 47> *
| 48>
| 49>                          ****END OF INPUT****

CARTESIAN COORDINATES (ANGSTROEM)
---------------------------------
  C      4.029762   -1.425778   -2.334849
  C      4.601121   -1.159858   -0.956970
  O      3.584074   -1.123447    0.059169
  P      2.486369    0.023031    0.126645
  S      3.136698    1.813871   -0.319713
  O      1.994265   -0.038537    1.622610
  C      1.201704   -1.072124    2.253587
  C      1.813737   -2.449117    2.114330
  S      0.876343   -0.706589   -1.070749
  C      0.067075    0.892275   -1.289385
  S     -0.692596    1.504700    0.238415
  P     -2.462957    0.353364    0.093667
  S     -3.236713    0.158456   -1.702078
  O     -3.391429    0.958884    1.231267
  C     -3.713268    2.351021    1.402757
  C     -4.233846    2.998011    0.136031
  O     -2.061957   -1.019830    0.772976
  C     -2.620372   -2.301843    0.401848
  C     -1.501494   -3.300758    0.188239
  H      3.434732   -0.574746   -2.662626
  H      4.843883   -1.573796   -3.037063
  H      3.399584   -2.311344   -2.320905
  H      5.139369   -0.206968   -0.941934
  H      5.262151   -1.964843   -0.632983
  H      1.163530   -0.749814    3.295498
  H      0.194562   -1.042556    1.827257
  H      2.843132   -2.437665    2.463023
  H      1.242673   -3.153416    2.712027
  H      1.798604   -2.766621    1.073741
  H     -0.703883    0.767134   -2.051352
  H      0.810341    1.632768   -1.586590
  H     -4.471785    2.343753    2.187649
  H     -2.816437    2.865326    1.759921
  H     -4.545907    4.014593    0.353044
  H     -3.452997    3.022624   -0.623206
  H     -5.079470    2.437970   -0.256483
  H     -3.273896   -2.601667    1.223216
  H     -3.214975   -2.175997   -0.509119
  H     -0.852134   -2.971481   -0.619383
  H     -0.914429   -3.407684    1.095258
  H     -1.935612   -4.260381   -0.073058

 Total Charge           Charge          ....    0
 Multiplicity           Mult            ....    1
 Number of Electrons    NEL             ....  202
 Basis Dimension        Dim             ....  334

ORBITAL ENERGIES
----------------

  NO   OCC          E(Eh)            E(eV)
   0   2.0000     -88.047143     -2395.8846
   1   2.0000     -88.045323     -2395.8350
   2   2.0000     -87.990406     -2394.3407
   3   2.0000     -87.985215     -2394.1994
   4   2.0000     -76.430683     -2079.7846
   5   2.0000     -76.427672     -2079.7027
   6   2.0000     -18.795805      -511.4599
   7   2.0000     -18.794817      -511.4330
   8   2.0000     -18.793823      -511.4059
   9   2.0000     -18.789641      -511.2921
  10   2.0000      -9.959774      -271.0192
  11   2.0000      -9.954272      -270.8695
  12   2.0000      -9.954057      -270.8637
  13   2.0000      -9.953172      -270.8396
  14   2.0000      -9.951191      -270.7857
  15   2.0000      -9.887425      -269.0505
  16   2.0000      -9.887334      -269.0480
  17   2.0000      -9.885244      -268.9912
  18   2.0000      -9.884408      -268.9684
  19   2.0000      -7.692049      -209.3113
  20   2.0000      -7.689914      -209.2532
  21   2.0000      -7.635349      -207.7684
  22   2.0000      -7.630511      -207.6368
  23   2.0000      -6.428042      -174.9159
  24   2.0000      -6.424920      -174.8310
  25   2.0000      -5.719801      -155.6437
  26   2.0000      -5.717595      -155.5837
  27   2.0000      -5.716590      -155.5563
  28   2.0000      -5.714513      -155.4998
  29   2.0000      -5.709139      -155.3536
  30   2.0000      -5.707053      -155.2968
  31   2.0000      -5.664127      -154.1287
  32   2.0000      -5.659487      -154.0025
  33   2.0000      -5.656093      -153.9101
  34   2.0000      -5.655524      -153.8946
  35   2.0000      -5.651068      -153.7734
  36   2.0000      -5.650627      -153.7614
  37   2.0000      -4.650535      -126.5475
  38   2.0000      -4.649994      -126.5328
  39   2.0000      -4.648395      -126.4893
  40   2.0000      -4.647696      -126.4702
  41   2.0000      -4.646731      -126.4440
  42   2.0000      -4.645214      -126.4027
  43   2.0000      -0.989159       -26.9164
  44   2.0000      -0.987282       -26.8653
  45   2.0000      -0.947573       -25.7848
  46   2.0000      -0.945642       -25.7322
  47   2.0000      -0.767499       -20.8847
  48   2.0000      -0.724008       -19.7013
  49   2.0000      -0.712539       -19.3892
  50   2.0000      -0.691017       -18.8035
  51   2.0000      -0.689377       -18.7589
  52   2.0000      -0.679367       -18.4865
  53   2.0000      -0.653042       -17.7702
  54   2.0000      -0.639940       -17.4137
  55   2.0000      -0.601902       -16.3786
  56   2.0000      -0.595892       -16.2150
  57   2.0000      -0.578087       -15.7306
  58   2.0000      -0.575687       -15.6652
  59   2.0000      -0.561069       -15.2675
  60   2.0000      -0.506373       -13.7791
  61   2.0000      -0.492397       -13.3988
  62   2.0000      -0.474138       -12.9019
  63   2.0000      -0.472076       -12.8459
  64   2.0000      -0.461534       -12.5590
  65   2.0000      -0.444755       -12.1024
  66   2.0000      -0.442723       -12.0471
  67   2.0000      -0.438160       -11.9229
  68   2.0000      -0.434005       -11.8099
  69   2.0000      -0.422031       -11.4841
  70   2.0000      -0.414843       -11.2885
  71   2.0000      -0.400060       -10.8862
  72   2.0000      -0.397400       -10.8138
  73   2.0000      -0.386551       -10.5186
  74   2.0000      -0.381587       -10.3835
  75   2.0000      -0.378352       -10.2955
  76   2.0000      -0.368898       -10.0382
  77   2.0000      -0.363867        -9.9013
  78   2.0000      -0.354255        -9.6398
  79   2.0000      -0.352590        -9.5945
  80   2.0000      -0.348420        -9.4810
  81   2.0000      -0.346957        -9.4412
  82   2.0000      -0.343186        -9.3386
  83   2.0000      -0.341889        -9.3033
  84   2.0000      -0.338146        -9.2014
  85   2.0000      -0.321506        -8.7486
  86   2.0000      -0.311260        -8.4698
  87   2.0000      -0.299762        -8.1569
  88   2.0000      -0.294681        -8.0187
  89   2.0000      -0.292478        -7.9587
  90   2.0000      -0.291875        -7.9423
  91   2.0000      -0.280350        -7.6287
  92   2.0000      -0.270095        -7.3497
  93   2.0000      -0.263935        -7.1820
  94   2.0000      -0.261444        -7.1143
  95   2.0000      -0.238088        -6.4787
  96   2.0000      -0.221588        -6.0297
  97   2.0000      -0.211466        -5.7543
  98   2.0000      -0.204516        -5.5652
  99   2.0000      -0.203051        -5.5253
 100   2.0000      -0.201708        -5.4887
 101   0.0000      -0.047094        -1.2815
 102   0.0000      -0.029337        -0.7983
 103   0.0000      -0.009772        -0.2659
 104   0.0000      -0.001206        -0.0328
 105   0.0000       0.011860         0.3227

MULLIKEN ATOMIC CHARGES
-----------------------
   0 C :   -0.315463
   1 C :   -0.002163
   2 O :   -0.375274
   3 P :    0.606482
   4 S :   -0.317793
   5 O :   -0.353532
   6 C :   -0.034151
   7 C :   -0.311529
   8 S :   -0.102649
   9 C :   -0.368082
  10 S :   -0.077417
  11 P :    0.611184
  12 S :   -0.332152
  13 O :   -0.371814
  14 C :   -0.011388
  15 C :   -0.311671
  16 O :   -0.360058
  17 C :   -0.010445
  18 C :   -0.306638
  19 H :    0.127725
  20 H :    0.114273
  21 H :    0.115057
  22 H :    0.115241
  23 H :    0.105086
  24 H :    0.107126
  25 H :    0.141231
  26 H :    0.121559
  27 H :    0.117117
  28 H :    0.118445
  29 H :    0.192878
  30 H :    0.197069
  31 H :    0.110036
  32 H :    0.116621
  33 H :    0.113031
  34 H :    0.126581
  35 H :    0.126955
  36 H :    0.103457
  37 H :    0.113448
  38 H :    0.131581
  39 H :    0.119405
  40 H :    0.110631
Sum of atomic charges:    0.0000000

LOEWDIN ATOMIC CHARGES
----------------------
   0 C :   -0.370242
   1 C :   -0.117387
   2 O :   -0.241853
   3 P :    0.573361
   4 S :   -0.312395
   5 O :   -0.231775
   6 C :   -0.120118
   7 C :   -0.366349
   8 S :    0.083434
   9 C :   -0.488453
  10 S :    0.094033
  11 P :    0.572490
  12 S :   -0.314213
  13 O :   -0.245323
  14 C :   -0.113533
  15 C :   -0.369741
  16 O :   -0.240560
  17 C :   -0.117081
  18 C :   -0.358376
  19 H :    0.121595
  20 H :    0.131700
  21 H :    0.122682
  22 H :    0.113426
  23 H :    0.118768
  24 H :    0.122343
  25 H :    0.109018
  26 H :    0.128235
  27 H :    0.129157
  28 H :    0.117949
  29 H :    0.127611
  30 H :    0.129444
  31 H :    0.121924
  32 H :    0.111027
  33 H :    0.130849
  34 H :    0.121638
  35 H :    0.129744
  36 H :    0.115294
  37 H :    0.106844
  38 H :    0.121291
  39 H :    0.123019
  40 H :    0.130520

  Mayer bond orders larger than 0.100000
B(  0-C ,  1-C ) :   1.1653 B(  0-C , 19-H ) :   0.9347 B(  0-C , 20-H ) :   0.9374
B(  0-C , 21-H ) :   0.9450 B(  1-C ,  2-O ) :   0.9051 B(  1-C , 22-H ) :   0.9163
B(  1-C , 23-H ) :   0.9340 B(  2-O ,  3-P ) :   1.0940 B(  3-P ,  4-S ) :   1.6210
B(  3-P ,  5-O ) :   1.1554 B(  3-P ,  8-S ) :   0.9332 B(  4-S ,  8-S ) :   0.1075
B(  5-O ,  6-C ) :   0.8937 B(  6-C ,  7-C ) :   1.1734 B(  6-C , 24-H ) :   0.9333
B(  6-C , 25-H ) :   0.8994 B(  7-C , 26-H ) :   0.9410 B(  7-C , 27-H ) :   0.9307
B(  7-C , 28-H ) :   0.9366 B(  8-S ,  9-C ) :   1.0070 B(  9-C , 10-S ) :   1.0064
B(  9-C , 29-H ) :   0.8632 B(  9-C , 30-H ) :   0.8691 B( 10-S , 11-P ) :   0.9602
B( 10-S , 12-S ) :   0.1076 B( 11-P , 12-S ) :   1.5973 B( 11-P , 13-O ) :   1.1252
B( 11-P , 16-O ) :   1.1183 B( 13-O , 14-C ) :   0.9125 B( 14-C , 15-C ) :   1.1642
B( 14-C , 31-H ) :   0.9342 B( 14-C , 32-H ) :   0.9282 B( 15-C , 33-H ) :   0.9350
B( 15-C , 34-H ) :   0.9334 B( 15-C , 35-H ) :   0.9425 B( 16-O , 17-C ) :   0.9002
B( 17-C , 18-C ) :   1.1648 B( 17-C , 36-H ) :   0.9327 B( 17-C , 37-H ) :   0.8987
B( 18-C , 38-H ) :   0.9398 B( 18-C , 39-H ) :   0.9426 B( 18-C , 40-H ) :   0.9384

Dispersion correction           -0.066245955
FINAL SINGLE POINT ENERGY     -2929.520220781522

DIPOLE MOMENT
-------------

Method             : SCF
Type of density    : Electron Density
Multiplicity       :   1
Irrep              :   0
Energy             : -2929.6398444636038221 Eh
Relativity type    :
Basis              : AO
                                X                 Y                 Z
Electronic contribution:      0.820372377      13.487504693      -1.800085546
Nuclear contribution   :     -1.080656317     -14.614911260       2.450845064
                        -----------------------------------------
Total Dipole Moment    :     -0.260283940      -1.127406567       0.650759519
                        -----------------------------------------
Magnitude (a.u.)       :      1.327509416
Magnitude (Debye)      :      3.374260778

Rotational constants in cm-1:             0.012724             0.004941             0.004525
Rotational constants in MHz :           381.453766           148.140819           135.659020

                             ****ORCA TERMINATED NORMALLY****
TOTAL RUN TIME: 0 days 0 hours 0 minutes 21 seconds 227 msec
