                         Program Version 6.0.1  -  RELEASE   -
|  1> ! pbe def2-sv(p) def2/J RI DEFGRID1 loosescf d4 GCP(DFT/SV(P)) printgap
|  2> %output
|  3>     printlevel normal
|  4> end
|  5> * xyz 0 1
|  6> C 4.0075632727 -3.2115109963 0.8890727943
|  7> C 2.8605662912 -2.2387503908 1.072688935
|  8> O 2.4889920363 -1.7387989312 -0.2262946013
|  9> C 1.6514932531 -0.7399062161 -0.2886736843
| 10> O 1.2023866144 -0.1458159813 0.680172192
| 11> C 1.3254672507 -0.3315258876 -1.707370247
| 12> C 0.4581532135 0.9186898475 -1.6729958609
| 13> H 0.4476912955 1.3983979343 -2.6563277739
| 14> C 1.0360830126 1.9169827425 -0.6751473142
| 15> O 2.2236378509 2.1574833417 -0.6411377251
| 16> O 0.1233461379 2.5111049223 0.0581411877
| 17> C 0.5624731934 3.5303178318 0.9792973417
| 18> C 0.6953978517 4.8722835721 0.2780903598
| 19> S -1.3096277983 0.5906098698 -1.374216527
| 20> P -1.524250433 -0.7796163854 0.2368938415
| 21> S -0.687703808 -2.5508449783 0.1393890602
| 22> O -1.3494943833 -0.0472957646 1.6253142913
| 23> C -2.138488729 1.1041892955 1.9822179794
| 24> O -3.1229690452 -0.8883946575 0.1888053848
| 25> C -3.7977158574 -1.610809577 -0.8462774467
| 26> H 4.858596498 -2.7051090648 0.4436811581
| 27> H 4.2924685931 -3.6136162125 1.8553731291
| 28> H 3.6981140386 -4.0233831399 0.238274205
| 29> H 3.1343171112 -1.387708219 1.7046800021
| 30> H 1.9795488158 -2.7248641886 1.5053170384
| 31> H 0.8303840764 -1.1579679842 -2.2198196197
| 32> H 2.2669980775 -0.1225696755 -2.2184148641
| 33> H -0.2093758919 3.5569892279 1.7481653867
| 34> H 1.5161766767 3.213994068 1.41076275
| 35> H -0.242029213 5.1366118414 -0.2033808494
| 36> H 0.9503352519 5.6317363013 1.0096672219
| 37> H 1.4812978614 4.8267775308 -0.4722156168
| 38> H -1.6924414512 1.4751504883 2.9014560914
| 39> H -3.1717219318 0.80264015 2.1443509752
| 40> H -2.0851210175 1.8530278917 1.1922055348
| 41> H -3.3012008658 -2.5668629904 -1.0200445432
| 42> H -3.8058734343 -1.0216267475 -1.762168402
| 43> H -4.8090766806 -1.7698131918 -0.4808943873
| 44> *
| 45>
| 46>                          ****END OF INPUT****

CARTESIAN COORDINATES (ANGSTROEM)
---------------------------------
  C      4.007563   -3.211511    0.889073
  C      2.860566   -2.238750    1.072689
  O      2.488992   -1.738799   -0.226295
  C      1.651493   -0.739906   -0.288674
  O      1.202387   -0.145816    0.680172
  C      1.325467   -0.331526   -1.707370
  C      0.458153    0.918690   -1.672996
  H      0.447691    1.398398   -2.656328
  C      1.036083    1.916983   -0.675147
  O      2.223638    2.157483   -0.641138
  O      0.123346    2.511105    0.058141
  C      0.562473    3.530318    0.979297
  C      0.695398    4.872284    0.278090
  S     -1.309628    0.590610   -1.374217
  P     -1.524250   -0.779616    0.236894
  S     -0.687704   -2.550845    0.139389
  O     -1.349494   -0.047296    1.625314
  C     -2.138489    1.104189    1.982218
  O     -3.122969   -0.888395    0.188805
  C     -3.797716   -1.610810   -0.846277
  H      4.858596   -2.705109    0.443681
  H      4.292469   -3.613616    1.855373
  H      3.698114   -4.023383    0.238274
  H      3.134317   -1.387708    1.704680
  H      1.979549   -2.724864    1.505317
  H      0.830384   -1.157968   -2.219820
  H      2.266998   -0.122570   -2.218415
  H     -0.209376    3.556989    1.748165
  H      1.516177    3.213994    1.410763
  H     -0.242029    5.136612   -0.203381
  H      0.950335    5.631736    1.009667
  H      1.481298    4.826778   -0.472216
  H     -1.692441    1.475150    2.901456
  H     -3.171722    0.802640    2.144351
  H     -2.085121    1.853028    1.192206
  H     -3.301201   -2.566863   -1.020045
  H     -3.805873   -1.021627   -1.762168
  H     -4.809077   -1.769813   -0.480894

 Total Charge           Charge          ....    0
 Multiplicity           Mult            ....    1
 Number of Electrons    NEL             ....  174
 Basis Dimension        Dim             ....  316

ORBITAL ENERGIES
----------------

  NO   OCC          E(Eh)            E(eV)
   0   2.0000     -88.035450     -2395.5664
   1   2.0000     -87.976614     -2393.9654
   2   2.0000     -76.423042     -2079.5767
   3   2.0000     -18.805075      -511.7121
   4   2.0000     -18.799393      -511.5575
   5   2.0000     -18.788489      -511.2608
   6   2.0000     -18.785988      -511.1927
   7   2.0000     -18.737371      -509.8698
   8   2.0000     -18.732016      -509.7241
   9   2.0000     -10.014115      -272.4979
  10   2.0000     -10.009967      -272.3851
  11   2.0000      -9.949371      -270.7362
  12   2.0000      -9.948831      -270.7215
  13   2.0000      -9.942506      -270.5493
  14   2.0000      -9.940954      -270.5071
  15   2.0000      -9.939115      -270.4571
  16   2.0000      -9.908697      -269.6293
  17   2.0000      -9.887932      -269.0643
  18   2.0000      -9.882463      -268.9155
  19   2.0000      -7.680183      -208.9884
  20   2.0000      -7.621879      -207.4019
  21   2.0000      -6.419617      -174.6867
  22   2.0000      -5.708301      -155.3308
  23   2.0000      -5.704458      -155.2262
  24   2.0000      -5.697149      -155.0273
  25   2.0000      -5.651039      -153.7726
  26   2.0000      -5.642151      -153.5307
  27   2.0000      -5.642025      -153.5273
  28   2.0000      -4.642690      -126.3340
  29   2.0000      -4.641574      -126.3036
  30   2.0000      -4.639680      -126.2521
  31   2.0000      -1.013734       -27.5851
  32   2.0000      -1.008195       -27.4344
  33   2.0000      -0.982221       -26.7276
  34   2.0000      -0.937002       -25.4971
  35   2.0000      -0.918287       -24.9879
  36   2.0000      -0.910327       -24.7713
  37   2.0000      -0.761284       -20.7156
  38   2.0000      -0.710643       -19.3376
  39   2.0000      -0.701451       -19.0875
  40   2.0000      -0.691138       -18.8068
  41   2.0000      -0.655475       -17.8364
  42   2.0000      -0.633716       -17.2443
  43   2.0000      -0.622496       -16.9390
  44   2.0000      -0.610374       -16.6091
  45   2.0000      -0.591814       -16.1041
  46   2.0000      -0.559616       -15.2279
  47   2.0000      -0.513346       -13.9688
  48   2.0000      -0.504337       -13.7237
  49   2.0000      -0.500455       -13.6181
  50   2.0000      -0.479696       -13.0532
  51   2.0000      -0.471880       -12.8405
  52   2.0000      -0.449785       -12.2393
  53   2.0000      -0.443204       -12.0602
  54   2.0000      -0.435987       -11.8638
  55   2.0000      -0.429542       -11.6884
  56   2.0000      -0.424618       -11.5544
  57   2.0000      -0.415733       -11.3127
  58   2.0000      -0.410789       -11.1781
  59   2.0000      -0.407797       -11.0967
  60   2.0000      -0.404042       -10.9946
  61   2.0000      -0.395860       -10.7719
  62   2.0000      -0.389859       -10.6086
  63   2.0000      -0.381715       -10.3870
  64   2.0000      -0.379917       -10.3381
  65   2.0000      -0.357748        -9.7348
  66   2.0000      -0.354621        -9.6497
  67   2.0000      -0.351460        -9.5637
  68   2.0000      -0.341535        -9.2937
  69   2.0000      -0.335688        -9.1345
  70   2.0000      -0.330785        -9.0011
  71   2.0000      -0.326511        -8.8848
  72   2.0000      -0.315094        -8.5741
  73   2.0000      -0.314010        -8.5446
  74   2.0000      -0.297286        -8.0896
  75   2.0000      -0.296598        -8.0708
  76   2.0000      -0.294149        -8.0042
  77   2.0000      -0.291765        -7.9393
  78   2.0000      -0.264795        -7.2054
  79   2.0000      -0.260208        -7.0806
  80   2.0000      -0.256659        -6.9841
  81   2.0000      -0.250714        -6.8223
  82   2.0000      -0.242101        -6.5879
  83   2.0000      -0.225252        -6.1294
  84   2.0000      -0.211560        -5.7568
  85   2.0000      -0.193920        -5.2768
  86   2.0000      -0.189197        -5.1483
  87   0.0000      -0.037446        -1.0190
  88   0.0000      -0.021297        -0.5795
  89   0.0000      -0.015632        -0.4254
  90   0.0000      -0.005483        -0.1492
  91   0.0000       0.028642         0.7794

MULLIKEN ATOMIC CHARGES
-----------------------
   0 C :   -0.274955
   1 C :   -0.030262
   2 O :   -0.210745
   3 C :    0.126047
   4 O :   -0.223698
   5 C :   -0.075307
   6 C :   -0.287608
   7 H :    0.145104
   8 C :    0.207883
   9 O :   -0.212279
  10 O :   -0.215210
  11 C :   -0.010211
  12 C :   -0.304412
  13 S :   -0.102407
  14 P :    0.626663
  15 S :   -0.331218
  16 O :   -0.351092
  17 C :   -0.116074
  18 O :   -0.397132
  19 C :   -0.102617
  20 H :    0.113351
  21 H :    0.110503
  22 H :    0.117107
  23 H :    0.107711
  24 H :    0.117951
  25 H :    0.137854
  26 H :    0.127973
  27 H :    0.096573
  28 H :    0.116243
  29 H :    0.112336
  30 H :    0.113010
  31 H :    0.127810
  32 H :    0.128104
  33 H :    0.121717
  34 H :    0.133094
  35 H :    0.118770
  36 H :    0.117045
  37 H :    0.122377
Sum of atomic charges:    0.0000000

LOEWDIN ATOMIC CHARGES
----------------------
   0 C :   -0.350751
   1 C :   -0.107517
   2 O :   -0.038989
   3 C :    0.024056
   4 O :   -0.169302
   5 C :   -0.253301
   6 C :   -0.262410
   7 H :    0.151842
   8 C :    0.016654
   9 O :   -0.174706
  10 O :   -0.049874
  11 C :   -0.105897
  12 C :   -0.356633
  13 S :    0.094741
  14 P :    0.578753
  15 S :   -0.307334
  16 O :   -0.227873
  17 C :   -0.211225
  18 O :   -0.262097
  19 C :   -0.217820
  20 H :    0.125419
  21 H :    0.130495
  22 H :    0.127867
  23 H :    0.117594
  24 H :    0.117564
  25 H :    0.146397
  26 H :    0.151713
  27 H :    0.113171
  28 H :    0.124292
  29 H :    0.124185
  30 H :    0.130726
  31 H :    0.130637
  32 H :    0.122502
  33 H :    0.114942
  34 H :    0.111681
  35 H :    0.110278
  36 H :    0.109132
  37 H :    0.121091

  Mayer bond orders larger than 0.100000
B(  0-C ,  1-C ) :   1.1545 B(  0-C , 20-H ) :   0.9512 B(  0-C , 21-H ) :   0.9441
B(  0-C , 22-H ) :   0.9486 B(  1-C ,  2-O ) :   0.8990 B(  1-C , 23-H ) :   0.9273
B(  1-C , 24-H ) :   0.9222 B(  2-O ,  3-C ) :   1.2803 B(  3-C ,  4-O ) :   1.9003
B(  3-C ,  5-C ) :   1.0129 B(  5-C ,  6-C ) :   1.0403 B(  5-C , 25-H ) :   0.8877
B(  5-C , 26-H ) :   0.8725 B(  6-C ,  7-H ) :   0.8674 B(  6-C ,  8-C ) :   0.8679
B(  6-C , 13-S ) :   1.0277 B(  8-C ,  9-O ) :   2.0351 B(  8-C , 10-O ) :   1.2661
B( 10-O , 11-C ) :   0.9128 B( 11-C , 12-C ) :   1.1752 B( 11-C , 27-H ) :   0.9323
B( 11-C , 28-H ) :   0.9158 B( 12-C , 29-H ) :   0.9484 B( 12-C , 30-H ) :   0.9444
B( 12-C , 31-H ) :   0.9446 B( 13-S , 14-P ) :   0.9826 B( 13-S , 15-S ) :   0.1152
B( 14-P , 15-S ) :   1.6020 B( 14-P , 16-O ) :   1.1334 B( 14-P , 18-O ) :   1.0431
B( 16-O , 17-C ) :   0.9210 B( 17-C , 32-H ) :   0.9560 B( 17-C , 33-H ) :   0.9451
B( 17-C , 34-H ) :   0.9283 B( 18-O , 19-C ) :   0.9340 B( 19-C , 35-H ) :   0.9308
B( 19-C , 36-H ) :   0.9493 B( 19-C , 37-H ) :   0.9584

Dispersion correction           -0.054483168
FINAL SINGLE POINT ENERGY     -1979.011627351250

DIPOLE MOMENT
-------------

Method             : SCF
Type of density    : Electron Density
Multiplicity       :   1
Irrep              :   0
Energy             : -1979.1413700702673850 Eh
Relativity type    :
Basis              : AO
                                X                 Y                 Z
Electronic contribution:     -7.691974828      -6.336167311      -4.708746227
Nuclear contribution   :      7.202455052       7.161969385       4.653098952
                        -----------------------------------------
Total Dipole Moment    :     -0.489519776       0.825802074      -0.055647275
                        -----------------------------------------
Magnitude (a.u.)       :      0.961600383
Magnitude (Debye)      :      2.444193929

Rotational constants in cm-1:             0.010475             0.009828             0.006359
Rotational constants in MHz :           314.022942           294.633080           190.634167

                             ****ORCA TERMINATED NORMALLY****
TOTAL RUN TIME: 0 days 0 hours 0 minutes 49 seconds 812 msec
