                         Program Version 6.0.0  -   RELEASE  -
|  1> ! wb97x-v def2-tzvp def2/J RIJCOSX DEFGRID2 scfconv7 GCP(DFT/TZ) printgap
|  2> %output
|  3>     printlevel normal
|  4> end
|  5> * xyz 0 1
|  6> C -2.5982076572330963 0.5658486001041598 0.07718038588853433
|  7> C -1.2377482352795932 -0.07644586048874724 0.04464308655029106
|  8> C -1.1351705184186873 -1.4709364715167834 0.10059051264512567
|  9> C 0.10663744535908788 -2.0988568981190987 0.07095169393901792
| 10> C 1.2685081117049972 -1.3429042002539762 -0.010475694081264782
| 11> C 1.1683532175685483 0.045288789650370906 -0.061759479484867034
| 12> C -0.07031791664699374 0.704335481215859 -0.04204839140720408
| 13> C -0.09852292745235419 2.2062880572811046 -0.11068010157545317
| 14> O 2.3561586898341917 0.7459958717360443 -0.1338645066052273
| 15> H -2.7868246801616947 1.1586748396278144 -0.8241164156995482
| 16> H -3.3771794742810957 -0.1960091881010596 0.14787304096473744
| 17> H -2.706628337684753 1.2407915514333543 0.9328677138953969
| 18> H -2.0413314445560893 -2.0655710844470248 0.16717740030495767
| 19> H 0.17102527350765698 -3.1818489875618883 0.11226636677526025
| 20> H 2.24889817520142 -1.8079918498465648 -0.03234692438299262
| 21> H 0.425223641942422 2.5753658657651965 -1.002209243221893
| 22> H -1.1165430356140444 2.5919615911579816 -0.15171880753065148
| 23> H 0.3881726792298983 2.6576149025235596 0.764137950988245
| 24> H 2.1738679593006216 1.6954214385161388 -0.14090738782229548
| 25> *
| 26>
| 27>                          ****END OF INPUT****

CARTESIAN COORDINATES (ANGSTROEM)
---------------------------------
  C     -2.598208    0.565849    0.077180
  C     -1.237748   -0.076446    0.044643
  C     -1.135171   -1.470936    0.100591
  C      0.106637   -2.098857    0.070952
  C      1.268508   -1.342904   -0.010476
  C      1.168353    0.045289   -0.061759
  C     -0.070318    0.704335   -0.042048
  C     -0.098523    2.206288   -0.110680
  O      2.356159    0.745996   -0.133865
  H     -2.786825    1.158675   -0.824116
  H     -3.377179   -0.196009    0.147873
  H     -2.706628    1.240792    0.932868
  H     -2.041331   -2.065571    0.167177
  H      0.171025   -3.181849    0.112266
  H      2.248898   -1.807992   -0.032347
  H      0.425224    2.575366   -1.002209
  H     -1.116543    2.591962   -0.151719
  H      0.388173    2.657615    0.764138
  H      2.173868    1.695421   -0.140907

 Total Charge           Charge          ....    0
 Multiplicity           Mult            ....    1
 Number of Electrons    NEL             ....   66
 Basis Dimension        Dim             ....  339

ORBITAL ENERGIES
----------------

  NO   OCC          E(Eh)            E(eV)
   0   2.0000     -21.698898      -590.4570
   1   2.0000     -12.107112      -329.4513
   2   2.0000     -12.060639      -328.1867
   3   2.0000     -12.057365      -328.0976
   4   2.0000     -12.055300      -328.0414
   5   2.0000     -12.047581      -327.8313
   6   2.0000     -12.045389      -327.7717
   7   2.0000     -12.039448      -327.6100
   8   2.0000     -12.037526      -327.5577
   9   2.0000      -1.711017       -46.5591
  10   2.0000      -1.385550       -37.7027
  11   2.0000      -1.301942       -35.4277
  12   2.0000      -1.287181       -35.0260
  13   2.0000      -1.221283       -33.2328
  14   2.0000      -1.182826       -32.1863
  15   2.0000      -1.139027       -30.9945
  16   2.0000      -1.088103       -29.6088
  17   2.0000      -1.051969       -28.6255
  18   2.0000      -0.994025       -27.0488
  19   2.0000      -0.944061       -25.6892
  20   2.0000      -0.941752       -25.6264
  21   2.0000      -0.936326       -25.4787
  22   2.0000      -0.889684       -24.2095
  23   2.0000      -0.870796       -23.6956
  24   2.0000      -0.854442       -23.2505
  25   2.0000      -0.845360       -23.0034
  26   2.0000      -0.834360       -22.7041
  27   2.0000      -0.828722       -22.5507
  28   2.0000      -0.813244       -22.1295
  29   2.0000      -0.806100       -21.9351
  30   2.0000      -0.751869       -20.4594
  31   2.0000      -0.631595       -17.1866
  32   2.0000      -0.628427       -17.1004
  33   0.0000      -0.241999        -6.5851
  34   0.0000      -0.238203        -6.4818
  35   0.0000      -0.149421        -4.0660
  36   0.0000      -0.073646        -2.0040
  37   0.0000      -0.067167        -1.8277

MULLIKEN ATOMIC CHARGES
-----------------------
   0 C :   -0.408482
   1 C :    0.130127
   2 C :   -0.209494
   3 C :   -0.090018
   4 C :   -0.245521
   5 C :    0.205160
   6 C :    0.039737
   7 C :   -0.485849
   8 O :   -0.390281
   9 H :    0.129011
  10 H :    0.120070
  11 H :    0.130908
  12 H :    0.104596
  13 H :    0.114507
  14 H :    0.118221
  15 H :    0.138212
  16 H :    0.135514
  17 H :    0.143750
  18 H :    0.319835
Sum of atomic charges:    0.0000000

LOEWDIN ATOMIC CHARGES
----------------------
   0 C :   -0.253772
   1 C :   -0.142319
   2 C :   -0.139301
   3 C :   -0.139099
   4 C :   -0.128435
   5 C :   -0.226466
   6 C :   -0.143070
   7 C :   -0.263847
   8 O :    0.066720
   9 H :    0.125445
  10 H :    0.125727
  11 H :    0.125737
  12 H :    0.140875
  13 H :    0.142074
  14 H :    0.146506
  15 H :    0.125545
  16 H :    0.130782
  17 H :    0.126460
  18 H :    0.180436

  Mayer bond orders larger than 0.100000
B(  0-C ,  1-C ) :   0.8895 B(  0-C ,  9-H ) :   0.9851 B(  0-C , 10-H ) :   0.9882
B(  0-C , 11-H ) :   0.9852 B(  1-C ,  2-C ) :   1.4366 B(  1-C ,  6-C ) :   1.3408
B(  2-C ,  3-C ) :   1.4311 B(  2-C , 12-H ) :   0.9739 B(  3-C ,  4-C ) :   1.4359
B(  3-C , 13-H ) :   0.9800 B(  4-C ,  5-C ) :   1.4330 B(  4-C , 14-H ) :   0.9766
B(  5-C ,  6-C ) :   1.3069 B(  5-C ,  8-O ) :   1.1480 B(  6-C ,  7-C ) :   0.8567
B(  7-C , 15-H ) :   0.9908 B(  7-C , 16-H ) :   0.9822 B(  7-C , 17-H ) :   0.9877
B(  8-O , 18-H ) :   0.8850

FINAL SINGLE POINT ENERGY      -386.120801035705

DIPOLE MOMENT
-------------

Method             : SCF
Type of density    : Electron Density
Multiplicity       :   1
Irrep              :   0
Energy             :  -386.1323288473049615 Eh
Relativity type    :
Basis              : AO
                                X                 Y                 Z
Electronic contribution:      5.675280364      -3.844010063      -0.068981679
Nuclear contribution   :     -6.164483168       4.466492660       0.076341211
                        -----------------------------------------
Total Dipole Moment    :     -0.489202803       0.622482597       0.007359533
                        -----------------------------------------
Magnitude (a.u.)       :      0.791743727
Magnitude (Debye)      :      2.012452622

Rotational constants in cm-1:             0.074774             0.058948             0.033372
Rotational constants in MHz :          2241.680676          1767.205758          1000.481197

                             ****ORCA TERMINATED NORMALLY****
TOTAL RUN TIME: 0 days 0 hours 2 minutes 36 seconds 192 msec
