                         Program Version 6.0.0  -   RELEASE  -
|  1> ! wb97x-v def2-tzvp def2/J RIJCOSX DEFGRID2 scfconv7 GCP(DFT/TZ) printgap
|  2> %output
|  3>     printlevel normal
|  4> end
|  5> %cpcm
|  6>     smd true
|  7>     smdsolvent "water"
|  8> end
|  9> * xyz 0 1
| 10> C -2.5982076572330963 0.5658486001041598 0.07718038588853433
| 11> C -1.2377482352795932 -0.07644586048874724 0.04464308655029106
| 12> C -1.1351705184186873 -1.4709364715167834 0.10059051264512567
| 13> C 0.10663744535908788 -2.0988568981190987 0.07095169393901792
| 14> C 1.2685081117049972 -1.3429042002539762 -0.010475694081264782
| 15> C 1.1683532175685483 0.045288789650370906 -0.061759479484867034
| 16> C -0.07031791664699374 0.704335481215859 -0.04204839140720408
| 17> C -0.09852292745235419 2.2062880572811046 -0.11068010157545317
| 18> O 2.3561586898341917 0.7459958717360443 -0.1338645066052273
| 19> H -2.7868246801616947 1.1586748396278144 -0.8241164156995482
| 20> H -3.3771794742810957 -0.1960091881010596 0.14787304096473744
| 21> H -2.706628337684753 1.2407915514333543 0.9328677138953969
| 22> H -2.0413314445560893 -2.0655710844470248 0.16717740030495767
| 23> H 0.17102527350765698 -3.1818489875618883 0.11226636677526025
| 24> H 2.24889817520142 -1.8079918498465648 -0.03234692438299262
| 25> H 0.425223641942422 2.5753658657651965 -1.002209243221893
| 26> H -1.1165430356140444 2.5919615911579816 -0.15171880753065148
| 27> H 0.3881726792298983 2.6576149025235596 0.764137950988245
| 28> H 2.1738679593006216 1.6954214385161388 -0.14090738782229548
| 29> *
| 30>
| 31>                          ****END OF INPUT****

CARTESIAN COORDINATES (ANGSTROEM)
---------------------------------
  C     -2.598208    0.565849    0.077180
  C     -1.237748   -0.076446    0.044643
  C     -1.135171   -1.470936    0.100591
  C      0.106637   -2.098857    0.070952
  C      1.268508   -1.342904   -0.010476
  C      1.168353    0.045289   -0.061759
  C     -0.070318    0.704335   -0.042048
  C     -0.098523    2.206288   -0.110680
  O      2.356159    0.745996   -0.133865
  H     -2.786825    1.158675   -0.824116
  H     -3.377179   -0.196009    0.147873
  H     -2.706628    1.240792    0.932868
  H     -2.041331   -2.065571    0.167177
  H      0.171025   -3.181849    0.112266
  H      2.248898   -1.807992   -0.032347
  H      0.425224    2.575366   -1.002209
  H     -1.116543    2.591962   -0.151719
  H      0.388173    2.657615    0.764138
  H      2.173868    1.695421   -0.140907

 Total Charge           Charge          ....    0
 Multiplicity           Mult            ....    1
 Number of Electrons    NEL             ....   66
 Basis Dimension        Dim             ....  339

ORBITAL ENERGIES
----------------

  NO   OCC          E(Eh)            E(eV)
   0   2.0000     -21.699426      -590.4714
   1   2.0000     -12.108090      -329.4779
   2   2.0000     -12.059032      -328.1429
   3   2.0000     -12.053941      -328.0044
   4   2.0000     -12.047414      -327.8268
   5   2.0000     -12.040782      -327.6463
   6   2.0000     -12.037996      -327.5705
   7   2.0000     -12.036754      -327.5367
   8   2.0000     -12.033034      -327.4355
   9   2.0000      -1.712065       -46.5877
  10   2.0000      -1.385719       -37.7073
  11   2.0000      -1.299614       -35.3643
  12   2.0000      -1.285224       -34.9727
  13   2.0000      -1.213291       -33.0153
  14   2.0000      -1.175561       -31.9886
  15   2.0000      -1.137124       -30.9427
  16   2.0000      -1.085856       -29.5476
  17   2.0000      -1.050599       -28.5883
  18   2.0000      -0.996182       -27.1075
  19   2.0000      -0.946303       -25.7502
  20   2.0000      -0.943447       -25.6725
  21   2.0000      -0.933094       -25.3908
  22   2.0000      -0.884382       -24.0653
  23   2.0000      -0.865625       -23.5548
  24   2.0000      -0.840611       -22.8742
  25   2.0000      -0.835941       -22.7471
  26   2.0000      -0.820072       -22.3153
  27   2.0000      -0.818949       -22.2847
  28   2.0000      -0.804139       -21.8817
  29   2.0000      -0.797905       -21.7121
  30   2.0000      -0.752638       -20.4803
  31   2.0000      -0.631365       -17.1803
  32   2.0000      -0.631016       -17.1708
  33   0.0000      -0.243018        -6.6129
  34   0.0000      -0.239392        -6.5142
  35   0.0000      -0.147754        -4.0206
  36   0.0000      -0.073324        -1.9953
  37   0.0000      -0.043055        -1.1716

MULLIKEN ATOMIC CHARGES
-----------------------
   0 C :   -0.427618
   1 C :    0.097029
   2 C :   -0.263910
   3 C :   -0.143903
   4 C :   -0.305772
   5 C :    0.234261
   6 C :   -0.009047
   7 C :   -0.469948
   8 O :   -0.463651
   9 H :    0.148605
  10 H :    0.142836
  11 H :    0.149382
  12 H :    0.152033
  13 H :    0.158602
  14 H :    0.151460
  15 H :    0.156834
  16 H :    0.156051
  17 H :    0.159344
  18 H :    0.377413
Sum of atomic charges:    0.0000000

LOEWDIN ATOMIC CHARGES
----------------------
   0 C :   -0.254047
   1 C :   -0.148264
   2 C :   -0.151644
   3 C :   -0.155144
   4 C :   -0.148604
   5 C :   -0.239481
   6 C :   -0.141773
   7 C :   -0.256589
   8 O :    0.041466
   9 H :    0.131934
  10 H :    0.129881
  11 H :    0.132007
  12 H :    0.150257
  13 H :    0.150949
  14 H :    0.152237
  15 H :    0.134452
  16 H :    0.135088
  17 H :    0.135098
  18 H :    0.202177

  Mayer bond orders larger than 0.100000
B(  0-C ,  1-C ) :   0.9157 B(  0-C ,  9-H ) :   0.9766 B(  0-C , 10-H ) :   0.9832
B(  0-C , 11-H ) :   0.9765 B(  1-C ,  2-C ) :   1.4044 B(  1-C ,  6-C ) :   1.3089
B(  2-C ,  3-C ) :   1.4134 B(  2-C , 12-H ) :   0.9811 B(  3-C ,  4-C ) :   1.4220
B(  3-C , 13-H ) :   0.9819 B(  4-C ,  5-C ) :   1.3967 B(  4-C , 14-H ) :   0.9873
B(  5-C ,  6-C ) :   1.3055 B(  5-C ,  8-O ) :   1.1144 B(  6-C ,  7-C ) :   0.9217
B(  7-C , 15-H ) :   0.9766 B(  7-C , 16-H ) :   0.9766 B(  7-C , 17-H ) :   0.9741
B(  8-O , 18-H ) :   0.8473

FINAL SINGLE POINT ENERGY      -386.129435708046

DIPOLE MOMENT
-------------

Method             : SCF
Type of density    : Electron Density
Multiplicity       :   1
Irrep              :   0
Energy             :  -386.1409635196458225 Eh
Relativity type    :
Basis              : AO
                                X                 Y                 Z
Electronic contribution:      5.467960094      -3.498381033      -0.068768436
Nuclear contribution   :     -6.164483168       4.466492660       0.076341211
                        -----------------------------------------
Total Dipole Moment    :     -0.696523073       0.968111627       0.007572776
                        -----------------------------------------
Magnitude (a.u.)       :      1.192661671
Magnitude (Debye)      :      3.031505049

Rotational constants in cm-1:             0.074774             0.058948             0.033372
Rotational constants in MHz :          2241.680676          1767.205758          1000.481197

                             ****ORCA TERMINATED NORMALLY****
TOTAL RUN TIME: 0 days 0 hours 2 minutes 33 seconds 224 msec
