                         Program Version 6.0.0  -   RELEASE  -
|  1> ! pbe def2-sv(p) def2/J RI DEFGRID1 loosescf d4 GCP(DFT/SV(P)) printgap
|  2> %output
|  3>     printlevel normal
|  4> end
|  5> * xyz 0 1
|  6> C 4.2316373138 -0.0234093054 -2.151574302
|  7> C 4.398903967 -0.3737539876 -0.6863286544
|  8> O 3.1379249097 -0.6170982031 -0.0419255521
|  9> P 2.1089198085 0.5647511936 0.2654102244
| 10> S 2.9257871108 2.2743687246 0.7574765096
| 11> O 1.1639297401 -0.0970123443 1.3489231145
| 12> C 1.4239524345 0.0059598187 2.7617690165
| 13> C 2.6231447207 -0.8213164151 3.1740765799
| 14> S 0.7814227693 0.5898749018 -1.3814701491
| 15> C 0.4350828914 -1.1836434804 -1.5405262337
| 16> S -0.6345114513 -1.8686296453 -0.236086742
| 17> P -2.165703021 -0.4408448927 -0.3498038394
| 18> S -2.6716329761 0.2087097986 -2.1344016924
| 19> O -1.6796336257 0.6450291221 0.6950064499
| 20> C -2.1767882772 2.0014040206 0.6957590742
| 21> C -1.1414657354 2.886048132 1.358600246
| 22> O -3.3598485302 -1.1157696996 0.4557688115
| 23> C -4.2398481237 -2.085240594 -0.1505686616
| 24> C -5.5522358438 -2.0682230266 0.6069835774
| 25> H 3.6752558119 0.908757651 -2.2487327062
| 26> H 5.2102865267 0.1044543878 -2.6030483621
| 27> H 3.6953046656 -0.8087320937 -2.6779969409
| 28> H 4.9063283634 0.4391683466 -0.157184143
| 29> H 4.949626176 -1.3059117577 -0.5530965319
| 30> H 1.5767227475 1.0616890772 3.0091004199
| 31> H 0.5024870989 -0.3552508444 3.2212854051
| 32> H 2.71397675 -0.8079436218 4.2557272815
| 33> H 2.5061615907 -1.8464133195 2.8321458633
| 34> H 3.5289241857 -0.4028239452 2.7376920592
| 35> H 1.3612263683 -1.7516192307 -1.5026074447
| 36> H -0.0622761733 -1.2903192638 -2.5033708078
| 37> H -2.3606809679 2.3065807185 -0.3404740281
| 38> H -3.1200566616 2.0117985833 1.2469475747
| 39> H -1.5022008123 3.9093142952 1.3719965409
| 40> H -0.9617587971 2.5532883685 2.3771511576
| 41> H -0.2023548086 2.8515129119 0.8088523331
| 42> H -4.3813358841 -1.8168464686 -1.2029648466
| 43> H -3.7557752948 -3.06311744 -0.0897564317
| 44> H -5.3772818083 -2.2886064236 1.6560677233
| 45> H -6.0195519258 -1.0908400972 0.5250938447
| 46> H -6.2147045814 -2.8176688958 0.1865663698
| 47> *
| 48>
| 49>                          ****END OF INPUT****

CARTESIAN COORDINATES (ANGSTROEM)
---------------------------------
  C      4.231637   -0.023409   -2.151574
  C      4.398904   -0.373754   -0.686329
  O      3.137925   -0.617098   -0.041926
  P      2.108920    0.564751    0.265410
  S      2.925787    2.274369    0.757477
  O      1.163930   -0.097012    1.348923
  C      1.423952    0.005960    2.761769
  C      2.623145   -0.821316    3.174077
  S      0.781423    0.589875   -1.381470
  C      0.435083   -1.183643   -1.540526
  S     -0.634511   -1.868630   -0.236087
  P     -2.165703   -0.440845   -0.349804
  S     -2.671633    0.208710   -2.134402
  O     -1.679634    0.645029    0.695006
  C     -2.176788    2.001404    0.695759
  C     -1.141466    2.886048    1.358600
  O     -3.359849   -1.115770    0.455769
  C     -4.239848   -2.085241   -0.150569
  C     -5.552236   -2.068223    0.606984
  H      3.675256    0.908758   -2.248733
  H      5.210287    0.104454   -2.603048
  H      3.695305   -0.808732   -2.677997
  H      4.906328    0.439168   -0.157184
  H      4.949626   -1.305912   -0.553097
  H      1.576723    1.061689    3.009100
  H      0.502487   -0.355251    3.221285
  H      2.713977   -0.807944    4.255727
  H      2.506162   -1.846413    2.832146
  H      3.528924   -0.402824    2.737692
  H      1.361226   -1.751619   -1.502607
  H     -0.062276   -1.290319   -2.503371
  H     -2.360681    2.306581   -0.340474
  H     -3.120057    2.011799    1.246948
  H     -1.502201    3.909314    1.371997
  H     -0.961759    2.553288    2.377151
  H     -0.202355    2.851513    0.808852
  H     -4.381336   -1.816846   -1.202965
  H     -3.755775   -3.063117   -0.089756
  H     -5.377282   -2.288606    1.656068
  H     -6.019552   -1.090840    0.525094
  H     -6.214705   -2.817669    0.186566

 Total Charge           Charge          ....    0
 Multiplicity           Mult            ....    1
 Number of Electrons    NEL             ....  202
 Basis Dimension        Dim             ....  334

ORBITAL ENERGIES
----------------

  NO   OCC          E(Eh)            E(eV)
   0   2.0000     -88.044065     -2395.8008
   1   2.0000     -88.040057     -2395.6918
   2   2.0000     -87.991796     -2394.3785
   3   2.0000     -87.984038     -2394.1674
   4   2.0000     -76.427198     -2079.6898
   5   2.0000     -76.423601     -2079.5919
   6   2.0000     -18.797319      -511.5011
   7   2.0000     -18.790856      -511.3252
   8   2.0000     -18.787557      -511.2354
   9   2.0000     -18.784445      -511.1507
  10   2.0000      -9.960017      -271.0258
  11   2.0000      -9.955657      -270.9072
  12   2.0000      -9.950716      -270.7728
  13   2.0000      -9.950232      -270.7596
  14   2.0000      -9.944153      -270.5942
  15   2.0000      -9.887684      -269.0575
  16   2.0000      -9.887335      -269.0481
  17   2.0000      -9.884231      -268.9636
  18   2.0000      -9.875714      -268.7319
  19   2.0000      -7.688678      -209.2196
  20   2.0000      -7.685749      -209.1399
  21   2.0000      -7.636808      -207.8081
  22   2.0000      -7.629073      -207.5976
  23   2.0000      -6.424895      -174.8303
  24   2.0000      -6.421121      -174.7276
  25   2.0000      -5.716983      -155.5670
  26   2.0000      -5.713710      -155.4779
  27   2.0000      -5.713000      -155.4586
  28   2.0000      -5.710319      -155.3857
  29   2.0000      -5.705435      -155.2528
  30   2.0000      -5.702433      -155.1711
  31   2.0000      -5.665630      -154.1696
  32   2.0000      -5.657870      -153.9585
  33   2.0000      -5.657429      -153.9465
  34   2.0000      -5.657079      -153.9369
  35   2.0000      -5.649661      -153.7351
  36   2.0000      -5.649414      -153.7284
  37   2.0000      -4.647220      -126.4573
  38   2.0000      -4.646879      -126.4480
  39   2.0000      -4.645378      -126.4072
  40   2.0000      -4.643490      -126.3558
  41   2.0000      -4.642915      -126.3401
  42   2.0000      -4.641738      -126.3081
  43   2.0000      -0.988144       -26.8888
  44   2.0000      -0.982148       -26.7256
  45   2.0000      -0.947284       -25.7769
  46   2.0000      -0.940291       -25.5866
  47   2.0000      -0.765151       -20.8208
  48   2.0000      -0.722152       -19.6508
  49   2.0000      -0.708317       -19.2743
  50   2.0000      -0.688887       -18.7456
  51   2.0000      -0.684258       -18.6196
  52   2.0000      -0.673489       -18.3266
  53   2.0000      -0.652964       -17.7680
  54   2.0000      -0.637222       -17.3397
  55   2.0000      -0.601092       -16.3566
  56   2.0000      -0.589484       -16.0407
  57   2.0000      -0.574499       -15.6329
  58   2.0000      -0.568011       -15.4564
  59   2.0000      -0.555544       -15.1171
  60   2.0000      -0.505694       -13.7606
  61   2.0000      -0.495139       -13.4734
  62   2.0000      -0.477823       -13.0022
  63   2.0000      -0.474636       -12.9155
  64   2.0000      -0.459477       -12.5030
  65   2.0000      -0.443480       -12.0677
  66   2.0000      -0.439108       -11.9487
  67   2.0000      -0.432159       -11.7597
  68   2.0000      -0.428380       -11.6568
  69   2.0000      -0.415857       -11.3161
  70   2.0000      -0.407892       -11.0993
  71   2.0000      -0.396372       -10.7858
  72   2.0000      -0.393445       -10.7062
  73   2.0000      -0.389150       -10.5893
  74   2.0000      -0.376149       -10.2355
  75   2.0000      -0.375005       -10.2044
  76   2.0000      -0.368681       -10.0323
  77   2.0000      -0.356985        -9.7141
  78   2.0000      -0.355409        -9.6712
  79   2.0000      -0.349851        -9.5199
  80   2.0000      -0.347706        -9.4616
  81   2.0000      -0.344821        -9.3830
  82   2.0000      -0.341542        -9.2938
  83   2.0000      -0.333643        -9.0789
  84   2.0000      -0.329130        -8.9561
  85   2.0000      -0.322014        -8.7624
  86   2.0000      -0.311978        -8.4893
  87   2.0000      -0.299237        -8.1426
  88   2.0000      -0.295525        -8.0416
  89   2.0000      -0.291367        -7.9285
  90   2.0000      -0.282323        -7.6824
  91   2.0000      -0.274752        -7.4764
  92   2.0000      -0.266592        -7.2543
  93   2.0000      -0.262922        -7.1545
  94   2.0000      -0.260522        -7.0892
  95   2.0000      -0.229684        -6.2500
  96   2.0000      -0.218416        -5.9434
  97   2.0000      -0.212206        -5.7744
  98   2.0000      -0.209580        -5.7030
  99   2.0000      -0.199495        -5.4285
 100   2.0000      -0.198311        -5.3963
 101   0.0000      -0.042982        -1.1696
 102   0.0000      -0.023738        -0.6460
 103   0.0000      -0.008173        -0.2224
 104   0.0000       0.003593         0.0978
 105   0.0000       0.008309         0.2261

MULLIKEN ATOMIC CHARGES
-----------------------
   0 C :   -0.314487
   1 C :   -0.008729
   2 O :   -0.381652
   3 P :    0.612409
   4 S :   -0.320076
   5 O :   -0.356669
   6 C :   -0.007146
   7 C :   -0.303678
   8 S :   -0.059380
   9 C :   -0.354491
  10 S :   -0.080067
  11 P :    0.616422
  12 S :   -0.342238
  13 O :   -0.359602
  14 C :   -0.009435
  15 C :   -0.291216
  16 O :   -0.378865
  17 C :   -0.009523
  18 C :   -0.281122
  19 H :    0.131389
  20 H :    0.114700
  21 H :    0.114493
  22 H :    0.112835
  23 H :    0.105285
  24 H :    0.113289
  25 H :    0.107423
  26 H :    0.111149
  27 H :    0.117115
  28 H :    0.119490
  29 H :    0.182577
  30 H :    0.194666
  31 H :    0.110584
  32 H :    0.097922
  33 H :    0.106835
  34 H :    0.111625
  35 H :    0.127208
  36 H :    0.105637
  37 H :    0.099742
  38 H :    0.116015
  39 H :    0.118105
  40 H :    0.111462
Sum of atomic charges:   -0.0000000

LOEWDIN ATOMIC CHARGES
----------------------
   0 C :   -0.366843
   1 C :   -0.122296
   2 O :   -0.248890
   3 P :    0.567950
   4 S :   -0.315794
   5 O :   -0.233532
   6 C :   -0.116198
   7 C :   -0.363736
   8 S :    0.111867
   9 C :   -0.475131
  10 S :    0.086032
  11 P :    0.566017
  12 S :   -0.330968
  13 O :   -0.238441
  14 C :   -0.116458
  15 C :   -0.355029
  16 O :   -0.252512
  17 C :   -0.121117
  18 C :   -0.350651
  19 H :    0.123503
  20 H :    0.132129
  21 H :    0.122577
  22 H :    0.110191
  23 H :    0.118132
  24 H :    0.110163
  25 H :    0.119654
  26 H :    0.129938
  27 H :    0.126677
  28 H :    0.121744
  29 H :    0.130550
  30 H :    0.136660
  31 H :    0.108581
  32 H :    0.110321
  33 H :    0.129183
  34 H :    0.122820
  35 H :    0.121113
  36 H :    0.107027
  37 H :    0.109844
  38 H :    0.126414
  39 H :    0.127944
  40 H :    0.130566

  Mayer bond orders larger than 0.100000
B(  0-C ,  1-C ) :   1.1632 B(  0-C , 19-H ) :   0.9344 B(  0-C , 20-H ) :   0.9384
B(  0-C , 21-H ) :   0.9464 B(  1-C ,  2-O ) :   0.9082 B(  1-C , 22-H ) :   0.9137
B(  1-C , 23-H ) :   0.9340 B(  2-O ,  3-P ) :   1.0649 B(  3-P ,  4-S ) :   1.6152
B(  3-P ,  5-O ) :   1.1316 B(  3-P ,  8-S ) :   0.9622 B(  5-O ,  6-C ) :   0.9068
B(  6-C ,  7-C ) :   1.1618 B(  6-C , 24-H ) :   0.9157 B(  6-C , 25-H ) :   0.9327
B(  7-C , 26-H ) :   0.9391 B(  7-C , 27-H ) :   0.9463 B(  7-C , 28-H ) :   0.9390
B(  8-S ,  9-C ) :   0.9988 B(  9-C , 10-S ) :   0.9935 B(  9-C , 29-H ) :   0.8944
B(  9-C , 30-H ) :   0.8944 B( 10-S , 11-P ) :   0.9849 B( 10-S , 12-S ) :   0.1114
B( 11-P , 12-S ) :   1.6018 B( 11-P , 13-O ) :   1.1374 B( 11-P , 16-O ) :   1.1108
B( 13-O , 14-C ) :   0.8961 B( 14-C , 15-C ) :   1.1612 B( 14-C , 31-H ) :   0.9089
B( 14-C , 32-H ) :   0.9319 B( 15-C , 33-H ) :   0.9399 B( 15-C , 34-H ) :   0.9484
B( 15-C , 35-H ) :   0.9348 B( 16-O , 17-C ) :   0.9064 B( 17-C , 18-C ) :   1.1616
B( 17-C , 36-H ) :   0.9058 B( 17-C , 37-H ) :   0.9307 B( 18-C , 38-H ) :   0.9509
B( 18-C , 39-H ) :   0.9511 B( 18-C , 40-H ) :   0.9421

Dispersion correction           -0.065965155
FINAL SINGLE POINT ENERGY     -2929.523682702308

DIPOLE MOMENT
-------------

Method             : SCF
Type of density    : Electron Density
Multiplicity       :   1
Irrep              :   0
Energy             : -2929.6424687772705511 Eh
Relativity type    :
Basis              : AO
                                X                 Y                 Z
Electronic contribution:     -0.484442872       2.294031272      -9.288596686
Nuclear contribution   :      0.655203356      -3.446280072       9.907998103
                        -----------------------------------------
Total Dipole Moment    :      0.170760484      -1.152248799       0.619401417
                        -----------------------------------------
Magnitude (a.u.)       :      1.319278042
Magnitude (Debye)      :      3.353338289

Rotational constants in cm-1:             0.013010             0.004943             0.004734
Rotational constants in MHz :           390.032408           148.191992           141.924987

                             ****ORCA TERMINATED NORMALLY****
TOTAL RUN TIME: 0 days 0 hours 0 minutes 21 seconds 511 msec
