                         Program Version 6.0.0  -   RELEASE  -
|  1> ! pbe def2-sv(p) def2/J RI DEFGRID1 loosescf d4 GCP(DFT/SV(P)) printgap
|  2> %output
|  3>     printlevel normal
|  4> end
|  5> * xyz 0 1
|  6> C 5.4035399621 -1.8306626006 -1.950833392
|  7> C 4.3424822716 -0.7715341022 -1.7305494838
|  8> O 3.3886417368 -1.2903025395 -0.781025562
|  9> P 2.3843077676 -0.3335258045 -0.0102981481
| 10> S 3.2068488519 1.2367942779 0.8372280506
| 11> O 1.6372277364 -1.3436630686 0.9473191761
| 12> C 2.0549521803 -1.5542735076 2.3120602147
| 13> C 3.3872794112 -2.2696773991 2.3795704535
| 14> S 0.8863880576 0.0621439269 -1.4476681029
| 15> C 0.1634355443 1.4890170522 -0.5941116691
| 16> S -0.7292012535 1.0408747101 0.9226122874
| 17> P -2.6098834619 0.5913346695 0.0678418316
| 18> S -2.7604682631 0.6585170981 -1.890715165
| 19> O -3.4536969744 1.6294921195 0.9133228481
| 20> C -4.8933873541 1.7270368431 0.8151423838
| 21> C -5.2981256746 2.7470538474 -0.2310535651
| 22> O -3.1131359324 -0.7843736591 0.6955452445
| 23> C -2.9004218477 -2.0573918944 0.0649471773
| 24> C -1.5295007332 -2.6151985412 0.3885917057
| 25> H 5.9254225532 -2.038661176 -1.0212014244
| 26> H 4.9422082455 -2.7462814036 -2.3088029425
| 27> H 6.1147112756 -1.4733287057 -2.6882785746
| 28> H 3.8102725071 -0.5400117661 -2.6571819416
| 29> H 4.7722403124 0.1507095628 -1.3248338524
| 30> H 2.1067069628 -0.5822963502 2.8129130077
| 31> H 1.249946555 -2.1498864725 2.7437024283
| 32> H 3.6276776136 -2.4908308841 3.4147160441
| 33> H 3.3457458156 -3.193586534 1.8090303366
| 34> H 4.1666895292 -1.6328081919 1.9627638081
| 35> H -0.5197207313 1.9578895968 -1.3003660648
| 36> H 0.9627809488 2.1670450184 -0.2955345359
| 37> H -5.3061715792 0.7408784345 0.5886324294
| 38> H -5.2089574311 2.0353636021 1.8134189466
| 39> H -6.3785329998 2.8506124438 -0.2313574269
| 40> H -4.8443930832 3.7087102483 -0.0079477048
| 41> H -4.9717917869 2.4277731315 -1.218516237
| 42> H -3.692516538 -2.6917070659 0.4664137359
| 43> H -3.0307957226 -1.9397300466 -1.0163946359
| 44> H -0.7507230097 -1.9976629966 -0.0559533111
| 45> H -1.3819386778 -2.6403599955 1.4651966318
| 46> H -1.4464813096 -3.6208417698 -0.0105808555
| 47> *
| 48>
| 49>                          ****END OF INPUT****

CARTESIAN COORDINATES (ANGSTROEM)
---------------------------------
  C      5.403540   -1.830663   -1.950833
  C      4.342482   -0.771534   -1.730549
  O      3.388642   -1.290303   -0.781026
  P      2.384308   -0.333526   -0.010298
  S      3.206849    1.236794    0.837228
  O      1.637228   -1.343663    0.947319
  C      2.054952   -1.554274    2.312060
  C      3.387279   -2.269677    2.379570
  S      0.886388    0.062144   -1.447668
  C      0.163436    1.489017   -0.594112
  S     -0.729201    1.040875    0.922612
  P     -2.609883    0.591335    0.067842
  S     -2.760468    0.658517   -1.890715
  O     -3.453697    1.629492    0.913323
  C     -4.893387    1.727037    0.815142
  C     -5.298126    2.747054   -0.231054
  O     -3.113136   -0.784374    0.695545
  C     -2.900422   -2.057392    0.064947
  C     -1.529501   -2.615199    0.388592
  H      5.925423   -2.038661   -1.021201
  H      4.942208   -2.746281   -2.308803
  H      6.114711   -1.473329   -2.688279
  H      3.810273   -0.540012   -2.657182
  H      4.772240    0.150710   -1.324834
  H      2.106707   -0.582296    2.812913
  H      1.249947   -2.149886    2.743702
  H      3.627678   -2.490831    3.414716
  H      3.345746   -3.193587    1.809030
  H      4.166690   -1.632808    1.962764
  H     -0.519721    1.957890   -1.300366
  H      0.962781    2.167045   -0.295535
  H     -5.306172    0.740878    0.588632
  H     -5.208957    2.035364    1.813419
  H     -6.378533    2.850612   -0.231357
  H     -4.844393    3.708710   -0.007948
  H     -4.971792    2.427773   -1.218516
  H     -3.692517   -2.691707    0.466414
  H     -3.030796   -1.939730   -1.016395
  H     -0.750723   -1.997663   -0.055953
  H     -1.381939   -2.640360    1.465197
  H     -1.446481   -3.620842   -0.010581

 Total Charge           Charge          ....    0
 Multiplicity           Mult            ....    1
 Number of Electrons    NEL             ....  202
 Basis Dimension        Dim             ....  334

ORBITAL ENERGIES
----------------

  NO   OCC          E(Eh)            E(eV)
   0   2.0000     -88.041596     -2395.7336
   1   2.0000     -88.040665     -2395.7083
   2   2.0000     -87.990177     -2394.3344
   3   2.0000     -87.989987     -2394.3293
   4   2.0000     -76.427017     -2079.6849
   5   2.0000     -76.425994     -2079.6570
   6   2.0000     -18.796218      -511.4711
   7   2.0000     -18.793411      -511.3947
   8   2.0000     -18.791428      -511.3408
   9   2.0000     -18.789646      -511.2923
  10   2.0000      -9.955052      -270.8907
  11   2.0000      -9.953929      -270.8602
  12   2.0000      -9.952654      -270.8255
  13   2.0000      -9.951027      -270.7812
  14   2.0000      -9.947581      -270.6874
  15   2.0000      -9.890446      -269.1327
  16   2.0000      -9.885160      -268.9889
  17   2.0000      -9.880459      -268.8610
  18   2.0000      -9.876555      -268.7547
  19   2.0000      -7.686529      -209.1611
  20   2.0000      -7.685904      -209.1441
  21   2.0000      -7.635070      -207.7608
  22   2.0000      -7.634910      -207.7565
  23   2.0000      -6.424934      -174.8313
  24   2.0000      -6.423820      -174.8010
  25   2.0000      -5.714252      -155.4927
  26   2.0000      -5.713794      -155.4802
  27   2.0000      -5.711163      -155.4086
  28   2.0000      -5.710530      -155.3914
  29   2.0000      -5.703546      -155.2014
  30   2.0000      -5.702704      -155.1785
  31   2.0000      -5.663836      -154.1208
  32   2.0000      -5.663669      -154.1163
  33   2.0000      -5.655802      -153.9022
  34   2.0000      -5.655529      -153.8948
  35   2.0000      -5.655277      -153.8879
  36   2.0000      -5.655257      -153.8874
  37   2.0000      -4.647310      -126.4597
  38   2.0000      -4.646702      -126.4432
  39   2.0000      -4.646304      -126.4324
  40   2.0000      -4.645470      -126.4097
  41   2.0000      -4.645398      -126.4077
  42   2.0000      -4.644507      -126.3835
  43   2.0000      -0.990278       -26.9468
  44   2.0000      -0.986166       -26.8349
  45   2.0000      -0.949463       -25.8362
  46   2.0000      -0.942877       -25.6570
  47   2.0000      -0.762850       -20.7582
  48   2.0000      -0.723621       -19.6907
  49   2.0000      -0.708773       -19.2867
  50   2.0000      -0.690619       -18.7927
  51   2.0000      -0.683572       -18.6009
  52   2.0000      -0.673378       -18.3235
  53   2.0000      -0.650586       -17.7033
  54   2.0000      -0.639111       -17.3911
  55   2.0000      -0.602019       -16.3818
  56   2.0000      -0.592570       -16.1247
  57   2.0000      -0.572585       -15.5808
  58   2.0000      -0.567768       -15.4497
  59   2.0000      -0.557633       -15.1740
  60   2.0000      -0.505704       -13.7609
  61   2.0000      -0.499450       -13.5907
  62   2.0000      -0.479910       -13.0590
  63   2.0000      -0.470012       -12.7897
  64   2.0000      -0.459750       -12.5104
  65   2.0000      -0.446273       -12.1437
  66   2.0000      -0.437415       -11.9027
  67   2.0000      -0.434011       -11.8100
  68   2.0000      -0.430337       -11.7101
  69   2.0000      -0.413882       -11.2623
  70   2.0000      -0.404880       -11.0173
  71   2.0000      -0.397794       -10.8245
  72   2.0000      -0.395448       -10.7607
  73   2.0000      -0.383353       -10.4316
  74   2.0000      -0.375731       -10.2242
  75   2.0000      -0.374999       -10.2042
  76   2.0000      -0.369877       -10.0649
  77   2.0000      -0.359374        -9.7791
  78   2.0000      -0.353489        -9.6189
  79   2.0000      -0.349581        -9.5126
  80   2.0000      -0.348948        -9.4954
  81   2.0000      -0.346337        -9.4243
  82   2.0000      -0.341556        -9.2942
  83   2.0000      -0.337603        -9.1867
  84   2.0000      -0.331160        -9.0113
  85   2.0000      -0.319829        -8.7030
  86   2.0000      -0.309187        -8.4134
  87   2.0000      -0.302878        -8.2417
  88   2.0000      -0.293072        -7.9749
  89   2.0000      -0.291032        -7.9194
  90   2.0000      -0.285927        -7.7805
  91   2.0000      -0.277250        -7.5443
  92   2.0000      -0.274187        -7.4610
  93   2.0000      -0.265772        -7.2320
  94   2.0000      -0.260121        -7.0782
  95   2.0000      -0.232479        -6.3261
  96   2.0000      -0.217651        -5.9226
  97   2.0000      -0.215501        -5.8641
  98   2.0000      -0.205885        -5.6024
  99   2.0000      -0.204813        -5.5732
 100   2.0000      -0.202008        -5.4969
 101   0.0000      -0.042725        -1.1626
 102   0.0000      -0.026757        -0.7281
 103   0.0000      -0.003113        -0.0847
 104   0.0000       0.005542         0.1508
 105   0.0000       0.013827         0.3763

MULLIKEN ATOMIC CHARGES
-----------------------
   0 C :   -0.281620
   1 C :   -0.013211
   2 O :   -0.375537
   3 P :    0.611661
   4 S :   -0.338609
   5 O :   -0.352662
   6 C :   -0.005525
   7 C :   -0.308571
   8 S :   -0.073261
   9 C :   -0.368503
  10 S :   -0.072222
  11 P :    0.623252
  12 S :   -0.337176
  13 O :   -0.367775
  14 C :   -0.003950
  15 C :   -0.295506
  16 O :   -0.376561
  17 C :   -0.007343
  18 C :   -0.329306
  19 H :    0.119630
  20 H :    0.118235
  21 H :    0.113555
  22 H :    0.105417
  23 H :    0.107660
  24 H :    0.114762
  25 H :    0.108538
  26 H :    0.112898
  27 H :    0.117230
  28 H :    0.123306
  29 H :    0.192727
  30 H :    0.197038
  31 H :    0.102066
  32 H :    0.108365
  33 H :    0.107101
  34 H :    0.115674
  35 H :    0.129852
  36 H :    0.099469
  37 H :    0.110310
  38 H :    0.152046
  39 H :    0.110531
  40 H :    0.106018
Sum of atomic charges:   -0.0000000

LOEWDIN ATOMIC CHARGES
----------------------
   0 C :   -0.350083
   1 C :   -0.120101
   2 O :   -0.246584
   3 P :    0.569157
   4 S :   -0.323718
   5 O :   -0.230926
   6 C :   -0.115834
   7 C :   -0.364932
   8 S :    0.093313
   9 C :   -0.484783
  10 S :    0.095247
  11 P :    0.568650
  12 S :   -0.313637
  13 O :   -0.244918
  14 C :   -0.110787
  15 C :   -0.363020
  16 O :   -0.245911
  17 C :   -0.121859
  18 C :   -0.368223
  19 H :    0.127963
  20 H :    0.127731
  21 H :    0.131719
  22 H :    0.111269
  23 H :    0.109114
  24 H :    0.112063
  25 H :    0.118762
  26 H :    0.130867
  27 H :    0.126552
  28 H :    0.122015
  29 H :    0.129408
  30 H :    0.129262
  31 H :    0.110258
  32 H :    0.120133
  33 H :    0.128268
  34 H :    0.127181
  35 H :    0.124366
  36 H :    0.115355
  37 H :    0.107365
  38 H :    0.118867
  39 H :    0.121888
  40 H :    0.128544

  Mayer bond orders larger than 0.100000
B(  0-C ,  1-C ) :   1.1608 B(  0-C , 19-H ) :   0.9516 B(  0-C , 20-H ) :   0.9504
B(  0-C , 21-H ) :   0.9417 B(  1-C ,  2-O ) :   0.9019 B(  1-C , 22-H ) :   0.9286
B(  1-C , 23-H ) :   0.9103 B(  2-O ,  3-P ) :   1.1099 B(  3-P ,  4-S ) :   1.5970
B(  3-P ,  5-O ) :   1.1377 B(  3-P ,  8-S ) :   0.9661 B(  4-S ,  8-S ) :   0.1087
B(  5-O ,  6-C ) :   0.9027 B(  6-C ,  7-C ) :   1.1639 B(  6-C , 24-H ) :   0.9167
B(  6-C , 25-H ) :   0.9317 B(  7-C , 26-H ) :   0.9389 B(  7-C , 27-H ) :   0.9459
B(  7-C , 28-H ) :   0.9350 B(  8-S ,  9-C ) :   1.0039 B(  9-C , 10-S ) :   1.0064
B(  9-C , 29-H ) :   0.8763 B(  9-C , 30-H ) :   0.8725 B( 10-S , 11-P ) :   0.9632
B( 10-S , 12-S ) :   0.1174 B( 11-P , 12-S ) :   1.6045 B( 11-P , 13-O ) :   1.1366
B( 11-P , 16-O ) :   1.0990 B( 13-O , 14-C ) :   0.8975 B( 14-C , 15-C ) :   1.1686
B( 14-C , 31-H ) :   0.9194 B( 14-C , 32-H ) :   0.9362 B( 15-C , 33-H ) :   0.9399
B( 15-C , 34-H ) :   0.9471 B( 15-C , 35-H ) :   0.9334 B( 16-O , 17-C ) :   0.9108
B( 17-C , 18-C ) :   1.1614 B( 17-C , 36-H ) :   0.9332 B( 17-C , 37-H ) :   0.9079
B( 18-C , 38-H ) :   0.9247 B( 18-C , 39-H ) :   0.9447 B( 18-C , 40-H ) :   0.9390

Dispersion correction           -0.063046699
FINAL SINGLE POINT ENERGY     -2929.527517089857

DIPOLE MOMENT
-------------

Method             : SCF
Type of density    : Electron Density
Multiplicity       :   1
Irrep              :   0
Energy             : -2929.6482014071971207 Eh
Relativity type    :
Basis              : AO
                                X                 Y                 Z
Electronic contribution:     -3.526055380      12.206447361      -2.455997112
Nuclear contribution   :      3.437711372     -13.195666258       2.778642339
                        -----------------------------------------
Total Dipole Moment    :     -0.088344008      -0.989218897       0.322645228
                        -----------------------------------------
Magnitude (a.u.)       :      1.044250273
Magnitude (Debye)      :      2.654273257

Rotational constants in cm-1:             0.014686             0.004058             0.003948
Rotational constants in MHz :           440.269235           121.653869           118.369407

                             ****ORCA TERMINATED NORMALLY****
TOTAL RUN TIME: 0 days 0 hours 0 minutes 20 seconds 438 msec
