                         Program Version 6.0.0  -   RELEASE  -
|  1> ! pbe def2-sv(p) def2/J RI DEFGRID1 loosescf d4 GCP(DFT/SV(P)) printgap
|  2> %output
|  3>     printlevel normal
|  4> end
|  5> * xyz 0 1
|  6> C -2.5880530777 0.5861276355 -5.75094e-05
|  7> C -1.225669301 -0.045097783 0.0002603138
|  8> C -1.1494549726 -1.4350391537 5.68432e-05
|  9> C 0.0705726529 -2.0789400563 -0.0001536326
| 10> C 1.2383003594 -1.337772699 -7.14172e-05
| 11> C 1.1772870747 0.0484867843 6.67327e-05
| 12> C -0.0564225907 0.712298106 0.0001017957
| 13> C -0.0765294312 2.2145340265 -0.0002515376
| 14> O 2.3189734235 0.8013075335 0.0001777829
| 15> H -3.1468032869 0.2562770498 0.8743221386
| 16> H -2.5389170249 1.6684639152 0.0086175134
| 17> H -3.1397742499 0.2702641655 -0.884083633
| 18> H -2.0630720953 -2.0110264082 -4.73449e-05
| 19> H 0.1189757401 -3.15739205 -0.0003862983
| 20> H 2.1981647137 -1.8346935974 -9.26082e-05
| 21> H -0.5877657301 2.5923291697 -0.8840764667
| 22> H -0.5861836687 2.5928566758 0.8842653212
| 23> H 0.9411581519 2.5934642064 -0.0012111175
| 24> H 3.0954742264 0.2233127716 0.000447282
| 25> *
| 26>
| 27>                          ****END OF INPUT****

CARTESIAN COORDINATES (ANGSTROEM)
---------------------------------
  C     -2.588053    0.586128   -0.000058
  C     -1.225669   -0.045098    0.000260
  C     -1.149455   -1.435039    0.000057
  C      0.070573   -2.078940   -0.000154
  C      1.238300   -1.337773   -0.000071
  C      1.177287    0.048487    0.000067
  C     -0.056423    0.712298    0.000102
  C     -0.076529    2.214534   -0.000252
  O      2.318973    0.801308    0.000178
  H     -3.146803    0.256277    0.874322
  H     -2.538917    1.668464    0.008618
  H     -3.139774    0.270264   -0.884084
  H     -2.063072   -2.011026   -0.000047
  H      0.118976   -3.157392   -0.000386
  H      2.198165   -1.834694   -0.000093
  H     -0.587766    2.592329   -0.884076
  H     -0.586184    2.592857    0.884265
  H      0.941158    2.593464   -0.001211
  H      3.095474    0.223313    0.000447

 Total Charge           Charge          ....    0
 Multiplicity           Mult            ....    1
 Number of Electrons    NEL             ....   66
 Basis Dimension        Dim             ....  146

ORBITAL ENERGIES
----------------

  NO   OCC          E(Eh)            E(eV)
   0   2.0000     -18.777243      -510.9548
   1   2.0000      -9.943675      -270.5811
   2   2.0000      -9.895152      -269.2608
   3   2.0000      -9.890692      -269.1394
   4   2.0000      -9.885110      -268.9875
   5   2.0000      -9.882648      -268.9205
   6   2.0000      -9.878807      -268.8160
   7   2.0000      -9.875540      -268.7271
   8   2.0000      -9.873147      -268.6620
   9   2.0000      -0.957796       -26.0630
  10   2.0000      -0.770674       -20.9711
  11   2.0000      -0.696807       -18.9611
  12   2.0000      -0.677044       -18.4233
  13   2.0000      -0.618014       -16.8170
  14   2.0000      -0.599439       -16.3116
  15   2.0000      -0.550823       -14.9886
  16   2.0000      -0.514734       -14.0066
  17   2.0000      -0.468850       -12.7581
  18   2.0000      -0.434262       -11.8169
  19   2.0000      -0.426636       -11.6094
  20   2.0000      -0.387027       -10.5315
  21   2.0000      -0.374283       -10.1848
  22   2.0000      -0.360128        -9.7996
  23   2.0000      -0.355404        -9.6710
  24   2.0000      -0.347853        -9.4656
  25   2.0000      -0.340432        -9.2636
  26   2.0000      -0.338411        -9.2086
  27   2.0000      -0.321206        -8.7404
  28   2.0000      -0.296994        -8.0816
  29   2.0000      -0.282876        -7.6975
  30   2.0000      -0.282445        -7.6857
  31   2.0000      -0.209005        -5.6873
  32   2.0000      -0.186494        -5.0747
  33   0.0000      -0.025499        -0.6939
  34   0.0000      -0.012929        -0.3518
  35   0.0000       0.024351         0.6626
  36   0.0000       0.052401         1.4259
  37   0.0000       0.057410         1.5622

MULLIKEN ATOMIC CHARGES
-----------------------
   0 C :   -0.230734
   1 C :   -0.030106
   2 C :   -0.119997
   3 C :   -0.045218
   4 C :   -0.170515
   5 C :    0.177883
   6 C :   -0.086438
   7 C :   -0.226970
   8 O :   -0.343747
   9 H :    0.113843
  10 H :    0.100046
  11 H :    0.114059
  12 H :    0.025968
  13 H :    0.046025
  14 H :    0.017910
  15 H :    0.113095
  16 H :    0.113300
  17 H :    0.115145
  18 H :    0.316448
Sum of atomic charges:   -0.0000000

LOEWDIN ATOMIC CHARGES
----------------------
   0 C :   -0.324068
   1 C :   -0.040232
   2 C :   -0.146978
   3 C :   -0.121481
   4 C :   -0.183748
   5 C :    0.026046
   6 C :   -0.073867
   7 C :   -0.329870
   8 O :   -0.239506
   9 H :    0.132932
  10 H :    0.123347
  11 H :    0.133082
  12 H :    0.117873
  13 H :    0.121908
  14 H :    0.117121
  15 H :    0.129376
  16 H :    0.129404
  17 H :    0.131350
  18 H :    0.297313

  Mayer bond orders larger than 0.100000
B(  0-C ,  1-C ) :   1.1215 B(  0-C ,  9-H ) :   0.9355 B(  0-C , 10-H ) :   0.9303
B(  0-C , 11-H ) :   0.9354 B(  1-C ,  2-C ) :   1.3612 B(  1-C ,  6-C ) :   1.4463
B(  2-C ,  3-C ) :   1.3715 B(  2-C , 12-H ) :   0.9702 B(  3-C ,  4-C ) :   1.3426
B(  3-C , 13-H ) :   0.9631 B(  4-C ,  5-C ) :   1.3284 B(  4-C , 14-H ) :   0.9572
B(  5-C ,  6-C ) :   1.3742 B(  5-C ,  8-O ) :   1.1718 B(  6-C ,  7-C ) :   1.1459
B(  7-C , 15-H ) :   0.9268 B(  7-C , 16-H ) :   0.9266 B(  7-C , 17-H ) :   0.9232
B(  8-O , 18-H ) :   0.8408

Dispersion correction           -0.019447970
FINAL SINGLE POINT ENERGY      -385.237479615871

DIPOLE MOMENT
-------------

Method             : SCF
Type of density    : Electron Density
Multiplicity       :   1
Irrep              :   0
Energy             :  -385.2966164998143199 Eh
Relativity type    :
Basis              : AO
                                X                 Y                 Z
Electronic contribution:      5.576553724      -3.203350443       0.001660744
Nuclear contribution   :     -5.321397015       3.008251144      -0.002103754
                        -----------------------------------------
Total Dipole Moment    :      0.255156708      -0.195099299      -0.000443011
                        -----------------------------------------
Magnitude (a.u.)       :      0.321199126
Magnitude (Debye)      :      0.816423296

Rotational constants in cm-1:             0.076113             0.059006             0.033654
Rotational constants in MHz :          2281.805837          1768.955023          1008.928736

                             ****ORCA TERMINATED NORMALLY****
TOTAL RUN TIME: 0 days 0 hours 0 minutes 7 seconds 686 msec
