                         Program Version 6.0.0  -   RELEASE  -
|  1> ! pbe def2-sv(p) def2/J RI DEFGRID1 loosescf d4 GCP(DFT/SV(P)) printgap
|  2> %output
|  3>     printlevel normal
|  4> end
|  5> * xyz 0 1
|  6> C 2.7547847503 2.1629403472 -2.0536940945
|  7> C 3.3149528388 1.2450576076 -0.9870096897
|  8> O 2.2924210732 1.0435659705 0.0244966269
|  9> P 2.0980682284 -0.320264256 0.7892444487
| 10> S 0.6393878466 -0.1358215435 2.0800108912
| 11> O 3.5664391759 -0.5760363736 1.3397683306
| 12> C 4.0839057485 -1.8406698735 1.7948994624
| 13> C 3.2209619388 -2.4755714204 2.8648760535
| 14> S 1.8819568969 -1.8567702582 -0.67836256
| 15> C 0.11065024 -1.6912904911 -0.942144837
| 16> S -0.3031317663 -0.0631547387 -1.6674809903
| 17> P -2.1508713324 0.3029440082 -0.725929719
| 18> S -2.694715491 -0.9036648955 0.7273555272
| 19> O -3.096545201 0.2434562482 -1.994579425
| 20> C -4.516360574 0.0230767829 -1.8853104654
| 21> C -5.2180214802 1.209814474 -1.2597563373
| 22> O -2.131940062 1.8710232876 -0.4588554385
| 23> C -1.2950897766 2.551438331 0.4897635359
| 24> C -1.8886396881 2.5197313634 1.883974068
| 25> H 2.4549232434 3.1088766319 -1.6121632876
| 26> H 3.5180442575 2.3418781762 -2.803934972
| 27> H 1.8878634568 1.7050736922 -2.5242792183
| 28> H 4.1768199696 1.6867795138 -0.4841794744
| 29> H 3.5946146577 0.2741202038 -1.4055281228
| 30> H 4.1756995437 -2.5017647095 0.9289521585
| 31> H 5.0739877628 -1.5880240341 2.1783223184
| 32> H 2.2417098967 -2.7264078282 2.4587884121
| 33> H 3.6971838778 -3.3825042635 3.2230557142
| 34> H 3.0800960487 -1.7893048829 3.6968089081
| 35> H -0.4211918052 -1.7891113583 0.0093798001
| 36> H -0.1714507268 -2.4787395179 -1.6364875526
| 37> H -4.8347355987 -0.1436139372 -2.9149891073
| 38> H -4.6816655469 -0.8808672983 -1.2901687281
| 39> H -4.9813416555 2.1180253339 -1.8076316623
| 40> H -6.2908221959 1.0450864609 -1.2725861243
| 41> H -4.8884309224 1.3262073899 -0.2277686669
| 42> H -0.2958670047 2.103864259 0.4850647422
| 43> H -1.2381306154 3.5716311986 0.1053441282
| 44> H -1.9070280922 1.4996915087 2.2638684211
| 45> H -1.2741619972 3.12070796 2.5465555073
| 46> H -2.9016377792 2.9126068946 1.8718620274
| 47> *
| 48>
| 49>                          ****END OF INPUT****

CARTESIAN COORDINATES (ANGSTROEM)
---------------------------------
  C      2.754785    2.162940   -2.053694
  C      3.314953    1.245058   -0.987010
  O      2.292421    1.043566    0.024497
  P      2.098068   -0.320264    0.789244
  S      0.639388   -0.135822    2.080011
  O      3.566439   -0.576036    1.339768
  C      4.083906   -1.840670    1.794899
  C      3.220962   -2.475571    2.864876
  S      1.881957   -1.856770   -0.678363
  C      0.110650   -1.691290   -0.942145
  S     -0.303132   -0.063155   -1.667481
  P     -2.150871    0.302944   -0.725930
  S     -2.694715   -0.903665    0.727356
  O     -3.096545    0.243456   -1.994579
  C     -4.516361    0.023077   -1.885310
  C     -5.218021    1.209814   -1.259756
  O     -2.131940    1.871023   -0.458855
  C     -1.295090    2.551438    0.489764
  C     -1.888640    2.519731    1.883974
  H      2.454923    3.108877   -1.612163
  H      3.518044    2.341878   -2.803935
  H      1.887863    1.705074   -2.524279
  H      4.176820    1.686780   -0.484179
  H      3.594615    0.274120   -1.405528
  H      4.175700   -2.501765    0.928952
  H      5.073988   -1.588024    2.178322
  H      2.241710   -2.726408    2.458788
  H      3.697184   -3.382504    3.223056
  H      3.080096   -1.789305    3.696809
  H     -0.421192   -1.789111    0.009380
  H     -0.171451   -2.478740   -1.636488
  H     -4.834736   -0.143614   -2.914989
  H     -4.681666   -0.880867   -1.290169
  H     -4.981342    2.118025   -1.807632
  H     -6.290822    1.045086   -1.272586
  H     -4.888431    1.326207   -0.227769
  H     -0.295867    2.103864    0.485065
  H     -1.238131    3.571631    0.105344
  H     -1.907028    1.499692    2.263868
  H     -1.274162    3.120708    2.546556
  H     -2.901638    2.912607    1.871862

 Total Charge           Charge          ....    0
 Multiplicity           Mult            ....    1
 Number of Electrons    NEL             ....  202
 Basis Dimension        Dim             ....  334

ORBITAL ENERGIES
----------------

  NO   OCC          E(Eh)            E(eV)
   0   2.0000     -88.050358     -2395.9721
   1   2.0000     -88.039146     -2395.6670
   2   2.0000     -87.983382     -2394.1495
   3   2.0000     -87.982462     -2394.1245
   4   2.0000     -76.427696     -2079.7033
   5   2.0000     -76.421112     -2079.5242
   6   2.0000     -18.797016      -511.4928
   7   2.0000     -18.792292      -511.3643
   8   2.0000     -18.785426      -511.1774
   9   2.0000     -18.780888      -511.0539
  10   2.0000      -9.961602      -271.0690
  11   2.0000      -9.955942      -270.9150
  12   2.0000      -9.954598      -270.8784
  13   2.0000      -9.945169      -270.6218
  14   2.0000      -9.940000      -270.4812
  15   2.0000      -9.887045      -269.0402
  16   2.0000      -9.884826      -268.9798
  17   2.0000      -9.878120      -268.7973
  18   2.0000      -9.868063      -268.5237
  19   2.0000      -7.695134      -209.3952
  20   2.0000      -7.684210      -209.0980
  21   2.0000      -7.628191      -207.5736
  22   2.0000      -7.627383      -207.5516
  23   2.0000      -6.424736      -174.8260
  24   2.0000      -6.418670      -174.6609
  25   2.0000      -5.722919      -155.7285
  26   2.0000      -5.719377      -155.6322
  27   2.0000      -5.712551      -155.4464
  28   2.0000      -5.712122      -155.4348
  29   2.0000      -5.708818      -155.3448
  30   2.0000      -5.700991      -155.1319
  31   2.0000      -5.657004      -153.9349
  32   2.0000      -5.656462      -153.9202
  33   2.0000      -5.649010      -153.7174
  34   2.0000      -5.648260      -153.6970
  35   2.0000      -5.647772      -153.6837
  36   2.0000      -5.647586      -153.6786
  37   2.0000      -4.647553      -126.4663
  38   2.0000      -4.646845      -126.4471
  39   2.0000      -4.644707      -126.3889
  40   2.0000      -4.640986      -126.2876
  41   2.0000      -4.640440      -126.2728
  42   2.0000      -4.639392      -126.2443
  43   2.0000      -0.990745       -26.9595
  44   2.0000      -0.979176       -26.6447
  45   2.0000      -0.946478       -25.7550
  46   2.0000      -0.937003       -25.4972
  47   2.0000      -0.763845       -20.7853
  48   2.0000      -0.721382       -19.6298
  49   2.0000      -0.708659       -19.2836
  50   2.0000      -0.692030       -18.8311
  51   2.0000      -0.677225       -18.4282
  52   2.0000      -0.672637       -18.3034
  53   2.0000      -0.650477       -17.7004
  54   2.0000      -0.634515       -17.2660
  55   2.0000      -0.593918       -16.1613
  56   2.0000      -0.589027       -16.0282
  57   2.0000      -0.573210       -15.5978
  58   2.0000      -0.566364       -15.4116
  59   2.0000      -0.560277       -15.2459
  60   2.0000      -0.509063       -13.8523
  61   2.0000      -0.490073       -13.3356
  62   2.0000      -0.476404       -12.9636
  63   2.0000      -0.465019       -12.6538
  64   2.0000      -0.454789       -12.3754
  65   2.0000      -0.444696       -12.1008
  66   2.0000      -0.437503       -11.9051
  67   2.0000      -0.432516       -11.7693
  68   2.0000      -0.428822       -11.6688
  69   2.0000      -0.417023       -11.3478
  70   2.0000      -0.405845       -11.0436
  71   2.0000      -0.397277       -10.8105
  72   2.0000      -0.394570       -10.7368
  73   2.0000      -0.387553       -10.5459
  74   2.0000      -0.384600       -10.4655
  75   2.0000      -0.366253        -9.9663
  76   2.0000      -0.360648        -9.8137
  77   2.0000      -0.352946        -9.6041
  78   2.0000      -0.350942        -9.5496
  79   2.0000      -0.347986        -9.4692
  80   2.0000      -0.344389        -9.3713
  81   2.0000      -0.342093        -9.3088
  82   2.0000      -0.335013        -9.1162
  83   2.0000      -0.333065        -9.0632
  84   2.0000      -0.324619        -8.8333
  85   2.0000      -0.320540        -8.7223
  86   2.0000      -0.307892        -8.3782
  87   2.0000      -0.299120        -8.1395
  88   2.0000      -0.296416        -8.0659
  89   2.0000      -0.286759        -7.8031
  90   2.0000      -0.279334        -7.6011
  91   2.0000      -0.278539        -7.5794
  92   2.0000      -0.268128        -7.2961
  93   2.0000      -0.263199        -7.1620
  94   2.0000      -0.256598        -6.9824
  95   2.0000      -0.237648        -6.4667
  96   2.0000      -0.220326        -5.9954
  97   2.0000      -0.211635        -5.7589
  98   2.0000      -0.199333        -5.4241
  99   2.0000      -0.195947        -5.3320
 100   2.0000      -0.187421        -5.1000
 101   0.0000      -0.043535        -1.1847
 102   0.0000      -0.033309        -0.9064
 103   0.0000      -0.012740        -0.3467
 104   0.0000       0.011835         0.3220
 105   0.0000       0.019105         0.5199

MULLIKEN ATOMIC CHARGES
-----------------------
   0 C :   -0.287680
   1 C :   -0.009632
   2 O :   -0.348503
   3 P :    0.590618
   4 S :   -0.293378
   5 O :   -0.379154
   6 C :   -0.011927
   7 C :   -0.309890
   8 S :   -0.122694
   9 C :   -0.346429
  10 S :   -0.105943
  11 P :    0.629442
  12 S :   -0.318762
  13 O :   -0.368420
  14 C :   -0.004683
  15 C :   -0.307125
  16 O :   -0.373740
  17 C :   -0.026006
  18 C :   -0.302274
  19 H :    0.118698
  20 H :    0.108816
  21 H :    0.130155
  22 H :    0.108837
  23 H :    0.098254
  24 H :    0.112992
  25 H :    0.109963
  26 H :    0.129146
  27 H :    0.112084
  28 H :    0.128289
  29 H :    0.214894
  30 H :    0.182931
  31 H :    0.102370
  32 H :    0.108977
  33 H :    0.115835
  34 H :    0.108889
  35 H :    0.125979
  36 H :    0.127853
  37 H :    0.097251
  38 H :    0.140482
  39 H :    0.105986
  40 H :    0.107500
Sum of atomic charges:    0.0000000

LOEWDIN ATOMIC CHARGES
----------------------
   0 C :   -0.353904
   1 C :   -0.115617
   2 O :   -0.234899
   3 P :    0.562981
   4 S :   -0.285110
   5 O :   -0.247512
   6 C :   -0.114670
   7 C :   -0.368573
   8 S :    0.066214
   9 C :   -0.477433
  10 S :    0.081619
  11 P :    0.568737
  12 S :   -0.297477
  13 O :   -0.246790
  14 C :   -0.118545
  15 C :   -0.365072
  16 O :   -0.240501
  17 C :   -0.121342
  18 C :   -0.364740
  19 H :    0.128284
  20 H :    0.129141
  21 H :    0.123596
  22 H :    0.116770
  23 H :    0.101765
  24 H :    0.107886
  25 H :    0.121734
  26 H :    0.122754
  27 H :    0.130489
  28 H :    0.131372
  29 H :    0.124413
  30 H :    0.135197
  31 H :    0.117427
  32 H :    0.108417
  33 H :    0.126010
  34 H :    0.128767
  35 H :    0.123238
  36 H :    0.107242
  37 H :    0.114603
  38 H :    0.123421
  39 H :    0.129060
  40 H :    0.121049

  Mayer bond orders larger than 0.100000
B(  0-C ,  1-C ) :   1.1646 B(  0-C , 19-H ) :   0.9493 B(  0-C , 20-H ) :   0.9406
B(  0-C , 21-H ) :   0.9416 B(  1-C ,  2-O ) :   0.8878 B(  1-C , 22-H ) :   0.9333
B(  1-C , 23-H ) :   0.9111 B(  2-O ,  3-P ) :   1.1245 B(  3-P ,  4-S ) :   1.6581
B(  3-P ,  5-O ) :   1.0873 B(  3-P ,  8-S ) :   0.9279 B(  4-S ,  8-S ) :   0.1086
B(  5-O ,  6-C ) :   0.9134 B(  6-C ,  7-C ) :   1.1666 B(  6-C , 24-H ) :   0.9267
B(  6-C , 25-H ) :   0.9333 B(  7-C , 26-H ) :   0.9324 B(  7-C , 27-H ) :   0.9349
B(  7-C , 28-H ) :   0.9430 B(  8-S ,  9-C ) :   1.0069 B(  9-C , 10-S ) :   0.9926
B(  9-C , 29-H ) :   0.8439 B(  9-C , 30-H ) :   0.9091 B( 10-S , 11-P ) :   0.9580
B( 10-S , 12-S ) :   0.1190 B( 11-P , 12-S ) :   1.6108 B( 11-P , 13-O ) :   1.1276
B( 11-P , 16-O ) :   1.1179 B( 13-O , 14-C ) :   0.9138 B( 14-C , 15-C ) :   1.1634
B( 14-C , 31-H ) :   0.9347 B( 14-C , 32-H ) :   0.9143 B( 15-C , 33-H ) :   0.9464
B( 15-C , 34-H ) :   0.9386 B( 15-C , 35-H ) :   0.9354 B( 16-O , 17-C ) :   0.9016
B( 17-C , 18-C ) :   1.1707 B( 17-C , 36-H ) :   0.9031 B( 17-C , 37-H ) :   0.9354
B( 18-C , 38-H ) :   0.9305 B( 18-C , 39-H ) :   0.9392 B( 18-C , 40-H ) :   0.9461

Dispersion correction           -0.066227833
FINAL SINGLE POINT ENERGY     -2929.520413130122

DIPOLE MOMENT
-------------

Method             : SCF
Type of density    : Electron Density
Multiplicity       :   1
Irrep              :   0
Energy             : -2929.6388029827207902 Eh
Relativity type    :
Basis              : AO
                                X                 Y                 Z
Electronic contribution:      1.031667834      -8.988631258      -2.344861810
Nuclear contribution   :      0.083892971       9.084110782       1.591656107
                        -----------------------------------------
Total Dipole Moment    :      1.115560805       0.095479523      -0.753205703
                        -----------------------------------------
Magnitude (a.u.)       :      1.349411383
Magnitude (Debye)      :      3.429931154

Rotational constants in cm-1:             0.013135             0.004917             0.004731
Rotational constants in MHz :           393.781200           147.421532           141.823188

                             ****ORCA TERMINATED NORMALLY****
TOTAL RUN TIME: 0 days 0 hours 0 minutes 21 seconds 59 msec
