                         Program Version 6.0.0  -   RELEASE  -
|  1> ! wb97x-v def2-tzvp def2/J RIJCOSX DEFGRID2 scfconv7 GCP(DFT/TZ) printgap
|  2> %output
|  3>     printlevel normal
|  4> end
|  5> * xyz 0 1
|  6> C 1.1970620156041192 -1.2148826736470304 -1.6289757010446207e-05
|  7> C 1.866409020795892 -6.041877987601965e-06 -5.9299043152536844e-05
|  8> C 1.1970700207695057 1.2148749565305164 -4.2926226952779814e-05
|  9> C -0.1917379041751656 1.2005442060149627 2.05852205650041e-06
| 10> C -0.9104765588599872 2.9599812822849327e-06 1.4114538398276082e-05
| 11> C -0.19174578635487372 -1.2005427198493526 1.2761637078048739e-05
| 12> Cl -1.031566761591196 -2.7253485639712838 5.017615285232295e-05
| 13> Cl -2.6411492274734347 7.003455808599577e-06 5.106237424040598e-05
| 14> Cl -1.0315475568321724 2.7253563983532403 -1.281297139506597e-05
| 15> Cl 3.6161711450917706 -1.1763925153235707e-05 -8.733974286883154e-05
| 16> H 1.734559955850126 -2.154707709011709 -1.2935245076361464e-05
| 17> H 1.7345741154010097 2.1546963471765093 -7.524543650236647e-05
| 18> *
| 19>
| 20>                          ****END OF INPUT****

CARTESIAN COORDINATES (ANGSTROEM)
---------------------------------
  C      1.197062   -1.214883   -0.000016
  C      1.866409   -0.000006   -0.000059
  C      1.197070    1.214875   -0.000043
  C     -0.191738    1.200544    0.000002
  C     -0.910477    0.000003    0.000014
  C     -0.191746   -1.200543    0.000013
  Cl    -1.031567   -2.725349    0.000050
  Cl    -2.641149    0.000007    0.000051
  Cl    -1.031548    2.725356   -0.000013
  Cl     3.616171   -0.000012   -0.000087
  H      1.734560   -2.154708   -0.000013
  H      1.734574    2.154696   -0.000075

 Total Charge           Charge          ....    0
 Multiplicity           Mult            ....    1
 Number of Electrons    NEL             ....  106
 Basis Dimension        Dim             ....  346

ORBITAL ENERGIES
----------------

  NO   OCC          E(Eh)            E(eV)
   0   2.0000    -107.167097     -2916.1650
   1   2.0000    -107.167011     -2916.1626
   2   2.0000    -107.166995     -2916.1622
   3   2.0000    -107.165278     -2916.1155
   4   2.0000     -12.154703      -330.7463
   5   2.0000     -12.154262      -330.7343
   6   2.0000     -12.151159      -330.6498
   7   2.0000     -12.148464      -330.5765
   8   2.0000     -12.096999      -329.1761
   9   2.0000     -12.096629      -329.1660
  10   2.0000     -11.320093      -308.0354
  11   2.0000     -11.320068      -308.0347
  12   2.0000     -11.320029      -308.0336
  13   2.0000     -11.318384      -307.9889
  14   2.0000      -9.112128      -247.9536
  15   2.0000      -9.111916      -247.9478
  16   2.0000      -9.111133      -247.9265
  17   2.0000      -9.109859      -247.8919
  18   2.0000      -9.109489      -247.8818
  19   2.0000      -9.108952      -247.8672
  20   2.0000      -9.108848      -247.8644
  21   2.0000      -9.108802      -247.8631
  22   2.0000      -9.108744      -247.8615
  23   2.0000      -9.108192      -247.8465
  24   2.0000      -9.107231      -247.8203
  25   2.0000      -9.107184      -247.8191
  26   2.0000      -1.490834       -40.5676
  27   2.0000      -1.451635       -39.5010
  28   2.0000      -1.449675       -39.4477
  29   2.0000      -1.429100       -38.8878
  30   2.0000      -1.382835       -37.6289
  31   2.0000      -1.309001       -35.6197
  32   2.0000      -1.293783       -35.2056
  33   2.0000      -1.157458       -31.4960
  34   2.0000      -1.145597       -31.1733
  35   2.0000      -1.035712       -28.1832
  36   2.0000      -1.013844       -27.5881
  37   2.0000      -0.980674       -26.6855
  38   2.0000      -0.950669       -25.8690
  39   2.0000      -0.948347       -25.8058
  40   2.0000      -0.906643       -24.6710
  41   2.0000      -0.890590       -24.2342
  42   2.0000      -0.882569       -24.0159
  43   2.0000      -0.841094       -22.8873
  44   2.0000      -0.838009       -22.8034
  45   2.0000      -0.822713       -22.3871
  46   2.0000      -0.821165       -22.3450
  47   2.0000      -0.817377       -22.2419
  48   2.0000      -0.812894       -22.1200
  49   2.0000      -0.806106       -21.9353
  50   2.0000      -0.778835       -21.1932
  51   2.0000      -0.688298       -18.7295
  52   2.0000      -0.686285       -18.6748
  53   0.0000      -0.339477        -9.2376
  54   0.0000      -0.310947        -8.4613
  55   0.0000      -0.300101        -8.1662
  56   0.0000      -0.284620        -7.7449
  57   0.0000      -0.260964        -7.1012

MULLIKEN ATOMIC CHARGES
-----------------------
   0 C :   -0.242010
   1 C :    0.156018
   2 C :   -0.241963
   3 C :    0.095250
   4 C :    0.018020
   5 C :    0.095242
   6 Cl:   -0.047496
   7 Cl:   -0.023943
   8 Cl:   -0.047491
   9 Cl:   -0.072464
  10 H :    0.155424
  11 H :    0.155415
Sum of atomic charges:    0.0000000

LOEWDIN ATOMIC CHARGES
----------------------
   0 C :   -0.141175
   1 C :   -0.409166
   2 C :   -0.141173
   3 C :   -0.420862
   4 C :   -0.446540
   5 C :   -0.420861
   6 Cl:    0.418576
   7 Cl:    0.433540
   8 Cl:    0.418576
   9 Cl:    0.397106
  10 H :    0.155990
  11 H :    0.155989

  Mayer bond orders larger than 0.100000
B(  0-C ,  1-C ) :   1.3795 B(  0-C ,  5-C ) :   1.3804 B(  0-C , 10-H ) :   0.9552
B(  1-C ,  2-C ) :   1.3795 B(  1-C ,  9-Cl) :   0.9904 B(  2-C ,  3-C ) :   1.3804
B(  2-C , 11-H ) :   0.9552 B(  3-C ,  4-C ) :   1.3120 B(  3-C ,  8-Cl) :   1.0893
B(  4-C ,  5-C ) :   1.3119 B(  4-C ,  7-Cl) :   1.2083 B(  5-C ,  6-Cl) :   1.0893

FINAL SINGLE POINT ENERGY     -2070.433863367625

DIPOLE MOMENT
-------------

Method             : SCF
Type of density    : Electron Density
Multiplicity       :   1
Irrep              :   0
Energy             : -2070.4396861772252123 Eh
Relativity type    :
Basis              : AO
                                X                 Y                 Z
Electronic contribution:     -4.359313875       0.000012920       0.000094507
Nuclear contribution   :      4.724040747      -0.000015017      -0.000102407
                        -----------------------------------------
Total Dipole Moment    :      0.364726871      -0.000002097      -0.000007900
                        -----------------------------------------
Magnitude (a.u.)       :      0.364726871
Magnitude (Debye)      :      0.927062032

Rotational constants in cm-1:             0.027814             0.019167             0.011347
Rotational constants in MHz :           833.828581           574.598398           340.178493

                             ****ORCA TERMINATED NORMALLY****
TOTAL RUN TIME: 0 days 0 hours 3 minutes 40 seconds 45 msec
