                         Program Version 6.0.0  -   RELEASE  -
|  1> ! wb97x-v def2-tzvp def2/J RIJCOSX DEFGRID2 scfconv7 GCP(DFT/TZ) printgap
|  2> %output
|  3>     printlevel normal
|  4> end
|  5> %cpcm
|  6>     smd true
|  7>     smdsolvent "water"
|  8> end
|  9> * xyz 0 1
| 10> C 1.1970620156041192 -1.2148826736470304 -1.6289757010446207e-05
| 11> C 1.866409020795892 -6.041877987601965e-06 -5.9299043152536844e-05
| 12> C 1.1970700207695057 1.2148749565305164 -4.2926226952779814e-05
| 13> C -0.1917379041751656 1.2005442060149627 2.05852205650041e-06
| 14> C -0.9104765588599872 2.9599812822849327e-06 1.4114538398276082e-05
| 15> C -0.19174578635487372 -1.2005427198493526 1.2761637078048739e-05
| 16> Cl -1.031566761591196 -2.7253485639712838 5.017615285232295e-05
| 17> Cl -2.6411492274734347 7.003455808599577e-06 5.106237424040598e-05
| 18> Cl -1.0315475568321724 2.7253563983532403 -1.281297139506597e-05
| 19> Cl 3.6161711450917706 -1.1763925153235707e-05 -8.733974286883154e-05
| 20> H 1.734559955850126 -2.154707709011709 -1.2935245076361464e-05
| 21> H 1.7345741154010097 2.1546963471765093 -7.524543650236647e-05
| 22> *
| 23>
| 24>                          ****END OF INPUT****

CARTESIAN COORDINATES (ANGSTROEM)
---------------------------------
  C      1.197062   -1.214883   -0.000016
  C      1.866409   -0.000006   -0.000059
  C      1.197070    1.214875   -0.000043
  C     -0.191738    1.200544    0.000002
  C     -0.910477    0.000003    0.000014
  C     -0.191746   -1.200543    0.000013
  Cl    -1.031567   -2.725349    0.000050
  Cl    -2.641149    0.000007    0.000051
  Cl    -1.031548    2.725356   -0.000013
  Cl     3.616171   -0.000012   -0.000087
  H      1.734560   -2.154708   -0.000013
  H      1.734574    2.154696   -0.000075

 Total Charge           Charge          ....    0
 Multiplicity           Mult            ....    1
 Number of Electrons    NEL             ....  106
 Basis Dimension        Dim             ....  346

ORBITAL ENERGIES
----------------

  NO   OCC          E(Eh)            E(eV)
   0   2.0000    -107.165711     -2916.1272
   1   2.0000    -107.162849     -2916.0494
   2   2.0000    -107.162838     -2916.0491
   3   2.0000    -107.158594     -2915.9336
   4   2.0000     -12.147040      -330.5378
   5   2.0000     -12.145772      -330.5033
   6   2.0000     -12.143965      -330.4541
   7   2.0000     -12.138496      -330.3053
   8   2.0000     -12.085760      -328.8702
   9   2.0000     -12.085399      -328.8604
  10   2.0000     -11.318745      -307.9987
  11   2.0000     -11.315972      -307.9232
  12   2.0000     -11.315971      -307.9232
  13   2.0000     -11.311754      -307.8085
  14   2.0000      -9.110518      -247.9098
  15   2.0000      -9.107815      -247.8362
  16   2.0000      -9.107637      -247.8314
  17   2.0000      -9.107567      -247.8295
  18   2.0000      -9.107265      -247.8213
  19   2.0000      -9.104820      -247.7547
  20   2.0000      -9.104789      -247.7539
  21   2.0000      -9.104715      -247.7519
  22   2.0000      -9.104702      -247.7515
  23   2.0000      -9.103246      -247.7119
  24   2.0000      -9.100630      -247.6407
  25   2.0000      -9.100610      -247.6402
  26   2.0000      -1.484607       -40.3982
  27   2.0000      -1.444965       -39.3195
  28   2.0000      -1.444635       -39.3105
  29   2.0000      -1.425881       -38.8002
  30   2.0000      -1.375762       -37.4364
  31   2.0000      -1.299595       -35.3638
  32   2.0000      -1.286236       -35.0003
  33   2.0000      -1.148746       -31.2590
  34   2.0000      -1.136965       -30.9384
  35   2.0000      -1.026756       -27.9395
  36   2.0000      -1.006325       -27.3835
  37   2.0000      -0.974505       -26.5176
  38   2.0000      -0.942369       -25.6432
  39   2.0000      -0.941171       -25.6106
  40   2.0000      -0.898075       -24.4379
  41   2.0000      -0.878414       -23.9029
  42   2.0000      -0.876233       -23.8435
  43   2.0000      -0.835238       -22.7280
  44   2.0000      -0.833781       -22.6883
  45   2.0000      -0.820329       -22.3223
  46   2.0000      -0.818266       -22.2661
  47   2.0000      -0.813468       -22.1356
  48   2.0000      -0.807996       -21.9867
  49   2.0000      -0.801986       -21.8231
  50   2.0000      -0.772478       -21.0202
  51   2.0000      -0.678956       -18.4753
  52   2.0000      -0.678681       -18.4679
  53   0.0000      -0.333433        -9.0732
  54   0.0000      -0.302664        -8.2359
  55   0.0000      -0.289471        -7.8769
  56   0.0000      -0.278385        -7.5752
  57   0.0000      -0.254668        -6.9299

MULLIKEN ATOMIC CHARGES
-----------------------
   0 C :   -0.241389
   1 C :    0.150019
   2 C :   -0.241358
   3 C :    0.093060
   4 C :    0.031219
   5 C :    0.093037
   6 Cl:   -0.064606
   7 Cl:   -0.044604
   8 Cl:   -0.064603
   9 Cl:   -0.086309
  10 H :    0.187771
  11 H :    0.187762
Sum of atomic charges:    0.0000000

LOEWDIN ATOMIC CHARGES
----------------------
   0 C :   -0.129192
   1 C :   -0.407732
   2 C :   -0.129190
   3 C :   -0.420856
   4 C :   -0.445655
   5 C :   -0.420855
   6 Cl:    0.406421
   7 Cl:    0.419474
   8 Cl:    0.406421
   9 Cl:    0.387034
  10 H :    0.167065
  11 H :    0.167064

  Mayer bond orders larger than 0.100000
B(  0-C ,  1-C ) :   1.3687 B(  0-C ,  5-C ) :   1.3771 B(  0-C , 10-H ) :   0.9502
B(  1-C ,  2-C ) :   1.3687 B(  1-C ,  9-Cl) :   0.9901 B(  2-C ,  3-C ) :   1.3771
B(  2-C , 11-H ) :   0.9502 B(  3-C ,  4-C ) :   1.3102 B(  3-C ,  8-Cl) :   1.0782
B(  4-C ,  5-C ) :   1.3101 B(  4-C ,  7-Cl) :   1.1793 B(  5-C ,  6-Cl) :   1.0781

FINAL SINGLE POINT ENERGY     -2070.434195918184

DIPOLE MOMENT
-------------

Method             : SCF
Type of density    : Electron Density
Multiplicity       :   1
Irrep              :   0
Energy             : -2070.4400187277842633 Eh
Relativity type    :
Basis              : AO
                                X                 Y                 Z
Electronic contribution:     -4.093937549       0.000011912       0.000088255
Nuclear contribution   :      4.724040747      -0.000015017      -0.000102407
                        -----------------------------------------
Total Dipole Moment    :      0.630103198      -0.000003105      -0.000014152
                        -----------------------------------------
Magnitude (a.u.)       :      0.630103198
Magnitude (Debye)      :      1.601595049

Rotational constants in cm-1:             0.027814             0.019167             0.011347
Rotational constants in MHz :           833.828581           574.598398           340.178493

                             ****ORCA TERMINATED NORMALLY****
TOTAL RUN TIME: 0 days 0 hours 3 minutes 46 seconds 660 msec
