                         Program Version 6.0.0  -   RELEASE  -
|  1> ! pbe def2-sv(p) def2/J RI DEFGRID1 loosescf d4 GCP(DFT/SV(P)) printgap
|  2> %output
|  3>     printlevel normal
|  4> end
|  5> * xyz 0 1
|  6> C 5.4558136365 -0.5226596867 -0.8456232504
|  7> C 4.3999724649 -1.2337590362 -0.021113238
|  8> O 3.5078832904 -0.2916300042 0.6043523384
|  9> P 2.1399238949 0.1733417268 -0.0623413362
| 10> S 2.2611499798 0.9332319683 -1.8699100962
| 11> O 1.5847102976 1.104577045 1.0900734865
| 12> C 1.7717864832 2.532978539 1.075807019
| 13> C 3.231155308 2.9059814056 1.2194662989
| 14> S 0.9567843907 -1.5614871302 0.14060675
| 15> C -0.0606042788 -1.4727038581 -1.3797214876
| 16> S -1.8089763954 -1.7578540317 -1.0604440194
| 17> P -2.355309629 0.11266042 -0.1889571054
| 18> S -1.1391953307 1.5905400822 -0.6100917524
| 19> O -2.5880134917 -0.1655209089 1.362171072
| 20> C -1.5180373698 -0.3190597438 2.3114954097
| 21> C -2.0703089421 -0.0063896914 3.6875380699
| 22> O -3.8135359174 0.4123571173 -0.6861224449
| 23> C -5.0230857356 -0.2290118075 -0.2048716316
| 24> C -5.023409267 -1.7229097074 -0.4438636436
| 25> H 6.0084170141 0.1756273757 -0.2233192718
| 26> H 6.1409595803 -1.2560200812 -1.2583031108
| 27> H 4.9902526657 0.0261104143 -1.6614287787
| 28> H 4.846980915 -1.7794147519 0.8120034574
| 29> H 3.8197960589 -1.9253012947 -0.6392676438
| 30> H 1.3501691565 2.9267449959 0.1446502463
| 31> H 1.1739644828 2.8834999159 1.9182762184
| 32> H 3.6481257096 2.4464293911 2.1117384511
| 33> H 3.7856897114 2.5558904744 0.3493345316
| 34> H 3.3224365198 3.9854724223 1.2864059859
| 35> H 0.2538905376 -2.2701007383 -2.0480129435
| 36> H 0.0875606412 -0.4908870663 -1.8372202053
| 37> H -1.1520300576 -1.3482794062 2.252407069
| 38> H -0.7029473087 0.3622886188 2.0442080984
| 39> H -2.435686879 1.0164298485 3.7202077505
| 40> H -2.8876681542 -0.6820112109 3.9217027995
| 41> H -1.2808884217 -0.1287066158 4.421745166
| 42> H -5.1286693251 0.0001496469 0.8566792991
| 43> H -5.807464135 0.2711497012 -0.774796282
| 44> H -4.8444658034 -1.9405896413 -1.493673623
| 45> H -4.2462619143 -2.2024451692 0.1482419978
| 46> H -5.9882571097 -2.1273428661 -0.1537937269
| 47> *
| 48>
| 49>                          ****END OF INPUT****

CARTESIAN COORDINATES (ANGSTROEM)
---------------------------------
  C      5.455814   -0.522660   -0.845623
  C      4.399972   -1.233759   -0.021113
  O      3.507883   -0.291630    0.604352
  P      2.139924    0.173342   -0.062341
  S      2.261150    0.933232   -1.869910
  O      1.584710    1.104577    1.090073
  C      1.771786    2.532979    1.075807
  C      3.231155    2.905981    1.219466
  S      0.956784   -1.561487    0.140607
  C     -0.060604   -1.472704   -1.379721
  S     -1.808976   -1.757854   -1.060444
  P     -2.355310    0.112660   -0.188957
  S     -1.139195    1.590540   -0.610092
  O     -2.588013   -0.165521    1.362171
  C     -1.518037   -0.319060    2.311495
  C     -2.070309   -0.006390    3.687538
  O     -3.813536    0.412357   -0.686122
  C     -5.023086   -0.229012   -0.204872
  C     -5.023409   -1.722910   -0.443864
  H      6.008417    0.175627   -0.223319
  H      6.140960   -1.256020   -1.258303
  H      4.990253    0.026110   -1.661429
  H      4.846981   -1.779415    0.812003
  H      3.819796   -1.925301   -0.639268
  H      1.350169    2.926745    0.144650
  H      1.173964    2.883500    1.918276
  H      3.648126    2.446429    2.111738
  H      3.785690    2.555890    0.349335
  H      3.322437    3.985472    1.286406
  H      0.253891   -2.270101   -2.048013
  H      0.087561   -0.490887   -1.837220
  H     -1.152030   -1.348279    2.252407
  H     -0.702947    0.362289    2.044208
  H     -2.435687    1.016430    3.720208
  H     -2.887668   -0.682011    3.921703
  H     -1.280888   -0.128707    4.421745
  H     -5.128669    0.000150    0.856679
  H     -5.807464    0.271150   -0.774796
  H     -4.844466   -1.940590   -1.493674
  H     -4.246262   -2.202445    0.148242
  H     -5.988257   -2.127343   -0.153794

 Total Charge           Charge          ....    0
 Multiplicity           Mult            ....    1
 Number of Electrons    NEL             ....  202
 Basis Dimension        Dim             ....  334

ORBITAL ENERGIES
----------------

  NO   OCC          E(Eh)            E(eV)
   0   2.0000     -88.042342     -2395.7539
   1   2.0000     -88.041322     -2395.7262
   2   2.0000     -87.985083     -2394.1958
   3   2.0000     -87.978755     -2394.0236
   4   2.0000     -76.424612     -2079.6194
   5   2.0000     -76.423805     -2079.5975
   6   2.0000     -18.793042      -511.3847
   7   2.0000     -18.789932      -511.3000
   8   2.0000     -18.789076      -511.2768
   9   2.0000     -18.786390      -511.2037
  10   2.0000      -9.959369      -271.0082
  11   2.0000      -9.952507      -270.8215
  12   2.0000      -9.951626      -270.7975
  13   2.0000      -9.945891      -270.6414
  14   2.0000      -9.945704      -270.6364
  15   2.0000      -9.892898      -269.1994
  16   2.0000      -9.885543      -268.9993
  17   2.0000      -9.879548      -268.8362
  18   2.0000      -9.879013      -268.8216
  19   2.0000      -7.687318      -209.1826
  20   2.0000      -7.686249      -209.1535
  21   2.0000      -7.629952      -207.6215
  22   2.0000      -7.623659      -207.4503
  23   2.0000      -6.421927      -174.7495
  24   2.0000      -6.421236      -174.7307
  25   2.0000      -5.715356      -155.5227
  26   2.0000      -5.714081      -155.4881
  27   2.0000      -5.711518      -155.4183
  28   2.0000      -5.710721      -155.3966
  29   2.0000      -5.704507      -155.2275
  30   2.0000      -5.703280      -155.1941
  31   2.0000      -5.658859      -153.9854
  32   2.0000      -5.652681      -153.8173
  33   2.0000      -5.650654      -153.7621
  34   2.0000      -5.650047      -153.7456
  35   2.0000      -5.644023      -153.5817
  36   2.0000      -5.643948      -153.5796
  37   2.0000      -4.644191      -126.3749
  38   2.0000      -4.644160      -126.3740
  39   2.0000      -4.643695      -126.3614
  40   2.0000      -4.642869      -126.3389
  41   2.0000      -4.642712      -126.3346
  42   2.0000      -4.641495      -126.3015
  43   2.0000      -0.987610       -26.8742
  44   2.0000      -0.984328       -26.7849
  45   2.0000      -0.942793       -25.6547
  46   2.0000      -0.941775       -25.6270
  47   2.0000      -0.759543       -20.6682
  48   2.0000      -0.721203       -19.6249
  49   2.0000      -0.709812       -19.3150
  50   2.0000      -0.692766       -18.8511
  51   2.0000      -0.683100       -18.5881
  52   2.0000      -0.673702       -18.3324
  53   2.0000      -0.649350       -17.6697
  54   2.0000      -0.632802       -17.2194
  55   2.0000      -0.597839       -16.2680
  56   2.0000      -0.590269       -16.0620
  57   2.0000      -0.572532       -15.5794
  58   2.0000      -0.566945       -15.4274
  59   2.0000      -0.560541       -15.2531
  60   2.0000      -0.504250       -13.7213
  61   2.0000      -0.494378       -13.4527
  62   2.0000      -0.475584       -12.9413
  63   2.0000      -0.470620       -12.8062
  64   2.0000      -0.447934       -12.1889
  65   2.0000      -0.445447       -12.1212
  66   2.0000      -0.444128       -12.0853
  67   2.0000      -0.436434       -11.8760
  68   2.0000      -0.427687       -11.6379
  69   2.0000      -0.415767       -11.3136
  70   2.0000      -0.410112       -11.1597
  71   2.0000      -0.399082       -10.8596
  72   2.0000      -0.392730       -10.6867
  73   2.0000      -0.386961       -10.5297
  74   2.0000      -0.379758       -10.3337
  75   2.0000      -0.369646       -10.0586
  76   2.0000      -0.366394        -9.9701
  77   2.0000      -0.358534        -9.7562
  78   2.0000      -0.354676        -9.6512
  79   2.0000      -0.349793        -9.5184
  80   2.0000      -0.345026        -9.3886
  81   2.0000      -0.343905        -9.3581
  82   2.0000      -0.337381        -9.1806
  83   2.0000      -0.336621        -9.1599
  84   2.0000      -0.331383        -9.0174
  85   2.0000      -0.313355        -8.5268
  86   2.0000      -0.310372        -8.4456
  87   2.0000      -0.299573        -8.1518
  88   2.0000      -0.294318        -8.0088
  89   2.0000      -0.293396        -7.9837
  90   2.0000      -0.282841        -7.6965
  91   2.0000      -0.274160        -7.4603
  92   2.0000      -0.270655        -7.3649
  93   2.0000      -0.262441        -7.1414
  94   2.0000      -0.254721        -6.9313
  95   2.0000      -0.236123        -6.4252
  96   2.0000      -0.219014        -5.9597
  97   2.0000      -0.210649        -5.7320
  98   2.0000      -0.200558        -5.4575
  99   2.0000      -0.195675        -5.3246
 100   2.0000      -0.186610        -5.0779
 101   0.0000      -0.038466        -1.0467
 102   0.0000      -0.031669        -0.8618
 103   0.0000      -0.009998        -0.2721
 104   0.0000       0.009572         0.2605
 105   0.0000       0.016258         0.4424

MULLIKEN ATOMIC CHARGES
-----------------------
   0 C :   -0.294554
   1 C :   -0.005981
   2 O :   -0.371602
   3 P :    0.615511
   4 S :   -0.315841
   5 O :   -0.359215
   6 C :   -0.005492
   7 C :   -0.303633
   8 S :   -0.109943
   9 C :   -0.335914
  10 S :   -0.127168
  11 P :    0.612310
  12 S :   -0.308010
  13 O :   -0.389748
  14 C :   -0.038605
  15 C :   -0.272698
  16 O :   -0.359605
  17 C :    0.007024
  18 C :   -0.338253
  19 H :    0.113179
  20 H :    0.106325
  21 H :    0.129261
  22 H :    0.105513
  23 H :    0.095908
  24 H :    0.124927
  25 H :    0.102128
  26 H :    0.113219
  27 H :    0.125246
  28 H :    0.111149
  29 H :    0.179007
  30 H :    0.215234
  31 H :    0.105741
  32 H :    0.129721
  33 H :    0.115407
  34 H :    0.109324
  35 H :    0.111464
  36 H :    0.112264
  37 H :    0.112931
  38 H :    0.131743
  39 H :    0.132163
  40 H :    0.119565
Sum of atomic charges:    0.0000000

LOEWDIN ATOMIC CHARGES
----------------------
   0 C :   -0.364707
   1 C :   -0.117117
   2 O :   -0.246287
   3 P :    0.571511
   4 S :   -0.303745
   5 O :   -0.233893
   6 C :   -0.117173
   7 C :   -0.366625
   8 S :    0.077186
   9 C :   -0.479989
  10 S :    0.069321
  11 P :    0.564430
  12 S :   -0.293188
  13 O :   -0.252683
  14 C :   -0.126816
  15 C :   -0.350911
  16 O :   -0.234527
  17 C :   -0.107297
  18 C :   -0.373718
  19 H :    0.124849
  20 H :    0.128086
  21 H :    0.123877
  22 H :    0.117996
  23 H :    0.104148
  24 H :    0.111287
  25 H :    0.117298
  26 H :    0.124792
  27 H :    0.121902
  28 H :    0.130353
  29 H :    0.135442
  30 H :    0.126674
  31 H :    0.105152
  32 H :    0.110734
  33 H :    0.126490
  34 H :    0.123031
  35 H :    0.130779
  36 H :    0.115942
  37 H :    0.123922
  38 H :    0.129331
  39 H :    0.119315
  40 H :    0.134830

  Mayer bond orders larger than 0.100000
B(  0-C ,  1-C ) :   1.1664 B(  0-C , 19-H ) :   0.9464 B(  0-C , 20-H ) :   0.9397
B(  0-C , 21-H ) :   0.9303 B(  1-C ,  2-O ) :   0.9098 B(  1-C , 22-H ) :   0.9366
B(  1-C , 23-H ) :   0.9131 B(  2-O ,  3-P ) :   1.1006 B(  3-P ,  4-S ) :   1.6026
B(  3-P ,  5-O ) :   1.1286 B(  3-P ,  8-S ) :   0.9636 B(  4-S ,  8-S ) :   0.1179
B(  5-O ,  6-C ) :   0.8973 B(  6-C ,  7-C ) :   1.1627 B(  6-C , 24-H ) :   0.9151
B(  6-C , 25-H ) :   0.9347 B(  7-C , 26-H ) :   0.9450 B(  7-C , 27-H ) :   0.9326
B(  7-C , 28-H ) :   0.9385 B(  8-S ,  9-C ) :   0.9801 B(  9-C , 10-S ) :   1.0167
B(  9-C , 29-H ) :   0.9089 B(  9-C , 30-H ) :   0.8443 B( 10-S , 11-P ) :   0.9268
B( 10-S , 12-S ) :   0.1105 B( 11-P , 12-S ) :   1.6682 B( 11-P , 13-O ) :   1.0674
B( 11-P , 16-O ) :   1.1501 B( 13-O , 14-C ) :   0.8993 B( 14-C , 15-C ) :   1.1551
B( 14-C , 31-H ) :   0.9239 B( 14-C , 32-H ) :   0.9035 B( 15-C , 33-H ) :   0.9504
B( 15-C , 34-H ) :   0.9508 B( 15-C , 35-H ) :   0.9425 B( 16-O , 17-C ) :   0.8960
B( 17-C , 18-C ) :   1.1706 B( 17-C , 36-H ) :   0.9273 B( 17-C , 37-H ) :   0.9338
B( 18-C , 38-H ) :   0.9409 B( 18-C , 39-H ) :   0.9311 B( 18-C , 40-H ) :   0.9348

Dispersion correction           -0.065793228
FINAL SINGLE POINT ENERGY     -2929.519379241005

DIPOLE MOMENT
-------------

Method             : SCF
Type of density    : Electron Density
Multiplicity       :   1
Irrep              :   0
Energy             : -2929.6389680756851703 Eh
Relativity type    :
Basis              : AO
                                X                 Y                 Z
Electronic contribution:     -5.069768439      -1.160794909     -12.242759995
Nuclear contribution   :      4.812866365       0.251041276      13.396570047
                        -----------------------------------------
Total Dipole Moment    :     -0.256902074      -0.909753633       1.153810052
                        -----------------------------------------
Magnitude (a.u.)       :      1.491619249
Magnitude (Debye)      :      3.791394824

Rotational constants in cm-1:             0.013882             0.004765             0.004474
Rotational constants in MHz :           416.161542           142.855608           134.129849

                             ****ORCA TERMINATED NORMALLY****
TOTAL RUN TIME: 0 days 0 hours 0 minutes 20 seconds 978 msec
