                         Program Version 6.0.0  -   RELEASE  -
|  1> ! r2scan-3c def2/J RI DEFGRID2 scfconv6 printgap
|  2> %output
|  3>     printlevel normal
|  4> end
|  5> * xyz 0 1
|  6> C 5.6489667288 0.7383416184 -1.380945963
|  7> C 4.4614948018 1.1483435372 -0.5334279448
|  8> O 3.3764449025 0.2393052141 -0.8145547623
|  9> P 2.2167006661 -0.0339873398 0.2317537467
| 10> S 2.8121424043 -0.3644246107 2.0725588043
| 11> O 1.405293891 -1.1924399796 -0.4709532195
| 12> C 1.6156443873 -2.5845805902 -0.1629758683
| 13> C 2.9764114719 -3.0578539824 -0.6256436073
| 14> S 0.9188341067 1.6054729663 -0.0417878455
| 15> C -0.0288994651 1.3717458091 1.4874239121
| 16> S -0.9334439328 -0.2026013107 1.5448068809
| 17> P -2.0727877083 -0.0487822826 -0.2425172114
| 18> S -1.343391083 -0.5150101287 -1.9922509695
| 19> O -2.5648661578 1.4623763211 -0.0696458024
| 20> C -2.9638274742 2.2587031498 -1.202637356
| 21> C -4.3288115966 1.8410410234 -1.7097192946
| 22> O -3.2980375103 -1.0023957837 0.0759786963
| 23> C -4.1517480234 -0.8357186434 1.236783768
| 24> C -5.5471161593 -1.2899678161 0.8595792172
| 25> H 5.3733109422 0.7464653394 -2.4315014575
| 26> H 6.4616991382 1.43788307 -1.2155459219
| 27> H 5.9765075435 -0.2617550225 -1.1109948437
| 28> H 4.1258656102 2.1593108726 -0.7782530216
| 29> H 4.6941799145 1.0945984727 0.5356672757
| 30> H 1.4990516669 -2.7201550996 0.9177541515
| 31> H 0.8041691209 -3.0900906196 -0.6896515508
| 32> H 3.0636209944 -4.1263159573 -0.4554607162
| 33> H 3.1053682474 -2.8446543336 -1.6836160994
| 34> H 3.7543183848 -2.5426999631 -0.0627154651
| 35> H -0.7269058951 2.2012110681 1.5580390263
| 36> H 0.6530143789 1.3486078467 2.3381576456
| 37> H -2.9630155547 3.2817986062 -0.8243911434
| 38> H -2.2092933109 2.1511056744 -1.9879875652
| 39> H -4.6160202645 2.4791627602 -2.5393614644
| 40> H -4.2885342925 0.8082086052 -2.0554413694
| 41> H -5.0694692859 1.9245748115 -0.9184348434
| 42> H -3.7343054741 -1.4482705842 2.0389477503
| 43> H -4.1386099258 0.2141768265 1.5394460124
| 44> H -6.1924599938 -1.2156320545 1.7289037471
| 45> H -5.9447869574 -0.6695321685 0.0611635197
| 46> H -5.5203449013 -2.3206652986 0.5179276421
| 47> *
| 48>
| 49>                          ****END OF INPUT****

CARTESIAN COORDINATES (ANGSTROEM)
---------------------------------
  C      5.648967    0.738342   -1.380946
  C      4.461495    1.148344   -0.533428
  O      3.376445    0.239305   -0.814555
  P      2.216701   -0.033987    0.231754
  S      2.812142   -0.364425    2.072559
  O      1.405294   -1.192440   -0.470953
  C      1.615644   -2.584581   -0.162976
  C      2.976411   -3.057854   -0.625644
  S      0.918834    1.605473   -0.041788
  C     -0.028899    1.371746    1.487424
  S     -0.933444   -0.202601    1.544807
  P     -2.072788   -0.048782   -0.242517
  S     -1.343391   -0.515010   -1.992251
  O     -2.564866    1.462376   -0.069646
  C     -2.963827    2.258703   -1.202637
  C     -4.328812    1.841041   -1.709719
  O     -3.298038   -1.002396    0.075979
  C     -4.151748   -0.835719    1.236784
  C     -5.547116   -1.289968    0.859579
  H      5.373311    0.746465   -2.431501
  H      6.461699    1.437883   -1.215546
  H      5.976508   -0.261755   -1.110995
  H      4.125866    2.159311   -0.778253
  H      4.694180    1.094598    0.535667
  H      1.499052   -2.720155    0.917754
  H      0.804169   -3.090091   -0.689652
  H      3.063621   -4.126316   -0.455461
  H      3.105368   -2.844654   -1.683616
  H      3.754318   -2.542700   -0.062715
  H     -0.726906    2.201211    1.558039
  H      0.653014    1.348608    2.338158
  H     -2.963016    3.281799   -0.824391
  H     -2.209293    2.151106   -1.987988
  H     -4.616020    2.479163   -2.539361
  H     -4.288534    0.808209   -2.055441
  H     -5.069469    1.924575   -0.918435
  H     -3.734305   -1.448271    2.038948
  H     -4.138610    0.214177    1.539446
  H     -6.192460   -1.215632    1.728904
  H     -5.944787   -0.669532    0.061164
  H     -5.520345   -2.320665    0.517928

 Total Charge           Charge          ....    0
 Multiplicity           Mult            ....    1
 Number of Electrons    NEL             ....  202
 Basis Dimension        Dim             ....  539

ORBITAL ENERGIES
----------------

  NO   OCC          E(Eh)            E(eV)
   0   2.0000     -88.572591     -2410.1827
   1   2.0000     -88.571436     -2410.1513
   2   2.0000     -88.516303     -2408.6511
   3   2.0000     -88.510032     -2408.4804
   4   2.0000     -76.909407     -2092.8114
   5   2.0000     -76.909295     -2092.8083
   6   2.0000     -18.992452      -516.8109
   7   2.0000     -18.989775      -516.7380
   8   2.0000     -18.989770      -516.7379
   9   2.0000     -18.980113      -516.4751
  10   2.0000     -10.106598      -275.0145
  11   2.0000     -10.101468      -274.8749
  12   2.0000     -10.098067      -274.7824
  13   2.0000     -10.096591      -274.7422
  14   2.0000     -10.087405      -274.4922
  15   2.0000     -10.035465      -273.0789
  16   2.0000     -10.031532      -272.9719
  17   2.0000     -10.031160      -272.9617
  18   2.0000     -10.020879      -272.6820
  19   2.0000      -7.867021      -214.0725
  20   2.0000      -7.865751      -214.0380
  21   2.0000      -7.811216      -212.5540
  22   2.0000      -7.804820      -212.3799
  23   2.0000      -6.587894      -179.2657
  24   2.0000      -6.587653      -179.2591
  25   2.0000      -5.813902      -158.2043
  26   2.0000      -5.812889      -158.1767
  27   2.0000      -5.810910      -158.1229
  28   2.0000      -5.809407      -158.0820
  29   2.0000      -5.804078      -157.9370
  30   2.0000      -5.802798      -157.9022
  31   2.0000      -5.758754      -156.7037
  32   2.0000      -5.752704      -156.5390
  33   2.0000      -5.751561      -156.5079
  34   2.0000      -5.751234      -156.4990
  35   2.0000      -5.745043      -156.3306
  36   2.0000      -5.744653      -156.3200
  37   2.0000      -4.733740      -128.8116
  38   2.0000      -4.733230      -128.7977
  39   2.0000      -4.732803      -128.7861
  40   2.0000      -4.732512      -128.7782
  41   2.0000      -4.731796      -128.7587
  42   2.0000      -4.730918      -128.7348
  43   2.0000      -1.046860       -28.4865
  44   2.0000      -1.044561       -28.4239
  45   2.0000      -1.010003       -27.4836
  46   2.0000      -1.005112       -27.3505
  47   2.0000      -0.799647       -21.7595
  48   2.0000      -0.758305       -20.6345
  49   2.0000      -0.748349       -20.3636
  50   2.0000      -0.736307       -20.0359
  51   2.0000      -0.726638       -19.7728
  52   2.0000      -0.704012       -19.1572
  53   2.0000      -0.681641       -18.5484
  54   2.0000      -0.667039       -18.1510
  55   2.0000      -0.626177       -17.0391
  56   2.0000      -0.618736       -16.8367
  57   2.0000      -0.605486       -16.4761
  58   2.0000      -0.597381       -16.2556
  59   2.0000      -0.591383       -16.0924
  60   2.0000      -0.529910       -14.4196
  61   2.0000      -0.521835       -14.1999
  62   2.0000      -0.500952       -13.6316
  63   2.0000      -0.489739       -13.3265
  64   2.0000      -0.473762       -12.8917
  65   2.0000      -0.460523       -12.5315
  66   2.0000      -0.459609       -12.5066
  67   2.0000      -0.449435       -12.2297
  68   2.0000      -0.441015       -12.0006
  69   2.0000      -0.422497       -11.4967
  70   2.0000      -0.420380       -11.4391
  71   2.0000      -0.412664       -11.2292
  72   2.0000      -0.408753       -11.1227
  73   2.0000      -0.406440       -11.0598
  74   2.0000      -0.393346       -10.7035
  75   2.0000      -0.384974       -10.4757
  76   2.0000      -0.380768       -10.3612
  77   2.0000      -0.373444       -10.1619
  78   2.0000      -0.370640       -10.0856
  79   2.0000      -0.366997        -9.9865
  80   2.0000      -0.362038        -9.8516
  81   2.0000      -0.358792        -9.7632
  82   2.0000      -0.356626        -9.7043
  83   2.0000      -0.352043        -9.5796
  84   2.0000      -0.343412        -9.3447
  85   2.0000      -0.331808        -9.0290
  86   2.0000      -0.324241        -8.8231
  87   2.0000      -0.320438        -8.7196
  88   2.0000      -0.312047        -8.4912
  89   2.0000      -0.296041        -8.0557
  90   2.0000      -0.293414        -7.9842
  91   2.0000      -0.283653        -7.7186
  92   2.0000      -0.282495        -7.6871
  93   2.0000      -0.280600        -7.6355
  94   2.0000      -0.274155        -7.4601
  95   2.0000      -0.247100        -6.7239
  96   2.0000      -0.228341        -6.2135
  97   2.0000      -0.218408        -5.9432
  98   2.0000      -0.215189        -5.8556
  99   2.0000      -0.205324        -5.5872
 100   2.0000      -0.199897        -5.4395
 101   0.0000      -0.047946        -1.3047
 102   0.0000      -0.020438        -0.5562
 103   0.0000      -0.006917        -0.1882
 104   0.0000       0.010803         0.2940
 105   0.0000       0.020455         0.5566

MULLIKEN ATOMIC CHARGES
-----------------------
   0 C :   -0.442331
   1 C :   -0.152323
   2 O :   -0.287431
   3 P :    0.725331
   4 S :   -0.497143
   5 O :   -0.252796
   6 C :   -0.158246
   7 C :   -0.449101
   8 S :   -0.149897
   9 C :   -0.214691
  10 S :   -0.158304
  11 P :    0.692825
  12 S :   -0.423993
  13 O :   -0.331951
  14 C :   -0.145070
  15 C :   -0.464660
  16 O :   -0.282720
  17 C :   -0.121335
  18 C :   -0.455692
  19 H :    0.155524
  20 H :    0.146087
  21 H :    0.155531
  22 H :    0.150219
  23 H :    0.171521
  24 H :    0.170131
  25 H :    0.164772
  26 H :    0.145669
  27 H :    0.158581
  28 H :    0.165774
  29 H :    0.186635
  30 H :    0.210002
  31 H :    0.146614
  32 H :    0.181120
  33 H :    0.149223
  34 H :    0.185214
  35 H :    0.147799
  36 H :    0.154352
  37 H :    0.162938
  38 H :    0.147677
  39 H :    0.154068
  40 H :    0.160074
Sum of atomic charges:   -0.0000000

LOEWDIN ATOMIC CHARGES
----------------------
   0 C :   -0.386199
   1 C :    0.020079
   2 O :   -0.659674
   3 P :    0.374203
   4 S :   -0.139167
   5 O :   -0.674879
   6 C :    0.019371
   7 C :   -0.400592
   8 S :    0.168346
   9 C :   -0.411900
  10 S :    0.171824
  11 P :    0.379850
  12 S :   -0.067227
  13 O :   -0.706582
  14 C :    0.016572
  15 C :   -0.400729
  16 O :   -0.667663
  17 C :    0.015053
  18 C :   -0.386442
  19 H :    0.160624
  20 H :    0.159597
  21 H :    0.160248
  22 H :    0.171376
  23 H :    0.181052
  24 H :    0.179841
  25 H :    0.185710
  26 H :    0.158791
  27 H :    0.161476
  28 H :    0.163589
  29 H :    0.183033
  30 H :    0.191420
  31 H :    0.176660
  32 H :    0.183725
  33 H :    0.161026
  34 H :    0.169335
  35 H :    0.154859
  36 H :    0.174562
  37 H :    0.177163
  38 H :    0.159358
  39 H :    0.159243
  40 H :    0.163069

  Mayer bond orders larger than 0.100000
B(  0-C ,  1-C ) :   0.9596 B(  0-C , 19-H ) :   0.9714 B(  0-C , 20-H ) :   0.9647
B(  0-C , 21-H ) :   0.9708 B(  1-C ,  2-O ) :   0.7742 B(  1-C , 22-H ) :   0.9475
B(  1-C , 23-H ) :   0.9537 B(  2-O ,  3-P ) :   1.0911 B(  3-P ,  4-S ) :   1.7258
B(  3-P ,  5-O ) :   1.1812 B(  3-P ,  8-S ) :   1.0568 B(  5-O ,  6-C ) :   0.7823
B(  6-C ,  7-C ) :   0.9197 B(  6-C , 24-H ) :   0.9663 B(  6-C , 25-H ) :   0.9587
B(  7-C , 26-H ) :   0.9625 B(  7-C , 27-H ) :   0.9719 B(  7-C , 28-H ) :   0.9617
B(  8-S ,  9-C ) :   0.9207 B(  9-C , 10-S ) :   0.9046 B(  9-C , 29-H ) :   0.9163
B(  9-C , 30-H ) :   0.9104 B( 10-S , 11-P ) :   1.0327 B( 11-P , 12-S ) :   1.8672
B( 11-P , 13-O ) :   1.0441 B( 11-P , 16-O ) :   1.1137 B( 13-O , 14-C ) :   0.8029
B( 14-C , 15-C ) :   0.9209 B( 14-C , 31-H ) :   0.9620 B( 14-C , 32-H ) :   0.9590
B( 15-C , 33-H ) :   0.9606 B( 15-C , 34-H ) :   0.9607 B( 15-C , 35-H ) :   0.9727
B( 16-O , 17-C ) :   0.7408 B( 17-C , 18-C ) :   0.9574 B( 17-C , 36-H ) :   0.9416
B( 17-C , 37-H ) :   0.9636 B( 18-C , 38-H ) :   0.9662 B( 18-C , 39-H ) :   0.9707
B( 18-C , 40-H ) :   0.9716

Dispersion correction           -0.021306991
FINAL SINGLE POINT ENERGY     -2932.458186728312

DIPOLE MOMENT
-------------

Method             : SCF
Type of density    : Electron Density
Multiplicity       :   1
Irrep              :   0
Energy             : -2932.4830762334595420 Eh
Relativity type    :
Basis              : AO
                                X                 Y                 Z
Electronic contribution:      4.977350843       2.018520602       5.397470322
Nuclear contribution   :     -5.715001159      -1.255061707      -5.231381497
                        -----------------------------------------
Total Dipole Moment    :     -0.737650316       0.763458894       0.166088825
                        -----------------------------------------
Magnitude (a.u.)       :      1.074515226
Magnitude (Debye)      :      2.731200651

Rotational constants in cm-1:             0.014293             0.004535             0.004328
Rotational constants in MHz :           428.494860           135.950861           129.760471

                             ****ORCA TERMINATED NORMALLY****
TOTAL RUN TIME: 0 days 0 hours 1 minutes 16 seconds 174 msec
