                         Program Version 6.0.0  -   RELEASE  -
|  1> ! r2scan-3c def2/J RI DEFGRID2 scfconv6 printgap
|  2> %output
|  3>     printlevel normal
|  4> end
|  5> %cpcm
|  6>     smd true
|  7>     smdsolvent "water"
|  8> end
|  9> * xyz 0 1
| 10> C 5.6489667288 0.7383416184 -1.380945963
| 11> C 4.4614948018 1.1483435372 -0.5334279448
| 12> O 3.3764449025 0.2393052141 -0.8145547623
| 13> P 2.2167006661 -0.0339873398 0.2317537467
| 14> S 2.8121424043 -0.3644246107 2.0725588043
| 15> O 1.405293891 -1.1924399796 -0.4709532195
| 16> C 1.6156443873 -2.5845805902 -0.1629758683
| 17> C 2.9764114719 -3.0578539824 -0.6256436073
| 18> S 0.9188341067 1.6054729663 -0.0417878455
| 19> C -0.0288994651 1.3717458091 1.4874239121
| 20> S -0.9334439328 -0.2026013107 1.5448068809
| 21> P -2.0727877083 -0.0487822826 -0.2425172114
| 22> S -1.343391083 -0.5150101287 -1.9922509695
| 23> O -2.5648661578 1.4623763211 -0.0696458024
| 24> C -2.9638274742 2.2587031498 -1.202637356
| 25> C -4.3288115966 1.8410410234 -1.7097192946
| 26> O -3.2980375103 -1.0023957837 0.0759786963
| 27> C -4.1517480234 -0.8357186434 1.236783768
| 28> C -5.5471161593 -1.2899678161 0.8595792172
| 29> H 5.3733109422 0.7464653394 -2.4315014575
| 30> H 6.4616991382 1.43788307 -1.2155459219
| 31> H 5.9765075435 -0.2617550225 -1.1109948437
| 32> H 4.1258656102 2.1593108726 -0.7782530216
| 33> H 4.6941799145 1.0945984727 0.5356672757
| 34> H 1.4990516669 -2.7201550996 0.9177541515
| 35> H 0.8041691209 -3.0900906196 -0.6896515508
| 36> H 3.0636209944 -4.1263159573 -0.4554607162
| 37> H 3.1053682474 -2.8446543336 -1.6836160994
| 38> H 3.7543183848 -2.5426999631 -0.0627154651
| 39> H -0.7269058951 2.2012110681 1.5580390263
| 40> H 0.6530143789 1.3486078467 2.3381576456
| 41> H -2.9630155547 3.2817986062 -0.8243911434
| 42> H -2.2092933109 2.1511056744 -1.9879875652
| 43> H -4.6160202645 2.4791627602 -2.5393614644
| 44> H -4.2885342925 0.8082086052 -2.0554413694
| 45> H -5.0694692859 1.9245748115 -0.9184348434
| 46> H -3.7343054741 -1.4482705842 2.0389477503
| 47> H -4.1386099258 0.2141768265 1.5394460124
| 48> H -6.1924599938 -1.2156320545 1.7289037471
| 49> H -5.9447869574 -0.6695321685 0.0611635197
| 50> H -5.5203449013 -2.3206652986 0.5179276421
| 51> *
| 52>
| 53>                          ****END OF INPUT****

CARTESIAN COORDINATES (ANGSTROEM)
---------------------------------
  C      5.648967    0.738342   -1.380946
  C      4.461495    1.148344   -0.533428
  O      3.376445    0.239305   -0.814555
  P      2.216701   -0.033987    0.231754
  S      2.812142   -0.364425    2.072559
  O      1.405294   -1.192440   -0.470953
  C      1.615644   -2.584581   -0.162976
  C      2.976411   -3.057854   -0.625644
  S      0.918834    1.605473   -0.041788
  C     -0.028899    1.371746    1.487424
  S     -0.933444   -0.202601    1.544807
  P     -2.072788   -0.048782   -0.242517
  S     -1.343391   -0.515010   -1.992251
  O     -2.564866    1.462376   -0.069646
  C     -2.963827    2.258703   -1.202637
  C     -4.328812    1.841041   -1.709719
  O     -3.298038   -1.002396    0.075979
  C     -4.151748   -0.835719    1.236784
  C     -5.547116   -1.289968    0.859579
  H      5.373311    0.746465   -2.431501
  H      6.461699    1.437883   -1.215546
  H      5.976508   -0.261755   -1.110995
  H      4.125866    2.159311   -0.778253
  H      4.694180    1.094598    0.535667
  H      1.499052   -2.720155    0.917754
  H      0.804169   -3.090091   -0.689652
  H      3.063621   -4.126316   -0.455461
  H      3.105368   -2.844654   -1.683616
  H      3.754318   -2.542700   -0.062715
  H     -0.726906    2.201211    1.558039
  H      0.653014    1.348608    2.338158
  H     -2.963016    3.281799   -0.824391
  H     -2.209293    2.151106   -1.987988
  H     -4.616020    2.479163   -2.539361
  H     -4.288534    0.808209   -2.055441
  H     -5.069469    1.924575   -0.918435
  H     -3.734305   -1.448271    2.038948
  H     -4.138610    0.214177    1.539446
  H     -6.192460   -1.215632    1.728904
  H     -5.944787   -0.669532    0.061164
  H     -5.520345   -2.320665    0.517928

 Total Charge           Charge          ....    0
 Multiplicity           Mult            ....    1
 Number of Electrons    NEL             ....  202
 Basis Dimension        Dim             ....  539

ORBITAL ENERGIES
----------------

  NO   OCC          E(Eh)            E(eV)
   0   2.0000     -88.578400     -2410.3408
   1   2.0000     -88.575891     -2410.2725
   2   2.0000     -88.526193     -2408.9202
   3   2.0000     -88.521635     -2408.7961
   4   2.0000     -76.917367     -2093.0280
   5   2.0000     -76.916273     -2092.9982
   6   2.0000     -18.995394      -516.8909
   7   2.0000     -18.992999      -516.8258
   8   2.0000     -18.992261      -516.8057
   9   2.0000     -18.988442      -516.7018
  10   2.0000     -10.105306      -274.9794
  11   2.0000     -10.090163      -274.5673
  12   2.0000     -10.090009      -274.5631
  13   2.0000     -10.087908      -274.5059
  14   2.0000     -10.087328      -274.4901
  15   2.0000     -10.019682      -272.6494
  16   2.0000     -10.019543      -272.6456
  17   2.0000     -10.018101      -272.6064
  18   2.0000     -10.018001      -272.6037
  19   2.0000      -7.872809      -214.2300
  20   2.0000      -7.870225      -214.1597
  21   2.0000      -7.821368      -212.8302
  22   2.0000      -7.816835      -212.7069
  23   2.0000      -6.596047      -179.4876
  24   2.0000      -6.594509      -179.4457
  25   2.0000      -5.819648      -158.3607
  26   2.0000      -5.817366      -158.2986
  27   2.0000      -5.816683      -158.2800
  28   2.0000      -5.813862      -158.2032
  29   2.0000      -5.809939      -158.0965
  30   2.0000      -5.807295      -158.0245
  31   2.0000      -5.768857      -156.9786
  32   2.0000      -5.764593      -156.8626
  33   2.0000      -5.761678      -156.7832
  34   2.0000      -5.761420      -156.7762
  35   2.0000      -5.757026      -156.6566
  36   2.0000      -5.756749      -156.6491
  37   2.0000      -4.741361      -129.0190
  38   2.0000      -4.740970      -129.0084
  39   2.0000      -4.740503      -128.9957
  40   2.0000      -4.739973      -128.9812
  41   2.0000      -4.739340      -128.9640
  42   2.0000      -4.737954      -128.9263
  43   2.0000      -1.051269       -28.6065
  44   2.0000      -1.047852       -28.5135
  45   2.0000      -1.011586       -27.5267
  46   2.0000      -1.010458       -27.4960
  47   2.0000      -0.802209       -21.8292
  48   2.0000      -0.755543       -20.5594
  49   2.0000      -0.743889       -20.2422
  50   2.0000      -0.725831       -19.7509
  51   2.0000      -0.723463       -19.6864
  52   2.0000      -0.704824       -19.1792
  53   2.0000      -0.686264       -18.6742
  54   2.0000      -0.674790       -18.3620
  55   2.0000      -0.627372       -17.0717
  56   2.0000      -0.614568       -16.7232
  57   2.0000      -0.597789       -16.2667
  58   2.0000      -0.594027       -16.1643
  59   2.0000      -0.590455       -16.0671
  60   2.0000      -0.528141       -14.3714
  61   2.0000      -0.520276       -14.1574
  62   2.0000      -0.496334       -13.5059
  63   2.0000      -0.492190       -13.3932
  64   2.0000      -0.473184       -12.8760
  65   2.0000      -0.458004       -12.4629
  66   2.0000      -0.451891       -12.2966
  67   2.0000      -0.446464       -12.1489
  68   2.0000      -0.440780       -11.9942
  69   2.0000      -0.422328       -11.4921
  70   2.0000      -0.417260       -11.3542
  71   2.0000      -0.409593       -11.1456
  72   2.0000      -0.408008       -11.1025
  73   2.0000      -0.404887       -11.0175
  74   2.0000      -0.394040       -10.7224
  75   2.0000      -0.383225       -10.4281
  76   2.0000      -0.377189       -10.2638
  77   2.0000      -0.366856        -9.9827
  78   2.0000      -0.362819        -9.8728
  79   2.0000      -0.361413        -9.8346
  80   2.0000      -0.352836        -9.6011
  81   2.0000      -0.350495        -9.5375
  82   2.0000      -0.349010        -9.4970
  83   2.0000      -0.348181        -9.4745
  84   2.0000      -0.342693        -9.3251
  85   2.0000      -0.330102        -8.9825
  86   2.0000      -0.320898        -8.7321
  87   2.0000      -0.315645        -8.5891
  88   2.0000      -0.311646        -8.4803
  89   2.0000      -0.298010        -8.1093
  90   2.0000      -0.294782        -8.0214
  91   2.0000      -0.287972        -7.8361
  92   2.0000      -0.281738        -7.6665
  93   2.0000      -0.278499        -7.5783
  94   2.0000      -0.276685        -7.5290
  95   2.0000      -0.253746        -6.9048
  96   2.0000      -0.235392        -6.4053
  97   2.0000      -0.229214        -6.2372
  98   2.0000      -0.226039        -6.1508
  99   2.0000      -0.215691        -5.8692
 100   2.0000      -0.212044        -5.7700
 101   0.0000      -0.053775        -1.4633
 102   0.0000      -0.028159        -0.7662
 103   0.0000      -0.012057        -0.3281
 104   0.0000       0.004855         0.1321
 105   0.0000       0.015657         0.4260

MULLIKEN ATOMIC CHARGES
-----------------------
   0 C :   -0.484841
   1 C :   -0.144158
   2 O :   -0.313437
   3 P :    0.743641
   4 S :   -0.541758
   5 O :   -0.274798
   6 C :   -0.157661
   7 C :   -0.485463
   8 S :   -0.158728
   9 C :   -0.221349
  10 S :   -0.172655
  11 P :    0.717544
  12 S :   -0.495883
  13 O :   -0.339808
  14 C :   -0.136137
  15 C :   -0.492002
  16 O :   -0.313811
  17 C :   -0.109244
  18 C :   -0.505567
  19 H :    0.166438
  20 H :    0.169782
  21 H :    0.166164
  22 H :    0.172419
  23 H :    0.172249
  24 H :    0.175767
  25 H :    0.178174
  26 H :    0.171933
  27 H :    0.169719
  28 H :    0.168201
  29 H :    0.224092
  30 H :    0.227183
  31 H :    0.175499
  32 H :    0.176240
  33 H :    0.171299
  34 H :    0.172561
  35 H :    0.169250
  36 H :    0.172679
  37 H :    0.178817
  38 H :    0.171094
  39 H :    0.168704
  40 H :    0.167856
Sum of atomic charges:   -0.0000000

LOEWDIN ATOMIC CHARGES
----------------------
   0 C :   -0.389957
   1 C :    0.025076
   2 O :   -0.675285
   3 P :    0.376282
   4 S :   -0.167117
   5 O :   -0.691571
   6 C :    0.021063
   7 C :   -0.403405
   8 S :    0.164850
   9 C :   -0.402029
  10 S :    0.167473
  11 P :    0.384711
  12 S :   -0.118336
  13 O :   -0.703817
  14 C :    0.022974
  15 C :   -0.402558
  16 O :   -0.686603
  17 C :    0.022376
  18 C :   -0.390103
  19 H :    0.163401
  20 H :    0.168971
  21 H :    0.162382
  22 H :    0.180216
  23 H :    0.182061
  24 H :    0.181693
  25 H :    0.190584
  26 H :    0.168482
  27 H :    0.163993
  28 H :    0.162599
  29 H :    0.197246
  30 H :    0.197219
  31 H :    0.188995
  32 H :    0.181775
  33 H :    0.168525
  34 H :    0.163219
  35 H :    0.163014
  36 H :    0.181715
  37 H :    0.184114
  38 H :    0.169185
  39 H :    0.162723
  40 H :    0.163865

  Mayer bond orders larger than 0.100000
B(  0-C ,  1-C ) :   0.9543 B(  0-C , 19-H ) :   0.9690 B(  0-C , 20-H ) :   0.9585
B(  0-C , 21-H ) :   0.9685 B(  1-C ,  2-O ) :   0.7659 B(  1-C , 22-H ) :   0.9384
B(  1-C , 23-H ) :   0.9499 B(  2-O ,  3-P ) :   1.0962 B(  3-P ,  4-S ) :   1.6888
B(  3-P ,  5-O ) :   1.1840 B(  3-P ,  8-S ) :   1.0787 B(  5-O ,  6-C ) :   0.7733
B(  6-C ,  7-C ) :   0.9114 B(  6-C , 24-H ) :   0.9611 B(  6-C , 25-H ) :   0.9526
B(  7-C , 26-H ) :   0.9565 B(  7-C , 27-H ) :   0.9706 B(  7-C , 28-H ) :   0.9602
B(  8-S ,  9-C ) :   0.9157 B(  9-C , 10-S ) :   0.8964 B(  9-C , 29-H ) :   0.9052
B(  9-C , 30-H ) :   0.9063 B( 10-S , 11-P ) :   1.0455 B( 11-P , 12-S ) :   1.8213
B( 11-P , 13-O ) :   1.0671 B( 11-P , 16-O ) :   1.1237 B( 13-O , 14-C ) :   0.7873
B( 14-C , 15-C ) :   0.9165 B( 14-C , 31-H ) :   0.9520 B( 14-C , 32-H ) :   0.9583
B( 15-C , 33-H ) :   0.9565 B( 15-C , 34-H ) :   0.9628 B( 15-C , 35-H ) :   0.9673
B( 16-O , 17-C ) :   0.7325 B( 17-C , 18-C ) :   0.9496 B( 17-C , 36-H ) :   0.9344
B( 17-C , 37-H ) :   0.9517 B( 18-C , 38-H ) :   0.9591 B( 18-C , 39-H ) :   0.9688
B( 18-C , 40-H ) :   0.9707

Dispersion correction           -0.021306991
FINAL SINGLE POINT ENERGY     -2932.468821184156

DIPOLE MOMENT
-------------

Method             : SCF
Type of density    : Electron Density
Multiplicity       :   1
Irrep              :   0
Energy             : -2932.4937106893034979 Eh
Relativity type    :
Basis              : AO
                                X                 Y                 Z
Electronic contribution:      4.670264801       2.561518366       5.778847035
Nuclear contribution   :     -5.715001159      -1.255061707      -5.231381497
                        -----------------------------------------
Total Dipole Moment    :     -1.044736358       1.306456659       0.547465538
                        -----------------------------------------
Magnitude (a.u.)       :      1.760119762
Magnitude (Debye)      :      4.473868890

Rotational constants in cm-1:             0.014293             0.004535             0.004328
Rotational constants in MHz :           428.494860           135.950861           129.760471

                             ****ORCA TERMINATED NORMALLY****
TOTAL RUN TIME: 0 days 0 hours 1 minutes 48 seconds 286 msec
