                         Program Version 6.0.0  -   RELEASE  -
|  1> ! pbe def2-sv(p) def2/J RI DEFGRID1 loosescf d4 GCP(DFT/SV(P)) printgap
|  2> %output
|  3>     printlevel normal
|  4> end
|  5> * xyz 0 1
|  6> C 6.0897117643 0.168810356 -1.5247938276
|  7> C 4.6874960927 0.6466961198 -1.2068838109
|  8> O 3.9730783346 -0.4533480211 -0.6043447224
|  9> P 2.6383482437 -0.1963881456 0.1971499427
| 10> S 2.7290541512 1.1502497614 1.624358272
| 11> O 2.4463375539 -1.6940912775 0.6585179357
| 12> C 1.4278863783 -2.1124423026 1.5881216645
| 13> C 0.3380788431 -2.8785467271 0.8632094969
| 14> S 1.2122565293 0.2234493003 -1.3366280351
| 15> C 0.2026647505 1.432381921 -0.433882743
| 16> S -0.8591897963 0.6976753991 0.8362087566
| 17> P -2.4638173413 0.1420611425 -0.4673672754
| 18> S -2.0314526536 -1.0985031227 -1.915823461
| 19> O -3.0089648958 1.5162106584 -1.0134428232
| 20> C -3.5405240894 2.5664973159 -0.164039142
| 21> C -5.0473548269 2.4596716576 -0.0560373816
| 22> O -3.604695212 -0.3401329491 0.5243075297
| 23> C -3.5993192116 -1.6484379518 1.1280552657
| 24> C -2.9710506559 -1.6048692189 2.5072259962
| 25> H 6.5972422092 -0.1291132196 -0.6118385782
| 26> H 6.0454973251 -0.6838178949 -2.1960186665
| 27> H 6.6424435579 0.9735776776 -1.998206219
| 28> H 4.1537062162 0.9476818096 -2.1130657987
| 29> H 4.7010978934 1.4854198794 -0.5018405539
| 30> H 1.9441767163 -2.7542311413 2.3049773843
| 31> H 1.0292858332 -1.2362337289 2.1121335975
| 32> H 0.7742450474 -3.705911048 0.3108731102
| 33> H -0.3715921606 -3.2644253182 1.5878215405
| 34> H -0.1861422368 -2.2384460019 0.1551298559
| 35> H -0.4091688722 1.9367906519 -1.1784152406
| 36> H 0.8606766627 2.1278932008 0.0873788166
| 37> H -3.0666703835 2.5027668598 0.8190326129
| 38> H -3.244263958 3.4925794802 -0.6603933641
| 39> H -5.4214859326 3.3027726268 0.5164515076
| 40> H -5.4932152033 2.4726803509 -1.0468826281
| 41> H -5.3261151467 1.5351842993 0.4416099995
| 42> H -4.6520773804 -1.9315314214 1.1822400961
| 43> H -3.0718414992 -2.3411395717 0.4644764407
| 44> H -3.0148032508 -2.5948728421 2.9495862263
| 45> H -1.9329395388 -1.2857147057 2.444335021
| 46> H -3.5101769593 -0.9065843549 3.1409315366
| 47> *
| 48>
| 49>                          ****END OF INPUT****

CARTESIAN COORDINATES (ANGSTROEM)
---------------------------------
  C      6.089712    0.168810   -1.524794
  C      4.687496    0.646696   -1.206884
  O      3.973078   -0.453348   -0.604345
  P      2.638348   -0.196388    0.197150
  S      2.729054    1.150250    1.624358
  O      2.446338   -1.694091    0.658518
  C      1.427886   -2.112442    1.588122
  C      0.338079   -2.878547    0.863209
  S      1.212257    0.223449   -1.336628
  C      0.202665    1.432382   -0.433883
  S     -0.859190    0.697675    0.836209
  P     -2.463817    0.142061   -0.467367
  S     -2.031453   -1.098503   -1.915823
  O     -3.008965    1.516211   -1.013443
  C     -3.540524    2.566497   -0.164039
  C     -5.047355    2.459672   -0.056037
  O     -3.604695   -0.340133    0.524308
  C     -3.599319   -1.648438    1.128055
  C     -2.971051   -1.604869    2.507226
  H      6.597242   -0.129113   -0.611839
  H      6.045497   -0.683818   -2.196019
  H      6.642444    0.973578   -1.998206
  H      4.153706    0.947682   -2.113066
  H      4.701098    1.485420   -0.501841
  H      1.944177   -2.754231    2.304977
  H      1.029286   -1.236234    2.112134
  H      0.774245   -3.705911    0.310873
  H     -0.371592   -3.264425    1.587822
  H     -0.186142   -2.238446    0.155130
  H     -0.409169    1.936791   -1.178415
  H      0.860677    2.127893    0.087379
  H     -3.066670    2.502767    0.819033
  H     -3.244264    3.492579   -0.660393
  H     -5.421486    3.302773    0.516452
  H     -5.493215    2.472680   -1.046883
  H     -5.326115    1.535184    0.441610
  H     -4.652077   -1.931531    1.182240
  H     -3.071841   -2.341140    0.464476
  H     -3.014803   -2.594873    2.949586
  H     -1.932940   -1.285715    2.444335
  H     -3.510177   -0.906584    3.140932

 Total Charge           Charge          ....    0
 Multiplicity           Mult            ....    1
 Number of Electrons    NEL             ....  202
 Basis Dimension        Dim             ....  334

ORBITAL ENERGIES
----------------

  NO   OCC          E(Eh)            E(eV)
   0   2.0000     -88.046740     -2395.8736
   1   2.0000     -88.039363     -2395.6729
   2   2.0000     -87.987986     -2394.2748
   3   2.0000     -87.986673     -2394.2391
   4   2.0000     -76.430567     -2079.7815
   5   2.0000     -76.423922     -2079.6006
   6   2.0000     -18.802358      -511.6382
   7   2.0000     -18.800525      -511.5883
   8   2.0000     -18.789291      -511.2826
   9   2.0000     -18.786486      -511.2063
  10   2.0000      -9.961782      -271.0739
  11   2.0000      -9.961268      -271.0599
  12   2.0000      -9.956611      -270.9332
  13   2.0000      -9.951244      -270.7871
  14   2.0000      -9.947947      -270.6974
  15   2.0000      -9.894947      -269.2552
  16   2.0000      -9.890689      -269.1393
  17   2.0000      -9.885646      -269.0021
  18   2.0000      -9.875617      -268.7292
  19   2.0000      -7.690969      -209.2819
  20   2.0000      -7.684153      -209.0964
  21   2.0000      -7.633007      -207.7047
  22   2.0000      -7.631710      -207.6694
  23   2.0000      -6.428036      -174.9158
  24   2.0000      -6.421548      -174.7392
  25   2.0000      -5.718580      -155.6105
  26   2.0000      -5.715562      -155.5283
  27   2.0000      -5.711981      -155.4309
  28   2.0000      -5.708629      -155.3397
  29   2.0000      -5.708256      -155.3295
  30   2.0000      -5.701270      -155.1394
  31   2.0000      -5.661741      -154.0638
  32   2.0000      -5.660749      -154.0368
  33   2.0000      -5.653783      -153.8473
  34   2.0000      -5.653202      -153.8315
  35   2.0000      -5.652387      -153.8093
  36   2.0000      -5.651702      -153.7906
  37   2.0000      -4.651133      -126.5638
  38   2.0000      -4.649847      -126.5288
  39   2.0000      -4.647928      -126.4765
  40   2.0000      -4.643770      -126.3634
  41   2.0000      -4.643558      -126.3576
  42   2.0000      -4.642002      -126.3153
  43   2.0000      -0.996552       -27.1176
  44   2.0000      -0.987433       -26.8694
  45   2.0000      -0.954378       -25.9699
  46   2.0000      -0.942550       -25.6481
  47   2.0000      -0.763064       -20.7640
  48   2.0000      -0.724306       -19.7094
  49   2.0000      -0.714199       -19.4343
  50   2.0000      -0.698902       -19.0181
  51   2.0000      -0.682034       -18.5591
  52   2.0000      -0.675052       -18.3691
  53   2.0000      -0.650465       -17.7001
  54   2.0000      -0.638189       -17.3660
  55   2.0000      -0.599703       -16.3188
  56   2.0000      -0.594024       -16.1642
  57   2.0000      -0.580987       -15.8095
  58   2.0000      -0.564629       -15.3643
  59   2.0000      -0.556013       -15.1299
  60   2.0000      -0.510930       -13.9031
  61   2.0000      -0.502934       -13.6855
  62   2.0000      -0.487914       -13.2768
  63   2.0000      -0.474723       -12.9179
  64   2.0000      -0.464070       -12.6280
  65   2.0000      -0.451929       -12.2976
  66   2.0000      -0.440187       -11.9781
  67   2.0000      -0.437414       -11.9026
  68   2.0000      -0.431517       -11.7422
  69   2.0000      -0.417242       -11.3537
  70   2.0000      -0.406688       -11.0665
  71   2.0000      -0.398118       -10.8333
  72   2.0000      -0.394705       -10.7405
  73   2.0000      -0.390121       -10.6157
  74   2.0000      -0.379618       -10.3299
  75   2.0000      -0.371736       -10.1155
  76   2.0000      -0.366074        -9.9614
  77   2.0000      -0.363879        -9.9017
  78   2.0000      -0.361037        -9.8243
  79   2.0000      -0.355204        -9.6656
  80   2.0000      -0.354418        -9.6442
  81   2.0000      -0.348463        -9.4822
  82   2.0000      -0.343395        -9.3442
  83   2.0000      -0.334486        -9.1018
  84   2.0000      -0.331382        -9.0174
  85   2.0000      -0.326089        -8.8733
  86   2.0000      -0.315268        -8.5789
  87   2.0000      -0.302697        -8.2368
  88   2.0000      -0.299709        -8.1555
  89   2.0000      -0.298774        -8.1301
  90   2.0000      -0.290028        -7.8921
  91   2.0000      -0.279393        -7.6027
  92   2.0000      -0.267989        -7.2923
  93   2.0000      -0.265277        -7.2185
  94   2.0000      -0.257604        -7.0098
  95   2.0000      -0.242430        -6.5969
  96   2.0000      -0.217776        -5.9260
  97   2.0000      -0.211193        -5.7468
  98   2.0000      -0.207107        -5.6357
  99   2.0000      -0.202237        -5.5031
 100   2.0000      -0.193361        -5.2616
 101   0.0000      -0.042824        -1.1653
 102   0.0000      -0.030503        -0.8300
 103   0.0000      -0.009649        -0.2626
 104   0.0000       0.003409         0.0928
 105   0.0000       0.011517         0.3134

MULLIKEN ATOMIC CHARGES
-----------------------
   0 C :   -0.278290
   1 C :   -0.010724
   2 O :   -0.360040
   3 P :    0.591027
   4 S :   -0.337638
   5 O :   -0.351486
   6 C :   -0.011564
   7 C :   -0.315001
   8 S :   -0.073072
   9 C :   -0.348054
  10 S :   -0.104195
  11 P :    0.586921
  12 S :   -0.287843
  13 O :   -0.361644
  14 C :   -0.014166
  15 C :   -0.290337
  16 O :   -0.378802
  17 C :   -0.012151
  18 C :   -0.320404
  19 H :    0.121082
  20 H :    0.119232
  21 H :    0.110841
  22 H :    0.102246
  23 H :    0.103256
  24 H :    0.104767
  25 H :    0.111031
  26 H :    0.114275
  27 H :    0.103282
  28 H :    0.135997
  29 H :    0.184843
  30 H :    0.194255
  31 H :    0.104167
  32 H :    0.109646
  33 H :    0.111497
  34 H :    0.121673
  35 H :    0.123485
  36 H :    0.111004
  37 H :    0.112921
  38 H :    0.117599
  39 H :    0.142543
  40 H :    0.117821
Sum of atomic charges:   -0.0000000

LOEWDIN ATOMIC CHARGES
----------------------
   0 C :   -0.349758
   1 C :   -0.120798
   2 O :   -0.236455
   3 P :    0.565294
   4 S :   -0.323534
   5 O :   -0.231696
   6 C :   -0.116517
   7 C :   -0.368520
   8 S :    0.084495
   9 C :   -0.484512
  10 S :    0.080117
  11 P :    0.562916
  12 S :   -0.298549
  13 O :   -0.237880
  14 C :   -0.115911
  15 C :   -0.359012
  16 O :   -0.244004
  17 C :   -0.116721
  18 C :   -0.364420
  19 H :    0.129396
  20 H :    0.128336
  21 H :    0.130293
  22 H :    0.108333
  23 H :    0.107626
  24 H :    0.117939
  25 H :    0.100962
  26 H :    0.127372
  27 H :    0.123351
  28 H :    0.114515
  29 H :    0.133175
  30 H :    0.128610
  31 H :    0.105350
  32 H :    0.120605
  33 H :    0.130600
  34 H :    0.129668
  35 H :    0.126556
  36 H :    0.121351
  37 H :    0.111095
  38 H :    0.132834
  39 H :    0.120089
  40 H :    0.127408

  Mayer bond orders larger than 0.100000
B(  0-C ,  1-C ) :   1.1618 B(  0-C , 19-H ) :   0.9509 B(  0-C , 20-H ) :   0.9506
B(  0-C , 21-H ) :   0.9419 B(  1-C ,  2-O ) :   0.9077 B(  1-C , 22-H ) :   0.9259
B(  1-C , 23-H ) :   0.9107 B(  2-O ,  3-P ) :   1.1311 B(  3-P ,  4-S ) :   1.6026
B(  3-P ,  5-O ) :   1.1432 B(  3-P ,  8-S ) :   0.9444 B(  4-S ,  8-S ) :   0.1231
B(  5-O ,  6-C ) :   0.9050 B(  6-C ,  7-C ) :   1.1652 B(  6-C , 24-H ) :   0.9340
B(  6-C , 25-H ) :   0.9029 B(  7-C , 26-H ) :   0.9437 B(  7-C , 27-H ) :   0.9346
B(  7-C , 28-H ) :   0.9198 B(  8-S ,  9-C ) :   1.0176 B(  9-C , 10-S ) :   0.9850
B(  9-C , 29-H ) :   0.8921 B(  9-C , 30-H ) :   0.8702 B( 10-S , 11-P ) :   0.9470
B( 10-S , 12-S ) :   0.1097 B( 11-P , 12-S ) :   1.6777 B( 11-P , 13-O ) :   1.1204
B( 11-P , 16-O ) :   1.0806 B( 13-O , 14-C ) :   0.8882 B( 14-C , 15-C ) :   1.1686
B( 14-C , 31-H ) :   0.9096 B( 14-C , 32-H ) :   0.9351 B( 15-C , 33-H ) :   0.9394
B( 15-C , 34-H ) :   0.9469 B( 15-C , 35-H ) :   0.9415 B( 16-O , 17-C ) :   0.9014
B( 17-C , 18-C ) :   1.1691 B( 17-C , 36-H ) :   0.9334 B( 17-C , 37-H ) :   0.9054
B( 18-C , 38-H ) :   0.9379 B( 18-C , 39-H ) :   0.9278 B( 18-C , 40-H ) :   0.9456

Dispersion correction           -0.064132677
FINAL SINGLE POINT ENERGY     -2929.523497250702

DIPOLE MOMENT
-------------

Method             : SCF
Type of density    : Electron Density
Multiplicity       :   1
Irrep              :   0
Energy             : -2929.6434621903686093 Eh
Relativity type    :
Basis              : AO
                                X                 Y                 Z
Electronic contribution:      5.892128529       2.586587824      -7.353486910
Nuclear contribution   :     -6.711518977      -2.146805378       7.960609235
                        -----------------------------------------
Total Dipole Moment    :     -0.819390448       0.439782445       0.607122324
                        -----------------------------------------
Magnitude (a.u.)       :      1.110588502
Magnitude (Debye)      :      2.822891634

Rotational constants in cm-1:             0.013587             0.004396             0.004106
Rotational constants in MHz :           407.313985           131.789612           123.084212

                             ****ORCA TERMINATED NORMALLY****
TOTAL RUN TIME: 0 days 0 hours 0 minutes 20 seconds 632 msec
