                         Program Version 6.0.0  -   RELEASE  -
|  1> ! pbe def2-sv(p) def2/J RI DEFGRID1 loosescf d4 GCP(DFT/SV(P)) printgap
|  2> %output
|  3>     printlevel normal
|  4> end
|  5> * xyz 0 1
|  6> C 3.2620404264 2.1802099322 -1.318914302
|  7> C 3.8066706617 1.9123462315 0.0685739457
|  8> O 3.4882039621 0.5847618612 0.5196452881
|  9> P 2.0014547784 0.153046406 0.8756285878
| 10> S 0.9627364703 1.5434773149 1.7853765798
| 11> O 2.2044191415 -1.1440557713 1.7519762327
| 12> C 3.4050373042 -1.9585115341 1.7842638668
| 13> C 3.6633860684 -2.6820428478 0.4790780842
| 14> S 1.2142124596 -0.5591544332 -0.9923301086
| 15> C 0.0683457481 -1.8133429193 -0.3592789364
| 16> S -1.1414657045 -1.1714266038 0.8245559166
| 17> P -2.286057776 -0.0232944845 -0.5551707316
| 18> S -2.3924846481 -0.7507933385 -2.3758483422
| 19> O -1.7458895725 1.4606467575 -0.4890398703
| 20> C -1.1177529679 2.1471732631 -1.5927443998
| 21> C -0.7558942369 3.5354711293 -1.1077240077
| 22> O -3.6337743155 0.2234231883 0.2354372802
| 23> C -4.391251051 -0.7883322896 0.9248640657
| 24> C -4.74411672 -1.9638179714 0.0365166627
| 25> H 3.6029833614 1.4198875769 -2.0166970606
| 26> H 2.1729448886 2.1687621437 -1.2941548875
| 27> H 3.595062921 3.1563415765 -1.6558585659
| 28> H 3.3986127467 2.6294854793 0.7879777531
| 29> H 4.8968081758 1.9415851516 0.0891452918
| 30> H 4.2464124391 -1.3126871948 2.0400144815
| 31> H 3.2082161697 -2.6547005609 2.6010225345
| 32> H 2.8391059 -3.3452197511 0.2292972892
| 33> H 3.8008405466 -1.9669187298 -0.328870714
| 34> H 4.567970288 -3.2736412743 0.5821150525
| 35> H 0.6162667483 -2.5942848844 0.1609169399
| 36> H -0.4519591253 -2.2032702022 -1.2358254099
| 37> H -0.2305045811 1.5876677617 -1.9053223819
| 38> H -1.8209721126 2.1767466381 -2.4294690858
| 39> H -0.1087922222 3.4626335179 -0.2365132638
| 40> H -0.2430301992 4.0690451633 -1.9010348388
| 41> H -1.6537850011 4.0768136962 -0.8252004946
| 42> H -3.8149410074 -1.1162381652 1.7949914279
| 43> H -5.2842268455 -0.2553276166 1.2564578971
| 44> H -5.3901044011 -2.6450040167 0.5809882814
| 45> H -5.2553388977 -1.6198368606 -0.8595156855
| 46> H -3.8407046577 -2.4931515108 -0.2635073657
| 47> *
| 48>
| 49>                          ****END OF INPUT****

CARTESIAN COORDINATES (ANGSTROEM)
---------------------------------
  C      3.262040    2.180210   -1.318914
  C      3.806671    1.912346    0.068574
  O      3.488204    0.584762    0.519645
  P      2.001455    0.153046    0.875629
  S      0.962736    1.543477    1.785377
  O      2.204419   -1.144056    1.751976
  C      3.405037   -1.958512    1.784264
  C      3.663386   -2.682043    0.479078
  S      1.214212   -0.559154   -0.992330
  C      0.068346   -1.813343   -0.359279
  S     -1.141466   -1.171427    0.824556
  P     -2.286058   -0.023294   -0.555171
  S     -2.392485   -0.750793   -2.375848
  O     -1.745890    1.460647   -0.489040
  C     -1.117753    2.147173   -1.592744
  C     -0.755894    3.535471   -1.107724
  O     -3.633774    0.223423    0.235437
  C     -4.391251   -0.788332    0.924864
  C     -4.744117   -1.963818    0.036517
  H      3.602983    1.419888   -2.016697
  H      2.172945    2.168762   -1.294155
  H      3.595063    3.156342   -1.655859
  H      3.398613    2.629485    0.787978
  H      4.896808    1.941585    0.089145
  H      4.246412   -1.312687    2.040014
  H      3.208216   -2.654701    2.601023
  H      2.839106   -3.345220    0.229297
  H      3.800841   -1.966919   -0.328871
  H      4.567970   -3.273641    0.582115
  H      0.616267   -2.594285    0.160917
  H     -0.451959   -2.203270   -1.235825
  H     -0.230505    1.587668   -1.905322
  H     -1.820972    2.176747   -2.429469
  H     -0.108792    3.462634   -0.236513
  H     -0.243030    4.069045   -1.901035
  H     -1.653785    4.076814   -0.825200
  H     -3.814941   -1.116238    1.794991
  H     -5.284227   -0.255328    1.256458
  H     -5.390104   -2.645004    0.580988
  H     -5.255339   -1.619837   -0.859516
  H     -3.840705   -2.493152   -0.263507

 Total Charge           Charge          ....    0
 Multiplicity           Mult            ....    1
 Number of Electrons    NEL             ....  202
 Basis Dimension        Dim             ....  334

ORBITAL ENERGIES
----------------

  NO   OCC          E(Eh)            E(eV)
   0   2.0000     -88.042711     -2395.7640
   1   2.0000     -88.038923     -2395.6609
   2   2.0000     -87.981682     -2394.1033
   3   2.0000     -87.980913     -2394.0824
   4   2.0000     -76.429658     -2079.7567
   5   2.0000     -76.421145     -2079.5251
   6   2.0000     -18.800253      -511.5809
   7   2.0000     -18.797921      -511.5174
   8   2.0000     -18.786639      -511.2104
   9   2.0000     -18.776860      -510.9443
  10   2.0000      -9.964343      -271.1436
  11   2.0000      -9.958863      -270.9944
  12   2.0000      -9.957000      -270.9438
  13   2.0000      -9.953348      -270.8444
  14   2.0000      -9.937242      -270.4061
  15   2.0000      -9.895410      -269.2678
  16   2.0000      -9.892405      -269.1860
  17   2.0000      -9.879817      -268.8435
  18   2.0000      -9.871424      -268.6151
  19   2.0000      -7.686942      -209.1723
  20   2.0000      -7.683813      -209.0872
  21   2.0000      -7.626756      -207.5346
  22   2.0000      -7.625950      -207.5127
  23   2.0000      -6.426733      -174.8803
  24   2.0000      -6.418196      -174.6480
  25   2.0000      -5.714798      -155.5076
  26   2.0000      -5.711646      -155.4218
  27   2.0000      -5.711611      -155.4208
  28   2.0000      -5.708306      -155.3309
  29   2.0000      -5.703910      -155.2113
  30   2.0000      -5.700849      -155.1280
  31   2.0000      -5.655771      -153.9013
  32   2.0000      -5.654802      -153.8750
  33   2.0000      -5.647580      -153.6785
  34   2.0000      -5.646661      -153.6535
  35   2.0000      -5.646597      -153.6517
  36   2.0000      -5.646106      -153.6384
  37   2.0000      -4.650192      -126.5382
  38   2.0000      -4.648345      -126.4879
  39   2.0000      -4.646546      -126.4389
  40   2.0000      -4.640551      -126.2758
  41   2.0000      -4.640140      -126.2646
  42   2.0000      -4.638744      -126.2266
  43   2.0000      -0.994960       -27.0742
  44   2.0000      -0.979731       -26.6598
  45   2.0000      -0.951695       -25.8969
  46   2.0000      -0.934851       -25.4386
  47   2.0000      -0.762405       -20.7461
  48   2.0000      -0.721617       -19.6362
  49   2.0000      -0.709478       -19.3059
  50   2.0000      -0.698564       -19.0089
  51   2.0000      -0.680473       -18.5166
  52   2.0000      -0.671962       -18.2850
  53   2.0000      -0.649854       -17.6834
  54   2.0000      -0.634999       -17.2792
  55   2.0000      -0.598203       -16.2779
  56   2.0000      -0.590101       -16.0575
  57   2.0000      -0.587500       -15.9867
  58   2.0000      -0.565851       -15.3976
  59   2.0000      -0.553744       -15.0681
  60   2.0000      -0.502872       -13.6838
  61   2.0000      -0.494641       -13.4599
  62   2.0000      -0.478705       -13.0262
  63   2.0000      -0.467000       -12.7077
  64   2.0000      -0.463287       -12.6067
  65   2.0000      -0.452740       -12.3197
  66   2.0000      -0.437149       -11.8954
  67   2.0000      -0.432015       -11.7557
  68   2.0000      -0.421685       -11.4746
  69   2.0000      -0.419166       -11.4061
  70   2.0000      -0.412770       -11.2320
  71   2.0000      -0.405553       -11.0356
  72   2.0000      -0.391268       -10.6469
  73   2.0000      -0.383596       -10.4382
  74   2.0000      -0.380906       -10.3650
  75   2.0000      -0.372876       -10.1465
  76   2.0000      -0.370591       -10.0843
  77   2.0000      -0.360694        -9.8150
  78   2.0000      -0.356537        -9.7019
  79   2.0000      -0.348962        -9.4957
  80   2.0000      -0.346260        -9.4222
  81   2.0000      -0.343177        -9.3383
  82   2.0000      -0.341083        -9.2813
  83   2.0000      -0.332944        -9.0599
  84   2.0000      -0.329044        -8.9537
  85   2.0000      -0.326561        -8.8862
  86   2.0000      -0.308068        -8.3829
  87   2.0000      -0.304899        -8.2967
  88   2.0000      -0.299032        -8.1371
  89   2.0000      -0.292677        -7.9642
  90   2.0000      -0.281330        -7.6554
  91   2.0000      -0.277757        -7.5582
  92   2.0000      -0.266724        -7.2579
  93   2.0000      -0.259508        -7.0616
  94   2.0000      -0.253215        -6.8903
  95   2.0000      -0.237911        -6.4739
  96   2.0000      -0.218156        -5.9363
  97   2.0000      -0.204527        -5.5655
  98   2.0000      -0.198021        -5.3884
  99   2.0000      -0.193013        -5.2522
 100   2.0000      -0.188109        -5.1187
 101   0.0000      -0.050358        -1.3703
 102   0.0000      -0.022596        -0.6149
 103   0.0000      -0.015709        -0.4275
 104   0.0000      -0.002405        -0.0654
 105   0.0000       0.014762         0.4017

MULLIKEN ATOMIC CHARGES
-----------------------
   0 C :   -0.347967
   1 C :    0.001671
   2 O :   -0.383227
   3 P :    0.606519
   4 S :   -0.282499
   5 O :   -0.374847
   6 C :    0.009562
   7 C :   -0.332687
   8 S :   -0.110873
   9 C :   -0.351469
  10 S :   -0.097306
  11 P :    0.616155
  12 S :   -0.345569
  13 O :   -0.351800
  14 C :   -0.026515
  15 C :   -0.288798
  16 O :   -0.359584
  17 C :   -0.012841
  18 C :   -0.306924
  19 H :    0.122650
  20 H :    0.148341
  21 H :    0.119218
  22 H :    0.113763
  23 H :    0.105622
  24 H :    0.112360
  25 H :    0.113166
  26 H :    0.123905
  27 H :    0.135108
  28 H :    0.115581
  29 H :    0.183868
  30 H :    0.192561
  31 H :    0.123508
  32 H :    0.103312
  33 H :    0.131488
  34 H :    0.099825
  35 H :    0.111442
  36 H :    0.116716
  37 H :    0.110175
  38 H :    0.109495
  39 H :    0.125971
  40 H :    0.120925
Sum of atomic charges:   -0.0000000

LOEWDIN ATOMIC CHARGES
----------------------
   0 C :   -0.371545
   1 C :   -0.118999
   2 O :   -0.245975
   3 P :    0.568778
   4 S :   -0.292757
   5 O :   -0.243457
   6 C :   -0.106761
   7 C :   -0.367775
   8 S :    0.078492
   9 C :   -0.481715
  10 S :    0.082504
  11 P :    0.574558
  12 S :   -0.326231
  13 O :   -0.231955
  14 C :   -0.119960
  15 C :   -0.358116
  16 O :   -0.234852
  17 C :   -0.114999
  18 C :   -0.369357
  19 H :    0.126311
  20 H :    0.123306
  21 H :    0.134863
  22 H :    0.112041
  23 H :    0.118983
  24 H :    0.117165
  25 H :    0.123344
  26 H :    0.124061
  27 H :    0.123819
  28 H :    0.133573
  29 H :    0.125823
  30 H :    0.129695
  31 H :    0.096770
  32 H :    0.108766
  33 H :    0.122630
  34 H :    0.124581
  35 H :    0.125301
  36 H :    0.109016
  37 H :    0.122063
  38 H :    0.129003
  39 H :    0.129985
  40 H :    0.119026

  Mayer bond orders larger than 0.100000
B(  0-C ,  1-C ) :   1.1641 B(  0-C , 19-H ) :   0.9428 B(  0-C , 20-H ) :   0.9229
B(  0-C , 21-H ) :   0.9369 B(  1-C ,  2-O ) :   0.9043 B(  1-C , 22-H ) :   0.9112
B(  1-C , 23-H ) :   0.9324 B(  2-O ,  3-P ) :   1.0644 B(  3-P ,  4-S ) :   1.6824
B(  3-P ,  5-O ) :   1.1107 B(  3-P ,  8-S ) :   0.9308 B(  4-S ,  8-S ) :   0.1099
B(  5-O ,  6-C ) :   0.8938 B(  6-C ,  7-C ) :   1.1672 B(  6-C , 24-H ) :   0.9270
B(  6-C , 25-H ) :   0.9348 B(  7-C , 26-H ) :   0.9408 B(  7-C , 27-H ) :   0.9352
B(  7-C , 28-H ) :   0.9349 B(  8-S ,  9-C ) :   0.9954 B(  9-C , 10-S ) :   1.0228
B(  9-C , 29-H ) :   0.8907 B(  9-C , 30-H ) :   0.8725 B( 10-S , 11-P ) :   0.9231
B( 10-S , 12-S ) :   0.1136 B( 11-P , 12-S ) :   1.5936 B( 11-P , 13-O ) :   1.1508
B( 11-P , 16-O ) :   1.1359 B( 13-O , 14-C ) :   0.8900 B( 14-C , 15-C ) :   1.1602
B( 14-C , 31-H ) :   0.9052 B( 14-C , 32-H ) :   0.9248 B( 15-C , 33-H ) :   0.9311
B( 15-C , 34-H ) :   0.9415 B( 15-C , 35-H ) :   0.9487 B( 16-O , 17-C ) :   0.9168
B( 17-C , 18-C ) :   1.1624 B( 17-C , 36-H ) :   0.9253 B( 17-C , 37-H ) :   0.9339
B( 18-C , 38-H ) :   0.9359 B( 18-C , 39-H ) :   0.9431 B( 18-C , 40-H ) :   0.9332

Dispersion correction           -0.067529459
FINAL SINGLE POINT ENERGY     -2929.513416963447

DIPOLE MOMENT
-------------

Method             : SCF
Type of density    : Electron Density
Multiplicity       :   1
Irrep              :   0
Energy             : -2929.6310193335884833 Eh
Relativity type    :
Basis              : AO
                                X                 Y                 Z
Electronic contribution:     -7.261310529      -1.686021816       4.949404803
Nuclear contribution   :      8.601842790       1.061830615      -4.764966140
                        -----------------------------------------
Total Dipole Moment    :      1.340532261      -0.624191201       0.184438663
                        -----------------------------------------
Magnitude (a.u.)       :      1.490187579
Magnitude (Debye)      :      3.787755807

Rotational constants in cm-1:             0.012105             0.005521             0.004788
Rotational constants in MHz :           362.908934           165.501721           143.527932

                             ****ORCA TERMINATED NORMALLY****
TOTAL RUN TIME: 0 days 0 hours 0 minutes 21 seconds 256 msec
