                         Program Version 6.0.0  -   RELEASE  -
|  1> ! pbe def2-sv(p) def2/J RI DEFGRID1 loosescf d4 GCP(DFT/SV(P)) printgap
|  2> %output
|  3>     printlevel normal
|  4> end
|  5> * xyz 0 1
|  6> C 3.4880625487 1.5365224987 -1.5639480259
|  7> C 3.5127777277 1.2701278147 -0.0718745225
|  8> O 2.9426614181 -0.0200503551 0.2207020698
|  9> P 1.6309797506 -0.2662115343 1.0972972
| 10> S 0.8023799104 1.365822515 1.7809101074
| 11> O 2.0486906499 -1.1528751922 2.340986179
| 12> C 2.4996022228 -2.5270033279 2.3334790789
| 13> C 3.7791742361 -2.7166896943 1.5470026222
| 14> S 0.5894315008 -1.6881457941 -0.097465575
| 15> C 0.6158682755 -0.8415362682 -1.6973841391
| 16> S -0.0763001777 0.8349931932 -1.656935683
| 17> P -2.0250612736 0.2896322736 -1.10735731
| 18> S -2.8023648182 -1.3164653236 -1.9025986373
| 19> O -2.9119176418 1.5526173863 -1.4744850689
| 20> C -2.5017006045 2.9375742693 -1.3718482697
| 21> C -2.2722605304 3.3793555385 0.0587256888
| 22> O -1.8691565684 0.2439112575 0.4845474151
| 23> C -2.8805603095 -0.3234605105 1.3381514204
| 24> C -2.4444607265 -1.6845144085 1.8432328261
| 25> H 2.4629340756 1.629461887 -1.9185749759
| 26> H 4.011199314 2.4665995259 -1.760848394
| 27> H 3.9840483394 0.7307822152 -2.0981708075
| 28> H 2.9556917464 2.0373345809 0.4761366922
| 29> H 4.5372896017 1.2282408368 0.3032152088
| 30> H 2.6424752173 -2.7469807922 3.3929832828
| 31> H 1.6974606625 -3.1517493131 1.9326573373
| 32> H 3.6077359692 -2.5133673483 0.4926715555
| 33> H 4.5502984266 -2.0453448694 1.9158700663
| 34> H 4.114174322 -3.7430933395 1.6603055721
| 35> H 0.0198389406 -1.4621666604 -2.3672421485
| 36> H 1.640301878 -0.7463683661 -2.0494924975
| 37> H -1.5979752832 3.0737317179 -1.9718511769
| 38> H -3.3332375742 3.4763675943 -1.8294304721
| 39> H -3.1572025192 3.1865804563 0.6603605965
| 40> H -1.4262117639 2.8538553658 0.4993748058
| 41> H -2.0610000216 4.4440593916 0.0684020683
| 42> H -2.9871755963 0.3886638792 2.1591509415
| 43> H -3.8217405529 -0.3944762033 0.7835542558
| 44> H -1.4849070673 -1.5995892531 2.3493525347
| 45> H -3.1856656224 -2.0632020529 2.5393504027
| 46> H -2.3432533454 -2.3793005501 1.0118139131
| 47> *
| 48>
| 49>                          ****END OF INPUT****

CARTESIAN COORDINATES (ANGSTROEM)
---------------------------------
  C      3.488063    1.536522   -1.563948
  C      3.512778    1.270128   -0.071875
  O      2.942661   -0.020050    0.220702
  P      1.630980   -0.266212    1.097297
  S      0.802380    1.365823    1.780910
  O      2.048691   -1.152875    2.340986
  C      2.499602   -2.527003    2.333479
  C      3.779174   -2.716690    1.547003
  S      0.589432   -1.688146   -0.097466
  C      0.615868   -0.841536   -1.697384
  S     -0.076300    0.834993   -1.656936
  P     -2.025061    0.289632   -1.107357
  S     -2.802365   -1.316465   -1.902599
  O     -2.911918    1.552617   -1.474485
  C     -2.501701    2.937574   -1.371848
  C     -2.272261    3.379356    0.058726
  O     -1.869157    0.243911    0.484547
  C     -2.880560   -0.323461    1.338151
  C     -2.444461   -1.684514    1.843233
  H      2.462934    1.629462   -1.918575
  H      4.011199    2.466600   -1.760848
  H      3.984048    0.730782   -2.098171
  H      2.955692    2.037335    0.476137
  H      4.537290    1.228241    0.303215
  H      2.642475   -2.746981    3.392983
  H      1.697461   -3.151749    1.932657
  H      3.607736   -2.513367    0.492672
  H      4.550298   -2.045345    1.915870
  H      4.114174   -3.743093    1.660306
  H      0.019839   -1.462167   -2.367242
  H      1.640302   -0.746368   -2.049492
  H     -1.597975    3.073732   -1.971851
  H     -3.333238    3.476368   -1.829430
  H     -3.157203    3.186580    0.660361
  H     -1.426212    2.853855    0.499375
  H     -2.061000    4.444059    0.068402
  H     -2.987176    0.388664    2.159151
  H     -3.821741   -0.394476    0.783554
  H     -1.484907   -1.599589    2.349353
  H     -3.185666   -2.063202    2.539350
  H     -2.343253   -2.379301    1.011814

 Total Charge           Charge          ....    0
 Multiplicity           Mult            ....    1
 Number of Electrons    NEL             ....  202
 Basis Dimension        Dim             ....  334

ORBITAL ENERGIES
----------------

  NO   OCC          E(Eh)            E(eV)
   0   2.0000     -88.047368     -2395.8907
   1   2.0000     -88.045215     -2395.8321
   2   2.0000     -87.979722     -2394.0499
   3   2.0000     -87.979355     -2394.0400
   4   2.0000     -76.426720     -2079.6768
   5   2.0000     -76.421902     -2079.5457
   6   2.0000     -18.795148      -511.4420
   7   2.0000     -18.791383      -511.3395
   8   2.0000     -18.789072      -511.2766
   9   2.0000     -18.778260      -510.9824
  10   2.0000      -9.963773      -271.1281
  11   2.0000      -9.959017      -270.9986
  12   2.0000      -9.956772      -270.9375
  13   2.0000      -9.953696      -270.8538
  14   2.0000      -9.942831      -270.5582
  15   2.0000      -9.892264      -269.1822
  16   2.0000      -9.889257      -269.1004
  17   2.0000      -9.882358      -268.9126
  18   2.0000      -9.870935      -268.6018
  19   2.0000      -7.692268      -209.3173
  20   2.0000      -7.689819      -209.2506
  21   2.0000      -7.624854      -207.4828
  22   2.0000      -7.624721      -207.4792
  23   2.0000      -6.423692      -174.7976
  24   2.0000      -6.419657      -174.6877
  25   2.0000      -5.720137      -155.6529
  26   2.0000      -5.717862      -155.5909
  27   2.0000      -5.716918      -155.5653
  28   2.0000      -5.714239      -155.4923
  29   2.0000      -5.709070      -155.3517
  30   2.0000      -5.706727      -155.2879
  31   2.0000      -5.653912      -153.8508
  32   2.0000      -5.653801      -153.8478
  33   2.0000      -5.645718      -153.6278
  34   2.0000      -5.645202      -153.6138
  35   2.0000      -5.645048      -153.6096
  36   2.0000      -5.644282      -153.5887
  37   2.0000      -4.646753      -126.4446
  38   2.0000      -4.645411      -126.4081
  39   2.0000      -4.643839      -126.3653
  40   2.0000      -4.642628      -126.3323
  41   2.0000      -4.641215      -126.2939
  42   2.0000      -4.639975      -126.2601
  43   2.0000      -0.984104       -26.7788
  44   2.0000      -0.976963       -26.5845
  45   2.0000      -0.946837       -25.7647
  46   2.0000      -0.936834       -25.4926
  47   2.0000      -0.768945       -20.9240
  48   2.0000      -0.723019       -19.6743
  49   2.0000      -0.709762       -19.3136
  50   2.0000      -0.696243       -18.9457
  51   2.0000      -0.685678       -18.6582
  52   2.0000      -0.670795       -18.2533
  53   2.0000      -0.648275       -17.6405
  54   2.0000      -0.638217       -17.3668
  55   2.0000      -0.595563       -16.2061
  56   2.0000      -0.587162       -15.9775
  57   2.0000      -0.579406       -15.7664
  58   2.0000      -0.576608       -15.6903
  59   2.0000      -0.558949       -15.2098
  60   2.0000      -0.502084       -13.6624
  61   2.0000      -0.495322       -13.4784
  62   2.0000      -0.481418       -13.1001
  63   2.0000      -0.472933       -12.8692
  64   2.0000      -0.460339       -12.5265
  65   2.0000      -0.447283       -12.1712
  66   2.0000      -0.441720       -12.0198
  67   2.0000      -0.435622       -11.8539
  68   2.0000      -0.425076       -11.5669
  69   2.0000      -0.410278       -11.1642
  70   2.0000      -0.402745       -10.9592
  71   2.0000      -0.400663       -10.9026
  72   2.0000      -0.394253       -10.7282
  73   2.0000      -0.388771       -10.5790
  74   2.0000      -0.385620       -10.4932
  75   2.0000      -0.374693       -10.1959
  76   2.0000      -0.362655        -9.8683
  77   2.0000      -0.358636        -9.7590
  78   2.0000      -0.354842        -9.6558
  79   2.0000      -0.349943        -9.5224
  80   2.0000      -0.345908        -9.4126
  81   2.0000      -0.344624        -9.3777
  82   2.0000      -0.341011        -9.2794
  83   2.0000      -0.337339        -9.1795
  84   2.0000      -0.335619        -9.1326
  85   2.0000      -0.321347        -8.7443
  86   2.0000      -0.307339        -8.3631
  87   2.0000      -0.303608        -8.2616
  88   2.0000      -0.300780        -8.1846
  89   2.0000      -0.285306        -7.7636
  90   2.0000      -0.277210        -7.5433
  91   2.0000      -0.273027        -7.4294
  92   2.0000      -0.270610        -7.3637
  93   2.0000      -0.265448        -7.2232
  94   2.0000      -0.262160        -7.1337
  95   2.0000      -0.234479        -6.3805
  96   2.0000      -0.219488        -5.9726
  97   2.0000      -0.205239        -5.5848
  98   2.0000      -0.195441        -5.3182
  99   2.0000      -0.191987        -5.2242
 100   2.0000      -0.189225        -5.1491
 101   0.0000      -0.053774        -1.4633
 102   0.0000      -0.027518        -0.7488
 103   0.0000      -0.012639        -0.3439
 104   0.0000      -0.000738        -0.0201
 105   0.0000       0.016639         0.4528

MULLIKEN ATOMIC CHARGES
-----------------------
   0 C :   -0.314736
   1 C :   -0.007658
   2 O :   -0.390316
   3 P :    0.624639
   4 S :   -0.295417
   5 O :   -0.366353
   6 C :   -0.020144
   7 C :   -0.302403
   8 S :   -0.101730
   9 C :   -0.337617
  10 S :   -0.123214
  11 P :    0.635920
  12 S :   -0.324993
  13 O :   -0.370274
  14 C :   -0.024430
  15 C :   -0.328948
  16 O :   -0.364002
  17 C :   -0.007529
  18 C :   -0.288365
  19 H :    0.131504
  20 H :    0.115145
  21 H :    0.117239
  22 H :    0.115088
  23 H :    0.102260
  24 H :    0.112404
  25 H :    0.120664
  26 H :    0.122484
  27 H :    0.116434
  28 H :    0.112874
  29 H :    0.194620
  30 H :    0.186671
  31 H :    0.116675
  32 H :    0.113163
  33 H :    0.115878
  34 H :    0.159294
  35 H :    0.110812
  36 H :    0.103643
  37 H :    0.101168
  38 H :    0.113919
  39 H :    0.102065
  40 H :    0.123565
Sum of atomic charges:   -0.0000000

LOEWDIN ATOMIC CHARGES
----------------------
   0 C :   -0.361523
   1 C :   -0.120720
   2 O :   -0.254476
   3 P :    0.564796
   4 S :   -0.293762
   5 O :   -0.242235
   6 C :   -0.116489
   7 C :   -0.365808
   8 S :    0.095485
   9 C :   -0.471527
  10 S :    0.091324
  11 P :    0.569646
  12 S :   -0.322309
  13 O :   -0.245614
  14 C :   -0.115151
  15 C :   -0.370486
  16 O :   -0.244637
  17 C :   -0.115192
  18 C :   -0.361900
  19 H :    0.115115
  20 H :    0.133626
  21 H :    0.123993
  22 H :    0.108099
  23 H :    0.115938
  24 H :    0.123161
  25 H :    0.109167
  26 H :    0.121257
  27 H :    0.126893
  28 H :    0.130963
  29 H :    0.134985
  30 H :    0.131439
  31 H :    0.107142
  32 H :    0.123162
  33 H :    0.126273
  34 H :    0.127316
  35 H :    0.130816
  36 H :    0.116445
  37 H :    0.106986
  38 H :    0.120139
  39 H :    0.125189
  40 H :    0.122474

  Mayer bond orders larger than 0.100000
B(  0-C ,  1-C ) :   1.1666 B(  0-C , 19-H ) :   0.9311 B(  0-C , 20-H ) :   0.9376
B(  0-C , 21-H ) :   0.9441 B(  1-C ,  2-O ) :   0.9075 B(  1-C , 22-H ) :   0.8949
B(  1-C , 23-H ) :   0.9329 B(  2-O ,  3-P ) :   1.0626 B(  3-P ,  4-S ) :   1.6505
B(  3-P ,  5-O ) :   1.1296 B(  3-P ,  8-S ) :   0.9442 B(  4-S ,  8-S ) :   0.1058
B(  5-O ,  6-C ) :   0.9065 B(  6-C ,  7-C ) :   1.1678 B(  6-C , 24-H ) :   0.9335
B(  6-C , 25-H ) :   0.9211 B(  7-C , 26-H ) :   0.9356 B(  7-C , 27-H ) :   0.9459
B(  7-C , 28-H ) :   0.9370 B(  8-S ,  9-C ) :   1.0079 B(  9-C , 10-S ) :   1.0164
B(  9-C , 29-H ) :   0.8840 B(  9-C , 30-H ) :   0.8993 B( 10-S , 11-P ) :   0.9505
B( 11-P , 12-S ) :   1.6264 B( 11-P , 13-O ) :   1.1230 B( 11-P , 16-O ) :   1.1012
B( 13-O , 14-C ) :   0.9090 B( 14-C , 15-C ) :   1.1621 B( 14-C , 31-H ) :   0.9189
B( 14-C , 32-H ) :   0.9351 B( 15-C , 33-H ) :   0.9451 B( 15-C , 34-H ) :   0.9253
B( 15-C , 35-H ) :   0.9359 B( 16-O , 17-C ) :   0.9019 B( 17-C , 18-C ) :   1.1740
B( 17-C , 36-H ) :   0.9301 B( 17-C , 37-H ) :   0.9137 B( 18-C , 38-H ) :   0.9439
B( 18-C , 39-H ) :   0.9400 B( 18-C , 40-H ) :   0.9376

Dispersion correction           -0.068843510
FINAL SINGLE POINT ENERGY     -2929.511355425142

DIPOLE MOMENT
-------------

Method             : SCF
Type of density    : Electron Density
Multiplicity       :   1
Irrep              :   0
Energy             : -2929.6283033528079613 Eh
Relativity type    :
Basis              : AO
                                X                 Y                 Z
Electronic contribution:     -9.211174031      -2.254532875      -5.800952643
Nuclear contribution   :     10.554052371       2.516531859       5.949762241
                        -----------------------------------------
Total Dipole Moment    :      1.342878340       0.261998984       0.148809598
                        -----------------------------------------
Magnitude (a.u.)       :      1.376266689
Magnitude (Debye)      :      3.498191918

Rotational constants in cm-1:             0.011413             0.006031             0.005407
Rotational constants in MHz :           342.148478           180.813042           162.104354

                             ****ORCA TERMINATED NORMALLY****
TOTAL RUN TIME: 0 days 0 hours 0 minutes 22 seconds 52 msec
