                         Program Version 6.0.0  -   RELEASE  -
|  1> ! r2scan-3c def2/J RI DEFGRID2 scfconv6 printgap
|  2> %output
|  3>     printlevel normal
|  4> end
|  5> * xyz 0 1
|  6> C 3.1450524247 -2.649862358 -1.5878241889
|  7> C 4.3006276904 -1.8160636073 -1.0787152263
|  8> O 3.9755205712 -0.4047308328 -1.0005478108
|  9> P 2.8300091789 0.2260934061 -0.1281123639
| 10> S 3.1369868272 2.1267361846 0.2295535924
| 11> O 2.8498784069 -0.7137835056 1.1580125457
| 12> C 2.1089891074 -0.427852607 2.3593428917
| 13> C 0.9716538238 -1.4168715842 2.5230939919
| 14> S 1.0190678725 -0.1790924594 -1.1991412615
| 15> C 0.1473155104 1.3705541395 -0.8851678615
| 16> S -0.7822965369 1.3696901686 0.6722993461
| 17> P -2.3470055873 0.1274207212 -0.015020714
| 18> S -2.9917300976 0.4396372004 -1.8457878704
| 19> O -3.4546108343 0.2074134031 1.1199194187
| 20> C -4.5129258438 1.1800309682 1.0989284257
| 21> C -3.9972879823 2.5892987623 1.3084002975
| 22> O -1.6980214831 -1.2910433837 0.2578982638
| 23> C -2.1425674391 -2.4855868198 -0.4180198546
| 24> C -3.5382165243 -2.8857452623 0.0111376438
| 25> H 2.7983046209 -2.2751843826 -2.5476906959
| 26> H 3.4719632778 -3.6788015958 -1.7015265104
| 27> H 2.3173500277 -2.6164520818 -0.8816835066
| 28> H 5.1468815353 -1.8358140697 -1.7669378864
| 29> H 4.6168153849 -2.1466445644 -0.0877739185
| 30> H 2.8327518169 -0.5229047633 3.1716129953
| 31> H 1.7439790232 0.6039855148 2.3257031076
| 32> H 0.2531548155 -1.3162807563 1.7131961426
| 33> H 1.359365398 -2.4316725848 2.527506353
| 34> H 0.4660409017 -1.2208935097 3.4630485986
| 35> H -0.5463335719 1.5191757226 -1.7130484709
| 36> H 0.8729935987 2.1829509017 -0.8198327366
| 37> H -5.0362008535 1.1021577068 0.1403388076
| 38> H -5.1725816986 0.8676770297 1.909519672
| 39> H -4.8370815079 3.2700598815 1.4045462968
| 40> H -3.3860929086 2.6391549072 2.2060987088
| 41> H -3.391567108 2.8959057784 0.4562920239
| 42> H -2.1016588217 -2.3072883255 -1.4971196995
| 43> H -1.4013667367 -3.2354268303 -0.1393459485
| 44> H -3.5890462358 -2.9684497195 1.0935622135
| 45> H -4.2560594306 -2.1356043903 -0.3187608621
| 46> H -3.7942320884 -3.8398172358 -0.4388074906
| 47> *
| 48>
| 49>                          ****END OF INPUT****

CARTESIAN COORDINATES (ANGSTROEM)
---------------------------------
  C      3.145052   -2.649862   -1.587824
  C      4.300628   -1.816064   -1.078715
  O      3.975521   -0.404731   -1.000548
  P      2.830009    0.226093   -0.128112
  S      3.136987    2.126736    0.229554
  O      2.849878   -0.713784    1.158013
  C      2.108989   -0.427853    2.359343
  C      0.971654   -1.416872    2.523094
  S      1.019068   -0.179092   -1.199141
  C      0.147316    1.370554   -0.885168
  S     -0.782297    1.369690    0.672299
  P     -2.347006    0.127421   -0.015021
  S     -2.991730    0.439637   -1.845788
  O     -3.454611    0.207413    1.119919
  C     -4.512926    1.180031    1.098928
  C     -3.997288    2.589299    1.308400
  O     -1.698021   -1.291043    0.257898
  C     -2.142567   -2.485587   -0.418020
  C     -3.538217   -2.885745    0.011138
  H      2.798305   -2.275184   -2.547691
  H      3.471963   -3.678802   -1.701527
  H      2.317350   -2.616452   -0.881684
  H      5.146882   -1.835814   -1.766938
  H      4.616815   -2.146645   -0.087774
  H      2.832752   -0.522905    3.171613
  H      1.743979    0.603986    2.325703
  H      0.253155   -1.316281    1.713196
  H      1.359365   -2.431673    2.527506
  H      0.466041   -1.220894    3.463049
  H     -0.546334    1.519176   -1.713048
  H      0.872994    2.182951   -0.819833
  H     -5.036201    1.102158    0.140339
  H     -5.172582    0.867677    1.909520
  H     -4.837082    3.270060    1.404546
  H     -3.386093    2.639155    2.206099
  H     -3.391567    2.895906    0.456292
  H     -2.101659   -2.307288   -1.497120
  H     -1.401367   -3.235427   -0.139346
  H     -3.589046   -2.968450    1.093562
  H     -4.256059   -2.135604   -0.318761
  H     -3.794232   -3.839817   -0.438807

 Total Charge           Charge          ....    0
 Multiplicity           Mult            ....    1
 Number of Electrons    NEL             ....  202
 Basis Dimension        Dim             ....  539

ORBITAL ENERGIES
----------------

  NO   OCC          E(Eh)            E(eV)
   0   2.0000     -88.576730     -2410.2954
   1   2.0000     -88.572387     -2410.1772
   2   2.0000     -88.526015     -2408.9153
   3   2.0000     -88.517993     -2408.6970
   4   2.0000     -76.917959     -2093.0441
   5   2.0000     -76.914267     -2092.9436
   6   2.0000     -18.998436      -516.9737
   7   2.0000     -18.994385      -516.8635
   8   2.0000     -18.992964      -516.8248
   9   2.0000     -18.990650      -516.7619
  10   2.0000     -10.106897      -275.0227
  11   2.0000     -10.103035      -274.9176
  12   2.0000     -10.101646      -274.8798
  13   2.0000     -10.099389      -274.8183
  14   2.0000     -10.096380      -274.7365
  15   2.0000     -10.038601      -273.1642
  16   2.0000     -10.032883      -273.0086
  17   2.0000     -10.031577      -272.9731
  18   2.0000     -10.023794      -272.7613
  19   2.0000      -7.871085      -214.1831
  20   2.0000      -7.866564      -214.0601
  21   2.0000      -7.820682      -212.8116
  22   2.0000      -7.812826      -212.5978
  23   2.0000      -6.596630      -179.5034
  24   2.0000      -6.592476      -179.3904
  25   2.0000      -5.817858      -158.3120
  26   2.0000      -5.815027      -158.2349
  27   2.0000      -5.813528      -158.1941
  28   2.0000      -5.810324      -158.1070
  29   2.0000      -5.808222      -158.0498
  30   2.0000      -5.803716      -157.9271
  31   2.0000      -5.768242      -156.9618
  32   2.0000      -5.761010      -156.7650
  33   2.0000      -5.760748      -156.7579
  34   2.0000      -5.760500      -156.7512
  35   2.0000      -5.753078      -156.5492
  36   2.0000      -5.752813      -156.5420
  37   2.0000      -4.742042      -129.0375
  38   2.0000      -4.741516      -129.0232
  39   2.0000      -4.740451      -128.9942
  40   2.0000      -4.738389      -128.9381
  41   2.0000      -4.737177      -128.9051
  42   2.0000      -4.736076      -128.8752
  43   2.0000      -1.055366       -28.7180
  44   2.0000      -1.051576       -28.6148
  45   2.0000      -1.016894       -27.6711
  46   2.0000      -1.009175       -27.4610
  47   2.0000      -0.800241       -21.7757
  48   2.0000      -0.761446       -20.7200
  49   2.0000      -0.752860       -20.4864
  50   2.0000      -0.736003       -20.0277
  51   2.0000      -0.734755       -19.9937
  52   2.0000      -0.714104       -19.4318
  53   2.0000      -0.687388       -18.7048
  54   2.0000      -0.667911       -18.1748
  55   2.0000      -0.637026       -17.3344
  56   2.0000      -0.627069       -17.0634
  57   2.0000      -0.610194       -16.6042
  58   2.0000      -0.609409       -16.5829
  59   2.0000      -0.588087       -16.0026
  60   2.0000      -0.527034       -14.3413
  61   2.0000      -0.520870       -14.1736
  62   2.0000      -0.497854       -13.5473
  63   2.0000      -0.495249       -13.4764
  64   2.0000      -0.477792       -13.0014
  65   2.0000      -0.467902       -12.7323
  66   2.0000      -0.462708       -12.5909
  67   2.0000      -0.458220       -12.4688
  68   2.0000      -0.444878       -12.1057
  69   2.0000      -0.442820       -12.0497
  70   2.0000      -0.429490       -11.6870
  71   2.0000      -0.416429       -11.3316
  72   2.0000      -0.409737       -11.1495
  73   2.0000      -0.404935       -11.0189
  74   2.0000      -0.401403       -10.9227
  75   2.0000      -0.391591       -10.6557
  76   2.0000      -0.382625       -10.4117
  77   2.0000      -0.376674       -10.2498
  78   2.0000      -0.374574       -10.1927
  79   2.0000      -0.367778       -10.0077
  80   2.0000      -0.365971        -9.9586
  81   2.0000      -0.364653        -9.9227
  82   2.0000      -0.359533        -9.7834
  83   2.0000      -0.354776        -9.6539
  84   2.0000      -0.347121        -9.4457
  85   2.0000      -0.337333        -9.1793
  86   2.0000      -0.325423        -8.8552
  87   2.0000      -0.314895        -8.5687
  88   2.0000      -0.313473        -8.5300
  89   2.0000      -0.306487        -8.3399
  90   2.0000      -0.302460        -8.2304
  91   2.0000      -0.293744        -7.9932
  92   2.0000      -0.292228        -7.9519
  93   2.0000      -0.283292        -7.7088
  94   2.0000      -0.270003        -7.3472
  95   2.0000      -0.246794        -6.7156
  96   2.0000      -0.233013        -6.3406
  97   2.0000      -0.228222        -6.2102
  98   2.0000      -0.219178        -5.9641
  99   2.0000      -0.215429        -5.8621
 100   2.0000      -0.212204        -5.7744
 101   0.0000      -0.046016        -1.2521
 102   0.0000      -0.028272        -0.7693
 103   0.0000      -0.006199        -0.1687
 104   0.0000      -0.002454        -0.0668
 105   0.0000       0.013267         0.3610

MULLIKEN ATOMIC CHARGES
-----------------------
   0 C :   -0.499458
   1 C :   -0.098176
   2 O :   -0.281182
   3 P :    0.633254
   4 S :   -0.452572
   5 O :   -0.274997
   6 C :   -0.134025
   7 C :   -0.455108
   8 S :   -0.128694
   9 C :   -0.248120
  10 S :   -0.119821
  11 P :    0.669581
  12 S :   -0.480196
  13 O :   -0.309284
  14 C :   -0.149187
  15 C :   -0.454087
  16 O :   -0.269564
  17 C :   -0.150805
  18 C :   -0.442381
  19 H :    0.174456
  20 H :    0.154077
  21 H :    0.168038
  22 H :    0.152399
  23 H :    0.162581
  24 H :    0.150035
  25 H :    0.165545
  26 H :    0.183867
  27 H :    0.144537
  28 H :    0.145391
  29 H :    0.219318
  30 H :    0.222686
  31 H :    0.170918
  32 H :    0.148998
  33 H :    0.149148
  34 H :    0.156402
  35 H :    0.179180
  36 H :    0.173443
  37 H :    0.151361
  38 H :    0.156965
  39 H :    0.167705
  40 H :    0.147771
Sum of atomic charges:   -0.0000000

LOEWDIN ATOMIC CHARGES
----------------------
   0 C :   -0.406559
   1 C :    0.034524
   2 O :   -0.644814
   3 P :    0.390308
   4 S :   -0.108363
   5 O :   -0.675294
   6 C :    0.020552
   7 C :   -0.404952
   8 S :    0.144011
   9 C :   -0.429270
  10 S :    0.163838
  11 P :    0.376947
  12 S :   -0.133588
  13 O :   -0.660152
  14 C :    0.020757
  15 C :   -0.405875
  16 O :   -0.689929
  17 C :    0.019437
  18 C :   -0.398540
  19 H :    0.165276
  20 H :    0.161446
  21 H :    0.163766
  22 H :    0.183507
  23 H :    0.177575
  24 H :    0.176961
  25 H :    0.180488
  26 H :    0.177911
  27 H :    0.154819
  28 H :    0.160819
  29 H :    0.192871
  30 H :    0.197494
  31 H :    0.179587
  32 H :    0.179931
  33 H :    0.160152
  34 H :    0.160612
  35 H :    0.166604
  36 H :    0.181136
  37 H :    0.179946
  38 H :    0.161250
  39 H :    0.164968
  40 H :    0.159842

  Mayer bond orders larger than 0.100000
B(  0-C ,  1-C ) :   0.9052 B(  0-C , 19-H ) :   0.9669 B(  0-C , 20-H ) :   0.9556
B(  0-C , 21-H ) :   0.9650 B(  1-C ,  2-O ) :   0.7967 B(  1-C , 22-H ) :   0.9523
B(  1-C , 23-H ) :   0.9747 B(  2-O ,  3-P ) :   1.1784 B(  3-P ,  4-S ) :   1.8340
B(  3-P ,  5-O ) :   1.0356 B(  3-P ,  8-S ) :   0.9920 B(  5-O ,  6-C ) :   0.7553
B(  6-C ,  7-C ) :   0.9434 B(  6-C , 24-H ) :   0.9651 B(  6-C , 25-H ) :   0.9563
B(  7-C , 26-H ) :   0.9495 B(  7-C , 27-H ) :   0.9742 B(  7-C , 28-H ) :   0.9665
B(  8-S ,  9-C ) :   0.9180 B(  9-C , 10-S ) :   0.8973 B(  9-C , 29-H ) :   0.9087
B(  9-C , 30-H ) :   0.8931 B( 10-S , 11-P ) :   1.0986 B( 11-P , 12-S ) :   1.7560
B( 11-P , 13-O ) :   1.0709 B( 11-P , 16-O ) :   1.1259 B( 13-O , 14-C ) :   0.8119
B( 14-C , 15-C ) :   0.9236 B( 14-C , 31-H ) :   0.9656 B( 14-C , 32-H ) :   0.9579
B( 15-C , 33-H ) :   0.9579 B( 15-C , 34-H ) :   0.9688 B( 15-C , 35-H ) :   0.9610
B( 16-O , 17-C ) :   0.7911 B( 17-C , 18-C ) :   0.9239 B( 17-C , 36-H ) :   0.9629
B( 17-C , 37-H ) :   0.9617 B( 18-C , 38-H ) :   0.9720 B( 18-C , 39-H ) :   0.9597
B( 18-C , 40-H ) :   0.9616

Dispersion correction           -0.021529871
FINAL SINGLE POINT ENERGY     -2932.461459313531

DIPOLE MOMENT
-------------

Method             : SCF
Type of density    : Electron Density
Multiplicity       :   1
Irrep              :   0
Energy             : -2932.4867337888322254 Eh
Relativity type    :
Basis              : AO
                                X                 Y                 Z
Electronic contribution:     10.557922174      15.064631646      -7.375458054
Nuclear contribution   :    -11.331247482     -16.828489801       8.186089818
                        -----------------------------------------
Total Dipole Moment    :     -0.773325308      -1.763858155       0.810631764
                        -----------------------------------------
Magnitude (a.u.)       :      2.089581652
Magnitude (Debye)      :      5.311294463

Rotational constants in cm-1:             0.012625             0.004821             0.004392
Rotational constants in MHz :           378.480890           144.542503           131.663309

                             ****ORCA TERMINATED NORMALLY****
TOTAL RUN TIME: 0 days 0 hours 1 minutes 23 seconds 158 msec
