                         Program Version 6.0.0  -   RELEASE  -
|  1> ! r2scan-3c def2/J RI DEFGRID2 scfconv6 printgap
|  2> %output
|  3>     printlevel normal
|  4> end
|  5> %cpcm
|  6>     smd true
|  7>     smdsolvent "water"
|  8> end
|  9> * xyz 0 1
| 10> C 3.1450524247 -2.649862358 -1.5878241889
| 11> C 4.3006276904 -1.8160636073 -1.0787152263
| 12> O 3.9755205712 -0.4047308328 -1.0005478108
| 13> P 2.8300091789 0.2260934061 -0.1281123639
| 14> S 3.1369868272 2.1267361846 0.2295535924
| 15> O 2.8498784069 -0.7137835056 1.1580125457
| 16> C 2.1089891074 -0.427852607 2.3593428917
| 17> C 0.9716538238 -1.4168715842 2.5230939919
| 18> S 1.0190678725 -0.1790924594 -1.1991412615
| 19> C 0.1473155104 1.3705541395 -0.8851678615
| 20> S -0.7822965369 1.3696901686 0.6722993461
| 21> P -2.3470055873 0.1274207212 -0.015020714
| 22> S -2.9917300976 0.4396372004 -1.8457878704
| 23> O -3.4546108343 0.2074134031 1.1199194187
| 24> C -4.5129258438 1.1800309682 1.0989284257
| 25> C -3.9972879823 2.5892987623 1.3084002975
| 26> O -1.6980214831 -1.2910433837 0.2578982638
| 27> C -2.1425674391 -2.4855868198 -0.4180198546
| 28> C -3.5382165243 -2.8857452623 0.0111376438
| 29> H 2.7983046209 -2.2751843826 -2.5476906959
| 30> H 3.4719632778 -3.6788015958 -1.7015265104
| 31> H 2.3173500277 -2.6164520818 -0.8816835066
| 32> H 5.1468815353 -1.8358140697 -1.7669378864
| 33> H 4.6168153849 -2.1466445644 -0.0877739185
| 34> H 2.8327518169 -0.5229047633 3.1716129953
| 35> H 1.7439790232 0.6039855148 2.3257031076
| 36> H 0.2531548155 -1.3162807563 1.7131961426
| 37> H 1.359365398 -2.4316725848 2.527506353
| 38> H 0.4660409017 -1.2208935097 3.4630485986
| 39> H -0.5463335719 1.5191757226 -1.7130484709
| 40> H 0.8729935987 2.1829509017 -0.8198327366
| 41> H -5.0362008535 1.1021577068 0.1403388076
| 42> H -5.1725816986 0.8676770297 1.909519672
| 43> H -4.8370815079 3.2700598815 1.4045462968
| 44> H -3.3860929086 2.6391549072 2.2060987088
| 45> H -3.391567108 2.8959057784 0.4562920239
| 46> H -2.1016588217 -2.3072883255 -1.4971196995
| 47> H -1.4013667367 -3.2354268303 -0.1393459485
| 48> H -3.5890462358 -2.9684497195 1.0935622135
| 49> H -4.2560594306 -2.1356043903 -0.3187608621
| 50> H -3.7942320884 -3.8398172358 -0.4388074906
| 51> *
| 52>
| 53>                          ****END OF INPUT****

CARTESIAN COORDINATES (ANGSTROEM)
---------------------------------
  C      3.145052   -2.649862   -1.587824
  C      4.300628   -1.816064   -1.078715
  O      3.975521   -0.404731   -1.000548
  P      2.830009    0.226093   -0.128112
  S      3.136987    2.126736    0.229554
  O      2.849878   -0.713784    1.158013
  C      2.108989   -0.427853    2.359343
  C      0.971654   -1.416872    2.523094
  S      1.019068   -0.179092   -1.199141
  C      0.147316    1.370554   -0.885168
  S     -0.782297    1.369690    0.672299
  P     -2.347006    0.127421   -0.015021
  S     -2.991730    0.439637   -1.845788
  O     -3.454611    0.207413    1.119919
  C     -4.512926    1.180031    1.098928
  C     -3.997288    2.589299    1.308400
  O     -1.698021   -1.291043    0.257898
  C     -2.142567   -2.485587   -0.418020
  C     -3.538217   -2.885745    0.011138
  H      2.798305   -2.275184   -2.547691
  H      3.471963   -3.678802   -1.701527
  H      2.317350   -2.616452   -0.881684
  H      5.146882   -1.835814   -1.766938
  H      4.616815   -2.146645   -0.087774
  H      2.832752   -0.522905    3.171613
  H      1.743979    0.603986    2.325703
  H      0.253155   -1.316281    1.713196
  H      1.359365   -2.431673    2.527506
  H      0.466041   -1.220894    3.463049
  H     -0.546334    1.519176   -1.713048
  H      0.872994    2.182951   -0.819833
  H     -5.036201    1.102158    0.140339
  H     -5.172582    0.867677    1.909520
  H     -4.837082    3.270060    1.404546
  H     -3.386093    2.639155    2.206099
  H     -3.391567    2.895906    0.456292
  H     -2.101659   -2.307288   -1.497120
  H     -1.401367   -3.235427   -0.139346
  H     -3.589046   -2.968450    1.093562
  H     -4.256059   -2.135604   -0.318761
  H     -3.794232   -3.839817   -0.438807

 Total Charge           Charge          ....    0
 Multiplicity           Mult            ....    1
 Number of Electrons    NEL             ....  202
 Basis Dimension        Dim             ....  539

ORBITAL ENERGIES
----------------

  NO   OCC          E(Eh)            E(eV)
   0   2.0000     -88.579238     -2410.3636
   1   2.0000     -88.578062     -2410.3316
   2   2.0000     -88.530819     -2409.0460
   3   2.0000     -88.530238     -2409.0302
   4   2.0000     -76.922356     -2093.1637
   5   2.0000     -76.920062     -2093.1013
   6   2.0000     -18.997650      -516.9523
   7   2.0000     -18.997125      -516.9380
   8   2.0000     -18.994142      -516.8569
   9   2.0000     -18.993357      -516.8355
  10   2.0000     -10.101486      -274.8754
  11   2.0000     -10.094217      -274.6776
  12   2.0000     -10.090634      -274.5801
  13   2.0000     -10.090383      -274.5733
  14   2.0000     -10.089601      -274.5520
  15   2.0000     -10.022932      -272.7378
  16   2.0000     -10.019111      -272.6339
  17   2.0000     -10.018979      -272.6303
  18   2.0000     -10.015364      -272.5319
  19   2.0000      -7.873656      -214.2531
  20   2.0000      -7.872192      -214.2132
  21   2.0000      -7.826025      -212.9570
  22   2.0000      -7.825188      -212.9342
  23   2.0000      -6.600609      -179.6117
  24   2.0000      -6.598757      -179.5613
  25   2.0000      -5.820421      -158.3817
  26   2.0000      -5.819159      -158.3474
  27   2.0000      -5.817607      -158.3051
  28   2.0000      -5.815934      -158.2596
  29   2.0000      -5.810781      -158.1194
  30   2.0000      -5.809369      -158.0810
  31   2.0000      -5.773567      -157.1068
  32   2.0000      -5.772691      -157.0829
  33   2.0000      -5.766296      -156.9089
  34   2.0000      -5.766052      -156.9022
  35   2.0000      -5.765508      -156.8875
  36   2.0000      -5.765266      -156.8809
  37   2.0000      -4.746475      -129.1582
  38   2.0000      -4.745263      -129.1252
  39   2.0000      -4.744347      -129.1003
  40   2.0000      -4.744105      -129.0937
  41   2.0000      -4.743635      -129.0809
  42   2.0000      -4.742682      -129.0549
  43   2.0000      -1.055138       -28.7118
  44   2.0000      -1.054098       -28.6835
  45   2.0000      -1.014869       -27.6160
  46   2.0000      -1.012040       -27.5390
  47   2.0000      -0.803266       -21.8580
  48   2.0000      -0.757786       -20.6204
  49   2.0000      -0.745292       -20.2804
  50   2.0000      -0.727332       -19.7917
  51   2.0000      -0.724173       -19.7057
  52   2.0000      -0.712372       -19.3846
  53   2.0000      -0.689995       -18.7757
  54   2.0000      -0.674142       -18.3443
  55   2.0000      -0.634608       -17.2686
  56   2.0000      -0.623430       -16.9644
  57   2.0000      -0.603267       -16.4157
  58   2.0000      -0.600362       -16.3367
  59   2.0000      -0.587690       -15.9919
  60   2.0000      -0.524233       -14.2651
  61   2.0000      -0.514929       -14.0119
  62   2.0000      -0.492366       -13.3980
  63   2.0000      -0.490355       -13.3432
  64   2.0000      -0.477185       -12.9849
  65   2.0000      -0.462866       -12.5952
  66   2.0000      -0.455488       -12.3945
  67   2.0000      -0.454342       -12.3633
  68   2.0000      -0.439578       -11.9615
  69   2.0000      -0.437987       -11.9182
  70   2.0000      -0.424629       -11.5547
  71   2.0000      -0.408710       -11.1216
  72   2.0000      -0.405285       -11.0284
  73   2.0000      -0.403104       -10.9690
  74   2.0000      -0.399546       -10.8722
  75   2.0000      -0.390023       -10.6131
  76   2.0000      -0.380378       -10.3506
  77   2.0000      -0.368197       -10.0191
  78   2.0000      -0.364892        -9.9292
  79   2.0000      -0.361438        -9.8352
  80   2.0000      -0.359374        -9.7791
  81   2.0000      -0.353917        -9.6306
  82   2.0000      -0.352524        -9.5927
  83   2.0000      -0.347720        -9.4619
  84   2.0000      -0.342709        -9.3256
  85   2.0000      -0.332780        -9.0554
  86   2.0000      -0.322286        -8.7699
  87   2.0000      -0.309399        -8.4192
  88   2.0000      -0.305548        -8.3144
  89   2.0000      -0.303655        -8.2629
  90   2.0000      -0.298367        -8.1190
  91   2.0000      -0.291523        -7.9327
  92   2.0000      -0.289507        -7.8779
  93   2.0000      -0.280760        -7.6399
  94   2.0000      -0.273342        -7.4380
  95   2.0000      -0.250448        -6.8150
  96   2.0000      -0.240966        -6.5570
  97   2.0000      -0.235084        -6.3970
  98   2.0000      -0.226968        -6.1761
  99   2.0000      -0.226711        -6.1691
 100   2.0000      -0.220221        -5.9925
 101   0.0000      -0.051416        -1.3991
 102   0.0000      -0.034453        -0.9375
 103   0.0000      -0.009543        -0.2597
 104   0.0000      -0.007183        -0.1955
 105   0.0000       0.010623         0.2891

MULLIKEN ATOMIC CHARGES
-----------------------
   0 C :   -0.528513
   1 C :   -0.096816
   2 O :   -0.313936
   3 P :    0.643166
   4 S :   -0.510193
   5 O :   -0.290300
   6 C :   -0.123318
   7 C :   -0.488349
   8 S :   -0.132584
   9 C :   -0.258879
  10 S :   -0.124259
  11 P :    0.707319
  12 S :   -0.528324
  13 O :   -0.332723
  14 C :   -0.149620
  15 C :   -0.490638
  16 O :   -0.291313
  17 C :   -0.147336
  18 C :   -0.483178
  19 H :    0.180660
  20 H :    0.181264
  21 H :    0.171508
  22 H :    0.176213
  23 H :    0.179382
  24 H :    0.175205
  25 H :    0.164014
  26 H :    0.170224
  27 H :    0.164951
  28 H :    0.169810
  29 H :    0.236371
  30 H :    0.231717
  31 H :    0.178118
  32 H :    0.176249
  33 H :    0.173548
  34 H :    0.170392
  35 H :    0.173143
  36 H :    0.177012
  37 H :    0.179002
  38 H :    0.170485
  39 H :    0.168074
  40 H :    0.172451
Sum of atomic charges:   -0.0000000

LOEWDIN ATOMIC CHARGES
----------------------
   0 C :   -0.405647
   1 C :    0.041282
   2 O :   -0.666223
   3 P :    0.390189
   4 S :   -0.153280
   5 O :   -0.679131
   6 C :    0.024886
   7 C :   -0.406988
   8 S :    0.145139
   9 C :   -0.427170
  10 S :    0.160692
  11 P :    0.382513
  12 S :   -0.162634
  13 O :   -0.669848
  14 C :    0.026602
  15 C :   -0.409447
  16 O :   -0.698623
  17 C :    0.024439
  18 C :   -0.401931
  19 H :    0.165631
  20 H :    0.172704
  21 H :    0.163571
  22 H :    0.193613
  23 H :    0.184959
  24 H :    0.187493
  25 H :    0.179725
  26 H :    0.172126
  27 H :    0.162041
  28 H :    0.169125
  29 H :    0.197322
  30 H :    0.199490
  31 H :    0.181900
  32 H :    0.191518
  33 H :    0.168941
  34 H :    0.163852
  35 H :    0.161770
  36 H :    0.182163
  37 H :    0.191046
  38 H :    0.164518
  39 H :    0.162682
  40 H :    0.168992

  Mayer bond orders larger than 0.100000
B(  0-C ,  1-C ) :   0.8931 B(  0-C , 19-H ) :   0.9659 B(  0-C , 20-H ) :   0.9482
B(  0-C , 21-H ) :   0.9609 B(  1-C ,  2-O ) :   0.7832 B(  1-C , 22-H ) :   0.9433
B(  1-C , 23-H ) :   0.9658 B(  2-O ,  3-P ) :   1.1855 B(  3-P ,  4-S ) :   1.8075
B(  3-P ,  5-O ) :   1.0440 B(  3-P ,  8-S ) :   1.0086 B(  5-O ,  6-C ) :   0.7431
B(  6-C ,  7-C ) :   0.9407 B(  6-C , 24-H ) :   0.9541 B(  6-C , 25-H ) :   0.9538
B(  7-C , 26-H ) :   0.9534 B(  7-C , 27-H ) :   0.9698 B(  7-C , 28-H ) :   0.9624
B(  8-S ,  9-C ) :   0.9077 B(  9-C , 10-S ) :   0.8948 B(  9-C , 29-H ) :   0.9043
B(  9-C , 30-H ) :   0.8927 B( 10-S , 11-P ) :   1.1055 B( 11-P , 12-S ) :   1.7123
B( 11-P , 13-O ) :   1.0803 B( 11-P , 16-O ) :   1.1384 B( 13-O , 14-C ) :   0.8000
B( 14-C , 15-C ) :   0.9093 B( 14-C , 31-H ) :   0.9646 B( 14-C , 32-H ) :   0.9482
B( 15-C , 33-H ) :   0.9527 B( 15-C , 34-H ) :   0.9658 B( 15-C , 35-H ) :   0.9629
B( 16-O , 17-C ) :   0.7793 B( 17-C , 18-C ) :   0.9126 B( 17-C , 36-H ) :   0.9592
B( 17-C , 37-H ) :   0.9516 B( 18-C , 38-H ) :   0.9709 B( 18-C , 39-H ) :   0.9591
B( 18-C , 40-H ) :   0.9557

Dispersion correction           -0.021529871
FINAL SINGLE POINT ENERGY     -2932.470168880120

DIPOLE MOMENT
-------------

Method             : SCF
Type of density    : Electron Density
Multiplicity       :   1
Irrep              :   0
Energy             : -2932.4954433554216848 Eh
Relativity type    :
Basis              : AO
                                X                 Y                 Z
Electronic contribution:     10.272936443      14.386088026      -7.062236833
Nuclear contribution   :    -11.331247482     -16.828489801       8.186089818
                        -----------------------------------------
Total Dipole Moment    :     -1.058311039      -2.442401775       1.123852984
                        -----------------------------------------
Magnitude (a.u.)       :      2.889358790
Magnitude (Debye)      :      7.344166393

Rotational constants in cm-1:             0.012625             0.004821             0.004392
Rotational constants in MHz :           378.480890           144.542503           131.663309

                             ****ORCA TERMINATED NORMALLY****
TOTAL RUN TIME: 0 days 0 hours 1 minutes 52 seconds 12 msec
