                         Program Version 6.0.0  -   RELEASE  -
|  1> ! pbe def2-sv(p) def2/J RI DEFGRID1 loosescf d4 GCP(DFT/SV(P)) printgap
|  2> %output
|  3>     printlevel normal
|  4> end
|  5> * xyz 0 1
|  6> C 4.8291426596 0.7981660241 0.3759602768
|  7> C 3.6038890467 1.2935083382 -0.3616685271
|  8> O 2.7722112089 0.1946549017 -0.7933587245
|  9> P 1.9431811128 -0.6682795057 0.2369479111
| 10> S 1.3840636874 0.2298205348 1.8915795447
| 11> O 2.8841247334 -1.9322075595 0.4506442868
| 12> C 2.5730275988 -2.9822916278 1.3886612985
| 13> C 3.3292076878 -2.7786062399 2.6875936606
| 14> S 0.4544435381 -1.4616065106 -1.0668500521
| 15> C 0.0795462151 0.0243414635 -2.040466858
| 16> S -0.3405836067 1.4687828681 -1.0338133958
| 17> P -2.2125040772 0.7668503335 -0.3618035076
| 18> S -3.2702124148 -0.2865943067 -1.6386044887
| 19> O -2.89841073 2.062152257 0.2500703432
| 20> C -3.0513980171 3.332707188 -0.4113914404
| 21> C -3.6553053801 3.2126207398 -1.7951416112
| 22> O -1.844342396 -0.0101412177 0.9648384209
| 23> C -2.6128679279 -1.0990945538 1.5183324693
| 24> C -1.6700564761 -2.2101347087 1.9348810717
| 25> H 5.3720154628 0.0827721009 -0.2358648558
| 26> H 5.473861572 1.6388490061 0.6119468097
| 27> H 4.526304212 0.3112010956 1.3020295413
| 28> H 3.8632234706 1.8068614242 -1.2882539475
| 29> H 3.0055942999 1.953420889 0.2748391475
| 30> H 1.4939562098 -3.0058932457 1.5647870831
| 31> H 2.8790046599 -3.9029485665 0.8885478911
| 32> H 4.3965929384 -2.7249965831 2.4933353119
| 33> H 3.0100738842 -1.8547730605 3.1654728207
| 34> H 3.1257850125 -3.6105852687 3.3539081487
| 35> H -0.7743098045 -0.2412836754 -2.6661972907
| 36> H 0.9448805788 0.2957797146 -2.6390944767
| 37> H -3.7025692298 3.8933719962 0.2617504136
| 38> H -2.0680446108 3.8094160888 -0.4563501174
| 39> H -3.8263074621 4.2053526928 -2.1989106123
| 40> H -2.9789623063 2.6720475422 -2.456042163
| 41> H -4.5989453319 2.6737249398 -1.7521802757
| 42> H -3.1523866694 -0.6939487998 2.3768653554
| 43> H -3.3287264316 -1.4463426162 0.7650154545
| 44> H -2.2320323142 -2.9771754211 2.4573429661
| 45> H -1.193859305 -2.6472745468 1.0594453506
| 46> H -0.9040199224 -1.8094224675 2.5948996103
| 47> *
| 48>
| 49>                          ****END OF INPUT****

CARTESIAN COORDINATES (ANGSTROEM)
---------------------------------
  C      4.829143    0.798166    0.375960
  C      3.603889    1.293508   -0.361669
  O      2.772211    0.194655   -0.793359
  P      1.943181   -0.668280    0.236948
  S      1.384064    0.229821    1.891580
  O      2.884125   -1.932208    0.450644
  C      2.573028   -2.982292    1.388661
  C      3.329208   -2.778606    2.687594
  S      0.454444   -1.461607   -1.066850
  C      0.079546    0.024341   -2.040467
  S     -0.340584    1.468783   -1.033813
  P     -2.212504    0.766850   -0.361804
  S     -3.270212   -0.286594   -1.638604
  O     -2.898411    2.062152    0.250070
  C     -3.051398    3.332707   -0.411391
  C     -3.655305    3.212621   -1.795142
  O     -1.844342   -0.010141    0.964838
  C     -2.612868   -1.099095    1.518332
  C     -1.670056   -2.210135    1.934881
  H      5.372015    0.082772   -0.235865
  H      5.473862    1.638849    0.611947
  H      4.526304    0.311201    1.302030
  H      3.863223    1.806861   -1.288254
  H      3.005594    1.953421    0.274839
  H      1.493956   -3.005893    1.564787
  H      2.879005   -3.902949    0.888548
  H      4.396593   -2.724997    2.493335
  H      3.010074   -1.854773    3.165473
  H      3.125785   -3.610585    3.353908
  H     -0.774310   -0.241284   -2.666197
  H      0.944881    0.295780   -2.639094
  H     -3.702569    3.893372    0.261750
  H     -2.068045    3.809416   -0.456350
  H     -3.826307    4.205353   -2.198911
  H     -2.978962    2.672048   -2.456042
  H     -4.598945    2.673725   -1.752180
  H     -3.152387   -0.693949    2.376865
  H     -3.328726   -1.446343    0.765015
  H     -2.232032   -2.977175    2.457343
  H     -1.193859   -2.647275    1.059445
  H     -0.904020   -1.809422    2.594900

 Total Charge           Charge          ....    0
 Multiplicity           Mult            ....    1
 Number of Electrons    NEL             ....  202
 Basis Dimension        Dim             ....  334

ORBITAL ENERGIES
----------------

  NO   OCC          E(Eh)            E(eV)
   0   2.0000     -88.044059     -2395.8007
   1   2.0000     -88.037482     -2395.6217
   2   2.0000     -87.984444     -2394.1784
   3   2.0000     -87.982425     -2394.1235
   4   2.0000     -76.426864     -2079.6807
   5   2.0000     -76.423588     -2079.5916
   6   2.0000     -18.797580      -511.5082
   7   2.0000     -18.790312      -511.3104
   8   2.0000     -18.788396      -511.2583
   9   2.0000     -18.779178      -511.0074
  10   2.0000      -9.956832      -270.9392
  11   2.0000      -9.956420      -270.9280
  12   2.0000      -9.955618      -270.9061
  13   2.0000      -9.955356      -270.8990
  14   2.0000      -9.941182      -270.5133
  15   2.0000      -9.885941      -269.0101
  16   2.0000      -9.882552      -268.9179
  17   2.0000      -9.881444      -268.8878
  18   2.0000      -9.872758      -268.6514
  19   2.0000      -7.689168      -209.2329
  20   2.0000      -7.682686      -209.0565
  21   2.0000      -7.629393      -207.6063
  22   2.0000      -7.627479      -207.5543
  23   2.0000      -6.424249      -174.8127
  24   2.0000      -6.420803      -174.7189
  25   2.0000      -5.716948      -155.5661
  26   2.0000      -5.713643      -155.4761
  27   2.0000      -5.710808      -155.3990
  28   2.0000      -5.707285      -155.3031
  29   2.0000      -5.706219      -155.2741
  30   2.0000      -5.699276      -155.0852
  31   2.0000      -5.658205      -153.9676
  32   2.0000      -5.656250      -153.9144
  33   2.0000      -5.650253      -153.7512
  34   2.0000      -5.649424      -153.7286
  35   2.0000      -5.648311      -153.6983
  36   2.0000      -5.647566      -153.6781
  37   2.0000      -4.646938      -126.4496
  38   2.0000      -4.646088      -126.4265
  39   2.0000      -4.644545      -126.3845
  40   2.0000      -4.643249      -126.3492
  41   2.0000      -4.642737      -126.3353
  42   2.0000      -4.641264      -126.2952
  43   2.0000      -0.989623       -26.9290
  44   2.0000      -0.979604       -26.6564
  45   2.0000      -0.948914       -25.8213
  46   2.0000      -0.937166       -25.5016
  47   2.0000      -0.763863       -20.7858
  48   2.0000      -0.720441       -19.6042
  49   2.0000      -0.707288       -19.2463
  50   2.0000      -0.688805       -18.7433
  51   2.0000      -0.682133       -18.5618
  52   2.0000      -0.669451       -18.2167
  53   2.0000      -0.650852       -17.7106
  54   2.0000      -0.637781       -17.3549
  55   2.0000      -0.597147       -16.2492
  56   2.0000      -0.590726       -16.0745
  57   2.0000      -0.572982       -15.5916
  58   2.0000      -0.569625       -15.5003
  59   2.0000      -0.556755       -15.1501
  60   2.0000      -0.503549       -13.7023
  61   2.0000      -0.494883       -13.4665
  62   2.0000      -0.480527       -13.0758
  63   2.0000      -0.465835       -12.6760
  64   2.0000      -0.459096       -12.4926
  65   2.0000      -0.443285       -12.0624
  66   2.0000      -0.438349       -11.9281
  67   2.0000      -0.429391       -11.6843
  68   2.0000      -0.424749       -11.5580
  69   2.0000      -0.412361       -11.2209
  70   2.0000      -0.405903       -11.0452
  71   2.0000      -0.401859       -10.9351
  72   2.0000      -0.392366       -10.6768
  73   2.0000      -0.390996       -10.6395
  74   2.0000      -0.378039       -10.2870
  75   2.0000      -0.371569       -10.1109
  76   2.0000      -0.367211        -9.9923
  77   2.0000      -0.354451        -9.6451
  78   2.0000      -0.350635        -9.5413
  79   2.0000      -0.347938        -9.4679
  80   2.0000      -0.346447        -9.4273
  81   2.0000      -0.340657        -9.2697
  82   2.0000      -0.339656        -9.2425
  83   2.0000      -0.332771        -9.0552
  84   2.0000      -0.331103        -9.0098
  85   2.0000      -0.322810        -8.7841
  86   2.0000      -0.305867        -8.3231
  87   2.0000      -0.299024        -8.1369
  88   2.0000      -0.294109        -8.0031
  89   2.0000      -0.290176        -7.8961
  90   2.0000      -0.282663        -7.6917
  91   2.0000      -0.276473        -7.5232
  92   2.0000      -0.267731        -7.2853
  93   2.0000      -0.261611        -7.1188
  94   2.0000      -0.258999        -7.0477
  95   2.0000      -0.234211        -6.3732
  96   2.0000      -0.218261        -5.9392
  97   2.0000      -0.205658        -5.5962
  98   2.0000      -0.198165        -5.3923
  99   2.0000      -0.197328        -5.3696
 100   2.0000      -0.190162        -5.1746
 101   0.0000      -0.048804        -1.3280
 102   0.0000      -0.021296        -0.5795
 103   0.0000      -0.020298        -0.5523
 104   0.0000       0.001749         0.0476
 105   0.0000       0.019426         0.5286

MULLIKEN ATOMIC CHARGES
-----------------------
   0 C :   -0.308196
   1 C :   -0.007628
   2 O :   -0.373457
   3 P :    0.611260
   4 S :   -0.303788
   5 O :   -0.370899
   6 C :   -0.022590
   7 C :   -0.291405
   8 S :   -0.095590
   9 C :   -0.345787
  10 S :   -0.097982
  11 P :    0.623129
  12 S :   -0.341252
  13 O :   -0.371731
  14 C :   -0.007379
  15 C :   -0.310227
  16 O :   -0.348053
  17 C :    0.001249
  18 C :   -0.314673
  19 H :    0.118060
  20 H :    0.112976
  21 H :    0.127447
  22 H :    0.103915
  23 H :    0.116388
  24 H :    0.113815
  25 H :    0.109189
  26 H :    0.114064
  27 H :    0.127930
  28 H :    0.107324
  29 H :    0.192790
  30 H :    0.187041
  31 H :    0.109336
  32 H :    0.111953
  33 H :    0.109817
  34 H :    0.122030
  35 H :    0.127788
  36 H :    0.099535
  37 H :    0.106307
  38 H :    0.100744
  39 H :    0.128837
  40 H :    0.127713
Sum of atomic charges:    0.0000000

LOEWDIN ATOMIC CHARGES
----------------------
   0 C :   -0.364686
   1 C :   -0.117807
   2 O :   -0.238580
   3 P :    0.569241
   4 S :   -0.301541
   5 O :   -0.248667
   6 C :   -0.115253
   7 C :   -0.362435
   8 S :    0.077775
   9 C :   -0.476539
  10 S :    0.086133
  11 P :    0.574594
  12 S :   -0.322160
  13 O :   -0.245387
  14 C :   -0.112568
  15 C :   -0.370335
  16 O :   -0.232200
  17 C :   -0.113029
  18 C :   -0.364284
  19 H :    0.127221
  20 H :    0.131182
  21 H :    0.123936
  22 H :    0.117771
  23 H :    0.112239
  24 H :    0.111496
  25 H :    0.119575
  26 H :    0.125219
  27 H :    0.124223
  28 H :    0.128546
  29 H :    0.129566
  30 H :    0.133340
  31 H :    0.121690
  32 H :    0.109363
  33 H :    0.129173
  34 H :    0.119446
  35 H :    0.129984
  36 H :    0.113659
  37 H :    0.104568
  38 H :    0.125063
  39 H :    0.117408
  40 H :    0.123058

  Mayer bond orders larger than 0.100000
B(  0-C ,  1-C ) :   1.1659 B(  0-C , 19-H ) :   0.9459 B(  0-C , 20-H ) :   0.9384
B(  0-C , 21-H ) :   0.9331 B(  1-C ,  2-O ) :   0.8975 B(  1-C , 22-H ) :   0.9338
B(  1-C , 23-H ) :   0.9144 B(  2-O ,  3-P ) :   1.1162 B(  3-P ,  4-S ) :   1.6272
B(  3-P ,  5-O ) :   1.1031 B(  3-P ,  8-S ) :   0.9483 B(  4-S ,  8-S ) :   0.1088
B(  5-O ,  6-C ) :   0.9036 B(  6-C ,  7-C ) :   1.1699 B(  6-C , 24-H ) :   0.9131
B(  6-C , 25-H ) :   0.9341 B(  7-C , 26-H ) :   0.9464 B(  7-C , 27-H ) :   0.9315
B(  7-C , 28-H ) :   0.9393 B(  8-S ,  9-C ) :   1.0052 B(  9-C , 10-S ) :   1.0144
B(  9-C , 29-H ) :   0.8741 B(  9-C , 30-H ) :   0.9019 B( 10-S , 11-P ) :   0.9440
B( 10-S , 12-S ) :   0.1079 B( 11-P , 12-S ) :   1.5977 B( 11-P , 13-O ) :   1.1215
B( 11-P , 16-O ) :   1.1524 B( 13-O , 14-C ) :   0.9158 B( 14-C , 15-C ) :   1.1635
B( 14-C , 31-H ) :   0.9346 B( 14-C , 32-H ) :   0.9291 B( 15-C , 33-H ) :   0.9349
B( 15-C , 34-H ) :   0.9336 B( 15-C , 35-H ) :   0.9419 B( 16-O , 17-C ) :   0.9039
B( 17-C , 18-C ) :   1.1643 B( 17-C , 36-H ) :   0.9334 B( 17-C , 37-H ) :   0.9021
B( 18-C , 38-H ) :   0.9373 B( 18-C , 39-H ) :   0.9387 B( 18-C , 40-H ) :   0.9385

Dispersion correction           -0.066884839
FINAL SINGLE POINT ENERGY     -2929.517143684655

DIPOLE MOMENT
-------------

Method             : SCF
Type of density    : Electron Density
Multiplicity       :   1
Irrep              :   0
Energy             : -2929.6339775877786451 Eh
Relativity type    :
Basis              : AO
                                X                 Y                 Z
Electronic contribution:     -8.194384656       1.907021944      -8.955933345
Nuclear contribution   :      9.059676609      -1.556642885       9.069290256
                        -----------------------------------------
Total Dipole Moment    :      0.865291953       0.350379059       0.113356911
                        -----------------------------------------
Magnitude (a.u.)       :      0.940396426
Magnitude (Debye)      :      2.390297754

Rotational constants in cm-1:             0.012959             0.005247             0.004621
Rotational constants in MHz :           388.497995           157.301641           138.542487

                             ****ORCA TERMINATED NORMALLY****
TOTAL RUN TIME: 0 days 0 hours 0 minutes 21 seconds 11 msec
