                         Program Version 6.0.0  -   RELEASE  -
|  1> ! pbe def2-sv(p) def2/J RI DEFGRID1 loosescf d4 GCP(DFT/SV(P)) printgap
|  2> %output
|  3>     printlevel normal
|  4> end
|  5> * xyz 0 1
|  6> C 3.0817261534 2.1902737137 -1.6330989053
|  7> C 3.7820133271 1.7948265489 -0.3485507012
|  8> O 3.5588999431 0.4129646699 -0.0277477453
|  9> P 2.164344075 -0.1101480526 0.5303787203
| 10> S 1.3530742411 1.0950590232 1.8504545875
| 11> O 2.5181379504 -1.5628611764 1.0492535302
| 12> C 2.8778127668 -1.8128905778 2.4253584728
| 13> C 4.2406982072 -1.2448822209 2.7589677325
| 14> S 1.1131169741 -0.6397617051 -1.2349814258
| 15> C -0.0464078109 -1.847751722 -0.5345684424
| 16> S -1.2286982268 -1.1326070106 0.6333295204
| 17> P -2.3036309766 0.0303342887 -0.8021619447
| 18> S -2.4066544823 -0.7302154598 -2.5986127341
| 19> O -1.6302412571 1.4559605842 -0.7922501867
| 20> C -1.6862692869 2.3503460604 0.3498713747
| 21> C -0.8270426915 3.5539362249 0.0295372266
| 22> O -3.6940425404 0.3208994805 -0.0878501423
| 23> C -4.8231160752 -0.5661745095 -0.2013292064
| 24> C -4.5811284449 -1.899275425 0.4759151662
| 25> H 3.3179861721 3.2219035292 -1.8735041044
| 26> H 3.3976359044 1.5460650539 -2.4495823898
| 27> H 2.0019367131 2.0906865107 -1.5175327911
| 28> H 3.4315075428 2.4072644525 0.489709658
| 29> H 4.8657593498 1.8768912051 -0.4404075042
| 30> H 2.1074505289 -1.3775583303 3.07006657
| 31> H 2.8606115927 -2.9003831446 2.5073074479
| 32> H 4.5172857733 -1.5413056733 3.7658978826
| 33> H 4.982917712 -1.6115772698 2.0549256957
| 34> H 4.2116263141 -0.1574586273 2.7052063704
| 35> H 0.50174754 -2.6221926572 -0.0051871568
| 36> H -0.5892694739 -2.2546721798 -1.3888689934
| 37> H -2.7291392387 2.6282422904 0.5103310325
| 38> H -1.3119907996 1.8197140298 1.230458088
| 39> H 0.2144453443 3.2561722252 -0.0578064221
| 40> H -1.1476764681 4.0040939326 -0.9054491581
| 41> H -0.9178269133 4.2758100584 0.8344083806
| 42> H -5.6333121585 -0.0129149739 0.2757504211
| 43> H -5.0421756859 -0.7082537183 -1.2639472333
| 44> H -4.2406787466 -1.7490912876 1.4975065864
| 45> H -5.5050421869 -2.4685184016 0.48311374
| 46> H -3.8246969377 -2.4625257177 -0.0682038013
| 47> *
| 48>
| 49>                          ****END OF INPUT****

CARTESIAN COORDINATES (ANGSTROEM)
---------------------------------
  C      3.081726    2.190274   -1.633099
  C      3.782013    1.794827   -0.348551
  O      3.558900    0.412965   -0.027748
  P      2.164344   -0.110148    0.530379
  S      1.353074    1.095059    1.850455
  O      2.518138   -1.562861    1.049254
  C      2.877813   -1.812891    2.425358
  C      4.240698   -1.244882    2.758968
  S      1.113117   -0.639762   -1.234981
  C     -0.046408   -1.847752   -0.534568
  S     -1.228698   -1.132607    0.633330
  P     -2.303631    0.030334   -0.802162
  S     -2.406654   -0.730215   -2.598613
  O     -1.630241    1.455961   -0.792250
  C     -1.686269    2.350346    0.349871
  C     -0.827043    3.553936    0.029537
  O     -3.694043    0.320899   -0.087850
  C     -4.823116   -0.566175   -0.201329
  C     -4.581128   -1.899275    0.475915
  H      3.317986    3.221904   -1.873504
  H      3.397636    1.546065   -2.449582
  H      2.001937    2.090687   -1.517533
  H      3.431508    2.407264    0.489710
  H      4.865759    1.876891   -0.440408
  H      2.107451   -1.377558    3.070067
  H      2.860612   -2.900383    2.507307
  H      4.517286   -1.541306    3.765898
  H      4.982918   -1.611577    2.054926
  H      4.211626   -0.157459    2.705206
  H      0.501748   -2.622193   -0.005187
  H     -0.589269   -2.254672   -1.388869
  H     -2.729139    2.628242    0.510331
  H     -1.311991    1.819714    1.230458
  H      0.214445    3.256172   -0.057806
  H     -1.147676    4.004094   -0.905449
  H     -0.917827    4.275810    0.834408
  H     -5.633312   -0.012915    0.275750
  H     -5.042176   -0.708254   -1.263947
  H     -4.240679   -1.749091    1.497507
  H     -5.505042   -2.468518    0.483114
  H     -3.824697   -2.462526   -0.068204

 Total Charge           Charge          ....    0
 Multiplicity           Mult            ....    1
 Number of Electrons    NEL             ....  202
 Basis Dimension        Dim             ....  334

ORBITAL ENERGIES
----------------

  NO   OCC          E(Eh)            E(eV)
   0   2.0000     -88.039385     -2395.6735
   1   2.0000     -88.037352     -2395.6181
   2   2.0000     -87.989983     -2394.3292
   3   2.0000     -87.984378     -2394.1766
   4   2.0000     -76.428397     -2079.7224
   5   2.0000     -76.422850     -2079.5715
   6   2.0000     -18.797351      -511.5019
   7   2.0000     -18.794517      -511.4248
   8   2.0000     -18.793023      -511.3841
   9   2.0000     -18.784143      -511.1425
  10   2.0000      -9.955971      -270.9158
  11   2.0000      -9.953833      -270.8576
  12   2.0000      -9.952999      -270.8349
  13   2.0000      -9.952908      -270.8324
  14   2.0000      -9.943065      -270.5645
  15   2.0000      -9.886933      -269.0371
  16   2.0000      -9.886581      -269.0275
  17   2.0000      -9.883360      -268.9399
  18   2.0000      -9.877473      -268.7797
  19   2.0000      -7.684430      -209.1040
  20   2.0000      -7.682290      -209.0457
  21   2.0000      -7.634744      -207.7520
  22   2.0000      -7.629661      -207.6136
  23   2.0000      -6.426147      -174.8644
  24   2.0000      -6.420371      -174.7072
  25   2.0000      -5.712464      -155.4441
  26   2.0000      -5.710051      -155.3784
  27   2.0000      -5.709053      -155.3512
  28   2.0000      -5.706913      -155.2930
  29   2.0000      -5.701140      -155.1359
  30   2.0000      -5.699259      -155.0847
  31   2.0000      -5.663405      -154.1091
  32   2.0000      -5.658591      -153.9781
  33   2.0000      -5.655414      -153.8916
  34   2.0000      -5.655113      -153.8834
  35   2.0000      -5.650169      -153.7489
  36   2.0000      -5.649887      -153.7412
  37   2.0000      -4.648786      -126.4999
  38   2.0000      -4.647963      -126.4775
  39   2.0000      -4.646471      -126.4369
  40   2.0000      -4.643308      -126.3508
  41   2.0000      -4.641911      -126.3128
  42   2.0000      -4.640732      -126.2807
  43   2.0000      -0.990886       -26.9634
  44   2.0000      -0.984662       -26.7940
  45   2.0000      -0.951299       -25.8862
  46   2.0000      -0.939624       -25.5685
  47   2.0000      -0.761335       -20.7170
  48   2.0000      -0.720237       -19.5986
  49   2.0000      -0.707441       -19.2504
  50   2.0000      -0.690195       -18.7812
  51   2.0000      -0.686117       -18.6702
  52   2.0000      -0.671573       -18.2744
  53   2.0000      -0.652962       -17.7680
  54   2.0000      -0.637162       -17.3381
  55   2.0000      -0.602389       -16.3918
  56   2.0000      -0.590194       -16.0600
  57   2.0000      -0.575682       -15.6651
  58   2.0000      -0.563993       -15.3470
  59   2.0000      -0.558266       -15.1912
  60   2.0000      -0.501823       -13.6553
  61   2.0000      -0.495840       -13.4925
  62   2.0000      -0.478326       -13.0159
  63   2.0000      -0.471447       -12.8287
  64   2.0000      -0.460797       -12.5389
  65   2.0000      -0.444613       -12.0985
  66   2.0000      -0.441241       -12.0068
  67   2.0000      -0.435391       -11.8476
  68   2.0000      -0.424534       -11.5522
  69   2.0000      -0.415017       -11.2932
  70   2.0000      -0.410479       -11.1697
  71   2.0000      -0.396889       -10.7999
  72   2.0000      -0.392249       -10.6736
  73   2.0000      -0.386356       -10.5133
  74   2.0000      -0.377264       -10.2659
  75   2.0000      -0.374528       -10.1914
  76   2.0000      -0.362366        -9.8605
  77   2.0000      -0.359669        -9.7871
  78   2.0000      -0.357016        -9.7149
  79   2.0000      -0.351784        -9.5725
  80   2.0000      -0.348779        -9.4908
  81   2.0000      -0.346385        -9.4256
  82   2.0000      -0.338556        -9.2126
  83   2.0000      -0.335232        -9.1221
  84   2.0000      -0.331347        -9.0164
  85   2.0000      -0.318743        -8.6734
  86   2.0000      -0.307001        -8.3539
  87   2.0000      -0.298217        -8.1149
  88   2.0000      -0.297230        -8.0880
  89   2.0000      -0.293088        -7.9753
  90   2.0000      -0.287921        -7.8347
  91   2.0000      -0.277457        -7.5500
  92   2.0000      -0.266660        -7.2562
  93   2.0000      -0.263835        -7.1793
  94   2.0000      -0.256053        -6.9675
  95   2.0000      -0.239670        -6.5217
  96   2.0000      -0.218003        -5.9322
  97   2.0000      -0.208040        -5.6611
  98   2.0000      -0.205613        -5.5950
  99   2.0000      -0.200657        -5.4602
 100   2.0000      -0.192985        -5.2514
 101   0.0000      -0.044807        -1.2192
 102   0.0000      -0.021771        -0.5924
 103   0.0000      -0.013307        -0.3621
 104   0.0000       0.002897         0.0788
 105   0.0000       0.016161         0.4398

MULLIKEN ATOMIC CHARGES
-----------------------
   0 C :   -0.341661
   1 C :   -0.009455
   2 O :   -0.368413
   3 P :    0.613624
   4 S :   -0.325392
   5 O :   -0.373322
   6 C :   -0.007738
   7 C :   -0.304926
   8 S :   -0.070043
   9 C :   -0.361095
  10 S :   -0.095382
  11 P :    0.619329
  12 S :   -0.319247
  13 O :   -0.357403
  14 C :   -0.022089
  15 C :   -0.290758
  16 O :   -0.387473
  17 C :    0.000120
  18 C :   -0.315090
  19 H :    0.116323
  20 H :    0.123767
  21 H :    0.156022
  22 H :    0.110086
  23 H :    0.106780
  24 H :    0.114295
  25 H :    0.105357
  26 H :    0.113426
  27 H :    0.119402
  28 H :    0.122882
  29 H :    0.186949
  30 H :    0.193738
  31 H :    0.102989
  32 H :    0.121028
  33 H :    0.129929
  34 H :    0.114673
  35 H :    0.104773
  36 H :    0.104482
  37 H :    0.113038
  38 H :    0.118058
  39 H :    0.112669
  40 H :    0.125749
Sum of atomic charges:    0.0000000

LOEWDIN ATOMIC CHARGES
----------------------
   0 C :   -0.370209
   1 C :   -0.122504
   2 O :   -0.241721
   3 P :    0.571358
   4 S :   -0.308545
   5 O :   -0.240489
   6 C :   -0.118365
   7 C :   -0.364071
   8 S :    0.096700
   9 C :   -0.483832
  10 S :    0.073121
  11 P :    0.575168
  12 S :   -0.311785
  13 O :   -0.235957
  14 C :   -0.117790
  15 C :   -0.353398
  16 O :   -0.247622
  17 C :   -0.115641
  18 C :   -0.370663
  19 H :    0.132949
  20 H :    0.128489
  21 H :    0.124213
  22 H :    0.107215
  23 H :    0.119538
  24 H :    0.111639
  25 H :    0.118387
  26 H :    0.131304
  27 H :    0.127860
  28 H :    0.123108
  29 H :    0.132782
  30 H :    0.129057
  31 H :    0.110073
  32 H :    0.105536
  33 H :    0.121592
  34 H :    0.126303
  35 H :    0.129472
  36 H :    0.118487
  37 H :    0.112886
  38 H :    0.123831
  39 H :    0.130833
  40 H :    0.120692

  Mayer bond orders larger than 0.100000
B(  0-C ,  1-C ) :   1.1651 B(  0-C , 19-H ) :   0.9392 B(  0-C , 20-H ) :   0.9430
B(  0-C , 21-H ) :   0.9227 B(  1-C ,  2-O ) :   0.9101 B(  1-C , 22-H ) :   0.9112
B(  1-C , 23-H ) :   0.9319 B(  2-O ,  3-P ) :   1.1039 B(  3-P ,  4-S ) :   1.6032
B(  3-P ,  5-O ) :   1.1118 B(  3-P ,  8-S ) :   0.9708 B(  4-S ,  8-S ) :   0.1099
B(  5-O ,  6-C ) :   0.9003 B(  6-C ,  7-C ) :   1.1663 B(  6-C , 24-H ) :   0.9150
B(  6-C , 25-H ) :   0.9336 B(  7-C , 26-H ) :   0.9387 B(  7-C , 27-H ) :   0.9459
B(  7-C , 28-H ) :   0.9364 B(  8-S ,  9-C ) :   0.9994 B(  9-C , 10-S ) :   1.0109
B(  9-C , 29-H ) :   0.8970 B(  9-C , 30-H ) :   0.8742 B( 10-S , 11-P ) :   0.9431
B( 10-S , 12-S ) :   0.1103 B( 11-P , 12-S ) :   1.6279 B( 11-P , 13-O ) :   1.1473
B( 11-P , 16-O ) :   1.0845 B( 13-O , 14-C ) :   0.8877 B( 14-C , 15-C ) :   1.1704
B( 14-C , 31-H ) :   0.9276 B( 14-C , 32-H ) :   0.9056 B( 15-C , 33-H ) :   0.9332
B( 15-C , 34-H ) :   0.9492 B( 15-C , 35-H ) :   0.9392 B( 16-O , 17-C ) :   0.9079
B( 17-C , 18-C ) :   1.1663 B( 17-C , 36-H ) :   0.9344 B( 17-C , 37-H ) :   0.9185
B( 18-C , 38-H ) :   0.9437 B( 18-C , 39-H ) :   0.9368 B( 18-C , 40-H ) :   0.9353

Dispersion correction           -0.066008148
FINAL SINGLE POINT ENERGY     -2929.523270747476

DIPOLE MOMENT
-------------

Method             : SCF
Type of density    : Electron Density
Multiplicity       :   1
Irrep              :   0
Energy             : -2929.6420582987016132 Eh
Relativity type    :
Basis              : AO
                                X                 Y                 Z
Electronic contribution:     -4.924813861      -6.978265558      -8.097966241
Nuclear contribution   :      5.300403078       6.932837874       9.153663938
                        -----------------------------------------
Total Dipole Moment    :      0.375589216      -0.045427684       1.055697697
                        -----------------------------------------
Magnitude (a.u.)       :      1.121440396
Magnitude (Debye)      :      2.850474955

Rotational constants in cm-1:             0.012529             0.005078             0.004665
Rotational constants in MHz :           375.596349           152.234132           139.855271

                             ****ORCA TERMINATED NORMALLY****
TOTAL RUN TIME: 0 days 0 hours 0 minutes 20 seconds 903 msec
