                         Program Version 6.0.1  -  RELEASE   -
|  1> ! pbe def2-sv(p) def2/J RI DEFGRID1 loosescf d4 GCP(DFT/SV(P)) printgap
|  2> %output
|  3>     printlevel normal
|  4> end
|  5> * xyz 0 1
|  6> C 2.465308797 -3.8476886962 -1.961814249
|  7> C 2.8210423226 -3.5453727347 -0.5148464399
|  8> O 2.8655575821 -2.1209614487 -0.2913805236
|  9> C 1.7472002268 -1.4939303604 -0.0221832749
| 10> O 0.6651308669 -2.0355386592 0.097143576
| 11> C 1.9502652242 -0.006708976 0.1458840383
| 12> C 1.1082983839 0.8160370329 -0.8496992795
| 13> H 1.6979437669 1.0673010815 -1.7323242547
| 14> C 0.639554121 2.0847106962 -0.1524179509
| 15> O -0.4996291066 2.2465982968 0.225819343
| 16> O 1.6262348861 2.9249963747 0.0206227657
| 17> C 1.3576303931 4.1680546051 0.7075126601
| 18> C 0.822246962 5.213727015 -0.2563174795
| 19> S -0.3690813175 -0.0209813671 -1.5280917195
| 20> P -1.5072542446 -0.3183141396 0.2160090642
| 21> S -0.9036581695 -0.1527847469 2.0833354368
| 22> O -2.7064837637 0.6541098537 -0.1977300779
| 23> C -3.7934676124 0.9192473753 0.6916639428
| 24> O -2.2674553084 -1.7078161458 -0.0424368733
| 25> C -1.9616656454 -2.9636551852 0.5576523716
| 26> H 2.4726100478 -4.921393345 -2.1171373123
| 27> H 1.4740590635 -3.4628089602 -2.193039297
| 28> H 3.1855863999 -3.3831374863 -2.6290641997
| 29> H 3.8250899533 -3.8904316781 -0.2692538956
| 30> H 2.0884046798 -3.9837838192 0.1683630688
| 31> H 3.0047340325 0.2343286713 0.0268139784
| 32> H 1.6322000761 0.2268831772 1.1670650755
| 33> H 0.6416386367 3.9738185535 1.5108956655
| 34> H 2.3240893956 4.459097761 1.1182387527
| 35> H 1.5189195777 5.3582920172 -1.0771461907
| 36> H -0.1382851494 4.8971306272 -0.6569285585
| 37> H 0.6903021976 6.1521168778 0.2719683888
| 38> H -4.4498269275 0.0505975235 0.750389363
| 39> H -4.3174867462 1.7715145154 0.2668556236
| 40> H -3.4125685351 1.164109711 1.6853241452
| 41> H -2.9114564228 -3.4815823251 0.6717929887
| 42> H -1.4885001089 -2.809874336 1.5289535913
| 43> H -1.2893756797 -3.5211427711 -0.0905986337
| 44> *
| 45>
| 46>                          ****END OF INPUT****

CARTESIAN COORDINATES (ANGSTROEM)
---------------------------------
  C      2.465309   -3.847689   -1.961814
  C      2.821042   -3.545373   -0.514846
  O      2.865558   -2.120961   -0.291381
  C      1.747200   -1.493930   -0.022183
  O      0.665131   -2.035539    0.097144
  C      1.950265   -0.006709    0.145884
  C      1.108298    0.816037   -0.849699
  H      1.697944    1.067301   -1.732324
  C      0.639554    2.084711   -0.152418
  O     -0.499629    2.246598    0.225819
  O      1.626235    2.924996    0.020623
  C      1.357630    4.168055    0.707513
  C      0.822247    5.213727   -0.256317
  S     -0.369081   -0.020981   -1.528092
  P     -1.507254   -0.318314    0.216009
  S     -0.903658   -0.152785    2.083335
  O     -2.706484    0.654110   -0.197730
  C     -3.793468    0.919247    0.691664
  O     -2.267455   -1.707816   -0.042437
  C     -1.961666   -2.963655    0.557652
  H      2.472610   -4.921393   -2.117137
  H      1.474059   -3.462809   -2.193039
  H      3.185586   -3.383137   -2.629064
  H      3.825090   -3.890432   -0.269254
  H      2.088405   -3.983784    0.168363
  H      3.004734    0.234329    0.026814
  H      1.632200    0.226883    1.167065
  H      0.641639    3.973819    1.510896
  H      2.324089    4.459098    1.118239
  H      1.518920    5.358292   -1.077146
  H     -0.138285    4.897131   -0.656929
  H      0.690302    6.152117    0.271968
  H     -4.449827    0.050598    0.750389
  H     -4.317487    1.771515    0.266856
  H     -3.412569    1.164110    1.685324
  H     -2.911456   -3.481582    0.671793
  H     -1.488500   -2.809874    1.528954
  H     -1.289376   -3.521143   -0.090599

 Total Charge           Charge          ....    0
 Multiplicity           Mult            ....    1
 Number of Electrons    NEL             ....  174
 Basis Dimension        Dim             ....  316

ORBITAL ENERGIES
----------------

  NO   OCC          E(Eh)            E(eV)
   0   2.0000     -88.026402     -2395.3202
   1   2.0000     -87.962679     -2393.5862
   2   2.0000     -76.409392     -2079.2053
   3   2.0000     -18.812664      -511.9186
   4   2.0000     -18.810939      -511.8717
   5   2.0000     -18.768129      -510.7068
   6   2.0000     -18.760709      -510.5049
   7   2.0000     -18.746275      -510.1121
   8   2.0000     -18.744565      -510.0655
   9   2.0000     -10.015519      -272.5361
  10   2.0000     -10.015184      -272.5270
  11   2.0000      -9.954064      -270.8639
  12   2.0000      -9.953886      -270.8590
  13   2.0000      -9.950478      -270.7663
  14   2.0000      -9.922230      -269.9976
  15   2.0000      -9.919666      -269.9278
  16   2.0000      -9.910332      -269.6738
  17   2.0000      -9.891511      -269.1617
  18   2.0000      -9.890906      -269.1452
  19   2.0000      -7.671687      -208.7572
  20   2.0000      -7.607987      -207.0239
  21   2.0000      -6.404870      -174.2854
  22   2.0000      -5.700045      -155.1061
  23   2.0000      -5.696658      -155.0139
  24   2.0000      -5.687557      -154.7663
  25   2.0000      -5.637184      -153.3956
  26   2.0000      -5.628786      -153.1671
  27   2.0000      -5.627580      -153.1342
  28   2.0000      -4.627266      -125.9143
  29   2.0000      -4.626928      -125.9051
  30   2.0000      -4.625654      -125.8704
  31   2.0000      -1.021293       -27.7908
  32   2.0000      -1.019717       -27.7479
  33   2.0000      -0.958492       -26.0819
  34   2.0000      -0.924664       -25.1614
  35   2.0000      -0.923471       -25.1289
  36   2.0000      -0.913391       -24.8546
  37   2.0000      -0.761522       -20.7221
  38   2.0000      -0.716136       -19.4870
  39   2.0000      -0.708369       -19.2757
  40   2.0000      -0.681802       -18.5528
  41   2.0000      -0.649873       -17.6839
  42   2.0000      -0.621435       -16.9101
  43   2.0000      -0.610980       -16.6256
  44   2.0000      -0.607383       -16.5277
  45   2.0000      -0.598948       -16.2982
  46   2.0000      -0.564307       -15.3556
  47   2.0000      -0.507700       -13.8152
  48   2.0000      -0.504972       -13.7410
  49   2.0000      -0.490672       -13.3519
  50   2.0000      -0.478352       -13.0166
  51   2.0000      -0.459248       -12.4968
  52   2.0000      -0.452992       -12.3265
  53   2.0000      -0.444967       -12.1082
  54   2.0000      -0.438457       -11.9310
  55   2.0000      -0.428604       -11.6629
  56   2.0000      -0.425061       -11.5665
  57   2.0000      -0.411603       -11.2003
  58   2.0000      -0.406048       -11.0491
  59   2.0000      -0.399527       -10.8717
  60   2.0000      -0.392188       -10.6720
  61   2.0000      -0.390574       -10.6281
  62   2.0000      -0.387111       -10.5338
  63   2.0000      -0.379878       -10.3370
  64   2.0000      -0.373106       -10.1527
  65   2.0000      -0.363931        -9.9031
  66   2.0000      -0.361491        -9.8367
  67   2.0000      -0.356713        -9.7066
  68   2.0000      -0.344764        -9.3815
  69   2.0000      -0.341444        -9.2912
  70   2.0000      -0.334636        -9.1059
  71   2.0000      -0.331241        -9.0135
  72   2.0000      -0.326004        -8.8710
  73   2.0000      -0.303633        -8.2623
  74   2.0000      -0.301317        -8.1993
  75   2.0000      -0.294855        -8.0234
  76   2.0000      -0.280860        -7.6426
  77   2.0000      -0.273138        -7.4325
  78   2.0000      -0.268229        -7.2989
  79   2.0000      -0.262771        -7.1504
  80   2.0000      -0.252960        -6.8834
  81   2.0000      -0.247399        -6.7321
  82   2.0000      -0.234378        -6.3778
  83   2.0000      -0.225183        -6.1275
  84   2.0000      -0.194612        -5.2957
  85   2.0000      -0.184164        -5.0114
  86   2.0000      -0.174933        -4.7602
  87   0.0000      -0.036527        -0.9939
  88   0.0000      -0.033473        -0.9109
  89   0.0000      -0.021715        -0.5909
  90   0.0000       0.012107         0.3294
  91   0.0000       0.035263         0.9596

MULLIKEN ATOMIC CHARGES
-----------------------
   0 C :   -0.309547
   1 C :   -0.015306
   2 O :   -0.217286
   3 C :    0.124948
   4 O :   -0.198594
   5 C :   -0.071442
   6 C :   -0.313616
   7 H :    0.139921
   8 C :    0.204460
   9 O :   -0.167629
  10 O :   -0.231213
  11 C :   -0.008299
  12 C :   -0.309904
  13 S :   -0.064851
  14 P :    0.665699
  15 S :   -0.363805
  16 O :   -0.372192
  17 C :   -0.089821
  18 O :   -0.396206
  19 C :   -0.087156
  20 H :    0.115116
  21 H :    0.133067
  22 H :    0.114498
  23 H :    0.106215
  24 H :    0.112039
  25 H :    0.107549
  26 H :    0.142109
  27 H :    0.118662
  28 H :    0.105024
  29 H :    0.114408
  30 H :    0.134629
  31 H :    0.116562
  32 H :    0.103386
  33 H :    0.116176
  34 H :    0.113962
  35 H :    0.106939
  36 H :    0.111718
  37 H :    0.109779
Sum of atomic charges:    0.0000000

LOEWDIN ATOMIC CHARGES
----------------------
   0 C :   -0.356865
   1 C :   -0.110134
   2 O :   -0.047737
   3 C :    0.034396
   4 O :   -0.161081
   5 C :   -0.255671
   6 C :   -0.260561
   7 H :    0.144451
   8 C :    0.013636
   9 O :   -0.145015
  10 O :   -0.051885
  11 C :   -0.107038
  12 C :   -0.356176
  13 S :    0.126059
  14 P :    0.603581
  15 S :   -0.335590
  16 O :   -0.252848
  17 C :   -0.213074
  18 O :   -0.259838
  19 C :   -0.216196
  20 H :    0.131740
  21 H :    0.131681
  22 H :    0.125389
  23 H :    0.119704
  24 H :    0.120772
  25 H :    0.137877
  26 H :    0.146835
  27 H :    0.125474
  28 H :    0.119334
  29 H :    0.125219
  30 H :    0.133642
  31 H :    0.132719
  32 H :    0.107096
  33 H :    0.117930
  34 H :    0.108442
  35 H :    0.110740
  36 H :    0.105529
  37 H :    0.107463

  Mayer bond orders larger than 0.100000
B(  0-C ,  1-C ) :   1.1738 B(  0-C , 20-H ) :   0.9435 B(  0-C , 21-H ) :   0.9425
B(  0-C , 22-H ) :   0.9484 B(  1-C ,  2-O ) :   0.9078 B(  1-C , 23-H ) :   0.9366
B(  1-C , 24-H ) :   0.9140 B(  2-O ,  3-C ) :   1.2659 B(  3-C ,  4-O ) :   1.9251
B(  3-C ,  5-C ) :   1.0382 B(  5-C ,  6-C ) :   1.0124 B(  5-C , 25-H ) :   0.8911
B(  5-C , 26-H ) :   0.8589 B(  6-C ,  7-H ) :   0.8774 B(  6-C ,  8-C ) :   0.8868
B(  6-C , 13-S ) :   1.0836 B(  8-C ,  9-O ) :   2.0309 B(  8-C , 10-O ) :   1.2441
B( 10-O , 11-C ) :   0.9035 B( 11-C , 12-C ) :   1.1754 B( 11-C , 27-H ) :   0.9143
B( 11-C , 28-H ) :   0.9368 B( 12-C , 29-H ) :   0.9481 B( 12-C , 30-H ) :   0.9451
B( 12-C , 31-H ) :   0.9435 B( 13-S , 14-P ) :   0.9219 B( 13-S , 15-S ) :   0.1137
B( 14-P , 15-S ) :   1.5465 B( 14-P , 16-O ) :   1.1008 B( 14-P , 18-O ) :   1.0905
B( 16-O , 17-C ) :   0.9423 B( 17-C , 32-H ) :   0.9507 B( 17-C , 33-H ) :   0.9605
B( 17-C , 34-H ) :   0.9341 B( 18-O , 19-C ) :   0.9366 B( 19-C , 35-H ) :   0.9548
B( 19-C , 36-H ) :   0.9301 B( 19-C , 37-H ) :   0.9503

Dispersion correction           -0.053449551
FINAL SINGLE POINT ENERGY     -1979.001043246394

DIPOLE MOMENT
-------------

Method             : SCF
Type of density    : Electron Density
Multiplicity       :   1
Irrep              :   0
Energy             : -1979.1308926317683472 Eh
Relativity type    :
Basis              : AO
                                X                 Y                 Z
Electronic contribution:     -6.192437685      -0.130733178       1.275342904
Nuclear contribution   :      7.522115367       0.196028844      -1.711841000
                        -----------------------------------------
Total Dipole Moment    :      1.329677682       0.065295666      -0.436498095
                        -----------------------------------------
Magnitude (a.u.)       :      1.401012794
Magnitude (Debye)      :      3.561091518

Rotational constants in cm-1:             0.011942             0.008281             0.005789
Rotational constants in MHz :           358.011788           248.271710           173.537135

                             ****ORCA TERMINATED NORMALLY****
TOTAL RUN TIME: 0 days 0 hours 0 minutes 38 seconds 79 msec
