                         Program Version 6.0.0  -   RELEASE  -
|  1> ! r2scan-3c def2/J RI DEFGRID2 scfconv6 printgap
|  2> %output
|  3>     printlevel normal
|  4> end
|  5> * xyz 0 1
|  6> C -0.6088105014 0.0043760181 -0.468199255
|  7> C 0.6090738586 0.0217233177 0.4676849849
|  8> O 1.8266813147 -0.0761872276 -0.2329915843
|  9> O -1.8275142261 -0.0385365933 0.2360270991
| 10> H -0.5813819143 -0.9012311572 -1.0787663817
| 11> H -0.5809183353 0.8763076781 -1.1366060857
| 12> H 0.5698098249 -0.8488228336 1.1266751091
| 13> H 0.5934614984 0.9290602651 1.0876274538
| 14> H 1.9285127992 0.6922817659 -0.8123517883
| 15> H -1.919400968 0.7624539903 0.7713659793
| 16> *
| 17>
| 18>                          ****END OF INPUT****

CARTESIAN COORDINATES (ANGSTROEM)
---------------------------------
  C     -0.608811    0.004376   -0.468199
  C      0.609074    0.021723    0.467685
  O      1.826681   -0.076187   -0.232992
  O     -1.827514   -0.038537    0.236027
  H     -0.581382   -0.901231   -1.078766
  H     -0.580918    0.876308   -1.136606
  H      0.569810   -0.848823    1.126675
  H      0.593461    0.929060    1.087627
  H      1.928513    0.692282   -0.812352
  H     -1.919401    0.762454    0.771366

 Total Charge           Charge          ....    0
 Multiplicity           Mult            ....    1
 Number of Electrons    NEL             ....   34
 Basis Dimension        Dim             ....  116

ORBITAL ENERGIES
----------------

  NO   OCC          E(Eh)            E(eV)
   0   2.0000     -18.957572      -515.8618
   1   2.0000     -18.957554      -515.8613
   2   2.0000     -10.080590      -274.3068
   3   2.0000     -10.080469      -274.3035
   4   2.0000      -0.999469       -27.1969
   5   2.0000      -0.988784       -26.9062
   6   2.0000      -0.700222       -19.0540
   7   2.0000      -0.601887       -16.3782
   8   2.0000      -0.499526       -13.5928
   9   2.0000      -0.470275       -12.7968
  10   2.0000      -0.432518       -11.7694
  11   2.0000      -0.391053       -10.6411
  12   2.0000      -0.382050       -10.3961
  13   2.0000      -0.316988        -8.6257
  14   2.0000      -0.305092        -8.3020
  15   2.0000      -0.263158        -7.1609
  16   2.0000      -0.231861        -6.3093
  17   0.0000       0.037919         1.0318
  18   0.0000       0.063443         1.7264
  19   0.0000       0.122953         3.3457
  20   0.0000       0.137510         3.7418
  21   0.0000       0.153207         4.1690

MULLIKEN ATOMIC CHARGES
-----------------------
   0 C :   -0.143942
   1 C :   -0.143664
   2 O :   -0.417849
   3 O :   -0.417823
   4 H :    0.148818
   5 H :    0.116843
   6 H :    0.148767
   7 H :    0.116869
   8 H :    0.295965
   9 H :    0.296016
Sum of atomic charges:    0.0000000

LOEWDIN ATOMIC CHARGES
----------------------
   0 C :    0.011819
   1 C :    0.011825
   2 O :   -0.610825
   3 O :   -0.610778
   4 H :    0.181627
   5 H :    0.151255
   6 H :    0.181621
   7 H :    0.151261
   8 H :    0.266086
   9 H :    0.266108

  Mayer bond orders larger than 0.100000
B(  0-C ,  1-C ) :   0.9194 B(  0-C ,  3-O ) :   0.9477 B(  0-C ,  4-H ) :   0.9651
B(  0-C ,  5-H ) :   0.9714 B(  1-C ,  2-O ) :   0.9475 B(  1-C ,  6-H ) :   0.9651
B(  1-C ,  7-H ) :   0.9714 B(  2-O ,  8-H ) :   0.8951 B(  3-O ,  9-H ) :   0.8950

Dispersion correction           -0.001549873
FINAL SINGLE POINT ENERGY      -230.206537166772

DIPOLE MOMENT
-------------

Method             : SCF
Type of density    : Electron Density
Multiplicity       :   1
Irrep              :   0
Energy             :  -230.2123150303242198 Eh
Relativity type    :
Basis              : AO
                                X                 Y                 Z
Electronic contribution:     -0.003821450      -0.512338087       0.014257835
Nuclear contribution   :      0.009447134       1.414983319      -0.039410434
                        -----------------------------------------
Total Dipole Moment    :      0.005625684       0.902645232      -0.025152599
                        -----------------------------------------
Magnitude (a.u.)       :      0.903013132
Magnitude (Debye)      :      2.295276973

Rotational constants in cm-1:             0.984572             0.130267             0.122335
Rotational constants in MHz :         29516.725319          3905.304660          3667.518749

                             ****ORCA TERMINATED NORMALLY****
TOTAL RUN TIME: 0 days 0 hours 0 minutes 10 seconds 253 msec
