                         Program Version 6.0.0  -   RELEASE  -
|  1> ! r2scan-3c def2/J RI DEFGRID2 scfconv6 printgap
|  2> %output
|  3>     printlevel normal
|  4> end
|  5> %cpcm
|  6>     smd true
|  7>     smdsolvent "water"
|  8> end
|  9> * xyz 0 1
| 10> C -0.6088105014 0.0043760181 -0.468199255
| 11> C 0.6090738586 0.0217233177 0.4676849849
| 12> O 1.8266813147 -0.0761872276 -0.2329915843
| 13> O -1.8275142261 -0.0385365933 0.2360270991
| 14> H -0.5813819143 -0.9012311572 -1.0787663817
| 15> H -0.5809183353 0.8763076781 -1.1366060857
| 16> H 0.5698098249 -0.8488228336 1.1266751091
| 17> H 0.5934614984 0.9290602651 1.0876274538
| 18> H 1.9285127992 0.6922817659 -0.8123517883
| 19> H -1.919400968 0.7624539903 0.7713659793
| 20> *
| 21>
| 22>                          ****END OF INPUT****

CARTESIAN COORDINATES (ANGSTROEM)
---------------------------------
  C     -0.608811    0.004376   -0.468199
  C      0.609074    0.021723    0.467685
  O      1.826681   -0.076187   -0.232992
  O     -1.827514   -0.038537    0.236027
  H     -0.581382   -0.901231   -1.078766
  H     -0.580918    0.876308   -1.136606
  H      0.569810   -0.848823    1.126675
  H      0.593461    0.929060    1.087627
  H      1.928513    0.692282   -0.812352
  H     -1.919401    0.762454    0.771366

 Total Charge           Charge          ....    0
 Multiplicity           Mult            ....    1
 Number of Electrons    NEL             ....   34
 Basis Dimension        Dim             ....  116

ORBITAL ENERGIES
----------------

  NO   OCC          E(Eh)            E(eV)
   0   2.0000     -18.955414      -515.8030
   1   2.0000     -18.955386      -515.8023
   2   2.0000     -10.070410      -274.0298
   3   2.0000     -10.070290      -274.0265
   4   2.0000      -0.995805       -27.0972
   5   2.0000      -0.985655       -26.8210
   6   2.0000      -0.691370       -18.8131
   7   2.0000      -0.593447       -16.1485
   8   2.0000      -0.491207       -13.3664
   9   2.0000      -0.461460       -12.5570
  10   2.0000      -0.425013       -11.5652
  11   2.0000      -0.390630       -10.6296
  12   2.0000      -0.375926       -10.2295
  13   2.0000      -0.312943        -8.5156
  14   2.0000      -0.305383        -8.3099
  15   2.0000      -0.261125        -7.1056
  16   2.0000      -0.230968        -6.2850
  17   0.0000       0.053957         1.4682
  18   0.0000       0.091295         2.4843
  19   0.0000       0.136384         3.7112
  20   0.0000       0.148170         4.0319
  21   0.0000       0.164925         4.4878

MULLIKEN ATOMIC CHARGES
-----------------------
   0 C :   -0.144948
   1 C :   -0.145087
   2 O :   -0.503847
   3 O :   -0.503711
   4 H :    0.152539
   5 H :    0.143408
   6 H :    0.152501
   7 H :    0.143477
   8 H :    0.352827
   9 H :    0.352842
Sum of atomic charges:    0.0000000

LOEWDIN ATOMIC CHARGES
----------------------
   0 C :    0.013237
   1 C :    0.013209
   2 O :   -0.644859
   3 O :   -0.644773
   4 H :    0.180954
   5 H :    0.164559
   6 H :    0.180944
   7 H :    0.164562
   8 H :    0.286067
   9 H :    0.286100

  Mayer bond orders larger than 0.100000
B(  0-C ,  1-C ) :   0.9271 B(  0-C ,  3-O ) :   0.9416 B(  0-C ,  4-H ) :   0.9653
B(  0-C ,  5-H ) :   0.9624 B(  1-C ,  2-O ) :   0.9415 B(  1-C ,  6-H ) :   0.9653
B(  1-C ,  7-H ) :   0.9624 B(  2-O ,  8-H ) :   0.8665 B(  3-O ,  9-H ) :   0.8665

Dispersion correction           -0.001549873
FINAL SINGLE POINT ENERGY      -230.222673412923

DIPOLE MOMENT
-------------

Method             : SCF
Type of density    : Electron Density
Multiplicity       :   1
Irrep              :   0
Energy             :  -230.2284512764750275 Eh
Relativity type    :
Basis              : AO
                                X                 Y                 Z
Electronic contribution:     -0.001421717      -0.121874161       0.003418138
Nuclear contribution   :      0.009447134       1.414983319      -0.039410434
                        -----------------------------------------
Total Dipole Moment    :      0.008025417       1.293109157      -0.035992296
                        -----------------------------------------
Magnitude (a.u.)       :      1.293634858
Magnitude (Debye)      :      3.288158495

Rotational constants in cm-1:             0.984572             0.130267             0.122335
Rotational constants in MHz :         29516.725319          3905.304660          3667.518749

                             ****ORCA TERMINATED NORMALLY****
TOTAL RUN TIME: 0 days 0 hours 0 minutes 11 seconds 571 msec
