                         Program Version 6.0.0  -   RELEASE  -
|  1> ! wb97x-v def2-tzvp def2/J RIJCOSX DEFGRID2 scfconv7 GCP(DFT/TZ) printgap
|  2> %output
|  3>     printlevel normal
|  4> end
|  5> * xyz 0 1
|  6> C 1.8350463778300912 0.0023767479666673167 -0.2722720710125316
|  7> C 0.6945766303667222 0.28860790746823545 0.3520912081969882
|  8> C -0.5471150330756502 -0.5350982464425458 0.2321973003448812
|  9> O -1.6599149331000567 0.24947794974203577 -0.24944645575381266
| 10> H 2.7187313600102385 0.623838393365853 -0.1562143385522125
| 11> H 1.9208779544469377 -0.8712704982105054 -0.9160978403902653
| 12> H 0.6194993994846294 1.1701761145778573 0.9889562794888058
| 13> H -0.8581893078994856 -0.9026301948154898 1.216306928071495
| 14> H -0.37165335452151654 -1.4017546347687537 -0.4198380718474622
| 15> H -1.4094800691996257 0.5877311451091042 -1.1196293166339446
| 16> *
| 17>
| 18>                          ****END OF INPUT****

CARTESIAN COORDINATES (ANGSTROEM)
---------------------------------
  C      1.835046    0.002377   -0.272272
  C      0.694577    0.288608    0.352091
  C     -0.547115   -0.535098    0.232197
  O     -1.659915    0.249478   -0.249446
  H      2.718731    0.623838   -0.156214
  H      1.920878   -0.871270   -0.916098
  H      0.619499    1.170176    0.988956
  H     -0.858189   -0.902630    1.216307
  H     -0.371653   -1.401755   -0.419838
  H     -1.409480    0.587731   -1.119629

 Total Charge           Charge          ....    0
 Multiplicity           Mult            ....    1
 Number of Electrons    NEL             ....   32
 Basis Dimension        Dim             ....  160

ORBITAL ENERGIES
----------------

  NO   OCC          E(Eh)            E(eV)
   0   2.0000     -21.672851      -589.7483
   1   2.0000     -12.098798      -329.2250
   2   2.0000     -12.057646      -328.1052
   3   2.0000     -12.052160      -327.9559
   4   2.0000      -1.669939       -45.4414
   5   2.0000      -1.317052       -35.8388
   6   2.0000      -1.205562       -32.8050
   7   2.0000      -1.064871       -28.9766
   8   2.0000      -1.011540       -27.5254
   9   2.0000      -0.954262       -25.9668
  10   2.0000      -0.935554       -25.4577
  11   2.0000      -0.907333       -24.6898
  12   2.0000      -0.863958       -23.5095
  13   2.0000      -0.818527       -22.2732
  14   2.0000      -0.781736       -21.2721
  15   2.0000      -0.668058       -18.1788
  16   0.0000      -0.228805        -6.2261
  17   0.0000      -0.111712        -3.0398
  18   0.0000      -0.043468        -1.1828
  19   0.0000      -0.010679        -0.2906
  20   0.0000       0.009686         0.2636

MULLIKEN ATOMIC CHARGES
-----------------------
   0 C :   -0.260255
   1 C :   -0.171708
   2 C :    0.031658
   3 O :   -0.449888
   4 H :    0.125565
   5 H :    0.120511
   6 H :    0.118494
   7 H :    0.100305
   8 H :    0.086659
   9 H :    0.298659
Sum of atomic charges:    0.0000000

LOEWDIN ATOMIC CHARGES
----------------------
   0 C :   -0.203613
   1 C :   -0.214766
   2 C :   -0.316875
   3 O :   -0.061858
   4 H :    0.121029
   5 H :    0.120600
   6 H :    0.139588
   7 H :    0.129910
   8 H :    0.117998
   9 H :    0.167986

  Mayer bond orders larger than 0.100000
B(  0-C ,  1-C ) :   1.9382 B(  0-C ,  4-H ) :   0.9671 B(  0-C ,  5-H ) :   0.9651
B(  1-C ,  2-C ) :   1.0004 B(  1-C ,  6-H ) :   0.9609 B(  2-C ,  3-O ) :   0.9879
B(  2-C ,  7-H ) :   0.9597 B(  2-C ,  8-H ) :   0.9717 B(  3-O ,  9-H ) :   0.9031

FINAL SINGLE POINT ENERGY      -193.126093138037

DIPOLE MOMENT
-------------

Method             : SCF
Type of density    : Electron Density
Multiplicity       :   1
Irrep              :   0
Energy             :  -193.1318989592370201 Eh
Relativity type    :
Basis              : AO
                                X                 Y                 Z
Electronic contribution:     -1.873014699       0.676123407       0.038821754
Nuclear contribution   :      2.443410720      -0.766314308      -0.321615584
                        -----------------------------------------
Total Dipole Moment    :      0.570396021      -0.090190901      -0.282793830
                        -----------------------------------------
Magnitude (a.u.)       :      0.643007286
Magnitude (Debye)      :      1.634394633

Rotational constants in cm-1:             0.846709             0.144048             0.140913
Rotational constants in MHz :         25383.693622          4318.437904          4224.461352

                             ****ORCA TERMINATED NORMALLY****
TOTAL RUN TIME: 0 days 0 hours 0 minutes 28 seconds 719 msec
