                         Program Version 6.0.0  -   RELEASE  -
|  1> ! wb97x-v def2-tzvp def2/J RIJCOSX DEFGRID2 scfconv7 GCP(DFT/TZ) printgap
|  2> %output
|  3>     printlevel normal
|  4> end
|  5> %cpcm
|  6>     smd true
|  7>     smdsolvent "water"
|  8> end
|  9> * xyz 0 1
| 10> C 1.8350463778300912 0.0023767479666673167 -0.2722720710125316
| 11> C 0.6945766303667222 0.28860790746823545 0.3520912081969882
| 12> C -0.5471150330756502 -0.5350982464425458 0.2321973003448812
| 13> O -1.6599149331000567 0.24947794974203577 -0.24944645575381266
| 14> H 2.7187313600102385 0.623838393365853 -0.1562143385522125
| 15> H 1.9208779544469377 -0.8712704982105054 -0.9160978403902653
| 16> H 0.6194993994846294 1.1701761145778573 0.9889562794888058
| 17> H -0.8581893078994856 -0.9026301948154898 1.216306928071495
| 18> H -0.37165335452151654 -1.4017546347687537 -0.4198380718474622
| 19> H -1.4094800691996257 0.5877311451091042 -1.1196293166339446
| 20> *
| 21>
| 22>                          ****END OF INPUT****

CARTESIAN COORDINATES (ANGSTROEM)
---------------------------------
  C      1.835046    0.002377   -0.272272
  C      0.694577    0.288608    0.352091
  C     -0.547115   -0.535098    0.232197
  O     -1.659915    0.249478   -0.249446
  H      2.718731    0.623838   -0.156214
  H      1.920878   -0.871270   -0.916098
  H      0.619499    1.170176    0.988956
  H     -0.858189   -0.902630    1.216307
  H     -0.371653   -1.401755   -0.419838
  H     -1.409480    0.587731   -1.119629

 Total Charge           Charge          ....    0
 Multiplicity           Mult            ....    1
 Number of Electrons    NEL             ....   32
 Basis Dimension        Dim             ....  160

ORBITAL ENERGIES
----------------

  NO   OCC          E(Eh)            E(eV)
   0   2.0000     -21.675475      -589.8197
   1   2.0000     -12.090758      -329.0063
   2   2.0000     -12.049015      -327.8704
   3   2.0000     -12.041601      -327.6686
   4   2.0000      -1.672745       -45.5177
   5   2.0000      -1.308948       -35.6183
   6   2.0000      -1.200230       -32.6599
   7   2.0000      -1.061758       -28.8919
   8   2.0000      -1.007643       -27.4193
   9   2.0000      -0.957043       -26.0425
  10   2.0000      -0.933798       -25.4099
  11   2.0000      -0.898542       -24.4506
  12   2.0000      -0.859500       -23.3882
  13   2.0000      -0.810727       -22.0610
  14   2.0000      -0.772764       -21.0280
  15   2.0000      -0.660574       -17.9751
  16   0.0000      -0.221503        -6.0274
  17   0.0000      -0.106056        -2.8859
  18   0.0000      -0.023221        -0.6319
  19   0.0000       0.002127         0.0579
  20   0.0000       0.022521         0.6128

MULLIKEN ATOMIC CHARGES
-----------------------
   0 C :   -0.338472
   1 C :   -0.199582
   2 C :    0.027120
   3 O :   -0.557437
   4 H :    0.161016
   5 H :    0.159220
   6 H :    0.147500
   7 H :    0.125587
   8 H :    0.116861
   9 H :    0.358186
Sum of atomic charges:    0.0000000

LOEWDIN ATOMIC CHARGES
----------------------
   0 C :   -0.210129
   1 C :   -0.221925
   2 C :   -0.314863
   3 O :   -0.103534
   4 H :    0.127359
   5 H :    0.128868
   6 H :    0.144200
   7 H :    0.134183
   8 H :    0.127096
   9 H :    0.188746

  Mayer bond orders larger than 0.100000
B(  0-C ,  1-C ) :   1.9388 B(  0-C ,  4-H ) :   0.9629 B(  0-C ,  5-H ) :   0.9596
B(  1-C ,  2-C ) :   0.9898 B(  1-C ,  6-H ) :   0.9535 B(  2-C ,  3-O ) :   0.9479
B(  2-C ,  7-H ) :   0.9593 B(  2-C ,  8-H ) :   0.9727 B(  3-O ,  9-H ) :   0.8678

FINAL SINGLE POINT ENERGY      -193.133380733901

DIPOLE MOMENT
-------------

Method             : SCF
Type of density    : Electron Density
Multiplicity       :   1
Irrep              :   0
Energy             :  -193.1391865551007356 Eh
Relativity type    :
Basis              : AO
                                X                 Y                 Z
Electronic contribution:     -1.685914680       0.618959904      -0.081917637
Nuclear contribution   :      2.443410720      -0.766314308      -0.321615584
                        -----------------------------------------
Total Dipole Moment    :      0.757496041      -0.147354403      -0.403533221
                        -----------------------------------------
Magnitude (a.u.)       :      0.870834446
Magnitude (Debye)      :      2.213485253

Rotational constants in cm-1:             0.846709             0.144048             0.140913
Rotational constants in MHz :         25383.693622          4318.437904          4224.461352

                             ****ORCA TERMINATED NORMALLY****
TOTAL RUN TIME: 0 days 0 hours 0 minutes 29 seconds 307 msec
