                         Program Version 6.0.0  -   RELEASE  -
|  1> ! pbe def2-sv(p) def2/J RI DEFGRID1 loosescf d4 GCP(DFT/SV(P)) printgap
|  2> %output
|  3>     printlevel normal
|  4> end
|  5> * xyz 0 1
|  6> C 5.4068323479 -1.0769527133 -1.6893008738
|  7> C 4.0137347642 -1.6590774302 -1.8327778734
|  8> O 3.3033856221 -1.6270533287 -0.5792328274
|  9> P 2.4032333954 -0.4012428408 -0.1200806937
| 10> S 3.2799812632 1.3516259668 0.0369833744
| 11> O 1.8034542777 -0.9796751962 1.2204519814
| 12> C 2.2378574418 -0.5872504114 2.542923306
| 13> C 1.0277579656 -0.226447738 3.3804464123
| 14> S 0.7679957692 -0.4937425751 -1.4573868417
| 15> C 0.0871160057 1.1398380615 -1.0612075143
| 16> S -0.865133427 1.1566021953 0.4708758143
| 17> P -2.7317935337 0.4439159289 -0.3019057991
| 18> S -2.9356017072 0.5668093873 -2.2421478967
| 19> O -3.826449729 1.2578208914 0.4739837475
| 20> C -3.895453496 1.344839407 1.9246974427
| 21> C -3.4753870794 2.7260062698 2.3848287067
| 22> O -2.9440229039 -1.0131854144 0.3121973856
| 23> C -2.2988939958 -2.1971654494 -0.1920549064
| 24> C -1.2600075846 -2.6932363093 0.7947807496
| 25> H 5.3530040768 -0.0241222392 -1.4213478161
| 26> H 5.9543458791 -1.6064055789 -0.9145479185
| 27> H 5.9340225532 -1.1745471613 -2.6328509346
| 28> H 4.0516359297 -2.7182861172 -2.0941313969
| 29> H 3.4363799095 -1.1192675869 -2.5890316923
| 30> H 2.7719929308 -1.4439557067 2.957912668
| 31> H 2.9231433945 0.2621030484 2.4530327239
| 32> H 0.3428269204 -1.0678537487 3.4295732894
| 33> H 1.3563468079 0.0279125006 4.382827764
| 34> H 0.5111018132 0.6257470845 2.9454590907
| 35> H -0.5639041467 1.419257033 -1.8905993936
| 36> H 0.9085797409 1.8467768692 -0.9368283355
| 37> H -4.9418739761 1.1481799182 2.1626549668
| 38> H -3.2658869408 0.5680778037 2.3610478839
| 39> H -3.616356833 2.7990083679 3.4585004225
| 40> H -2.4290304243 2.9052988914 2.1500591541
| 41> H -4.0802182586 3.4816302559 1.8914237965
| 42> H -3.1010165032 -2.9274334388 -0.3179694604
| 43> H -1.855662454 -1.9822117313 -1.1700412063
| 44> H -0.8403274163 -3.624315718 0.4277748619
| 45> H -0.4560220296 -1.9701357594 0.9080640554
| 46> H -1.7214492538 -2.8638057171 1.7634318385
| 47> *
| 48>
| 49>                          ****END OF INPUT****

CARTESIAN COORDINATES (ANGSTROEM)
---------------------------------
  C      5.406832   -1.076953   -1.689301
  C      4.013735   -1.659077   -1.832778
  O      3.303386   -1.627053   -0.579233
  P      2.403233   -0.401243   -0.120081
  S      3.279981    1.351626    0.036983
  O      1.803454   -0.979675    1.220452
  C      2.237857   -0.587250    2.542923
  C      1.027758   -0.226448    3.380446
  S      0.767996   -0.493743   -1.457387
  C      0.087116    1.139838   -1.061208
  S     -0.865133    1.156602    0.470876
  P     -2.731794    0.443916   -0.301906
  S     -2.935602    0.566809   -2.242148
  O     -3.826450    1.257821    0.473984
  C     -3.895453    1.344839    1.924697
  C     -3.475387    2.726006    2.384829
  O     -2.944023   -1.013185    0.312197
  C     -2.298894   -2.197165   -0.192055
  C     -1.260008   -2.693236    0.794781
  H      5.353004   -0.024122   -1.421348
  H      5.954346   -1.606406   -0.914548
  H      5.934023   -1.174547   -2.632851
  H      4.051636   -2.718286   -2.094131
  H      3.436380   -1.119268   -2.589032
  H      2.771993   -1.443956    2.957913
  H      2.923143    0.262103    2.453033
  H      0.342827   -1.067854    3.429573
  H      1.356347    0.027913    4.382828
  H      0.511102    0.625747    2.945459
  H     -0.563904    1.419257   -1.890599
  H      0.908580    1.846777   -0.936828
  H     -4.941874    1.148180    2.162655
  H     -3.265887    0.568078    2.361048
  H     -3.616357    2.799008    3.458500
  H     -2.429030    2.905299    2.150059
  H     -4.080218    3.481630    1.891424
  H     -3.101017   -2.927433   -0.317969
  H     -1.855662   -1.982212   -1.170041
  H     -0.840327   -3.624316    0.427775
  H     -0.456022   -1.970136    0.908064
  H     -1.721449   -2.863806    1.763432

 Total Charge           Charge          ....    0
 Multiplicity           Mult            ....    1
 Number of Electrons    NEL             ....  202
 Basis Dimension        Dim             ....  334

ORBITAL ENERGIES
----------------

  NO   OCC          E(Eh)            E(eV)
   0   2.0000     -88.047724     -2395.9004
   1   2.0000     -88.043704     -2395.7910
   2   2.0000     -87.993924     -2394.4364
   3   2.0000     -87.988192     -2394.2804
   4   2.0000     -76.432229     -2079.8267
   5   2.0000     -76.427750     -2079.7048
   6   2.0000     -18.796738      -511.4853
   7   2.0000     -18.796404      -511.4762
   8   2.0000     -18.795514      -511.4519
   9   2.0000     -18.788962      -511.2736
  10   2.0000      -9.962220      -271.0858
  11   2.0000      -9.958593      -270.9871
  12   2.0000      -9.955456      -270.9017
  13   2.0000      -9.952881      -270.8317
  14   2.0000      -9.948316      -270.7075
  15   2.0000      -9.890045      -269.1218
  16   2.0000      -9.887351      -269.0485
  17   2.0000      -9.883681      -268.9486
  18   2.0000      -9.877851      -268.7900
  19   2.0000      -7.692701      -209.3290
  20   2.0000      -7.688452      -209.2134
  21   2.0000      -7.638768      -207.8614
  22   2.0000      -7.633474      -207.7174
  23   2.0000      -6.429856      -174.9653
  24   2.0000      -6.425348      -174.8426
  25   2.0000      -5.720417      -155.6605
  26   2.0000      -5.717201      -155.5729
  27   2.0000      -5.716254      -155.5472
  28   2.0000      -5.712978      -155.4580
  29   2.0000      -5.709849      -155.3729
  30   2.0000      -5.705523      -155.2552
  31   2.0000      -5.667500      -154.2205
  32   2.0000      -5.662500      -154.0845
  33   2.0000      -5.659422      -154.0007
  34   2.0000      -5.659087      -153.9916
  35   2.0000      -5.653994      -153.8530
  36   2.0000      -5.653567      -153.8414
  37   2.0000      -4.652291      -126.5953
  38   2.0000      -4.651702      -126.5793
  39   2.0000      -4.650330      -126.5419
  40   2.0000      -4.648076      -126.4806
  41   2.0000      -4.646980      -126.4508
  42   2.0000      -4.645791      -126.4184
  43   2.0000      -0.991940       -26.9921
  44   2.0000      -0.988913       -26.9097
  45   2.0000      -0.950311       -25.8593
  46   2.0000      -0.943458       -25.6728
  47   2.0000      -0.766335       -20.8530
  48   2.0000      -0.726093       -19.7580
  49   2.0000      -0.715167       -19.4607
  50   2.0000      -0.689568       -18.7641
  51   2.0000      -0.688880       -18.7454
  52   2.0000      -0.677832       -18.4447
  53   2.0000      -0.652388       -17.7524
  54   2.0000      -0.640781       -17.4366
  55   2.0000      -0.600681       -16.3454
  56   2.0000      -0.589529       -16.0419
  57   2.0000      -0.576986       -15.7006
  58   2.0000      -0.573783       -15.6134
  59   2.0000      -0.560712       -15.2578
  60   2.0000      -0.509973       -13.8771
  61   2.0000      -0.504282       -13.7222
  62   2.0000      -0.483011       -13.1434
  63   2.0000      -0.479105       -13.0371
  64   2.0000      -0.461939       -12.5700
  65   2.0000      -0.446839       -12.1591
  66   2.0000      -0.443745       -12.0749
  67   2.0000      -0.435910       -11.8617
  68   2.0000      -0.430523       -11.7151
  69   2.0000      -0.418840       -11.3972
  70   2.0000      -0.410187       -11.1618
  71   2.0000      -0.399636       -10.8746
  72   2.0000      -0.396395       -10.7865
  73   2.0000      -0.387553       -10.5458
  74   2.0000      -0.377925       -10.2839
  75   2.0000      -0.376993       -10.2585
  76   2.0000      -0.365245        -9.9388
  77   2.0000      -0.359348        -9.7783
  78   2.0000      -0.358476        -9.7546
  79   2.0000      -0.353312        -9.6141
  80   2.0000      -0.351199        -9.5566
  81   2.0000      -0.346734        -9.4351
  82   2.0000      -0.343812        -9.3556
  83   2.0000      -0.337877        -9.1941
  84   2.0000      -0.333372        -9.0715
  85   2.0000      -0.323999        -8.8165
  86   2.0000      -0.310196        -8.4409
  87   2.0000      -0.303819        -8.2673
  88   2.0000      -0.301858        -8.2140
  89   2.0000      -0.293877        -7.9968
  90   2.0000      -0.289550        -7.8790
  91   2.0000      -0.281427        -7.6580
  92   2.0000      -0.277294        -7.5455
  93   2.0000      -0.269214        -7.3257
  94   2.0000      -0.256918        -6.9911
  95   2.0000      -0.237660        -6.4671
  96   2.0000      -0.221676        -6.0321
  97   2.0000      -0.214427        -5.8348
  98   2.0000      -0.207176        -5.6375
  99   2.0000      -0.205868        -5.6020
 100   2.0000      -0.202951        -5.5226
 101   0.0000      -0.047860        -1.3023
 102   0.0000      -0.030975        -0.8429
 103   0.0000      -0.013062        -0.3554
 104   0.0000      -0.003520        -0.0958
 105   0.0000       0.009544         0.2597

MULLIKEN ATOMIC CHARGES
-----------------------
   0 C :   -0.295543
   1 C :   -0.012441
   2 O :   -0.368830
   3 P :    0.613102
   4 S :   -0.333625
   5 O :   -0.357656
   6 C :   -0.010279
   7 C :   -0.297259
   8 S :   -0.081299
   9 C :   -0.361795
  10 S :   -0.120259
  11 P :    0.604979
  12 S :   -0.303301
  13 O :   -0.357309
  14 C :   -0.020387
  15 C :   -0.289594
  16 O :   -0.380376
  17 C :   -0.003263
  18 C :   -0.326715
  19 H :    0.132016
  20 H :    0.113345
  21 H :    0.109205
  22 H :    0.109226
  23 H :    0.105114
  24 H :    0.105505
  25 H :    0.112694
  26 H :    0.119145
  27 H :    0.109670
  28 H :    0.128700
  29 H :    0.197175
  30 H :    0.195424
  31 H :    0.115678
  32 H :    0.110296
  33 H :    0.110974
  34 H :    0.125858
  35 H :    0.124226
  36 H :    0.104773
  37 H :    0.105073
  38 H :    0.105184
  39 H :    0.157229
  40 H :    0.105339
Sum of atomic charges:    0.0000000

LOEWDIN ATOMIC CHARGES
----------------------
   0 C :   -0.363976
   1 C :   -0.115904
   2 O :   -0.244709
   3 P :    0.568819
   4 S :   -0.313197
   5 O :   -0.234103
   6 C :   -0.114802
   7 C :   -0.357270
   8 S :    0.095190
   9 C :   -0.489727
  10 S :    0.071961
  11 P :    0.569018
  12 S :   -0.297363
  13 O :   -0.235491
  14 C :   -0.110590
  15 C :   -0.359613
  16 O :   -0.252540
  17 C :   -0.116942
  18 C :   -0.369108
  19 H :    0.124832
  20 H :    0.125973
  21 H :    0.129607
  22 H :    0.119919
  23 H :    0.107402
  24 H :    0.116347
  25 H :    0.107503
  26 H :    0.125963
  27 H :    0.129487
  28 H :    0.120238
  29 H :    0.128584
  30 H :    0.127891
  31 H :    0.124262
  32 H :    0.110080
  33 H :    0.130368
  34 H :    0.121521
  35 H :    0.131552
  36 H :    0.117635
  37 H :    0.101844
  38 H :    0.128939
  39 H :    0.119972
  40 H :    0.120426

  Mayer bond orders larger than 0.100000
B(  0-C ,  1-C ) :   1.1670 B(  0-C , 19-H ) :   0.9319 B(  0-C , 20-H ) :   0.9477
B(  0-C , 21-H ) :   0.9392 B(  1-C ,  2-O ) :   0.9044 B(  1-C , 22-H ) :   0.9360
B(  1-C , 23-H ) :   0.9162 B(  2-O ,  3-P ) :   1.1247 B(  3-P ,  4-S ) :   1.6009
B(  3-P ,  5-O ) :   1.1311 B(  3-P ,  8-S ) :   0.9671 B(  4-S ,  8-S ) :   0.1083
B(  5-O ,  6-C ) :   0.8963 B(  6-C ,  7-C ) :   1.1669 B(  6-C , 24-H ) :   0.9329
B(  6-C , 25-H ) :   0.9018 B(  7-C , 26-H ) :   0.9484 B(  7-C , 27-H ) :   0.9395
B(  7-C , 28-H ) :   0.9405 B(  8-S ,  9-C ) :   1.0029 B(  9-C , 10-S ) :   1.0191
B(  9-C , 29-H ) :   0.8603 B(  9-C , 30-H ) :   0.8625 B( 10-S , 11-P ) :   0.9214
B( 10-S , 12-S ) :   0.1126 B( 11-P , 12-S ) :   1.6514 B( 11-P , 13-O ) :   1.1560
B( 11-P , 16-O ) :   1.0909 B( 13-O , 14-C ) :   0.8855 B( 14-C , 15-C ) :   1.1641
B( 14-C , 31-H ) :   0.9345 B( 14-C , 32-H ) :   0.9196 B( 15-C , 33-H ) :   0.9392
B( 15-C , 34-H ) :   0.9384 B( 15-C , 35-H ) :   0.9458 B( 16-O , 17-C ) :   0.9015
B( 17-C , 18-C ) :   1.1643 B( 17-C , 36-H ) :   0.9350 B( 17-C , 37-H ) :   0.9029
B( 18-C , 38-H ) :   0.9395 B( 18-C , 39-H ) :   0.9188 B( 18-C , 40-H ) :   0.9454

Dispersion correction           -0.063885553
FINAL SINGLE POINT ENERGY     -2929.522372883857

DIPOLE MOMENT
-------------

Method             : SCF
Type of density    : Electron Density
Multiplicity       :   1
Irrep              :   0
Energy             : -2929.6428679856921917 Eh
Relativity type    :
Basis              : AO
                                X                 Y                 Z
Electronic contribution:     -6.092255006       6.226891790     -15.425434299
Nuclear contribution   :      6.520911275      -7.126282112      16.743854392
                        -----------------------------------------
Total Dipole Moment    :      0.428656269      -0.899390322       1.318420093
                        -----------------------------------------
Magnitude (a.u.)       :      1.652537652
Magnitude (Debye)      :      4.200416898

Rotational constants in cm-1:             0.012527             0.004713             0.004356
Rotational constants in MHz :           375.545386           141.300155           130.591855

                             ****ORCA TERMINATED NORMALLY****
TOTAL RUN TIME: 0 days 0 hours 0 minutes 21 seconds 224 msec
