                         Program Version 6.0.0  -   RELEASE  -
|  1> ! pbe def2-sv(p) def2/J RI DEFGRID1 loosescf d4 GCP(DFT/SV(P)) printgap
|  2> %output
|  3>     printlevel normal
|  4> end
|  5> * xyz 0 1
|  6> C 2.3473644528 -0.0182526751 0.2275279696
|  7> N 0.9030482258 -0.0171251285 0.2795339333
|  8> C 0.3530083343 1.2375356934 -0.2126923555
|  9> C -1.1887204984 1.1447155345 -0.2609080272
| 10> N -1.6881321445 0.0128581742 0.4964239898
| 11> C -1.1857316121 -1.2245716886 -0.07868478
| 12> C 0.317863179 -1.1412315554 -0.4324484428
| 13> H 2.7215964653 0.8217496787 0.8107021844
| 14> H 2.7348000031 0.0687640129 -0.8006937552
| 15> H 2.7188181273 -0.9434836215 0.6644562185
| 16> H 0.6690435887 2.0239942105 0.4777933822
| 17> H 0.7501346307 1.4840891145 -1.2150330038
| 18> H -1.6368783397 2.0557206632 0.1377149338
| 19> H -1.529951337 1.0199084317 -1.2924347602
| 20> H -1.3398153348 0.0932842603 1.4474099268
| 21> H -1.3684575055 -2.0262902604 0.6364278617
| 22> H -1.7671014517 -1.4321483331 -0.9823300995
| 23> H 0.8313074927 -2.0517497083 -0.1197546938
| 24> H 0.4548676183 -1.0330347035 -1.5241678573
| 25> *
| 26>
| 27>                          ****END OF INPUT****

CARTESIAN COORDINATES (ANGSTROEM)
---------------------------------
  C      2.347364   -0.018253    0.227528
  N      0.903048   -0.017125    0.279534
  C      0.353008    1.237536   -0.212692
  C     -1.188720    1.144716   -0.260908
  N     -1.688132    0.012858    0.496424
  C     -1.185732   -1.224572   -0.078685
  C      0.317863   -1.141232   -0.432448
  H      2.721596    0.821750    0.810702
  H      2.734800    0.068764   -0.800694
  H      2.718818   -0.943484    0.664456
  H      0.669044    2.023994    0.477793
  H      0.750135    1.484089   -1.215033
  H     -1.636878    2.055721    0.137715
  H     -1.529951    1.019908   -1.292435
  H     -1.339815    0.093284    1.447410
  H     -1.368458   -2.026290    0.636428
  H     -1.767101   -1.432148   -0.982330
  H      0.831307   -2.051750   -0.119755
  H      0.454868   -1.033035   -1.524168

 Total Charge           Charge          ....    0
 Multiplicity           Mult            ....    1
 Number of Electrons    NEL             ....   56
 Basis Dimension        Dim             ....  122

ORBITAL ENERGIES
----------------

  NO   OCC          E(Eh)            E(eV)
   0   2.0000     -13.984321      -380.5327
   1   2.0000     -13.963994      -379.9796
   2   2.0000      -9.905221      -269.5348
   3   2.0000      -9.905029      -269.5296
   4   2.0000      -9.904709      -269.5208
   5   2.0000      -9.903095      -269.4769
   6   2.0000      -9.900867      -269.4163
   7   2.0000      -0.856693       -23.3118
   8   2.0000      -0.800225       -21.7752
   9   2.0000      -0.678323       -18.4581
  10   2.0000      -0.638035       -17.3618
  11   2.0000      -0.572425       -15.5765
  12   2.0000      -0.566480       -15.4147
  13   2.0000      -0.490789       -13.3550
  14   2.0000      -0.454533       -12.3685
  15   2.0000      -0.429448       -11.6859
  16   2.0000      -0.426794       -11.6136
  17   2.0000      -0.395426       -10.7601
  18   2.0000      -0.373621       -10.1668
  19   2.0000      -0.359297        -9.7770
  20   2.0000      -0.349701        -9.5158
  21   2.0000      -0.337329        -9.1792
  22   2.0000      -0.325274        -8.8512
  23   2.0000      -0.312802        -8.5118
  24   2.0000      -0.301247        -8.1974
  25   2.0000      -0.283338        -7.7100
  26   2.0000      -0.173679        -4.7261
  27   2.0000      -0.171929        -4.6784
  28   0.0000       0.027076         0.7368
  29   0.0000       0.055409         1.5078
  30   0.0000       0.060211         1.6384
  31   0.0000       0.066406         1.8070
  32   0.0000       0.086297         2.3483

MULLIKEN ATOMIC CHARGES
-----------------------
   0 C :   -0.148464
   1 N :   -0.323090
   2 C :   -0.063612
   3 C :   -0.081266
   4 N :   -0.329516
   5 C :   -0.045337
   6 C :   -0.079158
   7 H :    0.099985
   8 H :    0.069209
   9 H :    0.101726
  10 H :    0.078517
  11 H :    0.051968
  12 H :    0.091484
  13 H :    0.082336
  14 H :    0.199770
  15 H :    0.084242
  16 H :    0.078502
  17 H :    0.081301
  18 H :    0.051404
Sum of atomic charges:    0.0000000

LOEWDIN ATOMIC CHARGES
----------------------
   0 C :   -0.255720
   1 N :   -0.150961
   2 C :   -0.177270
   3 C :   -0.178679
   4 N :   -0.249930
   5 C :   -0.176259
   6 C :   -0.176925
   7 H :    0.112949
   8 H :    0.088252
   9 H :    0.112491
  10 H :    0.108096
  11 H :    0.086917
  12 H :    0.115779
  13 H :    0.112426
  14 H :    0.205968
  15 H :    0.114339
  16 H :    0.109587
  17 H :    0.113082
  18 H :    0.085859

  Mayer bond orders larger than 0.100000
B(  0-C ,  1-N ) :   1.0537 B(  0-C ,  7-H ) :   0.9539 B(  0-C ,  8-H ) :   0.9270
B(  0-C ,  9-H ) :   0.9551 B(  1-N ,  2-C ) :   1.0609 B(  1-N ,  6-C ) :   1.0491
B(  2-C ,  3-C ) :   1.0740 B(  2-C , 10-H ) :   0.9230 B(  2-C , 11-H ) :   0.8965
B(  3-C ,  4-N ) :   1.1381 B(  3-C , 12-H ) :   0.9352 B(  3-C , 13-H ) :   0.9227
B(  4-N ,  5-C ) :   1.1331 B(  4-N , 14-H ) :   0.8755 B(  5-C ,  6-C ) :   1.0629
B(  5-C , 15-H ) :   0.9333 B(  5-C , 16-H ) :   0.9275 B(  6-C , 17-H ) :   0.9245
B(  6-C , 18-H ) :   0.8949

Dispersion correction           -0.016615808
FINAL SINGLE POINT ENERGY      -306.493948247193

DIPOLE MOMENT
-------------

Method             : SCF
Type of density    : Electron Density
Multiplicity       :   1
Irrep              :   0
Energy             :  -306.5683029938403479 Eh
Relativity type    :
Basis              : AO
                                X                 Y                 Z
Electronic contribution:     -2.575343201      -0.063950808       1.632725525
Nuclear contribution   :      3.033823572       0.075783906      -1.646839199
                        -----------------------------------------
Total Dipole Moment    :      0.458480371       0.011833098      -0.014113674
                        -----------------------------------------
Magnitude (a.u.)       :      0.458850159
Magnitude (Debye)      :      1.166304416

Rotational constants in cm-1:             0.149963             0.080173             0.059574
Rotational constants in MHz :          4495.776706          2403.531065          1785.993388

                             ****ORCA TERMINATED NORMALLY****
TOTAL RUN TIME: 0 days 0 hours 0 minutes 8 seconds 597 msec
