                         Program Version 6.0.0  -   RELEASE  -
|  1> ! r2scan-3c def2/J RI DEFGRID2 scfconv6 printgap
|  2> %output
|  3>     printlevel normal
|  4> end
|  5> * xyz 0 1
|  6> C 5.5633566808 -0.9294955446 -1.411451472
|  7> C 4.1595379628 -1.1082453624 -1.9565977636
|  8> O 3.2484254204 -1.4911412677 -0.9058077168
|  9> P 2.3522087902 -0.4316113907 -0.1299862644
| 10> S 3.2925971685 1.1174905888 0.6258693593
| 11> O 1.6175066303 -1.376954892 0.9022528889
| 12> C 2.0659305138 -1.532180682 2.2727312877
| 13> C 1.2037848502 -0.7100262137 3.208475901
| 14> S 0.8189675368 -6.3669e-05 -1.5213033992
| 15> C 0.173820024 1.4634332519 -0.6616774895
| 16> S -0.8566119336 1.0377054173 0.7570818404
| 17> P -2.5085846596 0.2910967525 -0.3710881952
| 18> S -2.8262148407 1.1569072377 -2.0972570862
| 19> O -3.736260145 0.3446228506 0.6365803206
| 20> C -4.5814666124 1.5011773378 0.7636591257
| 21> C -3.8519227992 2.685157408 1.3650485736
| 22> O -2.2678554802 -1.2561667397 -0.5531281657
| 23> C -1.724401975 -2.1860144097 0.414123876
| 24> C -2.4465733251 -2.1458198154 1.7433268219
| 25> H 5.5890898784 -0.1093122689 -0.6973225347
| 26> H 5.8884862475 -1.8390518871 -0.9143484826
| 27> H 6.2388888175 -0.7058037169 -2.2307452071
| 28> H 4.1123402787 -1.9280607473 -2.6757656046
| 29> H 3.8014344283 -0.1894524089 -2.4299448374
| 30> H 1.9767451277 -2.6005342409 2.4735983178
| 31> H 3.113827785 -1.2292714366 2.3427352262
| 32> H 0.1596472076 -0.9895173899 3.1058017597
| 33> H 1.525182532 -0.8827201578 4.2304236086
| 34> H 1.3040080662 0.3485916066 2.9777965717
| 35> H -0.4229270745 2.012755635 -1.3904304993
| 36> H 1.0071028122 2.0613697972 -0.2903711986
| 37> H -4.9727764301 1.7538831194 -0.2267710963
| 38> H -5.393088961 1.1590799547 1.4072569357
| 39> H -3.3651745406 2.4001840947 2.294205977
| 40> H -3.0978692791 3.0508725656 0.6698698213
| 41> H -4.5630124274 3.4815019341 1.5599285756
| 42> H -1.84124232 -3.1517880593 -0.0802381085
| 43> H -0.6598002576 -1.967867708 0.5366915359
| 44> H -2.3041620158 -1.1783021497 2.2214061267
| 45> H -3.5111634369 -2.3090937051 1.5975678338
| 46> H -2.0480840039 -2.9251338075 2.3861065157
| 47> *
| 48>
| 49>                          ****END OF INPUT****

CARTESIAN COORDINATES (ANGSTROEM)
---------------------------------
  C      5.563357   -0.929496   -1.411451
  C      4.159538   -1.108245   -1.956598
  O      3.248425   -1.491141   -0.905808
  P      2.352209   -0.431611   -0.129986
  S      3.292597    1.117491    0.625869
  O      1.617507   -1.376955    0.902253
  C      2.065931   -1.532181    2.272731
  C      1.203785   -0.710026    3.208476
  S      0.818968   -0.000064   -1.521303
  C      0.173820    1.463433   -0.661677
  S     -0.856612    1.037705    0.757082
  P     -2.508585    0.291097   -0.371088
  S     -2.826215    1.156907   -2.097257
  O     -3.736260    0.344623    0.636580
  C     -4.581467    1.501177    0.763659
  C     -3.851923    2.685157    1.365049
  O     -2.267855   -1.256167   -0.553128
  C     -1.724402   -2.186014    0.414124
  C     -2.446573   -2.145820    1.743327
  H      5.589090   -0.109312   -0.697323
  H      5.888486   -1.839052   -0.914348
  H      6.238889   -0.705804   -2.230745
  H      4.112340   -1.928061   -2.675766
  H      3.801434   -0.189452   -2.429945
  H      1.976745   -2.600534    2.473598
  H      3.113828   -1.229271    2.342735
  H      0.159647   -0.989517    3.105802
  H      1.525183   -0.882720    4.230424
  H      1.304008    0.348592    2.977797
  H     -0.422927    2.012756   -1.390430
  H      1.007103    2.061370   -0.290371
  H     -4.972776    1.753883   -0.226771
  H     -5.393089    1.159080    1.407257
  H     -3.365175    2.400184    2.294206
  H     -3.097869    3.050873    0.669870
  H     -4.563012    3.481502    1.559929
  H     -1.841242   -3.151788   -0.080238
  H     -0.659800   -1.967868    0.536692
  H     -2.304162   -1.178302    2.221406
  H     -3.511163   -2.309094    1.597568
  H     -2.048084   -2.925134    2.386107

 Total Charge           Charge          ....    0
 Multiplicity           Mult            ....    1
 Number of Electrons    NEL             ....  202
 Basis Dimension        Dim             ....  539

ORBITAL ENERGIES
----------------

  NO   OCC          E(Eh)            E(eV)
   0   2.0000     -88.577788     -2410.3242
   1   2.0000     -88.575339     -2410.2575
   2   2.0000     -88.525144     -2408.8916
   3   2.0000     -88.517590     -2408.6861
   4   2.0000     -76.918160     -2093.0495
   5   2.0000     -76.913773     -2092.9302
   6   2.0000     -18.996034      -516.9084
   7   2.0000     -18.995109      -516.8832
   8   2.0000     -18.993341      -516.8351
   9   2.0000     -18.987698      -516.6815
  10   2.0000     -10.104859      -274.9672
  11   2.0000     -10.103071      -274.9185
  12   2.0000     -10.102641      -274.9068
  13   2.0000     -10.099110      -274.8108
  14   2.0000     -10.097348      -274.7628
  15   2.0000     -10.033469      -273.0246
  16   2.0000     -10.031512      -272.9713
  17   2.0000     -10.028839      -272.8986
  18   2.0000     -10.027962      -272.8747
  19   2.0000      -7.871758      -214.2014
  20   2.0000      -7.869833      -214.1490
  21   2.0000      -7.820065      -212.7948
  22   2.0000      -7.812433      -212.5871
  23   2.0000      -6.596638      -179.5036
  24   2.0000      -6.592074      -179.3794
  25   2.0000      -5.818625      -158.3328
  26   2.0000      -5.816602      -158.2778
  27   2.0000      -5.815599      -158.2505
  28   2.0000      -5.813680      -158.1983
  29   2.0000      -5.808968      -158.0701
  30   2.0000      -5.807033      -158.0174
  31   2.0000      -5.767626      -156.9451
  32   2.0000      -5.760379      -156.7479
  33   2.0000      -5.760131      -156.7411
  34   2.0000      -5.760099      -156.7403
  35   2.0000      -5.752664      -156.5379
  36   2.0000      -5.752416      -156.5312
  37   2.0000      -4.742119      -129.0396
  38   2.0000      -4.741554      -129.0242
  39   2.0000      -4.740396      -128.9927
  40   2.0000      -4.737770      -128.9213
  41   2.0000      -4.737091      -128.9028
  42   2.0000      -4.735575      -128.8615
  43   2.0000      -1.053906       -28.6782
  44   2.0000      -1.048893       -28.5418
  45   2.0000      -1.014336       -27.6015
  46   2.0000      -1.009447       -27.4684
  47   2.0000      -0.802858       -21.8469
  48   2.0000      -0.760710       -20.7000
  49   2.0000      -0.751661       -20.4537
  50   2.0000      -0.734708       -19.9924
  51   2.0000      -0.733338       -19.9551
  52   2.0000      -0.713946       -19.4275
  53   2.0000      -0.687720       -18.7138
  54   2.0000      -0.669936       -18.2299
  55   2.0000      -0.632059       -17.1992
  56   2.0000      -0.626154       -17.0385
  57   2.0000      -0.609661       -16.5897
  58   2.0000      -0.608104       -16.5473
  59   2.0000      -0.591732       -16.1018
  60   2.0000      -0.534087       -14.5332
  61   2.0000      -0.516127       -14.0445
  62   2.0000      -0.500102       -13.6085
  63   2.0000      -0.489883       -13.3304
  64   2.0000      -0.476722       -12.9723
  65   2.0000      -0.463982       -12.6256
  66   2.0000      -0.462191       -12.5769
  67   2.0000      -0.455937       -12.4067
  68   2.0000      -0.449449       -12.2301
  69   2.0000      -0.437641       -11.9088
  70   2.0000      -0.423326       -11.5193
  71   2.0000      -0.419469       -11.4143
  72   2.0000      -0.415196       -11.2981
  73   2.0000      -0.404059       -10.9950
  74   2.0000      -0.395042       -10.7496
  75   2.0000      -0.389106       -10.5881
  76   2.0000      -0.385048       -10.4777
  77   2.0000      -0.382021       -10.3953
  78   2.0000      -0.370765       -10.0890
  79   2.0000      -0.367724       -10.0063
  80   2.0000      -0.365228        -9.9384
  81   2.0000      -0.361248        -9.8301
  82   2.0000      -0.358976        -9.7682
  83   2.0000      -0.354513        -9.6468
  84   2.0000      -0.349480        -9.5098
  85   2.0000      -0.334833        -9.1113
  86   2.0000      -0.322550        -8.7770
  87   2.0000      -0.315740        -8.5917
  88   2.0000      -0.309195        -8.4136
  89   2.0000      -0.308801        -8.4029
  90   2.0000      -0.306390        -8.3373
  91   2.0000      -0.296949        -8.0804
  92   2.0000      -0.284862        -7.7515
  93   2.0000      -0.279247        -7.5987
  94   2.0000      -0.275870        -7.5068
  95   2.0000      -0.248826        -6.7709
  96   2.0000      -0.232821        -6.3354
  97   2.0000      -0.226480        -6.1628
  98   2.0000      -0.218762        -5.9528
  99   2.0000      -0.215420        -5.8619
 100   2.0000      -0.214414        -5.8345
 101   0.0000      -0.047279        -1.2865
 102   0.0000      -0.027943        -0.7604
 103   0.0000      -0.004241        -0.1154
 104   0.0000      -0.001641        -0.0446
 105   0.0000       0.012733         0.3465

MULLIKEN ATOMIC CHARGES
-----------------------
   0 C :   -0.452621
   1 C :   -0.127231
   2 O :   -0.302693
   3 P :    0.655389
   4 S :   -0.481163
   5 O :   -0.265017
   6 C :   -0.123015
   7 C :   -0.459421
   8 S :   -0.112102
   9 C :   -0.247221
  10 S :   -0.156628
  11 P :    0.655973
  12 S :   -0.459856
  13 O :   -0.266350
  14 C :   -0.169556
  15 C :   -0.441427
  16 O :   -0.257648
  17 C :   -0.160709
  18 C :   -0.454231
  19 H :    0.179850
  20 H :    0.151262
  21 H :    0.145837
  22 H :    0.151763
  23 H :    0.154077
  24 H :    0.150904
  25 H :    0.162780
  26 H :    0.153094
  27 H :    0.146643
  28 H :    0.177988
  29 H :    0.223475
  30 H :    0.214326
  31 H :    0.176134
  32 H :    0.148285
  33 H :    0.152042
  34 H :    0.177265
  35 H :    0.147725
  36 H :    0.152338
  37 H :    0.189477
  38 H :    0.157264
  39 H :    0.161763
  40 H :    0.151235
Sum of atomic charges:    0.0000000

LOEWDIN ATOMIC CHARGES
----------------------
   0 C :   -0.400360
   1 C :    0.023204
   2 O :   -0.658760
   3 P :    0.374934
   4 S :   -0.135962
   5 O :   -0.683386
   6 C :    0.023492
   7 C :   -0.402230
   8 S :    0.178182
   9 C :   -0.425467
  10 S :    0.142963
  11 P :    0.385671
  12 S :   -0.108297
  13 O :   -0.671525
  14 C :    0.021367
  15 C :   -0.408070
  16 O :   -0.651384
  17 C :    0.021216
  18 C :   -0.404824
  19 H :    0.168215
  20 H :    0.158199
  21 H :    0.158703
  22 H :    0.179219
  23 H :    0.176561
  24 H :    0.177621
  25 H :    0.179952
  26 H :    0.158607
  27 H :    0.158846
  28 H :    0.167230
  29 H :    0.193472
  30 H :    0.193337
  31 H :    0.181267
  32 H :    0.179215
  33 H :    0.159049
  34 H :    0.165793
  35 H :    0.159303
  36 H :    0.183091
  37 H :    0.195654
  38 H :    0.161565
  39 H :    0.164891
  40 H :    0.159444

  Mayer bond orders larger than 0.100000
B(  0-C ,  1-C ) :   0.9571 B(  0-C , 19-H ) :   0.9576 B(  0-C , 20-H ) :   0.9750
B(  0-C , 21-H ) :   0.9644 B(  1-C ,  2-O ) :   0.7731 B(  1-C , 22-H ) :   0.9630
B(  1-C , 23-H ) :   0.9615 B(  2-O ,  3-P ) :   1.0835 B(  3-P ,  4-S ) :   1.7450
B(  3-P ,  5-O ) :   1.1484 B(  3-P ,  8-S ) :   1.1124 B(  5-O ,  6-C ) :   0.7567
B(  6-C ,  7-C ) :   0.9482 B(  6-C , 24-H ) :   0.9602 B(  6-C , 25-H ) :   0.9641
B(  7-C , 26-H ) :   0.9645 B(  7-C , 27-H ) :   0.9633 B(  7-C , 28-H ) :   0.9633
B(  8-S ,  9-C ) :   0.9058 B(  9-C , 10-S ) :   0.9085 B(  9-C , 29-H ) :   0.9034
B(  9-C , 30-H ) :   0.8999 B( 10-S , 11-P ) :   0.9907 B( 11-P , 12-S ) :   1.8061
B( 11-P , 13-O ) :   1.0417 B( 11-P , 16-O ) :   1.1856 B( 13-O , 14-C ) :   0.8095
B( 14-C , 15-C ) :   0.9135 B( 14-C , 31-H ) :   0.9677 B( 14-C , 32-H ) :   0.9617
B( 15-C , 33-H ) :   0.9687 B( 15-C , 34-H ) :   0.9640 B( 15-C , 35-H ) :   0.9573
B( 16-O , 17-C ) :   0.8109 B( 17-C , 18-C ) :   0.9005 B( 17-C , 36-H ) :   0.9610
B( 17-C , 37-H ) :   0.9509 B( 18-C , 38-H ) :   0.9655 B( 18-C , 39-H ) :   0.9650
B( 18-C , 40-H ) :   0.9612

Dispersion correction           -0.021840925
FINAL SINGLE POINT ENERGY     -2932.462535538178

DIPOLE MOMENT
-------------

Method             : SCF
Type of density    : Electron Density
Multiplicity       :   1
Irrep              :   0
Energy             : -2932.4872801809460725 Eh
Relativity type    :
Basis              : AO
                                X                 Y                 Z
Electronic contribution:     -2.259943882       4.559204264     -15.069599285
Nuclear contribution   :      2.491021497      -5.409222174      16.338177751
                        -----------------------------------------
Total Dipole Moment    :      0.231077615      -0.850017910       1.268578465
                        -----------------------------------------
Magnitude (a.u.)       :      1.544415305
Magnitude (Debye)      :      3.925591733

Rotational constants in cm-1:             0.013706             0.004702             0.004395
Rotational constants in MHz :           410.895998           140.964236           131.769595

                             ****ORCA TERMINATED NORMALLY****
TOTAL RUN TIME: 0 days 0 hours 1 minutes 24 seconds 130 msec
