                         Program Version 6.0.0  -   RELEASE  -
|  1> ! r2scan-3c def2/J RI DEFGRID2 scfconv6 printgap
|  2> %output
|  3>     printlevel normal
|  4> end
|  5> %cpcm
|  6>     smd true
|  7>     smdsolvent "water"
|  8> end
|  9> * xyz 0 1
| 10> C 5.5633566808 -0.9294955446 -1.411451472
| 11> C 4.1595379628 -1.1082453624 -1.9565977636
| 12> O 3.2484254204 -1.4911412677 -0.9058077168
| 13> P 2.3522087902 -0.4316113907 -0.1299862644
| 14> S 3.2925971685 1.1174905888 0.6258693593
| 15> O 1.6175066303 -1.376954892 0.9022528889
| 16> C 2.0659305138 -1.532180682 2.2727312877
| 17> C 1.2037848502 -0.7100262137 3.208475901
| 18> S 0.8189675368 -6.3669e-05 -1.5213033992
| 19> C 0.173820024 1.4634332519 -0.6616774895
| 20> S -0.8566119336 1.0377054173 0.7570818404
| 21> P -2.5085846596 0.2910967525 -0.3710881952
| 22> S -2.8262148407 1.1569072377 -2.0972570862
| 23> O -3.736260145 0.3446228506 0.6365803206
| 24> C -4.5814666124 1.5011773378 0.7636591257
| 25> C -3.8519227992 2.685157408 1.3650485736
| 26> O -2.2678554802 -1.2561667397 -0.5531281657
| 27> C -1.724401975 -2.1860144097 0.414123876
| 28> C -2.4465733251 -2.1458198154 1.7433268219
| 29> H 5.5890898784 -0.1093122689 -0.6973225347
| 30> H 5.8884862475 -1.8390518871 -0.9143484826
| 31> H 6.2388888175 -0.7058037169 -2.2307452071
| 32> H 4.1123402787 -1.9280607473 -2.6757656046
| 33> H 3.8014344283 -0.1894524089 -2.4299448374
| 34> H 1.9767451277 -2.6005342409 2.4735983178
| 35> H 3.113827785 -1.2292714366 2.3427352262
| 36> H 0.1596472076 -0.9895173899 3.1058017597
| 37> H 1.525182532 -0.8827201578 4.2304236086
| 38> H 1.3040080662 0.3485916066 2.9777965717
| 39> H -0.4229270745 2.012755635 -1.3904304993
| 40> H 1.0071028122 2.0613697972 -0.2903711986
| 41> H -4.9727764301 1.7538831194 -0.2267710963
| 42> H -5.393088961 1.1590799547 1.4072569357
| 43> H -3.3651745406 2.4001840947 2.294205977
| 44> H -3.0978692791 3.0508725656 0.6698698213
| 45> H -4.5630124274 3.4815019341 1.5599285756
| 46> H -1.84124232 -3.1517880593 -0.0802381085
| 47> H -0.6598002576 -1.967867708 0.5366915359
| 48> H -2.3041620158 -1.1783021497 2.2214061267
| 49> H -3.5111634369 -2.3090937051 1.5975678338
| 50> H -2.0480840039 -2.9251338075 2.3861065157
| 51> *
| 52>
| 53>                          ****END OF INPUT****

CARTESIAN COORDINATES (ANGSTROEM)
---------------------------------
  C      5.563357   -0.929496   -1.411451
  C      4.159538   -1.108245   -1.956598
  O      3.248425   -1.491141   -0.905808
  P      2.352209   -0.431611   -0.129986
  S      3.292597    1.117491    0.625869
  O      1.617507   -1.376955    0.902253
  C      2.065931   -1.532181    2.272731
  C      1.203785   -0.710026    3.208476
  S      0.818968   -0.000064   -1.521303
  C      0.173820    1.463433   -0.661677
  S     -0.856612    1.037705    0.757082
  P     -2.508585    0.291097   -0.371088
  S     -2.826215    1.156907   -2.097257
  O     -3.736260    0.344623    0.636580
  C     -4.581467    1.501177    0.763659
  C     -3.851923    2.685157    1.365049
  O     -2.267855   -1.256167   -0.553128
  C     -1.724402   -2.186014    0.414124
  C     -2.446573   -2.145820    1.743327
  H      5.589090   -0.109312   -0.697323
  H      5.888486   -1.839052   -0.914348
  H      6.238889   -0.705804   -2.230745
  H      4.112340   -1.928061   -2.675766
  H      3.801434   -0.189452   -2.429945
  H      1.976745   -2.600534    2.473598
  H      3.113828   -1.229271    2.342735
  H      0.159647   -0.989517    3.105802
  H      1.525183   -0.882720    4.230424
  H      1.304008    0.348592    2.977797
  H     -0.422927    2.012756   -1.390430
  H      1.007103    2.061370   -0.290371
  H     -4.972776    1.753883   -0.226771
  H     -5.393089    1.159080    1.407257
  H     -3.365175    2.400184    2.294206
  H     -3.097869    3.050873    0.669870
  H     -4.563012    3.481502    1.559929
  H     -1.841242   -3.151788   -0.080238
  H     -0.659800   -1.967868    0.536692
  H     -2.304162   -1.178302    2.221406
  H     -3.511163   -2.309094    1.597568
  H     -2.048084   -2.925134    2.386107

 Total Charge           Charge          ....    0
 Multiplicity           Mult            ....    1
 Number of Electrons    NEL             ....  202
 Basis Dimension        Dim             ....  539

ORBITAL ENERGIES
----------------

  NO   OCC          E(Eh)            E(eV)
   0   2.0000     -88.581598     -2410.4278
   1   2.0000     -88.577998     -2410.3299
   2   2.0000     -88.529155     -2409.0008
   3   2.0000     -88.528624     -2408.9863
   4   2.0000     -76.920641     -2093.1171
   5   2.0000     -76.920596     -2093.1158
   6   2.0000     -18.995739      -516.9003
   7   2.0000     -18.995641      -516.8977
   8   2.0000     -18.993778      -516.8470
   9   2.0000     -18.993712      -516.8452
  10   2.0000     -10.103628      -274.9337
  11   2.0000     -10.091659      -274.6080
  12   2.0000     -10.090865      -274.5864
  13   2.0000     -10.090053      -274.5643
  14   2.0000     -10.089973      -274.5621
  15   2.0000     -10.020063      -272.6598
  16   2.0000     -10.018217      -272.6095
  17   2.0000     -10.016933      -272.5746
  18   2.0000     -10.016909      -272.5740
  19   2.0000      -7.875711      -214.3090
  20   2.0000      -7.872393      -214.2187
  21   2.0000      -7.824327      -212.9108
  22   2.0000      -7.823836      -212.8974
  23   2.0000      -6.599074      -179.5699
  24   2.0000      -6.599019      -179.5684
  25   2.0000      -5.822530      -158.4391
  26   2.0000      -5.819533      -158.3575
  27   2.0000      -5.819217      -158.3489
  28   2.0000      -5.816269      -158.2687
  29   2.0000      -5.812985      -158.1794
  30   2.0000      -5.809520      -158.0851
  31   2.0000      -5.771853      -157.0601
  32   2.0000      -5.771408      -157.0480
  33   2.0000      -5.764652      -156.8642
  34   2.0000      -5.764339      -156.8556
  35   2.0000      -5.764087      -156.8488
  36   2.0000      -5.763854      -156.8424
  37   2.0000      -4.744685      -129.1094
  38   2.0000      -4.744484      -129.1040
  39   2.0000      -4.743990      -129.0905
  40   2.0000      -4.743969      -129.0899
  41   2.0000      -4.742934      -129.0618
  42   2.0000      -4.742646      -129.0540
  43   2.0000      -1.052866       -28.6499
  44   2.0000      -1.052519       -28.6405
  45   2.0000      -1.012946       -27.5637
  46   2.0000      -1.012359       -27.5477
  47   2.0000      -0.804963       -21.9042
  48   2.0000      -0.756459       -20.5843
  49   2.0000      -0.745532       -20.2870
  50   2.0000      -0.726092       -19.7580
  51   2.0000      -0.722197       -19.6520
  52   2.0000      -0.712137       -19.3782
  53   2.0000      -0.689871       -18.7723
  54   2.0000      -0.675022       -18.3683
  55   2.0000      -0.630932       -17.1685
  56   2.0000      -0.621031       -16.8991
  57   2.0000      -0.603773       -16.4295
  58   2.0000      -0.599694       -16.3185
  59   2.0000      -0.588928       -16.0255
  60   2.0000      -0.527894       -14.3647
  61   2.0000      -0.512968       -13.9586
  62   2.0000      -0.493605       -13.4317
  63   2.0000      -0.487373       -13.2621
  64   2.0000      -0.476682       -12.9712
  65   2.0000      -0.458923       -12.4879
  66   2.0000      -0.456745       -12.4287
  67   2.0000      -0.451781       -12.2936
  68   2.0000      -0.441637       -12.0175
  69   2.0000      -0.434009       -11.8100
  70   2.0000      -0.419688       -11.4203
  71   2.0000      -0.414664       -11.2836
  72   2.0000      -0.410274       -11.1641
  73   2.0000      -0.398055       -10.8316
  74   2.0000      -0.394769       -10.7422
  75   2.0000      -0.384579       -10.4649
  76   2.0000      -0.382200       -10.4002
  77   2.0000      -0.376447       -10.2437
  78   2.0000      -0.363135        -9.8814
  79   2.0000      -0.359769        -9.7898
  80   2.0000      -0.356459        -9.6997
  81   2.0000      -0.352439        -9.5903
  82   2.0000      -0.351336        -9.5603
  83   2.0000      -0.347500        -9.4560
  84   2.0000      -0.343560        -9.3487
  85   2.0000      -0.331533        -9.0215
  86   2.0000      -0.316595        -8.6150
  87   2.0000      -0.308584        -8.3970
  88   2.0000      -0.306893        -8.3510
  89   2.0000      -0.304580        -8.2880
  90   2.0000      -0.302318        -8.2265
  91   2.0000      -0.291830        -7.9411
  92   2.0000      -0.284701        -7.7471
  93   2.0000      -0.279504        -7.6057
  94   2.0000      -0.277637        -7.5549
  95   2.0000      -0.251438        -6.8420
  96   2.0000      -0.238117        -6.4795
  97   2.0000      -0.233764        -6.3610
  98   2.0000      -0.226067        -6.1516
  99   2.0000      -0.224429        -6.1070
 100   2.0000      -0.221443        -6.0258
 101   0.0000      -0.051811        -1.4099
 102   0.0000      -0.033306        -0.9063
 103   0.0000      -0.006652        -0.1810
 104   0.0000      -0.005758        -0.1567
 105   0.0000       0.013061         0.3554

MULLIKEN ATOMIC CHARGES
-----------------------
   0 C :   -0.490891
   1 C :   -0.123564
   2 O :   -0.329599
   3 P :    0.687018
   4 S :   -0.519132
   5 O :   -0.284170
   6 C :   -0.116498
   7 C :   -0.497306
   8 S :   -0.140820
   9 C :   -0.253061
  10 S :   -0.142911
  11 P :    0.667596
  12 S :   -0.517105
  13 O :   -0.285969
  14 C :   -0.161920
  15 C :   -0.479771
  16 O :   -0.294883
  17 C :   -0.153898
  18 C :   -0.482403
  19 H :    0.171036
  20 H :    0.166871
  21 H :    0.169726
  22 H :    0.176974
  23 H :    0.164253
  24 H :    0.176771
  25 H :    0.171149
  26 H :    0.169891
  27 H :    0.169968
  28 H :    0.169118
  29 H :    0.237541
  30 H :    0.231831
  31 H :    0.178831
  32 H :    0.175924
  33 H :    0.168694
  34 H :    0.172342
  35 H :    0.172037
  36 H :    0.176514
  37 H :    0.187014
  38 H :    0.164950
  39 H :    0.170506
  40 H :    0.177343
Sum of atomic charges:   -0.0000000

LOEWDIN ATOMIC CHARGES
----------------------
   0 C :   -0.404657
   1 C :    0.027613
   2 O :   -0.671950
   3 P :    0.380184
   4 S :   -0.159405
   5 O :   -0.688846
   6 C :    0.030415
   7 C :   -0.405268
   8 S :    0.159793
   9 C :   -0.420776
  10 S :    0.155473
  11 P :    0.387578
  12 S :   -0.152106
  13 O :   -0.678622
  14 C :    0.026853
  15 C :   -0.410667
  16 O :   -0.675547
  17 C :    0.026412
  18 C :   -0.403751
  19 H :    0.162667
  20 H :    0.162535
  21 H :    0.167580
  22 H :    0.189836
  23 H :    0.180240
  24 H :    0.189231
  25 H :    0.182474
  26 H :    0.163497
  27 H :    0.167176
  28 H :    0.161720
  29 H :    0.197442
  30 H :    0.198485
  31 H :    0.181741
  32 H :    0.191098
  33 H :    0.163582
  34 H :    0.161463
  35 H :    0.168147
  36 H :    0.192724
  37 H :    0.195869
  38 H :    0.163351
  39 H :    0.165784
  40 H :    0.170635

  Mayer bond orders larger than 0.100000
B(  0-C ,  1-C ) :   0.9472 B(  0-C , 19-H ) :   0.9616 B(  0-C , 20-H ) :   0.9720
B(  0-C , 21-H ) :   0.9594 B(  1-C ,  2-O ) :   0.7607 B(  1-C , 22-H ) :   0.9530
B(  1-C , 23-H ) :   0.9554 B(  2-O ,  3-P ) :   1.0873 B(  3-P ,  4-S ) :   1.7188
B(  3-P ,  5-O ) :   1.1618 B(  3-P ,  8-S ) :   1.1140 B(  5-O ,  6-C ) :   0.7446
B(  6-C ,  7-C ) :   0.9357 B(  6-C , 24-H ) :   0.9490 B(  6-C , 25-H ) :   0.9622
B(  7-C , 26-H ) :   0.9624 B(  7-C , 27-H ) :   0.9589 B(  7-C , 28-H ) :   0.9659
B(  8-S ,  9-C ) :   0.8946 B(  9-C , 10-S ) :   0.9006 B(  9-C , 29-H ) :   0.8995
B(  9-C , 30-H ) :   0.8975 B( 10-S , 11-P ) :   1.0097 B( 11-P , 12-S ) :   1.7836
B( 11-P , 13-O ) :   1.0520 B( 11-P , 16-O ) :   1.1863 B( 13-O , 14-C ) :   0.7980
B( 14-C , 15-C ) :   0.9035 B( 14-C , 31-H ) :   0.9659 B( 14-C , 32-H ) :   0.9507
B( 15-C , 33-H ) :   0.9658 B( 15-C , 34-H ) :   0.9652 B( 15-C , 35-H ) :   0.9521
B( 16-O , 17-C ) :   0.8018 B( 17-C , 18-C ) :   0.8987 B( 17-C , 36-H ) :   0.9504
B( 17-C , 37-H ) :   0.9445 B( 18-C , 38-H ) :   0.9593 B( 18-C , 39-H ) :   0.9668
B( 18-C , 40-H ) :   0.9524

Dispersion correction           -0.021840925
FINAL SINGLE POINT ENERGY     -2932.471001729979

DIPOLE MOMENT
-------------

Method             : SCF
Type of density    : Electron Density
Multiplicity       :   1
Irrep              :   0
Energy             : -2932.4957463727478171 Eh
Relativity type    :
Basis              : AO
                                X                 Y                 Z
Electronic contribution:     -2.158358007       4.334625430     -14.441576546
Nuclear contribution   :      2.491021497      -5.409222174      16.338177751
                        -----------------------------------------
Total Dipole Moment    :      0.332663490      -1.074596743       1.896601205
                        -----------------------------------------
Magnitude (a.u.)       :      2.205112081
Magnitude (Debye)      :      5.604949476

Rotational constants in cm-1:             0.013706             0.004702             0.004395
Rotational constants in MHz :           410.895998           140.964236           131.769595

                             ****ORCA TERMINATED NORMALLY****
TOTAL RUN TIME: 0 days 0 hours 1 minutes 49 seconds 876 msec
