                         Program Version 6.0.0  -   RELEASE  -
|  1> ! pbe def2-sv(p) def2/J RI DEFGRID1 loosescf d4 GCP(DFT/SV(P)) printgap
|  2> %output
|  3>     printlevel normal
|  4> end
|  5> * xyz 0 1
|  6> C 2.1767376063 -0.5456953871 -3.4244179933
|  7> C 2.3922660322 -1.1786995439 -2.066954225
|  8> O 2.7434070802 -0.1255622877 -1.1328274921
|  9> P 2.6627559064 -0.3251184732 0.4295825725
| 10> S 3.4433218368 1.1842476703 1.3958358795
| 11> O 3.3682873354 -1.7362483274 0.6223103426
| 12> C 3.8667668714 -2.1896285914 1.8961104778
| 13> C 2.7569977923 -2.4080699387 2.9033640732
| 14> S 0.613384748 -0.7038911908 0.8339809926
| 15> C 0.137946381 1.0577172768 0.8960098752
| 16> S -1.6099275483 1.240127179 1.2530407812
| 17> P -2.3848664779 0.7705037396 -0.6929156857
| 18> S -1.0538727438 0.8416537827 -2.1274396224
| 19> O -3.5353892189 1.7991063586 -0.9941279242
| 20> C -4.8500823486 1.8058168069 -0.3843580448
| 21> C -4.7964474436 2.0652917726 1.1057981264
| 22> O -3.21405041 -0.5724667193 -0.4932101462
| 23> C -2.6745728519 -1.8241710288 -0.0338646312
| 24> C -1.9707454657 -2.5750173806 -1.1460969445
| 25> H 1.9736258748 -1.3249748692 -4.1514673925
| 26> H 1.330635111 0.137426084 -3.3897514132
| 27> H 3.062643343 0.0074560193 -3.7222231161
| 28> H 3.2140660658 -1.8967890425 -2.0798916917
| 29> H 1.4844125625 -1.6730396838 -1.7089250397
| 30> H 4.3811575929 -3.1204056277 1.652936392
| 31> H 4.5845754156 -1.4516059931 2.2663423755
| 32> H 2.3102262613 -1.4539011118 3.1786211068
| 33> H 1.9860550672 -3.050184869 2.4848747084
| 34> H 3.1694643854 -2.8711857843 3.7939503326
| 35> H 0.3600886615 1.5124212389 -0.0723898714
| 36> H 0.6912478531 1.5461028638 1.6968890787
| 37> H -5.3631331678 2.609752852 -0.9143344768
| 38> H -5.3306113495 0.8504350057 -0.6011093277
| 39> H -4.2945866011 1.2462415117 1.6181916819
| 40> H -4.256414758 2.9857739123 1.3121506551
| 41> H -5.8093241179 2.1522422108 1.4866641054
| 42> H -1.991063615 -1.6366473422 0.8006166337
| 43> H -3.5492622203 -2.3714749487 0.3224698491
| 44> H -2.6492057357 -2.7401711866 -1.9786164024
| 45> H -1.1179753142 -2.0024263791 -1.5037066366
| 46> H -1.6220234902 -3.5298925765 -0.7672025358
| 47> *
| 48>
| 49>                          ****END OF INPUT****

CARTESIAN COORDINATES (ANGSTROEM)
---------------------------------
  C      2.176738   -0.545695   -3.424418
  C      2.392266   -1.178700   -2.066954
  O      2.743407   -0.125562   -1.132827
  P      2.662756   -0.325118    0.429583
  S      3.443322    1.184248    1.395836
  O      3.368287   -1.736248    0.622310
  C      3.866767   -2.189629    1.896110
  C      2.756998   -2.408070    2.903364
  S      0.613385   -0.703891    0.833981
  C      0.137946    1.057717    0.896010
  S     -1.609928    1.240127    1.253041
  P     -2.384866    0.770504   -0.692916
  S     -1.053873    0.841654   -2.127440
  O     -3.535389    1.799106   -0.994128
  C     -4.850082    1.805817   -0.384358
  C     -4.796447    2.065292    1.105798
  O     -3.214050   -0.572467   -0.493210
  C     -2.674573   -1.824171   -0.033865
  C     -1.970745   -2.575017   -1.146097
  H      1.973626   -1.324975   -4.151467
  H      1.330635    0.137426   -3.389751
  H      3.062643    0.007456   -3.722223
  H      3.214066   -1.896789   -2.079892
  H      1.484413   -1.673040   -1.708925
  H      4.381158   -3.120406    1.652936
  H      4.584575   -1.451606    2.266342
  H      2.310226   -1.453901    3.178621
  H      1.986055   -3.050185    2.484875
  H      3.169464   -2.871186    3.793950
  H      0.360089    1.512421   -0.072390
  H      0.691248    1.546103    1.696889
  H     -5.363133    2.609753   -0.914334
  H     -5.330611    0.850435   -0.601109
  H     -4.294587    1.246242    1.618192
  H     -4.256415    2.985774    1.312151
  H     -5.809324    2.152242    1.486664
  H     -1.991064   -1.636647    0.800617
  H     -3.549262   -2.371475    0.322470
  H     -2.649206   -2.740171   -1.978616
  H     -1.117975   -2.002426   -1.503707
  H     -1.622023   -3.529893   -0.767203

 Total Charge           Charge          ....    0
 Multiplicity           Mult            ....    1
 Number of Electrons    NEL             ....  202
 Basis Dimension        Dim             ....  334

ORBITAL ENERGIES
----------------

  NO   OCC          E(Eh)            E(eV)
   0   2.0000     -88.050561     -2395.9776
   1   2.0000     -88.040445     -2395.7023
   2   2.0000     -87.988052     -2394.2766
   3   2.0000     -87.984127     -2394.1698
   4   2.0000     -76.430924     -2079.7912
   5   2.0000     -76.424287     -2079.6106
   6   2.0000     -18.798272      -511.5270
   7   2.0000     -18.795134      -511.4416
   8   2.0000     -18.794601      -511.4271
   9   2.0000     -18.787229      -511.2265
  10   2.0000      -9.961891      -271.0768
  11   2.0000      -9.959212      -271.0039
  12   2.0000      -9.955619      -270.9062
  13   2.0000      -9.949998      -270.7532
  14   2.0000      -9.949187      -270.7311
  15   2.0000      -9.896131      -269.2874
  16   2.0000      -9.886467      -269.0244
  17   2.0000      -9.884121      -268.9606
  18   2.0000      -9.878686      -268.8127
  19   2.0000      -7.695008      -209.3918
  20   2.0000      -7.685103      -209.1223
  21   2.0000      -7.632845      -207.7003
  22   2.0000      -7.629453      -207.6080
  23   2.0000      -6.428213      -174.9206
  24   2.0000      -6.421855      -174.7476
  25   2.0000      -5.722879      -155.7275
  26   2.0000      -5.719456      -155.6343
  27   2.0000      -5.712818      -155.4537
  28   2.0000      -5.712211      -155.4372
  29   2.0000      -5.709855      -155.3730
  30   2.0000      -5.702091      -155.1618
  31   2.0000      -5.661935      -154.0691
  32   2.0000      -5.658465      -153.9747
  33   2.0000      -5.653205      -153.8315
  34   2.0000      -5.653073      -153.8279
  35   2.0000      -5.649976      -153.7437
  36   2.0000      -5.649593      -153.7332
  37   2.0000      -4.651081      -126.5623
  38   2.0000      -4.649984      -126.5325
  39   2.0000      -4.648439      -126.4904
  40   2.0000      -4.644782      -126.3909
  41   2.0000      -4.643539      -126.3571
  42   2.0000      -4.642082      -126.3175
  43   2.0000      -0.993487       -27.0341
  44   2.0000      -0.987220       -26.8636
  45   2.0000      -0.948668       -25.8146
  46   2.0000      -0.943028       -25.6611
  47   2.0000      -0.764006       -20.7896
  48   2.0000      -0.724605       -19.7175
  49   2.0000      -0.713349       -19.4112
  50   2.0000      -0.696012       -18.9395
  51   2.0000      -0.689286       -18.7564
  52   2.0000      -0.678114       -18.4524
  53   2.0000      -0.652663       -17.7599
  54   2.0000      -0.635723       -17.2989
  55   2.0000      -0.598211       -16.2781
  56   2.0000      -0.592021       -16.1097
  57   2.0000      -0.584632       -15.9086
  58   2.0000      -0.565825       -15.3969
  59   2.0000      -0.559901       -15.2357
  60   2.0000      -0.506582       -13.7848
  61   2.0000      -0.501048       -13.6342
  62   2.0000      -0.478862       -13.0305
  63   2.0000      -0.473982       -12.8977
  64   2.0000      -0.456051       -12.4098
  65   2.0000      -0.451471       -12.2852
  66   2.0000      -0.444006       -12.0820
  67   2.0000      -0.437766       -11.9122
  68   2.0000      -0.432555       -11.7704
  69   2.0000      -0.425107       -11.5677
  70   2.0000      -0.413437       -11.2502
  71   2.0000      -0.404581       -11.0092
  72   2.0000      -0.395844       -10.7715
  73   2.0000      -0.387376       -10.5410
  74   2.0000      -0.385561       -10.4916
  75   2.0000      -0.366560        -9.9746
  76   2.0000      -0.363253        -9.8846
  77   2.0000      -0.360177        -9.8009
  78   2.0000      -0.356316        -9.6958
  79   2.0000      -0.354478        -9.6458
  80   2.0000      -0.349965        -9.5230
  81   2.0000      -0.347938        -9.4679
  82   2.0000      -0.340584        -9.2678
  83   2.0000      -0.337526        -9.1846
  84   2.0000      -0.335088        -9.1182
  85   2.0000      -0.319152        -8.6846
  86   2.0000      -0.311612        -8.4794
  87   2.0000      -0.302831        -8.2405
  88   2.0000      -0.299510        -8.1501
  89   2.0000      -0.295867        -8.0509
  90   2.0000      -0.294583        -8.0160
  91   2.0000      -0.281382        -7.6568
  92   2.0000      -0.267996        -7.2925
  93   2.0000      -0.265752        -7.2315
  94   2.0000      -0.260695        -7.0939
  95   2.0000      -0.232896        -6.3374
  96   2.0000      -0.224345        -6.1047
  97   2.0000      -0.206924        -5.6307
  98   2.0000      -0.205887        -5.6025
  99   2.0000      -0.203233        -5.5302
 100   2.0000      -0.195648        -5.3238
 101   0.0000      -0.048599        -1.3225
 102   0.0000      -0.033707        -0.9172
 103   0.0000      -0.009591        -0.2610
 104   0.0000       0.000864         0.0235
 105   0.0000       0.012937         0.3520

MULLIKEN ATOMIC CHARGES
-----------------------
   0 C :   -0.287337
   1 C :   -0.023711
   2 O :   -0.358065
   3 P :    0.611718
   4 S :   -0.317186
   5 O :   -0.385892
   6 C :    0.000794
   7 C :   -0.319697
   8 S :   -0.129604
   9 C :   -0.329940
  10 S :   -0.118602
  11 P :    0.619782
  12 S :   -0.312934
  13 O :   -0.357761
  14 C :    0.003134
  15 C :   -0.333976
  16 O :   -0.381056
  17 C :   -0.018301
  18 C :   -0.320863
  19 H :    0.105715
  20 H :    0.140001
  21 H :    0.118030
  22 H :    0.104087
  23 H :    0.114302
  24 H :    0.105231
  25 H :    0.114065
  26 H :    0.131079
  27 H :    0.114856
  28 H :    0.114638
  29 H :    0.201513
  30 H :    0.189036
  31 H :    0.114333
  32 H :    0.112677
  33 H :    0.130094
  34 H :    0.132341
  35 H :    0.120192
  36 H :    0.114464
  37 H :    0.104627
  38 H :    0.114357
  39 H :    0.156926
  40 H :    0.106933
Sum of atomic charges:   -0.0000000

LOEWDIN ATOMIC CHARGES
----------------------
   0 C :   -0.352692
   1 C :   -0.115444
   2 O :   -0.236892
   3 P :    0.572271
   4 S :   -0.311496
   5 O :   -0.248666
   6 C :   -0.114820
   7 C :   -0.371442
   8 S :    0.063047
   9 C :   -0.485067
  10 S :    0.083440
  11 P :    0.569292
  12 S :   -0.288590
  13 O :   -0.233343
  14 C :   -0.108968
  15 C :   -0.370859
  16 O :   -0.245243
  17 C :   -0.118291
  18 C :   -0.368660
  19 H :    0.129126
  20 H :    0.124935
  21 H :    0.128589
  22 H :    0.112938
  23 H :    0.104747
  24 H :    0.118852
  25 H :    0.114292
  26 H :    0.122670
  27 H :    0.122285
  28 H :    0.131856
  29 H :    0.124442
  30 H :    0.131331
  31 H :    0.124643
  32 H :    0.115598
  33 H :    0.116921
  34 H :    0.130983
  35 H :    0.135090
  36 H :    0.097433
  37 H :    0.118230
  38 H :    0.127026
  39 H :    0.121603
  40 H :    0.128834

  Mayer bond orders larger than 0.100000
B(  0-C ,  1-C ) :   1.1685 B(  0-C , 19-H ) :   0.9396 B(  0-C , 20-H ) :   0.9374
B(  0-C , 21-H ) :   0.9481 B(  1-C ,  2-O ) :   0.8878 B(  1-C , 22-H ) :   0.9294
B(  1-C , 23-H ) :   0.9055 B(  2-O ,  3-P ) :   1.1406 B(  3-P ,  4-S ) :   1.6351
B(  3-P ,  5-O ) :   1.0862 B(  3-P ,  8-S ) :   0.9561 B(  4-S ,  8-S ) :   0.1085
B(  5-O ,  6-C ) :   0.9064 B(  6-C ,  7-C ) :   1.1656 B(  6-C , 24-H ) :   0.9346
B(  6-C , 25-H ) :   0.9196 B(  7-C , 26-H ) :   0.9341 B(  7-C , 27-H ) :   0.9441
B(  7-C , 28-H ) :   0.9368 B(  8-S ,  9-C ) :   0.9714 B(  9-C , 10-S ) :   1.0178
B(  9-C , 29-H ) :   0.8611 B(  9-C , 30-H ) :   0.8818 B( 10-S , 11-P ) :   0.9257
B( 10-S , 12-S ) :   0.1164 B( 11-P , 12-S ) :   1.6506 B( 11-P , 13-O ) :   1.1484
B( 11-P , 16-O ) :   1.0737 B( 13-O , 14-C ) :   0.8985 B( 14-C , 15-C ) :   1.1688
B( 14-C , 31-H ) :   0.9333 B( 14-C , 32-H ) :   0.9267 B( 15-C , 33-H ) :   0.9316
B( 15-C , 34-H ) :   0.9428 B( 15-C , 35-H ) :   0.9355 B( 16-O , 17-C ) :   0.9096
B( 17-C , 18-C ) :   1.1661 B( 17-C , 36-H ) :   0.9055 B( 17-C , 37-H ) :   0.9343
B( 18-C , 38-H ) :   0.9431 B( 18-C , 39-H ) :   0.9204 B( 18-C , 40-H ) :   0.9390

Dispersion correction           -0.064163678
FINAL SINGLE POINT ENERGY     -2929.516770139733

DIPOLE MOMENT
-------------

Method             : SCF
Type of density    : Electron Density
Multiplicity       :   1
Irrep              :   0
Energy             : -2929.6379637887830540 Eh
Relativity type    :
Basis              : AO
                                X                 Y                 Z
Electronic contribution:      5.966192213      13.959755842       0.650858831
Nuclear contribution   :     -7.273746261     -15.562496806      -0.092386521
                        -----------------------------------------
Total Dipole Moment    :     -1.307554048      -1.602740964       0.558472310
                        -----------------------------------------
Magnitude (a.u.)       :      2.142514295
Magnitude (Debye)      :      5.445838551

Rotational constants in cm-1:             0.012604             0.004575             0.004301
Rotational constants in MHz :           377.845600           137.156660           128.946349

                             ****ORCA TERMINATED NORMALLY****
TOTAL RUN TIME: 0 days 0 hours 0 minutes 21 seconds 163 msec
