                         Program Version 6.0.1  -  RELEASE   -
|  1> ! pbe def2-sv(p) def2/J RI DEFGRID1 loosescf d4 GCP(DFT/SV(P)) printgap
|  2> %output
|  3>     printlevel normal
|  4> end
|  5> * xyz 0 1
|  6> C 2.2267726547 -3.3605295598 0.6735847197
|  7> C 3.2293536185 -2.3812534591 0.0859086192
|  8> O 2.6442713825 -1.6526115419 -1.010654803
|  9> C 2.10701743 -0.4756228314 -0.7885650619
| 10> O 2.0626669188 0.0868637521 0.2870835492
| 11> C 1.5656480328 0.1530535461 -2.0563013489
| 12> C 0.2796156224 0.9186565416 -1.7524633194
| 13> H 0.0356363179 1.581387126 -2.5867319049
| 14> C 0.3944510808 1.7595626839 -0.493704854
| 15> O -0.3757464699 1.6357360681 0.4446088079
| 16> O 1.3016468627 2.6860979701 -0.6094033346
| 17> C 1.537091208 3.5840503096 0.4987112894
| 18> C 2.7318885416 3.1179018922 1.3122416064
| 19> S -1.152648237 -0.1990737471 -1.5865132719
| 20> P -1.6889049087 -0.3453822285 0.4766956647
| 21> S -0.4774752556 -0.8957997852 1.9177141296
| 22> O -2.7395823283 0.7871034411 0.8416877668
| 23> C -3.9631520667 0.9721047509 0.1064625262
| 24> O -2.7566063827 -1.5401760061 0.2164586586
| 25> C -2.3544250219 -2.8948518822 0.0255623376
| 26> H 1.8422717162 -4.0152076345 -0.1034067126
| 27> H 2.7131894677 -3.9560060875 1.4387187083
| 28> H 1.3980933738 -2.8203850857 1.1292036233
| 29> H 4.0813939345 -2.900630292 -0.3541690761
| 30> H 3.5622873185 -1.6675916352 0.8445214498
| 31> H 1.3894436087 -0.6134115241 -2.8092694674
| 32> H 2.3196939275 0.8547612082 -2.4205326561
| 33> H 1.7236064058 4.5512561569 0.0301016645
| 34> H 0.634957474 3.6216427373 1.1149153847
| 35> H 3.6263798764 3.1064311771 0.6964081671
| 36> H 2.8788054485 3.7892054548 2.15168814
| 37> H 2.5524082717 2.1120082972 1.6866614394
| 38> H -3.7667362987 0.9664123012 -0.9660129726
| 39> H -4.3393512389 1.9410211097 0.4254109872
| 40> H -4.6655285265 0.1793791668 0.3577520381
| 41> H -3.249991415 -3.4927333748 0.1752608849
| 42> H -1.5910343065 -3.164287308 0.7586490981
| 43> H -1.9672867777 -3.0296692196 -0.9844967364
| 44> *
| 45>
| 46>                          ****END OF INPUT****

CARTESIAN COORDINATES (ANGSTROEM)
---------------------------------
  C      2.226773   -3.360530    0.673585
  C      3.229354   -2.381253    0.085909
  O      2.644271   -1.652612   -1.010655
  C      2.107017   -0.475623   -0.788565
  O      2.062667    0.086864    0.287084
  C      1.565648    0.153054   -2.056301
  C      0.279616    0.918657   -1.752463
  H      0.035636    1.581387   -2.586732
  C      0.394451    1.759563   -0.493705
  O     -0.375746    1.635736    0.444609
  O      1.301647    2.686098   -0.609403
  C      1.537091    3.584050    0.498711
  C      2.731889    3.117902    1.312242
  S     -1.152648   -0.199074   -1.586513
  P     -1.688905   -0.345382    0.476696
  S     -0.477475   -0.895800    1.917714
  O     -2.739582    0.787103    0.841688
  C     -3.963152    0.972105    0.106463
  O     -2.756606   -1.540176    0.216459
  C     -2.354425   -2.894852    0.025562
  H      1.842272   -4.015208   -0.103407
  H      2.713189   -3.956006    1.438719
  H      1.398093   -2.820385    1.129204
  H      4.081394   -2.900630   -0.354169
  H      3.562287   -1.667592    0.844521
  H      1.389444   -0.613412   -2.809269
  H      2.319694    0.854761   -2.420533
  H      1.723606    4.551256    0.030102
  H      0.634957    3.621643    1.114915
  H      3.626380    3.106431    0.696408
  H      2.878805    3.789205    2.151688
  H      2.552408    2.112008    1.686661
  H     -3.766736    0.966412   -0.966013
  H     -4.339351    1.941021    0.425411
  H     -4.665529    0.179379    0.357752
  H     -3.249991   -3.492733    0.175261
  H     -1.591034   -3.164287    0.758649
  H     -1.967287   -3.029669   -0.984497

 Total Charge           Charge          ....    0
 Multiplicity           Mult            ....    1
 Number of Electrons    NEL             ....  174
 Basis Dimension        Dim             ....  316

ORBITAL ENERGIES
----------------

  NO   OCC          E(Eh)            E(eV)
   0   2.0000     -88.032369     -2395.4825
   1   2.0000     -87.957777     -2393.4528
   2   2.0000     -76.413477     -2079.3164
   3   2.0000     -18.813728      -511.9476
   4   2.0000     -18.809041      -511.8200
   5   2.0000     -18.770363      -510.7675
   6   2.0000     -18.768775      -510.7243
   7   2.0000     -18.752710      -510.2872
   8   2.0000     -18.746490      -510.1179
   9   2.0000     -10.026208      -272.8270
  10   2.0000     -10.016817      -272.5714
  11   2.0000      -9.953140      -270.8387
  12   2.0000      -9.950187      -270.7583
  13   2.0000      -9.946786      -270.6658
  14   2.0000      -9.934003      -270.3180
  15   2.0000      -9.926727      -270.1200
  16   2.0000      -9.919540      -269.9244
  17   2.0000      -9.880662      -268.8665
  18   2.0000      -9.877142      -268.7707
  19   2.0000      -7.677131      -208.9053
  20   2.0000      -7.602986      -206.8878
  21   2.0000      -6.408192      -174.3758
  22   2.0000      -5.705249      -155.2477
  23   2.0000      -5.701096      -155.1347
  24   2.0000      -5.694447      -154.9538
  25   2.0000      -5.632359      -153.2643
  26   2.0000      -5.623795      -153.0312
  27   2.0000      -5.622398      -152.9932
  28   2.0000      -4.631498      -126.0295
  29   2.0000      -4.630308      -125.9971
  30   2.0000      -4.628269      -125.9416
  31   2.0000      -1.024939       -27.8900
  32   2.0000      -1.015791       -27.6411
  33   2.0000      -0.965252       -26.2659
  34   2.0000      -0.931070       -25.3357
  35   2.0000      -0.923911       -25.1409
  36   2.0000      -0.917574       -24.9685
  37   2.0000      -0.766327       -20.8528
  38   2.0000      -0.710877       -19.3440
  39   2.0000      -0.705135       -19.1877
  40   2.0000      -0.681735       -18.5510
  41   2.0000      -0.653980       -17.7957
  42   2.0000      -0.622035       -16.9264
  43   2.0000      -0.617795       -16.8111
  44   2.0000      -0.601092       -16.3565
  45   2.0000      -0.592795       -16.1308
  46   2.0000      -0.564561       -15.3625
  47   2.0000      -0.509165       -13.8551
  48   2.0000      -0.500693       -13.6246
  49   2.0000      -0.498431       -13.5630
  50   2.0000      -0.489384       -13.3168
  51   2.0000      -0.462164       -12.5761
  52   2.0000      -0.458630       -12.4800
  53   2.0000      -0.446144       -12.1402
  54   2.0000      -0.437153       -11.8955
  55   2.0000      -0.428658       -11.6644
  56   2.0000      -0.425911       -11.5896
  57   2.0000      -0.416187       -11.3250
  58   2.0000      -0.411724       -11.2036
  59   2.0000      -0.398893       -10.8544
  60   2.0000      -0.397913       -10.8278
  61   2.0000      -0.393236       -10.7005
  62   2.0000      -0.386985       -10.5304
  63   2.0000      -0.381658       -10.3854
  64   2.0000      -0.377590       -10.2747
  65   2.0000      -0.365784        -9.9535
  66   2.0000      -0.357221        -9.7205
  67   2.0000      -0.351198        -9.5566
  68   2.0000      -0.343083        -9.3358
  69   2.0000      -0.336078        -9.1451
  70   2.0000      -0.331390        -9.0176
  71   2.0000      -0.325843        -8.8666
  72   2.0000      -0.318437        -8.6651
  73   2.0000      -0.307040        -8.3550
  74   2.0000      -0.298359        -8.1187
  75   2.0000      -0.294080        -8.0023
  76   2.0000      -0.281122        -7.6497
  77   2.0000      -0.278797        -7.5865
  78   2.0000      -0.272203        -7.4070
  79   2.0000      -0.260574        -7.0906
  80   2.0000      -0.254050        -6.9131
  81   2.0000      -0.241418        -6.5693
  82   2.0000      -0.236370        -6.4320
  83   2.0000      -0.232716        -6.3325
  84   2.0000      -0.222129        -6.0444
  85   2.0000      -0.178460        -4.8561
  86   2.0000      -0.167633        -4.5615
  87   0.0000      -0.039231        -1.0675
  88   0.0000      -0.028396        -0.7727
  89   0.0000      -0.023772        -0.6469
  90   0.0000       0.003583         0.0975
  91   0.0000       0.034250         0.9320

MULLIKEN ATOMIC CHARGES
-----------------------
   0 C :   -0.321779
   1 C :   -0.016204
   2 O :   -0.220764
   3 C :    0.114153
   4 O :   -0.180463
   5 C :   -0.063612
   6 C :   -0.270432
   7 H :    0.144895
   8 C :    0.230206
   9 O :   -0.197233
  10 O :   -0.229938
  11 C :   -0.021581
  12 C :   -0.304289
  13 S :   -0.122144
  14 P :    0.640865
  15 S :   -0.311684
  16 O :   -0.369390
  17 C :   -0.094456
  18 O :   -0.412175
  19 C :   -0.100212
  20 H :    0.107337
  21 H :    0.108333
  22 H :    0.153879
  23 H :    0.101801
  24 H :    0.111563
  25 H :    0.119447
  26 H :    0.128065
  27 H :    0.102835
  28 H :    0.122627
  29 H :    0.105710
  30 H :    0.110476
  31 H :    0.154952
  32 H :    0.105626
  33 H :    0.121349
  34 H :    0.120038
  35 H :    0.114422
  36 H :    0.113677
  37 H :    0.104098
Sum of atomic charges:   -0.0000000

LOEWDIN ATOMIC CHARGES
----------------------
   0 C :   -0.363354
   1 C :   -0.108784
   2 O :   -0.047430
   3 C :    0.037057
   4 O :   -0.139435
   5 C :   -0.249923
   6 C :   -0.260634
   7 H :    0.147352
   8 C :    0.028054
   9 O :   -0.144278
  10 O :   -0.043267
  11 C :   -0.104402
  12 C :   -0.356720
  13 S :    0.080414
  14 P :    0.587386
  15 S :   -0.309696
  16 O :   -0.244417
  17 C :   -0.209319
  18 O :   -0.277222
  19 C :   -0.223335
  20 H :    0.122284
  21 H :    0.129742
  22 H :    0.126832
  23 H :    0.116620
  24 H :    0.121390
  25 H :    0.137522
  26 H :    0.149884
  27 H :    0.116978
  28 H :    0.125789
  29 H :    0.121936
  30 H :    0.129640
  31 H :    0.140698
  32 H :    0.103602
  33 H :    0.120349
  34 H :    0.114759
  35 H :    0.117005
  36 H :    0.104588
  37 H :    0.102333

  Mayer bond orders larger than 0.100000
B(  0-C ,  1-C ) :   1.1795 B(  0-C , 20-H ) :   0.9483 B(  0-C , 21-H ) :   0.9408
B(  0-C , 22-H ) :   0.9179 B(  1-C ,  2-O ) :   0.9023 B(  1-C , 23-H ) :   0.9368
B(  1-C , 24-H ) :   0.9102 B(  2-O ,  3-C ) :   1.2648 B(  3-C ,  4-O ) :   1.9561
B(  3-C ,  5-C ) :   0.9947 B(  4-O ,  8-C ) :   0.1207 B(  5-C ,  6-C ) :   1.0320
B(  5-C , 25-H ) :   0.9066 B(  5-C , 26-H ) :   0.8725 B(  6-C ,  7-H ) :   0.8765
B(  6-C ,  8-C ) :   0.9047 B(  6-C , 13-S ) :   1.0230 B(  8-C ,  9-O ) :   1.8886
B(  8-C , 10-O ) :   1.2601 B(  9-O , 14-P ) :   0.1762 B( 10-O , 11-C ) :   0.8994
B( 11-C , 12-C ) :   1.1824 B( 11-C , 27-H ) :   0.9373 B( 11-C , 28-H ) :   0.9107
B( 12-C , 29-H ) :   0.9501 B( 12-C , 30-H ) :   0.9416 B( 12-C , 31-H ) :   0.9320
B( 13-S , 14-P ) :   0.9299 B( 13-S , 15-S ) :   0.1095 B( 14-P , 15-S ) :   1.6118
B( 14-P , 16-O ) :   1.0991 B( 14-P , 18-O ) :   0.9904 B( 16-O , 17-C ) :   0.9318
B( 17-C , 32-H ) :   0.9386 B( 17-C , 33-H ) :   0.9585 B( 17-C , 34-H ) :   0.9493
B( 18-O , 19-C ) :   0.9499 B( 19-C , 35-H ) :   0.9588 B( 19-C , 36-H ) :   0.9261
B( 19-C , 37-H ) :   0.9486

Dispersion correction           -0.053773969
FINAL SINGLE POINT ENERGY     -1979.006007883506

DIPOLE MOMENT
-------------

Method             : SCF
Type of density    : Electron Density
Multiplicity       :   1
Irrep              :   0
Energy             : -1979.1361014709600568 Eh
Relativity type    :
Basis              : AO
                                X                 Y                 Z
Electronic contribution:     -9.465952735       2.805683230      -1.570808458
Nuclear contribution   :     10.169021462      -2.403664681       0.115518415
                        -----------------------------------------
Total Dipole Moment    :      0.703068727       0.402018549      -1.455290042
                        -----------------------------------------
Magnitude (a.u.)       :      1.665471001
Magnitude (Debye)      :      4.233290860

Rotational constants in cm-1:             0.011600             0.009280             0.006839
Rotational constants in MHz :           347.744898           278.216749           205.040376

                             ****ORCA TERMINATED NORMALLY****
TOTAL RUN TIME: 0 days 0 hours 0 minutes 33 seconds 890 msec
