                         Program Version 6.0.0  -   RELEASE  -
|  1> ! r2scan-3c def2/J RI DEFGRID2 scfconv6 printgap
|  2> %output
|  3>     printlevel normal
|  4> end
|  5> * xyz 0 1
|  6> C 3.9586231251 0.4418417971 -2.6649847369
|  7> C 4.4558826921 -0.1765469795 -1.3733195936
|  8> O 3.3748275497 -0.6348677451 -0.5414855312
|  9> P 2.4084666602 0.3882764204 0.1900121419
| 10> S 3.1940461716 2.0657538063 0.8218160448
| 11> O 1.9122622934 -0.6174002709 1.3085429407
| 12> C 1.23325802 -0.1603227913 2.4943913047
| 13> C 1.1307410519 -1.3406634947 3.4380312087
| 14> S 0.7510695283 0.6195294848 -1.1284152745
| 15> C 0.2838028558 -1.1278546181 -1.2734246717
| 16> S -0.7659403368 -1.7225094726 0.088609648
| 17> P -2.2768820915 -0.2724234468 -0.0926803388
| 18> S -2.7666408507 0.3450669453 -1.8924895887
| 19> O -1.7136220909 0.8108936993 0.9263232572
| 20> C -2.2948923682 2.129851578 1.0375585678
| 21> C -1.4530114371 3.1462982295 0.291668168
| 22> O -3.5027250169 -0.8441653191 0.745317504
| 23> C -4.5363947436 -1.6472778736 0.1485588063
| 24> C -4.0254524382 -3.0129661774 -0.2624879597
| 25> H 4.8084296048 0.6988759535 -3.2892387201
| 26> H 3.31726999 -0.2533001431 -3.2007935302
| 27> H 3.3929750377 1.3480896296 -2.4493710589
| 28> H 5.0488120518 0.5475048169 -0.8057311462
| 29> H 5.0455132743 -1.0760060162 -1.5562018767
| 30> H 1.8094065016 0.6628633479 2.9298021645
| 31> H 0.2414475488 0.2099729041 2.2174699561
| 32> H 2.1230359487 -1.7105323453 3.6788815252
| 33> H 0.6307513811 -1.0271111264 4.3484191152
| 34> H 0.5608326349 -2.1371809015 2.9670100904
| 35> H 1.1747951323 -1.7517018457 -1.2718196218
| 36> H -0.2653550496 -1.210832581 -2.2098009644
| 37> H -3.3160926605 2.1066493542 0.6472016722
| 38> H -2.3168583131 2.3371828626 2.1087902752
| 39> H -1.8684810511 4.1370754813 0.4441919768
| 40> H -0.4272812953 3.1289115671 0.6535581238
| 41> H -1.4461061004 2.9221656347 -0.7732245511
| 42> H -5.2966900913 -1.7168995335 0.9275272851
| 43> H -4.935913352 -1.1088132821 -0.716901537
| 44> H -3.5300689367 -3.4985587236 0.5744397118
| 45> H -4.8591827384 -3.623904877 -0.5932963354
| 46> H -3.3145214462 -2.9124254058 -1.0815190118
| 47> *
| 48>
| 49>                          ****END OF INPUT****

CARTESIAN COORDINATES (ANGSTROEM)
---------------------------------
  C      3.958623    0.441842   -2.664985
  C      4.455883   -0.176547   -1.373320
  O      3.374828   -0.634868   -0.541486
  P      2.408467    0.388276    0.190012
  S      3.194046    2.065754    0.821816
  O      1.912262   -0.617400    1.308543
  C      1.233258   -0.160323    2.494391
  C      1.130741   -1.340663    3.438031
  S      0.751070    0.619529   -1.128415
  C      0.283803   -1.127855   -1.273425
  S     -0.765940   -1.722509    0.088610
  P     -2.276882   -0.272423   -0.092680
  S     -2.766641    0.345067   -1.892490
  O     -1.713622    0.810894    0.926323
  C     -2.294892    2.129852    1.037559
  C     -1.453011    3.146298    0.291668
  O     -3.502725   -0.844165    0.745318
  C     -4.536395   -1.647278    0.148559
  C     -4.025452   -3.012966   -0.262488
  H      4.808430    0.698876   -3.289239
  H      3.317270   -0.253300   -3.200794
  H      3.392975    1.348090   -2.449371
  H      5.048812    0.547505   -0.805731
  H      5.045513   -1.076006   -1.556202
  H      1.809407    0.662863    2.929802
  H      0.241448    0.209973    2.217470
  H      2.123036   -1.710532    3.678882
  H      0.630751   -1.027111    4.348419
  H      0.560833   -2.137181    2.967010
  H      1.174795   -1.751702   -1.271820
  H     -0.265355   -1.210833   -2.209801
  H     -3.316093    2.106649    0.647202
  H     -2.316858    2.337183    2.108790
  H     -1.868481    4.137075    0.444192
  H     -0.427281    3.128912    0.653558
  H     -1.446106    2.922166   -0.773225
  H     -5.296690   -1.716900    0.927527
  H     -4.935913   -1.108813   -0.716902
  H     -3.530069   -3.498559    0.574440
  H     -4.859183   -3.623905   -0.593296
  H     -3.314521   -2.912425   -1.081519

 Total Charge           Charge          ....    0
 Multiplicity           Mult            ....    1
 Number of Electrons    NEL             ....  202
 Basis Dimension        Dim             ....  539

ORBITAL ENERGIES
----------------

  NO   OCC          E(Eh)            E(eV)
   0   2.0000     -88.579985     -2410.3839
   1   2.0000     -88.573697     -2410.2128
   2   2.0000     -88.525812     -2408.9098
   3   2.0000     -88.521656     -2408.7967
   4   2.0000     -76.918354     -2093.0548
   5   2.0000     -76.912168     -2092.8865
   6   2.0000     -18.996239      -516.9140
   7   2.0000     -18.991332      -516.7804
   8   2.0000     -18.989832      -516.7396
   9   2.0000     -18.987537      -516.6772
  10   2.0000     -10.111944      -275.1600
  11   2.0000     -10.101009      -274.8624
  12   2.0000     -10.099068      -274.8096
  13   2.0000     -10.098520      -274.7947
  14   2.0000     -10.089686      -274.5543
  15   2.0000     -10.032046      -272.9858
  16   2.0000     -10.028581      -272.8916
  17   2.0000     -10.026281      -272.8290
  18   2.0000     -10.020855      -272.6813
  19   2.0000      -7.874566      -214.2778
  20   2.0000      -7.867664      -214.0900
  21   2.0000      -7.820450      -212.8053
  22   2.0000      -7.816238      -212.6906
  23   2.0000      -6.596743      -179.5065
  24   2.0000      -6.590752      -179.3435
  25   2.0000      -5.821471      -158.4103
  26   2.0000      -5.818449      -158.3280
  27   2.0000      -5.814913      -158.2318
  28   2.0000      -5.811578      -158.1411
  29   2.0000      -5.811228      -158.1315
  30   2.0000      -5.804750      -157.9553
  31   2.0000      -5.768078      -156.9574
  32   2.0000      -5.763835      -156.8419
  33   2.0000      -5.760852      -156.7608
  34   2.0000      -5.760387      -156.7481
  35   2.0000      -5.756492      -156.6421
  36   2.0000      -5.756357      -156.6384
  37   2.0000      -4.742255      -129.0433
  38   2.0000      -4.741616      -129.0259
  39   2.0000      -4.740543      -128.9967
  40   2.0000      -4.736084      -128.8754
  41   2.0000      -4.735988      -128.8728
  42   2.0000      -4.734332      -128.8277
  43   2.0000      -1.051880       -28.6231
  44   2.0000      -1.051028       -28.5999
  45   2.0000      -1.011408       -27.5218
  46   2.0000      -1.009074       -27.4583
  47   2.0000      -0.803791       -21.8723
  48   2.0000      -0.759168       -20.6580
  49   2.0000      -0.749700       -20.4004
  50   2.0000      -0.730823       -19.8867
  51   2.0000      -0.727167       -19.7872
  52   2.0000      -0.711344       -19.3567
  53   2.0000      -0.690174       -18.7806
  54   2.0000      -0.671100       -18.2615
  55   2.0000      -0.631770       -17.1913
  56   2.0000      -0.625865       -17.0306
  57   2.0000      -0.608495       -16.5580
  58   2.0000      -0.593546       -16.1512
  59   2.0000      -0.591832       -16.1046
  60   2.0000      -0.529810       -14.4169
  61   2.0000      -0.525020       -14.2865
  62   2.0000      -0.491631       -13.3780
  63   2.0000      -0.489662       -13.3244
  64   2.0000      -0.482292       -13.1238
  65   2.0000      -0.460791       -12.5388
  66   2.0000      -0.457788       -12.4570
  67   2.0000      -0.456729       -12.4282
  68   2.0000      -0.444115       -12.0850
  69   2.0000      -0.438375       -11.9288
  70   2.0000      -0.427461       -11.6318
  71   2.0000      -0.415558       -11.3079
  72   2.0000      -0.412585       -11.2270
  73   2.0000      -0.397917       -10.8279
  74   2.0000      -0.395427       -10.7601
  75   2.0000      -0.390290       -10.6203
  76   2.0000      -0.384327       -10.4581
  77   2.0000      -0.374282       -10.1847
  78   2.0000      -0.368838       -10.0366
  79   2.0000      -0.366440        -9.9713
  80   2.0000      -0.363403        -9.8887
  81   2.0000      -0.358801        -9.7635
  82   2.0000      -0.355545        -9.6749
  83   2.0000      -0.353041        -9.6067
  84   2.0000      -0.346796        -9.4368
  85   2.0000      -0.331406        -9.0180
  86   2.0000      -0.322422        -8.7736
  87   2.0000      -0.317130        -8.6295
  88   2.0000      -0.313254        -8.5241
  89   2.0000      -0.305504        -8.3132
  90   2.0000      -0.303859        -8.2684
  91   2.0000      -0.292583        -7.9616
  92   2.0000      -0.283007        -7.7010
  93   2.0000      -0.281549        -7.6613
  94   2.0000      -0.270122        -7.3504
  95   2.0000      -0.245539        -6.6814
  96   2.0000      -0.232050        -6.3144
  97   2.0000      -0.224195        -6.1007
  98   2.0000      -0.220635        -6.0038
  99   2.0000      -0.219860        -5.9827
 100   2.0000      -0.216385        -5.8881
 101   0.0000      -0.049530        -1.3478
 102   0.0000      -0.022338        -0.6078
 103   0.0000      -0.012314        -0.3351
 104   0.0000       0.000736         0.0200
 105   0.0000       0.004024         0.1095

MULLIKEN ATOMIC CHARGES
-----------------------
   0 C :   -0.430745
   1 C :   -0.157653
   2 O :   -0.312647
   3 P :    0.691488
   4 S :   -0.464006
   5 O :   -0.292682
   6 C :   -0.126746
   7 C :   -0.462009
   8 S :   -0.126604
   9 C :   -0.241074
  10 S :   -0.101986
  11 P :    0.657460
  12 S :   -0.462968
  13 O :   -0.273668
  14 C :   -0.125463
  15 C :   -0.463647
  16 O :   -0.299443
  17 C :   -0.151078
  18 C :   -0.452735
  19 H :    0.147591
  20 H :    0.149279
  21 H :    0.174551
  22 H :    0.173205
  23 H :    0.148888
  24 H :    0.165242
  25 H :    0.175042
  26 H :    0.153470
  27 H :    0.145603
  28 H :    0.159313
  29 H :    0.197357
  30 H :    0.214483
  31 H :    0.151593
  32 H :    0.149252
  33 H :    0.143067
  34 H :    0.168555
  35 H :    0.178055
  36 H :    0.148511
  37 H :    0.173811
  38 H :    0.155763
  39 H :    0.148908
  40 H :    0.174669
Sum of atomic charges:   -0.0000000

LOEWDIN ATOMIC CHARGES
----------------------
   0 C :   -0.404074
   1 C :    0.021938
   2 O :   -0.667335
   3 P :    0.370844
   4 S :   -0.113803
   5 O :   -0.673241
   6 C :    0.013284
   7 C :   -0.387344
   8 S :    0.172782
   9 C :   -0.409729
  10 S :    0.187992
  11 P :    0.371776
  12 S :   -0.120918
  13 O :   -0.695809
  14 C :    0.025414
  15 C :   -0.402895
  16 O :   -0.661112
  17 C :    0.018981
  18 C :   -0.406271
  19 H :    0.159322
  20 H :    0.157787
  21 H :    0.166341
  22 H :    0.180485
  23 H :    0.179547
  24 H :    0.178620
  25 H :    0.189548
  26 H :    0.159813
  27 H :    0.159210
  28 H :    0.160694
  29 H :    0.191548
  30 H :    0.189833
  31 H :    0.175679
  32 H :    0.177888
  33 H :    0.157101
  34 H :    0.164598
  35 H :    0.167344
  36 H :    0.179625
  37 H :    0.180098
  38 H :    0.160141
  39 H :    0.159715
  40 H :    0.164582

  Mayer bond orders larger than 0.100000
B(  0-C ,  1-C ) :   0.9276 B(  0-C , 19-H ) :   0.9603 B(  0-C , 20-H ) :   0.9685
B(  0-C , 21-H ) :   0.9618 B(  1-C ,  2-O ) :   0.8109 B(  1-C , 22-H ) :   0.9663
B(  1-C , 23-H ) :   0.9597 B(  2-O ,  3-P ) :   1.0962 B(  3-P ,  4-S ) :   1.7981
B(  3-P ,  5-O ) :   1.1274 B(  3-P ,  8-S ) :   1.0503 B(  5-O ,  6-C ) :   0.7498
B(  6-C ,  7-C ) :   0.9368 B(  6-C , 24-H ) :   0.9403 B(  6-C , 25-H ) :   0.9341
B(  7-C , 26-H ) :   0.9743 B(  7-C , 27-H ) :   0.9677 B(  7-C , 28-H ) :   0.9743
B(  8-S ,  9-C ) :   0.8959 B(  9-C , 10-S ) :   0.9000 B(  9-C , 29-H ) :   0.9178
B(  9-C , 30-H ) :   0.9166 B( 10-S , 11-P ) :   1.1063 B( 11-P , 12-S ) :   1.7544
B( 11-P , 13-O ) :   1.1426 B( 11-P , 16-O ) :   1.0634 B( 13-O , 14-C ) :   0.7611
B( 14-C , 15-C ) :   0.9472 B( 14-C , 31-H ) :   0.9639 B( 14-C , 32-H ) :   0.9614
B( 15-C , 33-H ) :   0.9627 B( 15-C , 34-H ) :   0.9653 B( 15-C , 35-H ) :   0.9620
B( 16-O , 17-C ) :   0.8176 B( 17-C , 18-C ) :   0.9206 B( 17-C , 36-H ) :   0.9579
B( 17-C , 37-H ) :   0.9671 B( 18-C , 38-H ) :   0.9685 B( 18-C , 39-H ) :   0.9590
B( 18-C , 40-H ) :   0.9633

Dispersion correction           -0.021879929
FINAL SINGLE POINT ENERGY     -2932.464818894134

DIPOLE MOMENT
-------------

Method             : SCF
Type of density    : Electron Density
Multiplicity       :   1
Irrep              :   0
Energy             : -2932.4894034298445149 Eh
Relativity type    :
Basis              : AO
                                X                 Y                 Z
Electronic contribution:      2.785190682       2.859721919      -3.102407034
Nuclear contribution   :     -3.340092135      -3.845528196       3.340184594
                        -----------------------------------------
Total Dipole Moment    :     -0.554901452      -0.985806277       0.237777560
                        -----------------------------------------
Magnitude (a.u.)       :      1.155970503
Magnitude (Debye)      :      2.938243513

Rotational constants in cm-1:             0.012377             0.004961             0.004913
Rotational constants in MHz :           371.041095           148.720965           147.296465

                             ****ORCA TERMINATED NORMALLY****
TOTAL RUN TIME: 0 days 0 hours 1 minutes 25 seconds 33 msec
