                         Program Version 6.0.0  -   RELEASE  -
|  1> ! r2scan-3c def2/J RI DEFGRID2 scfconv6 printgap
|  2> %output
|  3>     printlevel normal
|  4> end
|  5> %cpcm
|  6>     smd true
|  7>     smdsolvent "water"
|  8> end
|  9> * xyz 0 1
| 10> C 3.9586231251 0.4418417971 -2.6649847369
| 11> C 4.4558826921 -0.1765469795 -1.3733195936
| 12> O 3.3748275497 -0.6348677451 -0.5414855312
| 13> P 2.4084666602 0.3882764204 0.1900121419
| 14> S 3.1940461716 2.0657538063 0.8218160448
| 15> O 1.9122622934 -0.6174002709 1.3085429407
| 16> C 1.23325802 -0.1603227913 2.4943913047
| 17> C 1.1307410519 -1.3406634947 3.4380312087
| 18> S 0.7510695283 0.6195294848 -1.1284152745
| 19> C 0.2838028558 -1.1278546181 -1.2734246717
| 20> S -0.7659403368 -1.7225094726 0.088609648
| 21> P -2.2768820915 -0.2724234468 -0.0926803388
| 22> S -2.7666408507 0.3450669453 -1.8924895887
| 23> O -1.7136220909 0.8108936993 0.9263232572
| 24> C -2.2948923682 2.129851578 1.0375585678
| 25> C -1.4530114371 3.1462982295 0.291668168
| 26> O -3.5027250169 -0.8441653191 0.745317504
| 27> C -4.5363947436 -1.6472778736 0.1485588063
| 28> C -4.0254524382 -3.0129661774 -0.2624879597
| 29> H 4.8084296048 0.6988759535 -3.2892387201
| 30> H 3.31726999 -0.2533001431 -3.2007935302
| 31> H 3.3929750377 1.3480896296 -2.4493710589
| 32> H 5.0488120518 0.5475048169 -0.8057311462
| 33> H 5.0455132743 -1.0760060162 -1.5562018767
| 34> H 1.8094065016 0.6628633479 2.9298021645
| 35> H 0.2414475488 0.2099729041 2.2174699561
| 36> H 2.1230359487 -1.7105323453 3.6788815252
| 37> H 0.6307513811 -1.0271111264 4.3484191152
| 38> H 0.5608326349 -2.1371809015 2.9670100904
| 39> H 1.1747951323 -1.7517018457 -1.2718196218
| 40> H -0.2653550496 -1.210832581 -2.2098009644
| 41> H -3.3160926605 2.1066493542 0.6472016722
| 42> H -2.3168583131 2.3371828626 2.1087902752
| 43> H -1.8684810511 4.1370754813 0.4441919768
| 44> H -0.4272812953 3.1289115671 0.6535581238
| 45> H -1.4461061004 2.9221656347 -0.7732245511
| 46> H -5.2966900913 -1.7168995335 0.9275272851
| 47> H -4.935913352 -1.1088132821 -0.716901537
| 48> H -3.5300689367 -3.4985587236 0.5744397118
| 49> H -4.8591827384 -3.623904877 -0.5932963354
| 50> H -3.3145214462 -2.9124254058 -1.0815190118
| 51> *
| 52>
| 53>                          ****END OF INPUT****

CARTESIAN COORDINATES (ANGSTROEM)
---------------------------------
  C      3.958623    0.441842   -2.664985
  C      4.455883   -0.176547   -1.373320
  O      3.374828   -0.634868   -0.541486
  P      2.408467    0.388276    0.190012
  S      3.194046    2.065754    0.821816
  O      1.912262   -0.617400    1.308543
  C      1.233258   -0.160323    2.494391
  C      1.130741   -1.340663    3.438031
  S      0.751070    0.619529   -1.128415
  C      0.283803   -1.127855   -1.273425
  S     -0.765940   -1.722509    0.088610
  P     -2.276882   -0.272423   -0.092680
  S     -2.766641    0.345067   -1.892490
  O     -1.713622    0.810894    0.926323
  C     -2.294892    2.129852    1.037559
  C     -1.453011    3.146298    0.291668
  O     -3.502725   -0.844165    0.745318
  C     -4.536395   -1.647278    0.148559
  C     -4.025452   -3.012966   -0.262488
  H      4.808430    0.698876   -3.289239
  H      3.317270   -0.253300   -3.200794
  H      3.392975    1.348090   -2.449371
  H      5.048812    0.547505   -0.805731
  H      5.045513   -1.076006   -1.556202
  H      1.809407    0.662863    2.929802
  H      0.241448    0.209973    2.217470
  H      2.123036   -1.710532    3.678882
  H      0.630751   -1.027111    4.348419
  H      0.560833   -2.137181    2.967010
  H      1.174795   -1.751702   -1.271820
  H     -0.265355   -1.210833   -2.209801
  H     -3.316093    2.106649    0.647202
  H     -2.316858    2.337183    2.108790
  H     -1.868481    4.137075    0.444192
  H     -0.427281    3.128912    0.653558
  H     -1.446106    2.922166   -0.773225
  H     -5.296690   -1.716900    0.927527
  H     -4.935913   -1.108813   -0.716902
  H     -3.530069   -3.498559    0.574440
  H     -4.859183   -3.623905   -0.593296
  H     -3.314521   -2.912425   -1.081519

 Total Charge           Charge          ....    0
 Multiplicity           Mult            ....    1
 Number of Electrons    NEL             ....  202
 Basis Dimension        Dim             ....  539

ORBITAL ENERGIES
----------------

  NO   OCC          E(Eh)            E(eV)
   0   2.0000     -88.578984     -2410.3567
   1   2.0000     -88.575940     -2410.2739
   2   2.0000     -88.531052     -2409.0524
   3   2.0000     -88.528842     -2408.9923
   4   2.0000     -76.919110     -2093.0754
   5   2.0000     -76.918249     -2093.0520
   6   2.0000     -18.994968      -516.8794
   7   2.0000     -18.993773      -516.8468
   8   2.0000     -18.993029      -516.8266
   9   2.0000     -18.989033      -516.7179
  10   2.0000     -10.106601      -275.0146
  11   2.0000     -10.090180      -274.5677
  12   2.0000     -10.089269      -274.5430
  13   2.0000     -10.088805      -274.5303
  14   2.0000     -10.086931      -274.4793
  15   2.0000     -10.018470      -272.6164
  16   2.0000     -10.018421      -272.6151
  17   2.0000     -10.018340      -272.6129
  18   2.0000     -10.015560      -272.5373
  19   2.0000      -7.873511      -214.2491
  20   2.0000      -7.869966      -214.1527
  21   2.0000      -7.825992      -212.9561
  22   2.0000      -7.823783      -212.8959
  23   2.0000      -6.597558      -179.5287
  24   2.0000      -6.596916      -179.5112
  25   2.0000      -5.820432      -158.3820
  26   2.0000      -5.817394      -158.2993
  27   2.0000      -5.817194      -158.2939
  28   2.0000      -5.813513      -158.1937
  29   2.0000      -5.810525      -158.1124
  30   2.0000      -5.807093      -158.0190
  31   2.0000      -5.773487      -157.1046
  32   2.0000      -5.771344      -157.0463
  33   2.0000      -5.766220      -156.9068
  34   2.0000      -5.766171      -156.9055
  35   2.0000      -5.764173      -156.8511
  36   2.0000      -5.763743      -156.8394
  37   2.0000      -4.743035      -129.0645
  38   2.0000      -4.742421      -129.0478
  39   2.0000      -4.742215      -129.0422
  40   2.0000      -4.742161      -129.0408
  41   2.0000      -4.741427      -129.0208
  42   2.0000      -4.740544      -128.9968
  43   2.0000      -1.054787       -28.7022
  44   2.0000      -1.050485       -28.5851
  45   2.0000      -1.012235       -27.5443
  46   2.0000      -1.009531       -27.4707
  47   2.0000      -0.801885       -21.8204
  48   2.0000      -0.756387       -20.5823
  49   2.0000      -0.743700       -20.2371
  50   2.0000      -0.721691       -19.6382
  51   2.0000      -0.720247       -19.5989
  52   2.0000      -0.710198       -19.3255
  53   2.0000      -0.692890       -18.8545
  54   2.0000      -0.675077       -18.3698
  55   2.0000      -0.629067       -17.1178
  56   2.0000      -0.621711       -16.9176
  57   2.0000      -0.601379       -16.3643
  58   2.0000      -0.589179       -16.0324
  59   2.0000      -0.587465       -15.9857
  60   2.0000      -0.527006       -14.3405
  61   2.0000      -0.520342       -14.1592
  62   2.0000      -0.488278       -13.2867
  63   2.0000      -0.485748       -13.2179
  64   2.0000      -0.480551       -13.0764
  65   2.0000      -0.456608       -12.4249
  66   2.0000      -0.454371       -12.3641
  67   2.0000      -0.452019       -12.3001
  68   2.0000      -0.440564       -11.9884
  69   2.0000      -0.432250       -11.7621
  70   2.0000      -0.422267       -11.4905
  71   2.0000      -0.411624       -11.2009
  72   2.0000      -0.409851       -11.1526
  73   2.0000      -0.395667       -10.7666
  74   2.0000      -0.391714       -10.6591
  75   2.0000      -0.386073       -10.5056
  76   2.0000      -0.381691       -10.3863
  77   2.0000      -0.370404       -10.0792
  78   2.0000      -0.362824        -9.8729
  79   2.0000      -0.358955        -9.7677
  80   2.0000      -0.354909        -9.6576
  81   2.0000      -0.351870        -9.5749
  82   2.0000      -0.349990        -9.5237
  83   2.0000      -0.346466        -9.4278
  84   2.0000      -0.343029        -9.3343
  85   2.0000      -0.329691        -8.9714
  86   2.0000      -0.318399        -8.6641
  87   2.0000      -0.315289        -8.5795
  88   2.0000      -0.305471        -8.3123
  89   2.0000      -0.303536        -8.2596
  90   2.0000      -0.300668        -8.1816
  91   2.0000      -0.289650        -7.8818
  92   2.0000      -0.281669        -7.6646
  93   2.0000      -0.279754        -7.6125
  94   2.0000      -0.272100        -7.4042
  95   2.0000      -0.246233        -6.7003
  96   2.0000      -0.237299        -6.4572
  97   2.0000      -0.231871        -6.3095
  98   2.0000      -0.228490        -6.2175
  99   2.0000      -0.223550        -6.0831
 100   2.0000      -0.220730        -6.0064
 101   0.0000      -0.050000        -1.3606
 102   0.0000      -0.027589        -0.7507
 103   0.0000      -0.013959        -0.3798
 104   0.0000      -0.003050        -0.0830
 105   0.0000       0.004754         0.1294

MULLIKEN ATOMIC CHARGES
-----------------------
   0 C :   -0.470856
   1 C :   -0.150831
   2 O :   -0.333502
   3 P :    0.716612
   4 S :   -0.517119
   5 O :   -0.314139
   6 C :   -0.121241
   7 C :   -0.499963
   8 S :   -0.147269
   9 C :   -0.250219
  10 S :   -0.104079
  11 P :    0.695038
  12 S :   -0.514728
  13 O :   -0.293499
  14 C :   -0.129571
  15 C :   -0.494112
  16 O :   -0.325942
  17 C :   -0.150954
  18 C :   -0.489325
  19 H :    0.171334
  20 H :    0.168651
  21 H :    0.167460
  22 H :    0.176531
  23 H :    0.175477
  24 H :    0.171168
  25 H :    0.179978
  26 H :    0.164879
  27 H :    0.170619
  28 H :    0.166859
  29 H :    0.230538
  30 H :    0.238129
  31 H :    0.168805
  32 H :    0.175244
  33 H :    0.167534
  34 H :    0.163943
  35 H :    0.171554
  36 H :    0.174405
  37 H :    0.177964
  38 H :    0.169581
  39 H :    0.172642
  40 H :    0.172404
Sum of atomic charges:    0.0000000

LOEWDIN ATOMIC CHARGES
----------------------
   0 C :   -0.407451
   1 C :    0.027269
   2 O :   -0.676101
   3 P :    0.375396
   4 S :   -0.152398
   5 O :   -0.686241
   6 C :    0.016521
   7 C :   -0.391065
   8 S :    0.163780
   9 C :   -0.399313
  10 S :    0.189921
  11 P :    0.377660
  12 S :   -0.152732
  13 O :   -0.704204
  14 C :    0.029731
  15 C :   -0.407652
  16 O :   -0.673116
  17 C :    0.023919
  18 C :   -0.409561
  19 H :    0.167827
  20 H :    0.163273
  21 H :    0.161157
  22 H :    0.181204
  23 H :    0.191053
  24 H :    0.181051
  25 H :    0.190914
  26 H :    0.162850
  27 H :    0.168710
  28 H :    0.162103
  29 H :    0.203527
  30 H :    0.198204
  31 H :    0.181017
  32 H :    0.188649
  33 H :    0.165255
  34 H :    0.161257
  35 H :    0.162498
  36 H :    0.190460
  37 H :    0.181342
  38 H :    0.163596
  39 H :    0.168311
  40 H :    0.161378

  Mayer bond orders larger than 0.100000
B(  0-C ,  1-C ) :   0.9170 B(  0-C , 19-H ) :   0.9552 B(  0-C , 20-H ) :   0.9655
B(  0-C , 21-H ) :   0.9638 B(  1-C ,  2-O ) :   0.7992 B(  1-C , 22-H ) :   0.9640
B(  1-C , 23-H ) :   0.9493 B(  2-O ,  3-P ) :   1.1043 B(  3-P ,  4-S ) :   1.7642
B(  3-P ,  5-O ) :   1.1296 B(  3-P ,  8-S ) :   1.0649 B(  5-O ,  6-C ) :   0.7441
B(  6-C ,  7-C ) :   0.9332 B(  6-C , 24-H ) :   0.9379 B(  6-C , 25-H ) :   0.9289
B(  7-C , 26-H ) :   0.9718 B(  7-C , 27-H ) :   0.9614 B(  7-C , 28-H ) :   0.9713
B(  8-S ,  9-C ) :   0.8919 B(  9-C , 10-S ) :   0.8951 B(  9-C , 29-H ) :   0.9071
B(  9-C , 30-H ) :   0.9078 B( 10-S , 11-P ) :   1.1204 B( 11-P , 12-S ) :   1.7065
B( 11-P , 13-O ) :   1.1492 B( 11-P , 16-O ) :   1.0701 B( 13-O , 14-C ) :   0.7509
B( 14-C , 15-C ) :   0.9359 B( 14-C , 31-H ) :   0.9613 B( 14-C , 32-H ) :   0.9518
B( 15-C , 33-H ) :   0.9589 B( 15-C , 34-H ) :   0.9670 B( 15-C , 35-H ) :   0.9652
B( 16-O , 17-C ) :   0.8064 B( 17-C , 18-C ) :   0.9088 B( 17-C , 36-H ) :   0.9487
B( 17-C , 37-H ) :   0.9654 B( 18-C , 38-H ) :   0.9658 B( 18-C , 39-H ) :   0.9538
B( 18-C , 40-H ) :   0.9637

Dispersion correction           -0.021879929
FINAL SINGLE POINT ENERGY     -2932.472108059400

DIPOLE MOMENT
-------------

Method             : SCF
Type of density    : Electron Density
Multiplicity       :   1
Irrep              :   0
Energy             : -2932.4966925951107442 Eh
Relativity type    :
Basis              : AO
                                X                 Y                 Z
Electronic contribution:      2.584824429       2.422525138      -3.063252173
Nuclear contribution   :     -3.340092135      -3.845528196       3.340184594
                        -----------------------------------------
Total Dipole Moment    :     -0.755267706      -1.423003058       0.276932421
                        -----------------------------------------
Magnitude (a.u.)       :      1.634643256
Magnitude (Debye)      :      4.154932960

Rotational constants in cm-1:             0.012377             0.004961             0.004913
Rotational constants in MHz :           371.041095           148.720965           147.296465

                             ****ORCA TERMINATED NORMALLY****
TOTAL RUN TIME: 0 days 0 hours 1 minutes 50 seconds 507 msec
