                         Program Version 6.0.0  -   RELEASE  -
|  1> ! pbe def2-sv(p) def2/J RI DEFGRID1 loosescf d4 GCP(DFT/SV(P)) printgap
|  2> %output
|  3>     printlevel normal
|  4> end
|  5> * xyz 0 1
|  6> C 3.8627315083 1.4851558952 -1.9809013254
|  7> C 2.5809024376 0.7282629875 -2.2546775199
|  8> O 2.3905092148 -0.362919794 -1.334416964
|  9> P 2.1224479264 -0.1538642925 0.2120837496
| 10> S 1.008696093 1.3906107679 0.7096615681
| 11> O 3.5922843887 -0.082948051 0.8095869202
| 12> C 3.863943547 0.3951138895 2.1387308166
| 13> C 3.3029965805 -0.5278892186 3.2009004444
| 14> S 1.5446565643 -2.1167594468 0.7099146336
| 15> C -0.1381633699 -2.1880400856 0.0377348576
| 16> S -1.3349326979 -1.1969198328 0.988727857
| 17> P -1.9293126666 0.1502846386 -0.5148103103
| 18> S -0.8982550407 0.2418834244 -2.174979532
| 19> O -2.1520593191 1.5936205738 0.0991080433
| 20> C -3.0036961407 1.8648464465 1.2403500802
| 21> C -2.2235487259 1.8165552828 2.5384028909
| 22> O -3.3991456682 -0.4571586804 -0.7268937997
| 23> C -4.2433130331 0.0383396321 -1.7865804536
| 24> C -5.5242388632 -0.7697470592 -1.7714718966
| 25> H 4.7032481973 0.7969092188 -1.9486853916
| 26> H 4.0202830278 2.2165888409 -2.7673658372
| 27> H 3.7918207964 2.0021911709 -1.0248089874
| 28> H 2.5909544868 0.2426459545 -3.2315401565
| 29> H 1.7116174364 1.3913176561 -2.1932050052
| 30> H 4.9526438339 0.4465101538 2.1800027715
| 31> H 3.4369123496 1.3983349829 2.2380416395
| 32> H 3.6451820535 -1.5463549944 3.0354972088
| 33> H 3.6277537702 -0.1898245887 4.1796567023
| 34> H 2.2140918674 -0.5148374149 3.1653509146
| 35> H -0.4364562998 -3.2304684821 0.1090152572
| 36> H -0.1359983792 -1.8405264404 -0.9984100899
| 37> H -3.3804490152 2.8706655099 1.04532889
| 38> H -3.8293812157 1.1480077386 1.2476924159
| 39> H -1.3207363175 2.4158258818 2.4468387833
| 40> H -2.841215584 2.2122112583 3.3382991682
| 41> H -1.9368513915 0.795663015 2.7796772733
| 42> H -4.4346851102 1.1031077825 -1.6184731366
| 43> H -3.7057625025 -0.073265423 -2.7340261453
| 44> H -6.0273302902 -0.6547395953 -0.8157895964
| 45> H -6.174709084 -0.4200049179 -2.5663960192
| 46> H -5.2991818867 -1.8209375583 -1.9253228958
| 47> *
| 48>
| 49>                          ****END OF INPUT****

CARTESIAN COORDINATES (ANGSTROEM)
---------------------------------
  C      3.862732    1.485156   -1.980901
  C      2.580902    0.728263   -2.254678
  O      2.390509   -0.362920   -1.334417
  P      2.122448   -0.153864    0.212084
  S      1.008696    1.390611    0.709662
  O      3.592284   -0.082948    0.809587
  C      3.863944    0.395114    2.138731
  C      3.302997   -0.527889    3.200900
  S      1.544657   -2.116759    0.709915
  C     -0.138163   -2.188040    0.037735
  S     -1.334933   -1.196920    0.988728
  P     -1.929313    0.150285   -0.514810
  S     -0.898255    0.241883   -2.174980
  O     -2.152059    1.593621    0.099108
  C     -3.003696    1.864846    1.240350
  C     -2.223549    1.816555    2.538403
  O     -3.399146   -0.457159   -0.726894
  C     -4.243313    0.038340   -1.786580
  C     -5.524239   -0.769747   -1.771472
  H      4.703248    0.796909   -1.948685
  H      4.020283    2.216589   -2.767366
  H      3.791821    2.002191   -1.024809
  H      2.590954    0.242646   -3.231540
  H      1.711617    1.391318   -2.193205
  H      4.952644    0.446510    2.180003
  H      3.436912    1.398335    2.238042
  H      3.645182   -1.546355    3.035497
  H      3.627754   -0.189825    4.179657
  H      2.214092   -0.514837    3.165351
  H     -0.436456   -3.230468    0.109015
  H     -0.135998   -1.840526   -0.998410
  H     -3.380449    2.870666    1.045329
  H     -3.829381    1.148008    1.247692
  H     -1.320736    2.415826    2.446839
  H     -2.841216    2.212211    3.338299
  H     -1.936851    0.795663    2.779677
  H     -4.434685    1.103108   -1.618473
  H     -3.705763   -0.073265   -2.734026
  H     -6.027330   -0.654740   -0.815790
  H     -6.174709   -0.420005   -2.566396
  H     -5.299182   -1.820938   -1.925323

 Total Charge           Charge          ....    0
 Multiplicity           Mult            ....    1
 Number of Electrons    NEL             ....  202
 Basis Dimension        Dim             ....  334

ORBITAL ENERGIES
----------------

  NO   OCC          E(Eh)            E(eV)
   0   2.0000     -88.038735     -2395.6558
   1   2.0000     -88.038178     -2395.6406
   2   2.0000     -87.981039     -2394.0858
   3   2.0000     -87.979599     -2394.0466
   4   2.0000     -76.421030     -2079.5219
   5   2.0000     -76.419301     -2079.4749
   6   2.0000     -18.790967      -511.3282
   7   2.0000     -18.786244      -511.1997
   8   2.0000     -18.783246      -511.1181
   9   2.0000     -18.779682      -511.0211
  10   2.0000      -9.956943      -270.9422
  11   2.0000      -9.953992      -270.8619
  12   2.0000      -9.948243      -270.7055
  13   2.0000      -9.948169      -270.7034
  14   2.0000      -9.938042      -270.4279
  15   2.0000      -9.886660      -269.0297
  16   2.0000      -9.882592      -268.9190
  17   2.0000      -9.880847      -268.8715
  18   2.0000      -9.874971      -268.7116
  19   2.0000      -7.684186      -209.0973
  20   2.0000      -7.683761      -209.0858
  21   2.0000      -7.626188      -207.5191
  22   2.0000      -7.624079      -207.4617
  23   2.0000      -6.419007      -174.6701
  24   2.0000      -6.416805      -174.6101
  25   2.0000      -5.712147      -155.4354
  26   2.0000      -5.711593      -155.4204
  27   2.0000      -5.708939      -155.3481
  28   2.0000      -5.708312      -155.3311
  29   2.0000      -5.700714      -155.1243
  30   2.0000      -5.700628      -155.1220
  31   2.0000      -5.655195      -153.8857
  32   2.0000      -5.652886      -153.8228
  33   2.0000      -5.647076      -153.6647
  34   2.0000      -5.645868      -153.6319
  35   2.0000      -5.644776      -153.6022
  36   2.0000      -5.644348      -153.5905
  37   2.0000      -4.641963      -126.3142
  38   2.0000      -4.640399      -126.2717
  39   2.0000      -4.639450      -126.2459
  40   2.0000      -4.639286      -126.2414
  41   2.0000      -4.638584      -126.2223
  42   2.0000      -4.637351      -126.1887
  43   2.0000      -0.981439       -26.7063
  44   2.0000      -0.979211       -26.6457
  45   2.0000      -0.938090       -25.5267
  46   2.0000      -0.937837       -25.5198
  47   2.0000      -0.759816       -20.6757
  48   2.0000      -0.719181       -19.5699
  49   2.0000      -0.704319       -19.1655
  50   2.0000      -0.690625       -18.7929
  51   2.0000      -0.681460       -18.5435
  52   2.0000      -0.669005       -18.2045
  53   2.0000      -0.648247       -17.6397
  54   2.0000      -0.631517       -17.1845
  55   2.0000      -0.596565       -16.2334
  56   2.0000      -0.582852       -15.8602
  57   2.0000      -0.572656       -15.5828
  58   2.0000      -0.565975       -15.4010
  59   2.0000      -0.554146       -15.0791
  60   2.0000      -0.507576       -13.8119
  61   2.0000      -0.485449       -13.2097
  62   2.0000      -0.476844       -12.9756
  63   2.0000      -0.465469       -12.6661
  64   2.0000      -0.445679       -12.1275
  65   2.0000      -0.443794       -12.0762
  66   2.0000      -0.437979       -11.9180
  67   2.0000      -0.432705       -11.7745
  68   2.0000      -0.427953       -11.6452
  69   2.0000      -0.415983       -11.3195
  70   2.0000      -0.407072       -11.0770
  71   2.0000      -0.390074       -10.6144
  72   2.0000      -0.385187       -10.4815
  73   2.0000      -0.381267       -10.3748
  74   2.0000      -0.376133       -10.2351
  75   2.0000      -0.371467       -10.1081
  76   2.0000      -0.360383        -9.8065
  77   2.0000      -0.358297        -9.7498
  78   2.0000      -0.350082        -9.5262
  79   2.0000      -0.349458        -9.5092
  80   2.0000      -0.346103        -9.4179
  81   2.0000      -0.342016        -9.3067
  82   2.0000      -0.335956        -9.1418
  83   2.0000      -0.332749        -9.0546
  84   2.0000      -0.330661        -8.9977
  85   2.0000      -0.315891        -8.5958
  86   2.0000      -0.309417        -8.4197
  87   2.0000      -0.302121        -8.2211
  88   2.0000      -0.290189        -7.8964
  89   2.0000      -0.277091        -7.5400
  90   2.0000      -0.274358        -7.4657
  91   2.0000      -0.269818        -7.3421
  92   2.0000      -0.264724        -7.2035
  93   2.0000      -0.264230        -7.1901
  94   2.0000      -0.256378        -6.9764
  95   2.0000      -0.235400        -6.4056
  96   2.0000      -0.219191        -5.9645
  97   2.0000      -0.206068        -5.6074
  98   2.0000      -0.200236        -5.4487
  99   2.0000      -0.189924        -5.1681
 100   2.0000      -0.181516        -4.9393
 101   0.0000      -0.039444        -1.0733
 102   0.0000      -0.031004        -0.8437
 103   0.0000      -0.008235        -0.2241
 104   0.0000       0.005471         0.1489
 105   0.0000       0.023862         0.6493

MULLIKEN ATOMIC CHARGES
-----------------------
   0 C :   -0.302316
   1 C :   -0.010211
   2 O :   -0.364751
   3 P :    0.617096
   4 S :   -0.325639
   5 O :   -0.373549
   6 C :   -0.002194
   7 C :   -0.320078
   8 S :   -0.088800
   9 C :   -0.344799
  10 S :   -0.090356
  11 P :    0.632897
  12 S :   -0.313929
  13 O :   -0.363877
  14 C :   -0.035634
  15 C :   -0.297844
  16 O :   -0.387616
  17 C :   -0.020300
  18 C :   -0.272882
  19 H :    0.113416
  20 H :    0.109004
  21 H :    0.119302
  22 H :    0.101446
  23 H :    0.128763
  24 H :    0.103963
  25 H :    0.108701
  26 H :    0.119289
  27 H :    0.111903
  28 H :    0.128957
  29 H :    0.183634
  30 H :    0.197752
  31 H :    0.110271
  32 H :    0.105463
  33 H :    0.136396
  34 H :    0.107413
  35 H :    0.132212
  36 H :    0.097275
  37 H :    0.108665
  38 H :    0.111429
  39 H :    0.110212
  40 H :    0.119317
Sum of atomic charges:    0.0000000

LOEWDIN ATOMIC CHARGES
----------------------
   0 C :   -0.365090
   1 C :   -0.120890
   2 O :   -0.237193
   3 P :    0.568354
   4 S :   -0.313091
   5 O :   -0.243856
   6 C :   -0.120551
   7 C :   -0.371615
   8 S :    0.090274
   9 C :   -0.477299
  10 S :    0.086554
  11 P :    0.573474
  12 S :   -0.293899
  13 O :   -0.235769
  14 C :   -0.115958
  15 C :   -0.363260
  16 O :   -0.264737
  17 C :   -0.123474
  18 C :   -0.350215
  19 H :    0.124608
  20 H :    0.129030
  21 H :    0.121285
  22 H :    0.118042
  23 H :    0.110434
  24 H :    0.118096
  25 H :    0.108955
  26 H :    0.123936
  27 H :    0.130591
  28 H :    0.121961
  29 H :    0.138646
  30 H :    0.125256
  31 H :    0.121331
  32 H :    0.107639
  33 H :    0.131724
  34 H :    0.128599
  35 H :    0.120004
  36 H :    0.105964
  37 H :    0.109275
  38 H :    0.124061
  39 H :    0.129803
  40 H :    0.128998

  Mayer bond orders larger than 0.100000
B(  0-C ,  1-C ) :   1.1614 B(  0-C , 19-H ) :   0.9451 B(  0-C , 20-H ) :   0.9393
B(  0-C , 21-H ) :   0.9383 B(  1-C ,  2-O ) :   0.9011 B(  1-C , 22-H ) :   0.9366
B(  1-C , 23-H ) :   0.9086 B(  2-O ,  3-P ) :   1.1357 B(  3-P ,  4-S ) :   1.6028
B(  3-P ,  5-O ) :   1.0980 B(  3-P ,  8-S ) :   0.9640 B(  4-S ,  8-S ) :   0.1191
B(  5-O ,  6-C ) :   0.9086 B(  6-C ,  7-C ) :   1.1666 B(  6-C , 24-H ) :   0.9333
B(  6-C , 25-H ) :   0.9135 B(  7-C , 26-H ) :   0.9435 B(  7-C , 27-H ) :   0.9378
B(  7-C , 28-H ) :   0.9334 B(  8-S ,  9-C ) :   0.9973 B(  9-C , 10-S ) :   1.0004
B(  9-C , 29-H ) :   0.9117 B(  9-C , 30-H ) :   0.8513 B( 10-S , 11-P ) :   0.9628
B( 10-S , 12-S ) :   0.1124 B( 11-P , 12-S ) :   1.6173 B( 11-P , 13-O ) :   1.1190
B( 11-P , 16-O ) :   1.0676 B( 12-S , 30-H ) :   0.1083 B( 13-O , 14-C ) :   0.9058
B( 14-C , 15-C ) :   1.1724 B( 14-C , 31-H ) :   0.9339 B( 14-C , 32-H ) :   0.9170
B( 15-C , 33-H ) :   0.9395 B( 15-C , 34-H ) :   0.9373 B( 15-C , 35-H ) :   0.9351
B( 16-O , 17-C ) :   0.9078 B( 17-C , 18-C ) :   1.1569 B( 17-C , 36-H ) :   0.9261
B( 17-C , 37-H ) :   0.9162 B( 18-C , 38-H ) :   0.9525 B( 18-C , 39-H ) :   0.9424
B( 18-C , 40-H ) :   0.9499

Dispersion correction           -0.066990574
FINAL SINGLE POINT ENERGY     -2929.513683741108

DIPOLE MOMENT
-------------

Method             : SCF
Type of density    : Electron Density
Multiplicity       :   1
Irrep              :   0
Energy             : -2929.6313409765134566 Eh
Relativity type    :
Basis              : AO
                                X                 Y                 Z
Electronic contribution:      4.088707488      -8.141454107      -3.436129238
Nuclear contribution   :     -4.705170620       8.270175638       3.944352778
                        -----------------------------------------
Total Dipole Moment    :     -0.616463132       0.128721532       0.508223540
                        -----------------------------------------
Magnitude (a.u.)       :      0.809251007
Magnitude (Debye)      :      2.056952591

Rotational constants in cm-1:             0.012687             0.005201             0.004831
Rotational constants in MHz :           380.355596           155.913106           144.835945

                             ****ORCA TERMINATED NORMALLY****
TOTAL RUN TIME: 0 days 0 hours 0 minutes 21 seconds 506 msec
