                         Program Version 6.0.0  -   RELEASE  -
|  1> ! pbe def2-sv(p) def2/J RI DEFGRID1 loosescf d4 GCP(DFT/SV(P)) printgap
|  2> %output
|  3>     printlevel normal
|  4> end
|  5> * xyz 0 1
|  6> C 1.2454200919 -0.3283136827 -3.1630692361
|  7> C 2.2775738241 0.4188810832 -2.3413380354
|  8> O 2.8184987121 -0.4260147901 -1.3114739929
|  9> P 2.4304194161 -0.3608464908 0.2209598304
| 10> S 2.5371093094 1.3900603776 1.1064321856
| 11> O 3.5248543605 -1.4148137639 0.6693697976
| 12> C 4.0335580683 -1.4834997694 2.0116868956
| 13> C 2.9762454757 -1.9273446323 3.0032926262
| 14> S 0.5822604916 -1.3934698138 0.3771912622
| 15> C -0.2592954174 -0.3681360417 1.6398169511
| 16> S -2.0382366707 -0.3094233825 1.381163059
| 17> P -2.0350331759 0.6584615003 -0.5168802421
| 18> S -0.6083431085 1.9655207375 -0.8226748601
| 19> O -3.5399674459 1.1520931489 -0.6545687074
| 20> C -4.2766171246 1.8818963497 0.3444581131
| 21> C -3.5673998782 3.1431119873 0.7907065712
| 22> O -1.9765157427 -0.4476994913 -1.6380336969
| 23> C -2.9100178008 -1.5543529729 -1.7405459988
| 24> C -2.2589256298 -2.8443568532 -1.2832784609
| 25> H 1.6608413087 -1.2703129044 -3.5096838571
| 26> H 0.3547360666 -0.5267785237 -2.5706471734
| 27> H 0.9643716687 0.2821403761 -4.0153501225
| 28> H 1.8498045625 1.3218896623 -1.8928414379
| 29> H 3.1390973894 0.6970023182 -2.9521489091
| 30> H 4.8495106178 -2.2041337016 1.9419891574
| 31> H 4.4279312589 -0.4998628585 2.2856418758
| 32> H 3.4409838737 -2.1089352162 3.9671435007
| 33> H 2.2293199261 -1.1423042797 3.1159455841
| 34> H 2.4928662705 -2.8377717377 2.6575543923
| 35> H 0.1609125537 0.6408095238 1.5936630357
| 36> H -0.1195558805 -0.8135995589 2.6218911813
| 37> H -5.2214584675 2.1107728768 -0.1516622393
| 38> H -4.4520247804 1.2159110317 1.1937615378
| 39> H -3.3386051078 3.7739420863 -0.0652816613
| 40> H -4.2014716095 3.6897810442 1.4811731636
| 41> H -2.6322372159 2.8936239325 1.2906709762
| 42> H -3.8007173744 -1.3266151843 -1.1520192568
| 43> H -3.1701978662 -1.5942745932 -2.7993776426
| 44> H -1.3430807559 -3.0212034131 -1.8403536644
| 45> H -2.0132127033 -2.7997427435 -0.2250246543
| 46> H -2.9472590156 -3.665670438 -1.4546736556
| 47> *
| 48>
| 49>                          ****END OF INPUT****

CARTESIAN COORDINATES (ANGSTROEM)
---------------------------------
  C      1.245420   -0.328314   -3.163069
  C      2.277574    0.418881   -2.341338
  O      2.818499   -0.426015   -1.311474
  P      2.430419   -0.360846    0.220960
  S      2.537109    1.390060    1.106432
  O      3.524854   -1.414814    0.669370
  C      4.033558   -1.483500    2.011687
  C      2.976245   -1.927345    3.003293
  S      0.582260   -1.393470    0.377191
  C     -0.259295   -0.368136    1.639817
  S     -2.038237   -0.309423    1.381163
  P     -2.035033    0.658462   -0.516880
  S     -0.608343    1.965521   -0.822675
  O     -3.539967    1.152093   -0.654569
  C     -4.276617    1.881896    0.344458
  C     -3.567400    3.143112    0.790707
  O     -1.976516   -0.447699   -1.638034
  C     -2.910018   -1.554353   -1.740546
  C     -2.258926   -2.844357   -1.283278
  H      1.660841   -1.270313   -3.509684
  H      0.354736   -0.526779   -2.570647
  H      0.964372    0.282140   -4.015350
  H      1.849805    1.321890   -1.892841
  H      3.139097    0.697002   -2.952149
  H      4.849511   -2.204134    1.941989
  H      4.427931   -0.499863    2.285642
  H      3.440984   -2.108935    3.967144
  H      2.229320   -1.142304    3.115946
  H      2.492866   -2.837772    2.657554
  H      0.160913    0.640810    1.593663
  H     -0.119556   -0.813600    2.621891
  H     -5.221458    2.110773   -0.151662
  H     -4.452025    1.215911    1.193762
  H     -3.338605    3.773942   -0.065282
  H     -4.201472    3.689781    1.481173
  H     -2.632237    2.893624    1.290671
  H     -3.800717   -1.326615   -1.152019
  H     -3.170198   -1.594275   -2.799378
  H     -1.343081   -3.021203   -1.840354
  H     -2.013213   -2.799743   -0.225025
  H     -2.947259   -3.665670   -1.454674

 Total Charge           Charge          ....    0
 Multiplicity           Mult            ....    1
 Number of Electrons    NEL             ....  202
 Basis Dimension        Dim             ....  334

ORBITAL ENERGIES
----------------

  NO   OCC          E(Eh)            E(eV)
   0   2.0000     -88.052595     -2396.0329
   1   2.0000     -88.040516     -2395.7042
   2   2.0000     -87.983841     -2394.1620
   3   2.0000     -87.983423     -2394.1507
   4   2.0000     -76.429597     -2079.7551
   5   2.0000     -76.421392     -2079.5318
   6   2.0000     -18.798489      -511.5329
   7   2.0000     -18.793913      -511.4084
   8   2.0000     -18.781428      -511.0686
   9   2.0000     -18.780947      -511.0555
  10   2.0000      -9.962480      -271.0929
  11   2.0000      -9.958544      -270.9858
  12   2.0000      -9.956198      -270.9219
  13   2.0000      -9.948799      -270.7206
  14   2.0000      -9.937978      -270.4261
  15   2.0000      -9.886649      -269.0294
  16   2.0000      -9.885401      -268.9954
  17   2.0000      -9.884649      -268.9750
  18   2.0000      -9.867401      -268.5056
  19   2.0000      -7.697364      -209.4559
  20   2.0000      -7.684938      -209.1178
  21   2.0000      -7.628749      -207.5888
  22   2.0000      -7.628275      -207.5759
  23   2.0000      -6.426590      -174.8764
  24   2.0000      -6.418641      -174.6601
  25   2.0000      -5.725139      -155.7889
  26   2.0000      -5.721667      -155.6945
  27   2.0000      -5.714711      -155.5052
  28   2.0000      -5.712808      -155.4534
  29   2.0000      -5.709498      -155.3633
  30   2.0000      -5.701943      -155.1578
  31   2.0000      -5.657566      -153.9502
  32   2.0000      -5.657424      -153.9463
  33   2.0000      -5.649322      -153.7259
  34   2.0000      -5.649076      -153.7192
  35   2.0000      -5.648656      -153.7077
  36   2.0000      -5.648441      -153.7019
  37   2.0000      -4.649384      -126.5162
  38   2.0000      -4.648715      -126.4980
  39   2.0000      -4.646584      -126.4400
  40   2.0000      -4.640828      -126.2833
  41   2.0000      -4.640564      -126.2762
  42   2.0000      -4.639308      -126.2420
  43   2.0000      -0.992266       -27.0009
  44   2.0000      -0.980708       -26.6864
  45   2.0000      -0.948002       -25.7964
  46   2.0000      -0.935355       -25.4523
  47   2.0000      -0.764623       -20.8064
  48   2.0000      -0.721197       -19.6248
  49   2.0000      -0.710311       -19.3286
  50   2.0000      -0.692838       -18.8531
  51   2.0000      -0.680911       -18.5285
  52   2.0000      -0.672893       -18.3103
  53   2.0000      -0.651209       -17.7203
  54   2.0000      -0.632924       -17.2227
  55   2.0000      -0.597010       -16.2455
  56   2.0000      -0.590543       -16.0695
  57   2.0000      -0.579663       -15.7734
  58   2.0000      -0.566772       -15.4226
  59   2.0000      -0.557554       -15.1718
  60   2.0000      -0.507762       -13.8169
  61   2.0000      -0.490272       -13.3410
  62   2.0000      -0.475269       -12.9327
  63   2.0000      -0.462192       -12.5769
  64   2.0000      -0.453428       -12.3384
  65   2.0000      -0.448705       -12.2099
  66   2.0000      -0.442609       -12.0440
  67   2.0000      -0.434887       -11.8339
  68   2.0000      -0.431005       -11.7282
  69   2.0000      -0.416471       -11.3328
  70   2.0000      -0.411975       -11.2104
  71   2.0000      -0.399878       -10.8812
  72   2.0000      -0.391928       -10.6649
  73   2.0000      -0.387142       -10.5347
  74   2.0000      -0.385102       -10.4792
  75   2.0000      -0.368535       -10.0284
  76   2.0000      -0.359596        -9.7851
  77   2.0000      -0.357000        -9.7145
  78   2.0000      -0.351843        -9.5741
  79   2.0000      -0.348284        -9.4773
  80   2.0000      -0.346383        -9.4256
  81   2.0000      -0.343726        -9.3533
  82   2.0000      -0.341384        -9.2895
  83   2.0000      -0.335523        -9.1301
  84   2.0000      -0.324834        -8.8392
  85   2.0000      -0.319495        -8.6939
  86   2.0000      -0.307986        -8.3807
  87   2.0000      -0.300311        -8.1719
  88   2.0000      -0.297669        -8.1000
  89   2.0000      -0.290867        -7.9149
  90   2.0000      -0.281896        -7.6708
  91   2.0000      -0.278683        -7.5833
  92   2.0000      -0.266937        -7.2637
  93   2.0000      -0.261729        -7.1220
  94   2.0000      -0.254410        -6.9229
  95   2.0000      -0.235258        -6.4017
  96   2.0000      -0.222858        -6.0643
  97   2.0000      -0.209999        -5.7144
  98   2.0000      -0.200246        -5.4490
  99   2.0000      -0.197496        -5.3741
 100   2.0000      -0.189030        -5.1438
 101   0.0000      -0.047073        -1.2809
 102   0.0000      -0.035590        -0.9685
 103   0.0000      -0.015491        -0.4215
 104   0.0000       0.007780         0.2117
 105   0.0000       0.013091         0.3562

MULLIKEN ATOMIC CHARGES
-----------------------
   0 C :   -0.319631
   1 C :   -0.009026
   2 O :   -0.358642
   3 P :    0.613356
   4 S :   -0.318010
   5 O :   -0.360860
   6 C :    0.007309
   7 C :   -0.328776
   8 S :   -0.120744
   9 C :   -0.353250
  10 S :   -0.127731
  11 P :    0.599782
  12 S :   -0.294658
  13 O :   -0.377157
  14 C :   -0.011776
  15 C :   -0.309576
  16 O :   -0.347780
  17 C :   -0.008196
  18 C :   -0.291582
  19 H :    0.103319
  20 H :    0.149964
  21 H :    0.104408
  22 H :    0.123585
  23 H :    0.100428
  24 H :    0.105798
  25 H :    0.110498
  26 H :    0.112061
  27 H :    0.121177
  28 H :    0.121077
  29 H :    0.215980
  30 H :    0.186339
  31 H :    0.110376
  32 H :    0.112348
  33 H :    0.128926
  34 H :    0.112118
  35 H :    0.129177
  36 H :    0.099237
  37 H :    0.112466
  38 H :    0.125930
  39 H :    0.122728
  40 H :    0.109007
Sum of atomic charges:   -0.0000000

LOEWDIN ATOMIC CHARGES
----------------------
   0 C :   -0.368753
   1 C :   -0.116162
   2 O :   -0.232655
   3 P :    0.569718
   4 S :   -0.303008
   5 O :   -0.239873
   6 C :   -0.115787
   7 C :   -0.370314
   8 S :    0.070384
   9 C :   -0.480227
  10 S :    0.070310
  11 P :    0.564115
  12 S :   -0.284386
  13 O :   -0.245206
  14 C :   -0.115332
  15 C :   -0.368492
  16 O :   -0.228656
  17 C :   -0.111654
  18 C :   -0.362513
  19 H :    0.120227
  20 H :    0.121437
  21 H :    0.128856
  22 H :    0.106026
  23 H :    0.116000
  24 H :    0.119459
  25 H :    0.110631
  26 H :    0.130371
  27 H :    0.117997
  28 H :    0.125371
  29 H :    0.124162
  30 H :    0.130957
  31 H :    0.121937
  32 H :    0.107141
  33 H :    0.131672
  34 H :    0.130551
  35 H :    0.122625
  36 H :    0.107095
  37 H :    0.122769
  38 H :    0.129295
  39 H :    0.114814
  40 H :    0.129097

  Mayer bond orders larger than 0.100000
B(  0-C ,  1-C ) :   1.1712 B(  0-C , 19-H ) :   0.9464 B(  0-C , 20-H ) :   0.9227
B(  0-C , 21-H ) :   0.9398 B(  1-C ,  2-O ) :   0.9004 B(  1-C , 22-H ) :   0.9025
B(  1-C , 23-H ) :   0.9345 B(  2-O ,  3-P ) :   1.1487 B(  3-P ,  4-S ) :   1.6097
B(  3-P ,  5-O ) :   1.1121 B(  3-P ,  8-S ) :   0.9389 B(  4-S ,  8-S ) :   0.1239
B(  5-O ,  6-C ) :   0.9243 B(  6-C ,  7-C ) :   1.1601 B(  6-C , 24-H ) :   0.9347
B(  6-C , 25-H ) :   0.9177 B(  7-C , 26-H ) :   0.9375 B(  7-C , 27-H ) :   0.9318
B(  7-C , 28-H ) :   0.9433 B(  8-S ,  9-C ) :   0.9961 B(  9-C , 10-S ) :   1.0120
B(  9-C , 29-H ) :   0.8444 B(  9-C , 30-H ) :   0.8965 B( 10-S , 11-P ) :   0.9250
B( 10-S , 12-S ) :   0.1082 B( 11-P , 12-S ) :   1.6563 B( 11-P , 13-O ) :   1.0912
B( 11-P , 16-O ) :   1.1218 B( 13-O , 14-C ) :   0.9106 B( 14-C , 15-C ) :   1.1671
B( 14-C , 31-H ) :   0.9330 B( 14-C , 32-H ) :   0.9262 B( 15-C , 33-H ) :   0.9429
B( 15-C , 34-H ) :   0.9350 B( 15-C , 35-H ) :   0.9326 B( 16-O , 17-C ) :   0.8884
B( 17-C , 18-C ) :   1.1667 B( 17-C , 36-H ) :   0.9179 B( 17-C , 37-H ) :   0.9349
B( 18-C , 38-H ) :   0.9458 B( 18-C , 39-H ) :   0.9316 B( 18-C , 40-H ) :   0.9387

Dispersion correction           -0.067608643
FINAL SINGLE POINT ENERGY     -2929.518754271807

DIPOLE MOMENT
-------------

Method             : SCF
Type of density    : Electron Density
Multiplicity       :   1
Irrep              :   0
Energy             : -2929.6363635226348379 Eh
Relativity type    :
Basis              : AO
                                X                 Y                 Z
Electronic contribution:      6.140347137       6.063536929       0.678595282
Nuclear contribution   :     -7.549976936      -7.071668251      -0.288145815
                        -----------------------------------------
Total Dipole Moment    :     -1.409629800      -1.008131322       0.390449466
                        -----------------------------------------
Magnitude (a.u.)       :      1.776467202
Magnitude (Debye)      :      4.515420781

Rotational constants in cm-1:             0.011939             0.005233             0.005123
Rotational constants in MHz :           357.924057           156.867823           153.589121

                             ****ORCA TERMINATED NORMALLY****
TOTAL RUN TIME: 0 days 0 hours 0 minutes 21 seconds 480 msec
