                         Program Version 6.0.0  -   RELEASE  -
|  1> ! pbe def2-sv(p) def2/J RI DEFGRID1 loosescf d4 GCP(DFT/SV(P)) printgap
|  2> %output
|  3>     printlevel normal
|  4> end
|  5> * xyz 0 1
|  6> C 3.2263461886 1.0239466916 -2.7670213711
|  7> C 3.8851921349 1.2236245869 -1.4170831752
|  8> O 3.5713706069 0.1596365018 -0.5043715057
|  9> P 2.1050136182 -0.0767847144 0.0725577498
| 10> S 1.2312806926 1.6285386153 0.5260467049
| 11> O 2.3874040112 -1.0601739825 1.2764301665
| 12> C 2.5546644178 -0.6362750898 2.6476245766
| 13> C 1.9453876382 -1.6909965643 3.548777186
| 14> S 1.3371625218 -1.4379950296 -1.3275350663
| 15> C -0.1363884753 -2.1606836401 -0.4991908523
| 16> S -0.7773180196 -1.2707562601 0.9389575774
| 17> P -1.913273015 0.2320706433 -0.0207914436
| 18> S -1.433287896 0.6513285703 -1.8789817267
| 19> O -1.8053304749 1.2928191258 1.1416313096
| 20> C -2.6564505491 2.4493297585 1.2782430556
| 21> C -2.386125609 3.4829049017 0.2036887665
| 22> O -3.4500144789 -0.1814739342 0.1207263126
| 23> C -4.1755626521 -0.9319641471 -0.8636875483
| 24> C -4.1166621855 -2.4188258236 -0.5726386063
| 25> H 3.4747196124 0.0446291319 -3.168584557
| 26> H 2.1423891771 1.0936240801 -2.6667011645
| 27> H 3.5636863462 1.7945013503 -3.4526941916
| 28> H 3.5638160149 2.1696702584 -0.9684362124
| 29> H 4.9731513989 1.1957226057 -1.4893037413
| 30> H 3.6268566251 -0.5258955619 2.8242277725
| 31> H 2.0662921043 0.3361705181 2.7775014731
| 32> H 2.4190680667 -2.6508487085 3.3658394718
| 33> H 2.0984098907 -1.4039486803 4.5839624987
| 34> H 0.8797336716 -1.780249915 3.352430645
| 35> H 0.1408431382 -3.1495442484 -0.1420069478
| 36> H -0.8988720231 -2.2161242715 -1.2757302618
| 37> H -3.6981851032 2.1197249565 1.2607352139
| 38> H -2.40170273 2.8320386462 2.2681830391
| 39> H -2.6771152195 3.1009923027 -0.7736858539
| 40> H -2.951179219 4.3846390149 0.4168071465
| 41> H -1.3237376659 3.7183093112 0.1787071567
| 42> H -5.1986367896 -0.5578733935 -0.7951345467
| 43> H -3.7671574752 -0.6991154125 -1.85356908
| 44> H -4.7498235723 -2.9452327297 -1.2795499885
| 45> H -3.0977152871 -2.7881053664 -0.6657297082
| 46> H -4.4652250348 -2.6136547389 0.437907805
| 47> *
| 48>
| 49>                          ****END OF INPUT****

CARTESIAN COORDINATES (ANGSTROEM)
---------------------------------
  C      3.226346    1.023947   -2.767021
  C      3.885192    1.223625   -1.417083
  O      3.571371    0.159637   -0.504372
  P      2.105014   -0.076785    0.072558
  S      1.231281    1.628539    0.526047
  O      2.387404   -1.060174    1.276430
  C      2.554664   -0.636275    2.647625
  C      1.945388   -1.690997    3.548777
  S      1.337163   -1.437995   -1.327535
  C     -0.136388   -2.160684   -0.499191
  S     -0.777318   -1.270756    0.938958
  P     -1.913273    0.232071   -0.020791
  S     -1.433288    0.651329   -1.878982
  O     -1.805330    1.292819    1.141631
  C     -2.656451    2.449330    1.278243
  C     -2.386126    3.482905    0.203689
  O     -3.450014   -0.181474    0.120726
  C     -4.175563   -0.931964   -0.863688
  C     -4.116662   -2.418826   -0.572639
  H      3.474720    0.044629   -3.168585
  H      2.142389    1.093624   -2.666701
  H      3.563686    1.794501   -3.452694
  H      3.563816    2.169670   -0.968436
  H      4.973151    1.195723   -1.489304
  H      3.626857   -0.525896    2.824228
  H      2.066292    0.336171    2.777501
  H      2.419068   -2.650849    3.365839
  H      2.098410   -1.403949    4.583962
  H      0.879734   -1.780250    3.352431
  H      0.140843   -3.149544   -0.142007
  H     -0.898872   -2.216124   -1.275730
  H     -3.698185    2.119725    1.260735
  H     -2.401703    2.832039    2.268183
  H     -2.677115    3.100992   -0.773686
  H     -2.951179    4.384639    0.416807
  H     -1.323738    3.718309    0.178707
  H     -5.198637   -0.557873   -0.795135
  H     -3.767157   -0.699115   -1.853569
  H     -4.749824   -2.945233   -1.279550
  H     -3.097715   -2.788105   -0.665730
  H     -4.465225   -2.613655    0.437908

 Total Charge           Charge          ....    0
 Multiplicity           Mult            ....    1
 Number of Electrons    NEL             ....  202
 Basis Dimension        Dim             ....  334

ORBITAL ENERGIES
----------------

  NO   OCC          E(Eh)            E(eV)
   0   2.0000     -88.046463     -2395.8661
   1   2.0000     -88.032159     -2395.4768
   2   2.0000     -87.984475     -2394.1793
   3   2.0000     -87.973123     -2393.8704
   4   2.0000     -76.425698     -2079.6490
   5   2.0000     -76.416819     -2079.4073
   6   2.0000     -18.788386      -511.2580
   7   2.0000     -18.788186      -511.2525
   8   2.0000     -18.781743      -511.0772
   9   2.0000     -18.778991      -511.0023
  10   2.0000      -9.959153      -271.0023
  11   2.0000      -9.952518      -270.8218
  12   2.0000      -9.950963      -270.7795
  13   2.0000      -9.943776      -270.5839
  14   2.0000      -9.941082      -270.5106
  15   2.0000      -9.889312      -269.1019
  16   2.0000      -9.880721      -268.8681
  17   2.0000      -9.877042      -268.7680
  18   2.0000      -9.874176      -268.6900
  19   2.0000      -7.690799      -209.2773
  20   2.0000      -7.677552      -208.9168
  21   2.0000      -7.629278      -207.6032
  22   2.0000      -7.617900      -207.2936
  23   2.0000      -6.422559      -174.7667
  24   2.0000      -6.413967      -174.5329
  25   2.0000      -5.718827      -155.6172
  26   2.0000      -5.715236      -155.5195
  27   2.0000      -5.707700      -155.3144
  28   2.0000      -5.705849      -155.2641
  29   2.0000      -5.701998      -155.1593
  30   2.0000      -5.694100      -154.9443
  31   2.0000      -5.658158      -153.9663
  32   2.0000      -5.650321      -153.7531
  33   2.0000      -5.649072      -153.7191
  34   2.0000      -5.646745      -153.6558
  35   2.0000      -5.638545      -153.4326
  36   2.0000      -5.638113      -153.4209
  37   2.0000      -4.645273      -126.4043
  38   2.0000      -4.644176      -126.3744
  39   2.0000      -4.643107      -126.3454
  40   2.0000      -4.636562      -126.1673
  41   2.0000      -4.635829      -126.1473
  42   2.0000      -4.634382      -126.1080
  43   2.0000      -0.985456       -26.8156
  44   2.0000      -0.975364       -26.5410
  45   2.0000      -0.940906       -25.6033
  46   2.0000      -0.935127       -25.4461
  47   2.0000      -0.760402       -20.6916
  48   2.0000      -0.717696       -19.5295
  49   2.0000      -0.705475       -19.1970
  50   2.0000      -0.687395       -18.7050
  51   2.0000      -0.677589       -18.4381
  52   2.0000      -0.668052       -18.1786
  53   2.0000      -0.648198       -17.6384
  54   2.0000      -0.631889       -17.1946
  55   2.0000      -0.596669       -16.2362
  56   2.0000      -0.586027       -15.9466
  57   2.0000      -0.575640       -15.6640
  58   2.0000      -0.563787       -15.3414
  59   2.0000      -0.557501       -15.1704
  60   2.0000      -0.498334       -13.5603
  61   2.0000      -0.493851       -13.4384
  62   2.0000      -0.469982       -12.7889
  63   2.0000      -0.463019       -12.5994
  64   2.0000      -0.459491       -12.5034
  65   2.0000      -0.433734       -11.8025
  66   2.0000      -0.431037       -11.7291
  67   2.0000      -0.428860       -11.6699
  68   2.0000      -0.423651       -11.5281
  69   2.0000      -0.414421       -11.2770
  70   2.0000      -0.408697       -11.1212
  71   2.0000      -0.401186       -10.9168
  72   2.0000      -0.385974       -10.5029
  73   2.0000      -0.383768       -10.4429
  74   2.0000      -0.375973       -10.2307
  75   2.0000      -0.371030       -10.0963
  76   2.0000      -0.365997        -9.9593
  77   2.0000      -0.355579        -9.6758
  78   2.0000      -0.349460        -9.5093
  79   2.0000      -0.347770        -9.4633
  80   2.0000      -0.344035        -9.3617
  81   2.0000      -0.339164        -9.2291
  82   2.0000      -0.334453        -9.1009
  83   2.0000      -0.332685        -9.0528
  84   2.0000      -0.327455        -8.9105
  85   2.0000      -0.321225        -8.7410
  86   2.0000      -0.305848        -8.3226
  87   2.0000      -0.292911        -7.9705
  88   2.0000      -0.289880        -7.8880
  89   2.0000      -0.285599        -7.7715
  90   2.0000      -0.275473        -7.4960
  91   2.0000      -0.271953        -7.4002
  92   2.0000      -0.265383        -7.2214
  93   2.0000      -0.259777        -7.0689
  94   2.0000      -0.251402        -6.8410
  95   2.0000      -0.235558        -6.4099
  96   2.0000      -0.219598        -5.9756
  97   2.0000      -0.207740        -5.6529
  98   2.0000      -0.190088        -5.1726
  99   2.0000      -0.186343        -5.0706
 100   2.0000      -0.181270        -4.9326
 101   0.0000      -0.048442        -1.3182
 102   0.0000      -0.029918        -0.8141
 103   0.0000      -0.012673        -0.3448
 104   0.0000       0.008300         0.2259
 105   0.0000       0.017688         0.4813

MULLIKEN ATOMIC CHARGES
-----------------------
   0 C :   -0.331366
   1 C :    0.000899
   2 O :   -0.373067
   3 P :    0.612660
   4 S :   -0.326957
   5 O :   -0.375096
   6 C :   -0.000254
   7 C :   -0.292848
   8 S :   -0.093599
   9 C :   -0.317705
  10 S :   -0.099297
  11 P :    0.640479
  12 S :   -0.301259
  13 O :   -0.363859
  14 C :   -0.000866
  15 C :   -0.315405
  16 O :   -0.377189
  17 C :   -0.007927
  18 C :   -0.302275
  19 H :    0.117604
  20 H :    0.142064
  21 H :    0.110600
  22 H :    0.107772
  23 H :    0.100246
  24 H :    0.102262
  25 H :    0.107187
  26 H :    0.111999
  27 H :    0.107806
  28 H :    0.124208
  29 H :    0.182516
  30 H :    0.177674
  31 H :    0.105418
  32 H :    0.107706
  33 H :    0.126968
  34 H :    0.106690
  35 H :    0.133445
  36 H :    0.101298
  37 H :    0.104831
  38 H :    0.112267
  39 H :    0.116524
  40 H :    0.117848
Sum of atomic charges:    0.0000000

LOEWDIN ATOMIC CHARGES
----------------------
   0 C :   -0.372886
   1 C :   -0.122099
   2 O :   -0.249204
   3 P :    0.558044
   4 S :   -0.313884
   5 O :   -0.247341
   6 C :   -0.116318
   7 C :   -0.355516
   8 S :    0.083058
   9 C :   -0.471033
  10 S :    0.107268
  11 P :    0.566754
  12 S :   -0.295715
  13 O :   -0.231186
  14 C :   -0.107832
  15 C :   -0.366665
  16 O :   -0.250875
  17 C :   -0.125259
  18 C :   -0.359002
  19 H :    0.122973
  20 H :    0.126385
  21 H :    0.130059
  22 H :    0.107773
  23 H :    0.116356
  24 H :    0.113859
  25 H :    0.106942
  26 H :    0.124383
  27 H :    0.128820
  28 H :    0.121019
  29 H :    0.136147
  30 H :    0.123647
  31 H :    0.110617
  32 H :    0.121182
  33 H :    0.122005
  34 H :    0.127549
  35 H :    0.132615
  36 H :    0.116715
  37 H :    0.103473
  38 H :    0.130550
  39 H :    0.118801
  40 H :    0.127820

  Mayer bond orders larger than 0.100000
B(  0-C ,  1-C ) :   1.1639 B(  0-C , 19-H ) :   0.9436 B(  0-C , 20-H ) :   0.9312
B(  0-C , 21-H ) :   0.9381 B(  1-C ,  2-O ) :   0.9135 B(  1-C , 22-H ) :   0.9120
B(  1-C , 23-H ) :   0.9330 B(  2-O ,  3-P ) :   1.1023 B(  3-P ,  4-S ) :   1.6041
B(  3-P ,  5-O ) :   1.1172 B(  3-P ,  8-S ) :   0.9965 B(  4-S ,  8-S ) :   0.1164
B(  5-O ,  6-C ) :   0.8962 B(  6-C ,  7-C ) :   1.1608 B(  6-C , 24-H ) :   0.9345
B(  6-C , 25-H ) :   0.9031 B(  7-C , 26-H ) :   0.9505 B(  7-C , 27-H ) :   0.9417
B(  7-C , 28-H ) :   0.9457 B(  8-S ,  9-C ) :   0.9665 B(  9-C , 10-S ) :   1.0266
B(  9-C , 29-H ) :   0.9088 B(  9-C , 30-H ) :   0.8867 B( 10-S , 11-P ) :   0.9294
B( 10-S , 12-S ) :   0.1138 B( 11-P , 12-S ) :   1.6340 B( 11-P , 13-O ) :   1.1335
B( 11-P , 16-O ) :   1.0679 B( 13-O , 14-C ) :   0.9058 B( 14-C , 15-C ) :   1.1649
B( 14-C , 31-H ) :   0.9272 B( 14-C , 32-H ) :   0.9350 B( 15-C , 33-H ) :   0.9358
B( 15-C , 34-H ) :   0.9372 B( 15-C , 35-H ) :   0.9433 B( 16-O , 17-C ) :   0.9239
B( 17-C , 18-C ) :   1.1615 B( 17-C , 36-H ) :   0.9331 B( 17-C , 37-H ) :   0.9010
B( 18-C , 38-H ) :   0.9403 B( 18-C , 39-H ) :   0.9419 B( 18-C , 40-H ) :   0.9455

Dispersion correction           -0.067860735
FINAL SINGLE POINT ENERGY     -2929.512498648201

DIPOLE MOMENT
-------------

Method             : SCF
Type of density    : Electron Density
Multiplicity       :   1
Irrep              :   0
Energy             : -2929.6274966219812086 Eh
Relativity type    :
Basis              : AO
                                X                 Y                 Z
Electronic contribution:      5.369255773      -1.697638294      -2.283831340
Nuclear contribution   :     -6.063340959       1.245983728       2.787987916
                        -----------------------------------------
Total Dipole Moment    :     -0.694085186      -0.451654566       0.504156577
                        -----------------------------------------
Magnitude (a.u.)       :      0.969494686
Magnitude (Debye)      :      2.464259653

Rotational constants in cm-1:             0.010816             0.005785             0.005515
Rotational constants in MHz :           324.244715           173.428004           165.331933

                             ****ORCA TERMINATED NORMALLY****
TOTAL RUN TIME: 0 days 0 hours 0 minutes 21 seconds 191 msec
