                         Program Version 6.0.0  -   RELEASE  -
|  1> ! r2scan-3c def2/J RI DEFGRID2 scfconv6 printgap
|  2> %output
|  3>     printlevel normal
|  4> end
|  5> * xyz 0 1
|  6> C 3.0320389875 0.3886323791 3.2226743779
|  7> C 1.6547754326 -0.0114205344 2.7390883857
|  8> O 1.4089510778 0.4670995463 1.3996124977
|  9> P 2.1824511396 -0.1182710938 0.1512176981
| 10> S 2.7382549713 -1.9968684015 0.3039198475
| 11> O 3.316219402 0.9765813977 -0.0431796846
| 12> C 4.2640522973 0.9384536206 -1.1279719614
| 13> C 5.5080373801 0.1615761902 -0.741605561
| 14> S 0.8485773611 0.3082976369 -1.4396862004
| 15> C -0.1161049958 -1.2181379729 -1.2928816818
| 16> S -1.1447499005 -1.2513599787 0.1905305394
| 17> P -2.5330291091 0.2332552949 -0.4737574857
| 18> S -2.9258951612 0.22569401 -2.3889091389
| 19> O -1.9589483935 1.6399903449 -0.0585787113
| 20> C -1.6556635071 2.0070432836 1.3109070293
| 21> C -0.6447474045 3.1340278296 1.2761513815
| 22> O -3.732946106 0.0750438188 0.5563993298
| 23> C -4.4000842889 -1.1595245667 0.8826019416
| 24> C -4.9112823002 -1.8923373543 -0.3395866723
| 25> H 3.1557549618 0.0838288468 4.2570272169
| 26> H 3.7900241977 -0.1039335978 2.6145330618
| 27> H 3.1619900236 1.4643923492 3.141279955
| 28> H 0.8655020816 0.4494264193 3.3342012392
| 29> H 1.5398979542 -1.1000457094 2.7463112246
| 30> H 3.7854103619 0.5033842937 -2.01029195
| 31> H 4.4954972643 1.9874263944 -1.322424763
| 32> H 5.9592619855 0.5955988861 0.1462656006
| 33> H 5.2577427361 -0.8770295187 -0.5369058136
| 34> H 6.2199570035 0.1978855723 -1.5598539993
| 35> H 0.5591975779 -2.0720638181 -1.230836861
| 36> H -0.754701326 -1.2706634172 -2.1754135928
| 37> H -2.5901407465 2.3156227436 1.7832429947
| 38> H -1.2594575005 1.128314362 1.8287983496
| 39> H -0.4524553284 3.4728836056 2.2890790193
| 40> H 0.2853092076 2.7906237123 0.8295000288
| 41> H -1.0318154372 3.9593983177 0.6855529056
| 42> H -3.7007434314 -1.7850073091 1.4443230491
| 43> H -5.2193743928 -0.8428289113 1.5303767836
| 44> H -4.0771586817 -2.2169642211 -0.9601017212
| 45> H -5.479380366 -2.762505274 -0.0268892207
| 46> H -5.5466731193 -1.2408867088 -0.9349044044
| 47> *
| 48>
| 49>                          ****END OF INPUT****

CARTESIAN COORDINATES (ANGSTROEM)
---------------------------------
  C      3.032039    0.388632    3.222674
  C      1.654775   -0.011421    2.739088
  O      1.408951    0.467100    1.399612
  P      2.182451   -0.118271    0.151218
  S      2.738255   -1.996868    0.303920
  O      3.316219    0.976581   -0.043180
  C      4.264052    0.938454   -1.127972
  C      5.508037    0.161576   -0.741606
  S      0.848577    0.308298   -1.439686
  C     -0.116105   -1.218138   -1.292882
  S     -1.144750   -1.251360    0.190531
  P     -2.533029    0.233255   -0.473757
  S     -2.925895    0.225694   -2.388909
  O     -1.958948    1.639990   -0.058579
  C     -1.655664    2.007043    1.310907
  C     -0.644747    3.134028    1.276151
  O     -3.732946    0.075044    0.556399
  C     -4.400084   -1.159525    0.882602
  C     -4.911282   -1.892337   -0.339587
  H      3.155755    0.083829    4.257027
  H      3.790024   -0.103934    2.614533
  H      3.161990    1.464392    3.141280
  H      0.865502    0.449426    3.334201
  H      1.539898   -1.100046    2.746311
  H      3.785410    0.503384   -2.010292
  H      4.495497    1.987426   -1.322425
  H      5.959262    0.595599    0.146266
  H      5.257743   -0.877030   -0.536906
  H      6.219957    0.197886   -1.559854
  H      0.559198   -2.072064   -1.230837
  H     -0.754701   -1.270663   -2.175414
  H     -2.590141    2.315623    1.783243
  H     -1.259458    1.128314    1.828798
  H     -0.452455    3.472884    2.289079
  H      0.285309    2.790624    0.829500
  H     -1.031815    3.959398    0.685553
  H     -3.700743   -1.785007    1.444323
  H     -5.219374   -0.842829    1.530377
  H     -4.077159   -2.216964   -0.960102
  H     -5.479380   -2.762505   -0.026889
  H     -5.546673   -1.240887   -0.934904

 Total Charge           Charge          ....    0
 Multiplicity           Mult            ....    1
 Number of Electrons    NEL             ....  202
 Basis Dimension        Dim             ....  539

ORBITAL ENERGIES
----------------

  NO   OCC          E(Eh)            E(eV)
   0   2.0000     -88.575971     -2410.2747
   1   2.0000     -88.575273     -2410.2557
   2   2.0000     -88.524858     -2408.8838
   3   2.0000     -88.515268     -2408.6229
   4   2.0000     -76.917886     -2093.0421
   5   2.0000     -76.912010     -2092.8822
   6   2.0000     -18.997499      -516.9482
   7   2.0000     -18.995382      -516.8906
   8   2.0000     -18.994346      -516.8624
   9   2.0000     -18.986320      -516.6440
  10   2.0000     -10.105286      -274.9788
  11   2.0000     -10.104690      -274.9626
  12   2.0000     -10.103154      -274.9208
  13   2.0000     -10.102358      -274.8991
  14   2.0000     -10.097576      -274.7690
  15   2.0000     -10.033109      -273.0148
  16   2.0000     -10.029112      -272.9060
  17   2.0000     -10.027589      -272.8646
  18   2.0000     -10.027102      -272.8513
  19   2.0000      -7.870034      -214.1545
  20   2.0000      -7.869567      -214.1418
  21   2.0000      -7.819705      -212.7850
  22   2.0000      -7.810122      -212.5242
  23   2.0000      -6.596404      -179.4973
  24   2.0000      -6.590320      -179.3317
  25   2.0000      -5.816901      -158.2859
  26   2.0000      -5.816299      -158.2695
  27   2.0000      -5.813906      -158.2044
  28   2.0000      -5.813322      -158.1885
  29   2.0000      -5.807193      -158.0218
  30   2.0000      -5.806947      -158.0151
  31   2.0000      -5.767278      -156.9356
  32   2.0000      -5.759954      -156.7363
  33   2.0000      -5.759801      -156.7322
  34   2.0000      -5.757936      -156.6814
  35   2.0000      -5.750351      -156.4750
  36   2.0000      -5.750004      -156.4656
  37   2.0000      -4.741869      -129.0328
  38   2.0000      -4.741365      -129.0191
  39   2.0000      -4.740124      -128.9853
  40   2.0000      -4.736148      -128.8771
  41   2.0000      -4.735524      -128.8602
  42   2.0000      -4.733532      -128.8060
  43   2.0000      -1.055643       -28.7255
  44   2.0000      -1.050236       -28.5784
  45   2.0000      -1.016524       -27.6610
  46   2.0000      -1.007743       -27.4221
  47   2.0000      -0.802491       -21.8369
  48   2.0000      -0.760375       -20.6909
  49   2.0000      -0.751801       -20.4575
  50   2.0000      -0.735265       -20.0076
  51   2.0000      -0.733361       -19.9558
  52   2.0000      -0.712314       -19.3831
  53   2.0000      -0.686355       -18.6767
  54   2.0000      -0.669950       -18.2303
  55   2.0000      -0.633320       -17.2335
  56   2.0000      -0.620641       -16.8885
  57   2.0000      -0.607645       -16.5349
  58   2.0000      -0.601974       -16.3805
  59   2.0000      -0.596318       -16.2267
  60   2.0000      -0.533913       -14.5285
  61   2.0000      -0.523800       -14.2533
  62   2.0000      -0.499913       -13.6033
  63   2.0000      -0.493207       -13.4208
  64   2.0000      -0.477875       -13.0036
  65   2.0000      -0.467864       -12.7312
  66   2.0000      -0.461237       -12.5509
  67   2.0000      -0.452429       -12.3112
  68   2.0000      -0.446569       -12.1518
  69   2.0000      -0.435910       -11.8617
  70   2.0000      -0.426769       -11.6130
  71   2.0000      -0.419197       -11.4069
  72   2.0000      -0.412524       -11.2253
  73   2.0000      -0.405613       -11.0373
  74   2.0000      -0.399777       -10.8785
  75   2.0000      -0.392075       -10.6689
  76   2.0000      -0.378394       -10.2966
  77   2.0000      -0.371698       -10.1144
  78   2.0000      -0.366682        -9.9779
  79   2.0000      -0.365171        -9.9368
  80   2.0000      -0.361775        -9.8444
  81   2.0000      -0.360076        -9.7982
  82   2.0000      -0.356305        -9.6956
  83   2.0000      -0.353123        -9.6090
  84   2.0000      -0.351915        -9.5761
  85   2.0000      -0.337368        -9.1802
  86   2.0000      -0.326705        -8.8901
  87   2.0000      -0.315584        -8.5875
  88   2.0000      -0.311958        -8.4888
  89   2.0000      -0.309804        -8.4302
  90   2.0000      -0.307464        -8.3665
  91   2.0000      -0.294739        -8.0202
  92   2.0000      -0.289279        -7.8717
  93   2.0000      -0.283250        -7.7076
  94   2.0000      -0.270674        -7.3654
  95   2.0000      -0.247980        -6.7479
  96   2.0000      -0.233253        -6.3471
  97   2.0000      -0.225810        -6.1446
  98   2.0000      -0.218067        -5.9339
  99   2.0000      -0.212517        -5.7829
 100   2.0000      -0.210615        -5.7311
 101   0.0000      -0.046549        -1.2667
 102   0.0000      -0.024968        -0.6794
 103   0.0000      -0.004136        -0.1125
 104   0.0000      -0.003195        -0.0869
 105   0.0000       0.015316         0.4168

MULLIKEN ATOMIC CHARGES
-----------------------
   0 C :   -0.451759
   1 C :   -0.141254
   2 O :   -0.258109
   3 P :    0.663196
   4 S :   -0.484964
   5 O :   -0.297991
   6 C :   -0.138548
   7 C :   -0.453058
   8 S :   -0.117867
   9 C :   -0.230520
  10 S :   -0.185101
  11 P :    0.658890
  12 S :   -0.433339
  13 O :   -0.257657
  14 C :   -0.105407
  15 C :   -0.467010
  16 O :   -0.294333
  17 C :   -0.159564
  18 C :   -0.428013
  19 H :    0.148821
  20 H :    0.170900
  21 H :    0.157591
  22 H :    0.147611
  23 H :    0.175850
  24 H :    0.155676
  25 H :    0.152027
  26 H :    0.151474
  27 H :    0.182142
  28 H :    0.146509
  29 H :    0.214660
  30 H :    0.218372
  31 H :    0.153810
  32 H :    0.153031
  33 H :    0.140860
  34 H :    0.175884
  35 H :    0.155244
  36 H :    0.151398
  37 H :    0.149314
  38 H :    0.169423
  39 H :    0.146207
  40 H :    0.165603
Sum of atomic charges:   -0.0000000

LOEWDIN ATOMIC CHARGES
----------------------
   0 C :   -0.398896
   1 C :    0.016600
   2 O :   -0.679559
   3 P :    0.376670
   4 S :   -0.134189
   5 O :   -0.660012
   6 C :    0.023887
   7 C :   -0.401936
   8 S :    0.176239
   9 C :   -0.425772
  10 S :    0.133942
  11 P :    0.379371
  12 S :   -0.101015
  13 O :   -0.652656
  14 C :    0.023812
  15 C :   -0.389604
  16 O :   -0.663698
  17 C :    0.023909
  18 C :   -0.405972
  19 H :    0.160073
  20 H :    0.166584
  21 H :    0.160725
  22 H :    0.177753
  23 H :    0.182197
  24 H :    0.176479
  25 H :    0.180101
  26 H :    0.157988
  27 H :    0.169185
  28 H :    0.158842
  29 H :    0.191721
  30 H :    0.193860
  31 H :    0.172907
  32 H :    0.176187
  33 H :    0.158342
  34 H :    0.170226
  35 H :    0.161981
  36 H :    0.171349
  37 H :    0.181091
  38 H :    0.166942
  39 H :    0.158291
  40 H :    0.166055

  Mayer bond orders larger than 0.100000
B(  0-C ,  1-C ) :   0.9177 B(  0-C , 19-H ) :   0.9633 B(  0-C , 20-H ) :   0.9579
B(  0-C , 21-H ) :   0.9743 B(  1-C ,  2-O ) :   0.7686 B(  1-C , 22-H ) :   0.9624
B(  1-C , 23-H ) :   0.9579 B(  2-O ,  3-P ) :   1.1290 B(  3-P ,  4-S ) :   1.7429
B(  3-P ,  5-O ) :   1.0690 B(  3-P ,  8-S ) :   1.1078 B(  5-O ,  6-C ) :   0.7826
B(  6-C ,  7-C ) :   0.9522 B(  6-C , 24-H ) :   0.9629 B(  6-C , 25-H ) :   0.9631
B(  7-C , 26-H ) :   0.9747 B(  7-C , 27-H ) :   0.9563 B(  7-C , 28-H ) :   0.9637
B(  8-S ,  9-C ) :   0.9156 B(  9-C , 10-S ) :   0.9123 B(  9-C , 29-H ) :   0.9046
B(  9-C , 30-H ) :   0.9023 B( 10-S , 11-P ) :   0.9799 B( 11-P , 12-S ) :   1.8570
B( 11-P , 13-O ) :   1.1625 B( 11-P , 16-O ) :   1.0390 B( 13-O , 14-C ) :   0.7357
B( 14-C , 15-C ) :   0.9426 B( 14-C , 31-H ) :   0.9455 B( 14-C , 32-H ) :   0.9535
B( 15-C , 33-H ) :   0.9684 B( 15-C , 34-H ) :   0.9656 B( 15-C , 35-H ) :   0.9698
B( 16-O , 17-C ) :   0.8056 B( 17-C , 18-C ) :   0.9432 B( 17-C , 36-H ) :   0.9617
B( 17-C , 37-H ) :   0.9586 B( 18-C , 38-H ) :   0.9546 B( 18-C , 39-H ) :   0.9617
B( 18-C , 40-H ) :   0.9656

Dispersion correction           -0.021701705
FINAL SINGLE POINT ENERGY     -2932.462674407264

DIPOLE MOMENT
-------------

Method             : SCF
Type of density    : Electron Density
Multiplicity       :   1
Irrep              :   0
Energy             : -2932.4874408625973956 Eh
Relativity type    :
Basis              : AO
                                X                 Y                 Z
Electronic contribution:     -8.270668414      -4.121612748     -13.673194776
Nuclear contribution   :      8.722369868       4.410307171      15.303645363
                        -----------------------------------------
Total Dipole Moment    :      0.451701454       0.288694423       1.630450587
                        -----------------------------------------
Magnitude (a.u.)       :      1.716318091
Magnitude (Debye)      :      4.362533890

Rotational constants in cm-1:             0.013580             0.004698             0.004515
Rotational constants in MHz :           407.115324           140.833860           135.367884

                             ****ORCA TERMINATED NORMALLY****
TOTAL RUN TIME: 0 days 0 hours 1 minutes 21 seconds 202 msec
