                         Program Version 6.0.0  -   RELEASE  -
|  1> ! r2scan-3c def2/J RI DEFGRID2 scfconv6 printgap
|  2> %output
|  3>     printlevel normal
|  4> end
|  5> %cpcm
|  6>     smd true
|  7>     smdsolvent "water"
|  8> end
|  9> * xyz 0 1
| 10> C 3.0320389875 0.3886323791 3.2226743779
| 11> C 1.6547754326 -0.0114205344 2.7390883857
| 12> O 1.4089510778 0.4670995463 1.3996124977
| 13> P 2.1824511396 -0.1182710938 0.1512176981
| 14> S 2.7382549713 -1.9968684015 0.3039198475
| 15> O 3.316219402 0.9765813977 -0.0431796846
| 16> C 4.2640522973 0.9384536206 -1.1279719614
| 17> C 5.5080373801 0.1615761902 -0.741605561
| 18> S 0.8485773611 0.3082976369 -1.4396862004
| 19> C -0.1161049958 -1.2181379729 -1.2928816818
| 20> S -1.1447499005 -1.2513599787 0.1905305394
| 21> P -2.5330291091 0.2332552949 -0.4737574857
| 22> S -2.9258951612 0.22569401 -2.3889091389
| 23> O -1.9589483935 1.6399903449 -0.0585787113
| 24> C -1.6556635071 2.0070432836 1.3109070293
| 25> C -0.6447474045 3.1340278296 1.2761513815
| 26> O -3.732946106 0.0750438188 0.5563993298
| 27> C -4.4000842889 -1.1595245667 0.8826019416
| 28> C -4.9112823002 -1.8923373543 -0.3395866723
| 29> H 3.1557549618 0.0838288468 4.2570272169
| 30> H 3.7900241977 -0.1039335978 2.6145330618
| 31> H 3.1619900236 1.4643923492 3.141279955
| 32> H 0.8655020816 0.4494264193 3.3342012392
| 33> H 1.5398979542 -1.1000457094 2.7463112246
| 34> H 3.7854103619 0.5033842937 -2.01029195
| 35> H 4.4954972643 1.9874263944 -1.322424763
| 36> H 5.9592619855 0.5955988861 0.1462656006
| 37> H 5.2577427361 -0.8770295187 -0.5369058136
| 38> H 6.2199570035 0.1978855723 -1.5598539993
| 39> H 0.5591975779 -2.0720638181 -1.230836861
| 40> H -0.754701326 -1.2706634172 -2.1754135928
| 41> H -2.5901407465 2.3156227436 1.7832429947
| 42> H -1.2594575005 1.128314362 1.8287983496
| 43> H -0.4524553284 3.4728836056 2.2890790193
| 44> H 0.2853092076 2.7906237123 0.8295000288
| 45> H -1.0318154372 3.9593983177 0.6855529056
| 46> H -3.7007434314 -1.7850073091 1.4443230491
| 47> H -5.2193743928 -0.8428289113 1.5303767836
| 48> H -4.0771586817 -2.2169642211 -0.9601017212
| 49> H -5.479380366 -2.762505274 -0.0268892207
| 50> H -5.5466731193 -1.2408867088 -0.9349044044
| 51> *
| 52>
| 53>                          ****END OF INPUT****

CARTESIAN COORDINATES (ANGSTROEM)
---------------------------------
  C      3.032039    0.388632    3.222674
  C      1.654775   -0.011421    2.739088
  O      1.408951    0.467100    1.399612
  P      2.182451   -0.118271    0.151218
  S      2.738255   -1.996868    0.303920
  O      3.316219    0.976581   -0.043180
  C      4.264052    0.938454   -1.127972
  C      5.508037    0.161576   -0.741606
  S      0.848577    0.308298   -1.439686
  C     -0.116105   -1.218138   -1.292882
  S     -1.144750   -1.251360    0.190531
  P     -2.533029    0.233255   -0.473757
  S     -2.925895    0.225694   -2.388909
  O     -1.958948    1.639990   -0.058579
  C     -1.655664    2.007043    1.310907
  C     -0.644747    3.134028    1.276151
  O     -3.732946    0.075044    0.556399
  C     -4.400084   -1.159525    0.882602
  C     -4.911282   -1.892337   -0.339587
  H      3.155755    0.083829    4.257027
  H      3.790024   -0.103934    2.614533
  H      3.161990    1.464392    3.141280
  H      0.865502    0.449426    3.334201
  H      1.539898   -1.100046    2.746311
  H      3.785410    0.503384   -2.010292
  H      4.495497    1.987426   -1.322425
  H      5.959262    0.595599    0.146266
  H      5.257743   -0.877030   -0.536906
  H      6.219957    0.197886   -1.559854
  H      0.559198   -2.072064   -1.230837
  H     -0.754701   -1.270663   -2.175414
  H     -2.590141    2.315623    1.783243
  H     -1.259458    1.128314    1.828798
  H     -0.452455    3.472884    2.289079
  H      0.285309    2.790624    0.829500
  H     -1.031815    3.959398    0.685553
  H     -3.700743   -1.785007    1.444323
  H     -5.219374   -0.842829    1.530377
  H     -4.077159   -2.216964   -0.960102
  H     -5.479380   -2.762505   -0.026889
  H     -5.546673   -1.240887   -0.934904

 Total Charge           Charge          ....    0
 Multiplicity           Mult            ....    1
 Number of Electrons    NEL             ....  202
 Basis Dimension        Dim             ....  539

ORBITAL ENERGIES
----------------

  NO   OCC          E(Eh)            E(eV)
   0   2.0000     -88.579931     -2410.3825
   1   2.0000     -88.579232     -2410.3634
   2   2.0000     -88.529204     -2409.0021
   3   2.0000     -88.527989     -2408.9690
   4   2.0000     -76.920305     -2093.1079
   5   2.0000     -76.920213     -2093.1054
   6   2.0000     -18.996990      -516.9344
   7   2.0000     -18.996739      -516.9276
   8   2.0000     -18.993696      -516.8447
   9   2.0000     -18.993132      -516.8294
  10   2.0000     -10.103463      -274.9292
  11   2.0000     -10.093599      -274.6608
  12   2.0000     -10.092259      -274.6243
  13   2.0000     -10.090569      -274.5783
  14   2.0000     -10.089742      -274.5558
  15   2.0000     -10.018882      -272.6276
  16   2.0000     -10.018856      -272.6269
  17   2.0000     -10.018786      -272.6250
  18   2.0000     -10.016905      -272.5738
  19   2.0000      -7.874122      -214.2658
  20   2.0000      -7.873464      -214.2479
  21   2.0000      -7.824315      -212.9104
  22   2.0000      -7.823231      -212.8809
  23   2.0000      -6.598831      -179.5633
  24   2.0000      -6.598569      -179.5562
  25   2.0000      -5.820940      -158.3958
  26   2.0000      -5.820233      -158.3766
  27   2.0000      -5.817984      -158.3154
  28   2.0000      -5.817249      -158.2954
  29   2.0000      -5.811336      -158.1345
  30   2.0000      -5.810784      -158.1195
  31   2.0000      -5.771841      -157.0598
  32   2.0000      -5.770909      -157.0344
  33   2.0000      -5.764567      -156.8619
  34   2.0000      -5.764405      -156.8574
  35   2.0000      -5.763466      -156.8319
  36   2.0000      -5.763166      -156.8237
  37   2.0000      -4.744331      -129.0998
  38   2.0000      -4.744229      -129.0970
  39   2.0000      -4.743793      -129.0852
  40   2.0000      -4.743730      -129.0835
  41   2.0000      -4.742651      -129.0541
  42   2.0000      -4.741929      -129.0344
  43   2.0000      -1.054423       -28.6923
  44   2.0000      -1.054040       -28.6819
  45   2.0000      -1.014251       -27.5992
  46   2.0000      -1.011455       -27.5231
  47   2.0000      -0.805277       -21.9127
  48   2.0000      -0.757025       -20.5997
  49   2.0000      -0.745769       -20.2934
  50   2.0000      -0.726071       -19.7574
  51   2.0000      -0.723536       -19.6884
  52   2.0000      -0.711467       -19.3600
  53   2.0000      -0.689694       -18.7675
  54   2.0000      -0.675833       -18.3904
  55   2.0000      -0.628309       -17.0971
  56   2.0000      -0.618537       -16.8313
  57   2.0000      -0.600756       -16.3474
  58   2.0000      -0.597725       -16.2649
  59   2.0000      -0.593566       -16.1517
  60   2.0000      -0.530405       -14.4330
  61   2.0000      -0.518841       -14.1184
  62   2.0000      -0.493338       -13.4244
  63   2.0000      -0.489873       -13.3301
  64   2.0000      -0.477046       -12.9811
  65   2.0000      -0.461802       -12.5663
  66   2.0000      -0.454647       -12.3716
  67   2.0000      -0.447004       -12.1636
  68   2.0000      -0.442663       -12.0455
  69   2.0000      -0.433675       -11.8009
  70   2.0000      -0.420073       -11.4308
  71   2.0000      -0.417508       -11.3610
  72   2.0000      -0.405525       -11.0349
  73   2.0000      -0.403063       -10.9679
  74   2.0000      -0.398131       -10.8337
  75   2.0000      -0.388676       -10.5764
  76   2.0000      -0.377474       -10.2716
  77   2.0000      -0.364831        -9.9276
  78   2.0000      -0.360639        -9.8135
  79   2.0000      -0.358675        -9.7600
  80   2.0000      -0.354757        -9.6534
  81   2.0000      -0.352785        -9.5998
  82   2.0000      -0.351066        -9.5530
  83   2.0000      -0.347335        -9.4515
  84   2.0000      -0.345777        -9.4091
  85   2.0000      -0.333453        -9.0737
  86   2.0000      -0.323750        -8.8097
  87   2.0000      -0.311781        -8.4840
  88   2.0000      -0.308527        -8.3954
  89   2.0000      -0.307047        -8.3552
  90   2.0000      -0.301140        -8.1944
  91   2.0000      -0.289838        -7.8869
  92   2.0000      -0.288274        -7.8443
  93   2.0000      -0.283111        -7.7038
  94   2.0000      -0.273030        -7.4295
  95   2.0000      -0.251583        -6.8459
  96   2.0000      -0.239073        -6.5055
  97   2.0000      -0.232803        -6.3349
  98   2.0000      -0.224103        -6.0982
  99   2.0000      -0.223153        -6.0723
 100   2.0000      -0.221931        -6.0391
 101   0.0000      -0.051857        -1.4111
 102   0.0000      -0.031526        -0.8579
 103   0.0000      -0.008709        -0.2370
 104   0.0000      -0.006788        -0.1847
 105   0.0000       0.015019         0.4087

MULLIKEN ATOMIC CHARGES
-----------------------
   0 C :   -0.493323
   1 C :   -0.136234
   2 O :   -0.280460
   3 P :    0.699281
   4 S :   -0.524689
   5 O :   -0.324151
   6 C :   -0.132645
   7 C :   -0.489724
   8 S :   -0.146180
   9 C :   -0.236707
  10 S :   -0.178920
  11 P :    0.676267
  12 S :   -0.495645
  13 O :   -0.289475
  14 C :   -0.106076
  15 C :   -0.507556
  16 O :   -0.316185
  17 C :   -0.159158
  18 C :   -0.466551
  19 H :    0.173631
  20 H :    0.167906
  21 H :    0.172029
  22 H :    0.181640
  23 H :    0.177131
  24 H :    0.165024
  25 H :    0.177440
  26 H :    0.167627
  27 H :    0.171465
  28 H :    0.169955
  29 H :    0.234249
  30 H :    0.232160
  31 H :    0.175257
  32 H :    0.174065
  33 H :    0.172647
  34 H :    0.170503
  35 H :    0.166249
  36 H :    0.172502
  37 H :    0.177433
  38 H :    0.165009
  39 H :    0.173690
  40 H :    0.170519
Sum of atomic charges:   -0.0000000

LOEWDIN ATOMIC CHARGES
----------------------
   0 C :   -0.402464
   1 C :    0.022620
   2 O :   -0.686755
   3 P :    0.382374
   4 S :   -0.158781
   5 O :   -0.670740
   6 C :    0.029163
   7 C :   -0.405855
   8 S :    0.159514
   9 C :   -0.421751
  10 S :    0.143508
  11 P :    0.381879
  12 S :   -0.147994
  13 O :   -0.676795
  14 C :    0.030024
  15 C :   -0.393811
  16 O :   -0.670987
  17 C :    0.031498
  18 C :   -0.409586
  19 H :    0.169224
  20 H :    0.162820
  21 H :    0.164256
  22 H :    0.191262
  23 H :    0.182619
  24 H :    0.180280
  25 H :    0.190969
  26 H :    0.162471
  27 H :    0.163094
  28 H :    0.167517
  29 H :    0.197329
  30 H :    0.197659
  31 H :    0.182808
  32 H :    0.183940
  33 H :    0.170831
  34 H :    0.165896
  35 H :    0.164005
  36 H :    0.179586
  37 H :    0.193180
  38 H :    0.162035
  39 H :    0.168744
  40 H :    0.164416

  Mayer bond orders larger than 0.100000
B(  0-C ,  1-C ) :   0.9031 B(  0-C , 19-H ) :   0.9573 B(  0-C , 20-H ) :   0.9583
B(  0-C , 21-H ) :   0.9734 B(  1-C ,  2-O ) :   0.7563 B(  1-C , 22-H ) :   0.9521
B(  1-C , 23-H ) :   0.9551 B(  2-O ,  3-P ) :   1.1411 B(  3-P ,  4-S ) :   1.7138
B(  3-P ,  5-O ) :   1.0764 B(  3-P ,  8-S ) :   1.1068 B(  5-O ,  6-C ) :   0.7713
B(  6-C ,  7-C ) :   0.9428 B(  6-C , 24-H ) :   0.9568 B(  6-C , 25-H ) :   0.9532
B(  7-C , 26-H ) :   0.9718 B(  7-C , 27-H ) :   0.9605 B(  7-C , 28-H ) :   0.9589
B(  8-S ,  9-C ) :   0.9025 B(  9-C , 10-S ) :   0.9007 B(  9-C , 29-H ) :   0.9010
B(  9-C , 30-H ) :   0.8990 B( 10-S , 11-P ) :   0.9954 B( 11-P , 12-S ) :   1.8233
B( 11-P , 13-O ) :   1.1683 B( 11-P , 16-O ) :   1.0579 B( 13-O , 14-C ) :   0.7248
B( 14-C , 15-C ) :   0.9300 B( 14-C , 31-H ) :   0.9355 B( 14-C , 32-H ) :   0.9453
B( 15-C , 33-H ) :   0.9611 B( 15-C , 34-H ) :   0.9670 B( 15-C , 35-H ) :   0.9685
B( 16-O , 17-C ) :   0.7940 B( 17-C , 18-C ) :   0.9213 B( 17-C , 36-H ) :   0.9575
B( 17-C , 37-H ) :   0.9488 B( 18-C , 38-H ) :   0.9578 B( 18-C , 39-H ) :   0.9557
B( 18-C , 40-H ) :   0.9667

Dispersion correction           -0.021701705
FINAL SINGLE POINT ENERGY     -2932.472442219240

DIPOLE MOMENT
-------------

Method             : SCF
Type of density    : Electron Density
Multiplicity       :   1
Irrep              :   0
Energy             : -2932.4972086745733577 Eh
Relativity type    :
Basis              : AO
                                X                 Y                 Z
Electronic contribution:     -8.191114796      -4.200854068     -12.901779220
Nuclear contribution   :      8.722369868       4.410307171      15.303645363
                        -----------------------------------------
Total Dipole Moment    :      0.531255072       0.209453103       2.401866143
                        -----------------------------------------
Magnitude (a.u.)       :      2.468818244
Magnitude (Debye)      :      6.275237274

Rotational constants in cm-1:             0.013580             0.004698             0.004515
Rotational constants in MHz :           407.115324           140.833860           135.367884

                             ****ORCA TERMINATED NORMALLY****
TOTAL RUN TIME: 0 days 0 hours 1 minutes 51 seconds 93 msec
