                         Program Version 6.0.0  -   RELEASE  -
|  1> ! pbe def2-sv(p) def2/J RI DEFGRID1 loosescf d4 GCP(DFT/SV(P)) printgap
|  2> %output
|  3>     printlevel normal
|  4> end
|  5> * xyz 0 1
|  6> C 4.525065615 1.8158555728 -0.7372412248
|  7> C 4.5789018769 0.3086850508 -0.8823835684
|  8> O 3.2739949346 -0.263024014 -1.0838857349
|  9> P 2.1729158773 -0.2919078852 0.059949006
| 10> S 2.8582339739 -0.6403854513 1.865984458
| 11> O 1.1325089526 -1.3353372579 -0.5128173162
| 12> C 1.1541899406 -2.7360473198 -0.1769564731
| 13> C 2.3919331208 -3.4253868364 -0.7095143362
| 14> S 1.0735870337 1.4877430597 -0.2226866382
| 15> C 0.244159228 1.4636444899 1.3904661086
| 16> S -0.8804621156 0.0576580281 1.6105159999
| 17> P -2.1661413237 0.3486279153 -0.0669484956
| 18> S -1.6932761346 -0.536429403 -1.7570865516
| 19> O -2.2508978185 1.9288063996 -0.0352298971
| 20> C -3.3765546925 2.6894654463 -0.5317088486
| 21> C -3.5781972526 2.5135856965 -2.0217661793
| 22> O -3.6032545363 -0.0755036043 0.4703823508
| 23> C -4.0731506405 -1.42838504 0.3664223358
| 24> C -3.3307038006 -2.3458561325 1.3158809252
| 25> H 4.015233816 2.0830222998 0.1875735592
| 26> H 5.535660063 2.2105123697 -0.7098389402
| 27> H 3.9863399218 2.2562753888 -1.5726608815
| 28> H 5.0209941426 -0.1473924372 0.0094273465
| 29> H 5.1361660221 0.0077230445 -1.7704468778
| 30> H 1.091770684 -2.8291101316 0.9126016735
| 31> H 0.2431680039 -3.1228696626 -0.6377228807
| 32> H 2.4838318679 -3.2534189927 -1.7789131907
| 33> H 3.2771147781 -3.0320634092 -0.2103372317
| 34> H 2.3209066346 -4.4912499864 -0.5170315251
| 35> H -0.3060602476 2.396182814 1.476221993
| 36> H 0.9896286979 1.364839837 2.180580719
| 37> H -4.2663528547 2.386610012 0.0238999755
| 38> H -3.1125628683 3.7189678156 -0.2839492926
| 39> H -3.8440800834 1.481832822 -2.2472247252
| 40> H -4.376811327 3.1679940689 -2.3568032572
| 41> H -2.6634079828 2.7564957422 -2.5574939518
| 42> H -5.1340104726 -1.3629706728 0.6104912464
| 43> H -3.9453865062 -1.7602968427 -0.6696883675
| 44> H -3.4118127562 -1.9826170896 2.3369615509
| 45> H -3.7419637989 -3.3479213648 1.2520608844
| 46> H -2.2749234566 -2.3766850845 1.0433030573
| 47> *
| 48>
| 49>                          ****END OF INPUT****

CARTESIAN COORDINATES (ANGSTROEM)
---------------------------------
  C      4.525066    1.815856   -0.737241
  C      4.578902    0.308685   -0.882384
  O      3.273995   -0.263024   -1.083886
  P      2.172916   -0.291908    0.059949
  S      2.858234   -0.640385    1.865984
  O      1.132509   -1.335337   -0.512817
  C      1.154190   -2.736047   -0.176956
  C      2.391933   -3.425387   -0.709514
  S      1.073587    1.487743   -0.222687
  C      0.244159    1.463644    1.390466
  S     -0.880462    0.057658    1.610516
  P     -2.166141    0.348628   -0.066948
  S     -1.693276   -0.536429   -1.757087
  O     -2.250898    1.928806   -0.035230
  C     -3.376555    2.689465   -0.531709
  C     -3.578197    2.513586   -2.021766
  O     -3.603255   -0.075504    0.470382
  C     -4.073151   -1.428385    0.366422
  C     -3.330704   -2.345856    1.315881
  H      4.015234    2.083022    0.187574
  H      5.535660    2.210512   -0.709839
  H      3.986340    2.256275   -1.572661
  H      5.020994   -0.147392    0.009427
  H      5.136166    0.007723   -1.770447
  H      1.091771   -2.829110    0.912602
  H      0.243168   -3.122870   -0.637723
  H      2.483832   -3.253419   -1.778913
  H      3.277115   -3.032063   -0.210337
  H      2.320907   -4.491250   -0.517032
  H     -0.306060    2.396183    1.476222
  H      0.989629    1.364840    2.180581
  H     -4.266353    2.386610    0.023900
  H     -3.112563    3.718968   -0.283949
  H     -3.844080    1.481833   -2.247225
  H     -4.376811    3.167994   -2.356803
  H     -2.663408    2.756496   -2.557494
  H     -5.134010   -1.362971    0.610491
  H     -3.945387   -1.760297   -0.669688
  H     -3.411813   -1.982617    2.336962
  H     -3.741964   -3.347921    1.252061
  H     -2.274923   -2.376685    1.043303

 Total Charge           Charge          ....    0
 Multiplicity           Mult            ....    1
 Number of Electrons    NEL             ....  202
 Basis Dimension        Dim             ....  334

ORBITAL ENERGIES
----------------

  NO   OCC          E(Eh)            E(eV)
   0   2.0000     -88.037628     -2395.6256
   1   2.0000     -88.034889     -2395.5511
   2   2.0000     -87.985028     -2394.1943
   3   2.0000     -87.979276     -2394.0378
   4   2.0000     -76.424602     -2079.6191
   5   2.0000     -76.421832     -2079.5438
   6   2.0000     -18.793529      -511.3979
   7   2.0000     -18.792615      -511.3731
   8   2.0000     -18.790394      -511.3126
   9   2.0000     -18.779599      -511.0189
  10   2.0000      -9.958170      -270.9756
  11   2.0000      -9.952614      -270.8244
  12   2.0000      -9.952431      -270.8194
  13   2.0000      -9.950020      -270.7538
  14   2.0000      -9.941746      -270.5287
  15   2.0000      -9.887295      -269.0470
  16   2.0000      -9.883118      -268.9333
  17   2.0000      -9.881993      -268.9027
  18   2.0000      -9.876759      -268.7603
  19   2.0000      -7.682838      -209.0606
  20   2.0000      -7.679871      -208.9799
  21   2.0000      -7.630002      -207.6229
  22   2.0000      -7.624273      -207.4670
  23   2.0000      -6.421868      -174.7479
  24   2.0000      -6.419343      -174.6792
  25   2.0000      -5.710684      -155.3956
  26   2.0000      -5.708045      -155.3238
  27   2.0000      -5.707517      -155.3094
  28   2.0000      -5.704494      -155.2272
  29   2.0000      -5.699593      -155.0938
  30   2.0000      -5.696448      -155.0082
  31   2.0000      -5.658685      -153.9807
  32   2.0000      -5.653113      -153.8290
  33   2.0000      -5.650776      -153.7654
  34   2.0000      -5.650259      -153.7514
  35   2.0000      -5.644971      -153.6075
  36   2.0000      -5.644468      -153.5938
  37   2.0000      -4.645082      -126.3991
  38   2.0000      -4.643564      -126.3578
  39   2.0000      -4.641821      -126.3104
  40   2.0000      -4.641701      -126.3071
  41   2.0000      -4.641057      -126.2896
  42   2.0000      -4.640059      -126.2624
  43   2.0000      -0.989074       -26.9141
  44   2.0000      -0.981284       -26.7021
  45   2.0000      -0.946648       -25.7596
  46   2.0000      -0.939647       -25.5691
  47   2.0000      -0.760367       -20.6906
  48   2.0000      -0.718079       -19.5399
  49   2.0000      -0.704225       -19.1629
  50   2.0000      -0.690083       -18.7781
  51   2.0000      -0.682141       -18.5620
  52   2.0000      -0.669490       -18.2178
  53   2.0000      -0.649839       -17.6830
  54   2.0000      -0.635159       -17.2835
  55   2.0000      -0.597960       -16.2713
  56   2.0000      -0.590049       -16.0560
  57   2.0000      -0.579944       -15.7811
  58   2.0000      -0.567113       -15.4319
  59   2.0000      -0.556836       -15.1523
  60   2.0000      -0.498155       -13.5555
  61   2.0000      -0.487578       -13.2677
  62   2.0000      -0.473466       -12.8837
  63   2.0000      -0.467626       -12.7247
  64   2.0000      -0.459163       -12.4944
  65   2.0000      -0.440039       -11.9741
  66   2.0000      -0.435147       -11.8409
  67   2.0000      -0.432339       -11.7646
  68   2.0000      -0.422036       -11.4842
  69   2.0000      -0.414514       -11.2795
  70   2.0000      -0.412164       -11.2156
  71   2.0000      -0.404817       -11.0156
  72   2.0000      -0.387446       -10.5429
  73   2.0000      -0.382286       -10.4025
  74   2.0000      -0.379128       -10.3166
  75   2.0000      -0.373698       -10.1688
  76   2.0000      -0.365548        -9.9471
  77   2.0000      -0.357448        -9.7267
  78   2.0000      -0.352932        -9.6038
  79   2.0000      -0.349361        -9.5066
  80   2.0000      -0.343571        -9.3490
  81   2.0000      -0.341845        -9.3021
  82   2.0000      -0.340353        -9.2615
  83   2.0000      -0.335921        -9.1409
  84   2.0000      -0.333778        -9.0826
  85   2.0000      -0.320053        -8.7091
  86   2.0000      -0.304926        -8.2975
  87   2.0000      -0.297017        -8.0822
  88   2.0000      -0.293310        -7.9814
  89   2.0000      -0.291825        -7.9410
  90   2.0000      -0.276998        -7.5375
  91   2.0000      -0.275299        -7.4913
  92   2.0000      -0.266937        -7.2637
  93   2.0000      -0.260588        -7.0910
  94   2.0000      -0.258411        -7.0317
  95   2.0000      -0.229292        -6.2394
  96   2.0000      -0.213619        -5.8129
  97   2.0000      -0.206503        -5.6192
  98   2.0000      -0.201648        -5.4871
  99   2.0000      -0.192632        -5.2418
 100   2.0000      -0.187455        -5.1009
 101   0.0000      -0.046339        -1.2609
 102   0.0000      -0.019329        -0.5260
 103   0.0000      -0.015314        -0.4167
 104   0.0000       0.006502         0.1769
 105   0.0000       0.021763         0.5922

MULLIKEN ATOMIC CHARGES
-----------------------
   0 C :   -0.314491
   1 C :   -0.004080
   2 O :   -0.369140
   3 P :    0.619576
   4 S :   -0.345914
   5 O :   -0.343061
   6 C :   -0.006169
   7 C :   -0.304950
   8 S :   -0.076790
   9 C :   -0.341566
  10 S :   -0.103521
  11 P :    0.630588
  12 S :   -0.304213
  13 O :   -0.386789
  14 C :   -0.001877
  15 C :   -0.310271
  16 O :   -0.379626
  17 C :   -0.003189
  18 C :   -0.332192
  19 H :    0.124616
  20 H :    0.112174
  21 H :    0.119241
  22 H :    0.110435
  23 H :    0.105751
  24 H :    0.109237
  25 H :    0.108508
  26 H :    0.118082
  27 H :    0.119055
  28 H :    0.108451
  29 H :    0.184213
  30 H :    0.190514
  31 H :    0.111940
  32 H :    0.105183
  33 H :    0.127562
  34 H :    0.109020
  35 H :    0.125273
  36 H :    0.103620
  37 H :    0.109064
  38 H :    0.123225
  39 H :    0.116054
  40 H :    0.136455
Sum of atomic charges:    0.0000000

LOEWDIN ATOMIC CHARGES
----------------------
   0 C :   -0.369317
   1 C :   -0.119067
   2 O :   -0.241585
   3 P :    0.576293
   4 S :   -0.330834
   5 O :   -0.226589
   6 C :   -0.117368
   7 C :   -0.365479
   8 S :    0.096116
   9 C :   -0.478067
  10 S :    0.077418
  11 P :    0.572318
  12 S :   -0.301180
  13 O :   -0.248126
  14 C :   -0.107976
  15 C :   -0.366969
  16 O :   -0.246909
  17 C :   -0.123742
  18 C :   -0.369570
  19 H :    0.120353
  20 H :    0.130599
  21 H :    0.125118
  22 H :    0.109927
  23 H :    0.118979
  24 H :    0.109018
  25 H :    0.116688
  26 H :    0.127069
  27 H :    0.120237
  28 H :    0.128724
  29 H :    0.132590
  30 H :    0.129603
  31 H :    0.114326
  32 H :    0.119271
  33 H :    0.122246
  34 H :    0.128742
  35 H :    0.130982
  36 H :    0.117812
  37 H :    0.107873
  38 H :    0.127194
  39 H :    0.132724
  40 H :    0.120558

  Mayer bond orders larger than 0.100000
B(  0-C ,  1-C ) :   1.1663 B(  0-C , 19-H ) :   0.9354 B(  0-C , 20-H ) :   0.9380
B(  0-C , 21-H ) :   0.9449 B(  1-C ,  2-O ) :   0.9089 B(  1-C , 22-H ) :   0.9154
B(  1-C , 23-H ) :   0.9338 B(  2-O ,  3-P ) :   1.1118 B(  3-P ,  4-S ) :   1.5767
B(  3-P ,  5-O ) :   1.1483 B(  3-P ,  8-S ) :   0.9553 B(  4-S ,  8-S ) :   0.1098
B(  5-O ,  6-C ) :   0.9079 B(  6-C ,  7-C ) :   1.1626 B(  6-C , 24-H ) :   0.9195
B(  6-C , 25-H ) :   0.9264 B(  7-C , 26-H ) :   0.9452 B(  7-C , 27-H ) :   0.9359
B(  7-C , 28-H ) :   0.9397 B(  8-S ,  9-C ) :   1.0077 B(  9-C , 10-S ) :   1.0061
B(  9-C , 29-H ) :   0.9003 B(  9-C , 30-H ) :   0.8812 B( 10-S , 11-P ) :   0.9401
B( 10-S , 12-S ) :   0.1126 B( 11-P , 12-S ) :   1.6569 B( 11-P , 13-O ) :   1.0982
B( 11-P , 16-O ) :   1.0713 B( 13-O , 14-C ) :   0.9050 B( 14-C , 15-C ) :   1.1682
B( 14-C , 31-H ) :   0.9282 B( 14-C , 32-H ) :   0.9356 B( 15-C , 33-H ) :   0.9334
B( 15-C , 34-H ) :   0.9354 B( 15-C , 35-H ) :   0.9452 B( 16-O , 17-C ) :   0.9128
B( 17-C , 18-C ) :   1.1629 B( 17-C , 36-H ) :   0.9314 B( 17-C , 37-H ) :   0.9084
B( 18-C , 38-H ) :   0.9440 B( 18-C , 39-H ) :   0.9387 B( 18-C , 40-H ) :   0.9293

Dispersion correction           -0.067106408
FINAL SINGLE POINT ENERGY     -2929.516703770255

DIPOLE MOMENT
-------------

Method             : SCF
Type of density    : Electron Density
Multiplicity       :   1
Irrep              :   0
Energy             : -2929.6343696593894492 Eh
Relativity type    :
Basis              : AO
                                X                 Y                 Z
Electronic contribution:      2.152130058       4.044780331       4.911678704
Nuclear contribution   :     -2.859328317      -3.694058249      -5.006873585
                        -----------------------------------------
Total Dipole Moment    :     -0.707198258       0.350722082      -0.095194881
                        -----------------------------------------
Magnitude (a.u.)       :      0.795108433
Magnitude (Debye)      :      2.021005026

Rotational constants in cm-1:             0.012516             0.005328             0.004697
Rotational constants in MHz :           375.208972           159.727668           140.824755

                             ****ORCA TERMINATED NORMALLY****
TOTAL RUN TIME: 0 days 0 hours 0 minutes 21 seconds 62 msec
