                         Program Version 6.0.0  -   RELEASE  -
|  1> ! pbe def2-sv(p) def2/J RI DEFGRID1 loosescf d4 GCP(DFT/SV(P)) printgap
|  2> %output
|  3>     printlevel normal
|  4> end
|  5> * xyz 0 1
|  6> C 4.3023421617 -2.8886407099 -1.4267222652
|  7> C 3.116356573 -2.3015135643 -0.6913495857
|  8> O 3.3718818007 -0.8840220218 -0.5057285571
|  9> P 2.24834009 0.1517407778 -0.1298878376
| 10> S 2.9200896028 1.9727514207 0.0636102077
| 11> O 1.5987472786 -0.4927471526 1.1767049153
| 12> C 1.0940822556 0.2528770248 2.2989019685
| 13> C 1.8787899509 -0.1218517067 3.5403508622
| 14> S 0.8099668022 -0.1661913297 -1.6873147954
| 15> C 0.0500326931 1.4707008606 -1.6284399502
| 16> S -0.8455898414 1.7871399172 -0.087300215
| 17> P -2.2404014994 0.1985226846 -0.2871499134
| 18> S -2.8867202416 -0.1671608234 -2.0925304066
| 19> O -3.4309174899 0.5725706949 0.6859118246
| 20> C -3.3306815614 0.6550815075 2.1291241715
| 21> C -2.9765173692 2.0567525261 2.5824739631
| 22> O -1.4409199175 -0.9824132348 0.4414188218
| 23> C -1.4807388401 -2.3445384087 -0.0213867696
| 24> C -2.7755064683 -3.0190465251 0.3832094931
| 25> H 4.4080368081 -2.4188835813 -2.4004757215
| 26> H 5.212359311 -2.7213028854 -0.8578029829
| 27> H 4.1486993971 -3.95494636 -1.5570937237
| 28> H 2.9903486217 -2.7502964755 0.2956766295
| 29> H 2.1929428402 -2.4157281886 -1.2662295224
| 30> H 1.1835249191 1.3237139386 2.0895477701
| 31> H 0.0389828859 -0.0127096143 2.3938393394
| 32> H 1.817418696 -1.1917870974 3.7171537364
| 33> H 2.9224848641 0.1573699658 3.4162665611
| 34> H 1.4679789342 0.4090176379 4.3929303531
| 35> H -0.6428023625 1.518369742 -2.4679883203
| 36> H 0.8209942705 2.2378348429 -1.6989855532
| 37> H -4.3253863496 0.3686304118 2.4748474683
| 38> H -2.5941451952 -0.0736084797 2.4749320612
| 39> H -1.9809012526 2.3339447588 2.2412697715
| 40> H -3.6909024448 2.7696406682 2.1802130942
| 41> H -3.0038615443 2.0958015715 3.6669622609
| 42> H -1.3638551577 -2.3488979848 -1.1096144274
| 43> H -0.6115390754 -2.811342066 0.4449580965
| 44> H -2.7673762441 -4.0485493518 0.03982025
| 45> H -2.8953656718 -3.0002188373 1.4632336835
| 46> H -3.6161718774 -2.4998032948 -0.0763693449
| 47> *
| 48>
| 49>                          ****END OF INPUT****

CARTESIAN COORDINATES (ANGSTROEM)
---------------------------------
  C      4.302342   -2.888641   -1.426722
  C      3.116357   -2.301514   -0.691350
  O      3.371882   -0.884022   -0.505729
  P      2.248340    0.151741   -0.129888
  S      2.920090    1.972751    0.063610
  O      1.598747   -0.492747    1.176705
  C      1.094082    0.252877    2.298902
  C      1.878790   -0.121852    3.540351
  S      0.809967   -0.166191   -1.687315
  C      0.050033    1.470701   -1.628440
  S     -0.845590    1.787140   -0.087300
  P     -2.240401    0.198523   -0.287150
  S     -2.886720   -0.167161   -2.092530
  O     -3.430917    0.572571    0.685912
  C     -3.330682    0.655082    2.129124
  C     -2.976517    2.056753    2.582474
  O     -1.440920   -0.982413    0.441419
  C     -1.480739   -2.344538   -0.021387
  C     -2.775506   -3.019047    0.383209
  H      4.408037   -2.418884   -2.400476
  H      5.212359   -2.721303   -0.857803
  H      4.148699   -3.954946   -1.557094
  H      2.990349   -2.750296    0.295677
  H      2.192943   -2.415728   -1.266230
  H      1.183525    1.323714    2.089548
  H      0.038983   -0.012710    2.393839
  H      1.817419   -1.191787    3.717154
  H      2.922485    0.157370    3.416267
  H      1.467979    0.409018    4.392930
  H     -0.642802    1.518370   -2.467988
  H      0.820994    2.237835   -1.698986
  H     -4.325386    0.368630    2.474847
  H     -2.594145   -0.073608    2.474932
  H     -1.980901    2.333945    2.241270
  H     -3.690902    2.769641    2.180213
  H     -3.003862    2.095802    3.666962
  H     -1.363855   -2.348898   -1.109614
  H     -0.611539   -2.811342    0.444958
  H     -2.767376   -4.048549    0.039820
  H     -2.895366   -3.000219    1.463234
  H     -3.616172   -2.499803   -0.076369

 Total Charge           Charge          ....    0
 Multiplicity           Mult            ....    1
 Number of Electrons    NEL             ....  202
 Basis Dimension        Dim             ....  334

ORBITAL ENERGIES
----------------

  NO   OCC          E(Eh)            E(eV)
   0   2.0000     -88.043162     -2395.7762
   1   2.0000     -88.039425     -2395.6745
   2   2.0000     -87.988772     -2394.2962
   3   2.0000     -87.988167     -2394.2797
   4   2.0000     -76.429097     -2079.7415
   5   2.0000     -76.426509     -2079.6710
   6   2.0000     -18.798169      -511.5242
   7   2.0000     -18.795494      -511.4514
   8   2.0000     -18.793341      -511.3928
   9   2.0000     -18.789767      -511.2956
  10   2.0000      -9.964830      -271.1568
  11   2.0000      -9.963803      -271.1289
  12   2.0000      -9.953428      -270.8466
  13   2.0000      -9.952913      -270.8325
  14   2.0000      -9.948476      -270.7118
  15   2.0000      -9.895351      -269.2662
  16   2.0000      -9.893529      -269.2166
  17   2.0000      -9.887763      -269.0597
  18   2.0000      -9.885779      -269.0057
  19   2.0000      -7.687794      -209.1955
  20   2.0000      -7.684089      -209.0947
  21   2.0000      -7.634030      -207.7325
  22   2.0000      -7.633418      -207.7159
  23   2.0000      -6.426618      -174.8772
  24   2.0000      -6.424135      -174.8096
  25   2.0000      -5.715629      -155.5302
  26   2.0000      -5.712475      -155.4443
  27   2.0000      -5.711958      -155.4303
  28   2.0000      -5.708695      -155.3415
  29   2.0000      -5.704684      -155.2323
  30   2.0000      -5.701029      -155.1329
  31   2.0000      -5.663083      -154.1003
  32   2.0000      -5.662388      -154.0814
  33   2.0000      -5.654546      -153.8680
  34   2.0000      -5.654107      -153.8561
  35   2.0000      -5.653954      -153.8519
  36   2.0000      -5.653552      -153.8410
  37   2.0000      -4.649602      -126.5221
  38   2.0000      -4.647958      -126.4774
  39   2.0000      -4.647138      -126.4551
  40   2.0000      -4.646942      -126.4497
  41   2.0000      -4.645687      -126.4156
  42   2.0000      -4.644585      -126.3856
  43   2.0000      -0.989176       -26.9168
  44   2.0000      -0.987899       -26.8821
  45   2.0000      -0.947516       -25.7832
  46   2.0000      -0.943963       -25.6865
  47   2.0000      -0.764903       -20.8141
  48   2.0000      -0.726047       -19.7567
  49   2.0000      -0.716374       -19.4935
  50   2.0000      -0.696154       -18.9433
  51   2.0000      -0.692061       -18.8319
  52   2.0000      -0.674401       -18.3514
  53   2.0000      -0.652621       -17.7587
  54   2.0000      -0.640780       -17.4365
  55   2.0000      -0.596745       -16.2382
  56   2.0000      -0.586416       -15.9572
  57   2.0000      -0.584387       -15.9020
  58   2.0000      -0.576300       -15.6819
  59   2.0000      -0.563945       -15.3457
  60   2.0000      -0.510795       -13.8994
  61   2.0000      -0.502000       -13.6601
  62   2.0000      -0.485494       -13.2110
  63   2.0000      -0.481953       -13.1146
  64   2.0000      -0.459562       -12.5053
  65   2.0000      -0.452241       -12.3061
  66   2.0000      -0.443687       -12.0733
  67   2.0000      -0.439880       -11.9698
  68   2.0000      -0.430986       -11.7277
  69   2.0000      -0.415140       -11.2965
  70   2.0000      -0.404142       -10.9973
  71   2.0000      -0.401144       -10.9157
  72   2.0000      -0.393931       -10.7194
  73   2.0000      -0.383678       -10.4404
  74   2.0000      -0.380169       -10.3449
  75   2.0000      -0.378929       -10.3112
  76   2.0000      -0.371045       -10.0966
  77   2.0000      -0.363355        -9.8874
  78   2.0000      -0.361040        -9.8244
  79   2.0000      -0.359379        -9.7792
  80   2.0000      -0.354359        -9.6426
  81   2.0000      -0.350368        -9.5340
  82   2.0000      -0.346417        -9.4265
  83   2.0000      -0.341446        -9.2912
  84   2.0000      -0.335550        -9.1308
  85   2.0000      -0.321654        -8.7527
  86   2.0000      -0.318815        -8.6754
  87   2.0000      -0.310742        -8.4557
  88   2.0000      -0.304286        -8.2800
  89   2.0000      -0.291230        -7.9248
  90   2.0000      -0.285991        -7.7822
  91   2.0000      -0.276489        -7.5236
  92   2.0000      -0.273528        -7.4431
  93   2.0000      -0.271327        -7.3832
  94   2.0000      -0.256574        -6.9817
  95   2.0000      -0.232374        -6.3232
  96   2.0000      -0.215538        -5.8651
  97   2.0000      -0.213868        -5.8196
  98   2.0000      -0.208723        -5.6796
  99   2.0000      -0.201548        -5.4844
 100   2.0000      -0.199063        -5.4168
 101   0.0000      -0.047425        -1.2905
 102   0.0000      -0.025222        -0.6863
 103   0.0000      -0.003409        -0.0928
 104   0.0000      -0.001216        -0.0331
 105   0.0000       0.003263         0.0888

MULLIKEN ATOMIC CHARGES
-----------------------
   0 C :   -0.275534
   1 C :   -0.029348
   2 O :   -0.363827
   3 P :    0.623860
   4 S :   -0.310456
   5 O :   -0.388809
   6 C :   -0.031931
   7 C :   -0.273105
   8 S :   -0.120514
   9 C :   -0.331247
  10 S :   -0.115087
  11 P :    0.632137
  12 S :   -0.310896
  13 O :   -0.364599
  14 C :   -0.035728
  15 C :   -0.311230
  16 O :   -0.386750
  17 C :   -0.007985
  18 C :   -0.304388
  19 H :    0.124670
  20 H :    0.124412
  21 H :    0.111630
  22 H :    0.109391
  23 H :    0.116796
  24 H :    0.115605
  25 H :    0.106657
  26 H :    0.107456
  27 H :    0.117462
  28 H :    0.105695
  29 H :    0.192758
  30 H :    0.192939
  31 H :    0.113191
  32 H :    0.121071
  33 H :    0.139604
  34 H :    0.128102
  35 H :    0.113674
  36 H :    0.116483
  37 H :    0.099217
  38 H :    0.112164
  39 H :    0.108425
  40 H :    0.128033
Sum of atomic charges:    0.0000000

LOEWDIN ATOMIC CHARGES
----------------------
   0 C :   -0.349138
   1 C :   -0.113230
   2 O :   -0.241289
   3 P :    0.571473
   4 S :   -0.303936
   5 O :   -0.249726
   6 C :   -0.128079
   7 C :   -0.354273
   8 S :    0.068948
   9 C :   -0.479232
  10 S :    0.088246
  11 P :    0.573108
  12 S :   -0.305564
  13 O :   -0.241281
  14 C :   -0.115771
  15 C :   -0.363346
  16 O :   -0.248498
  17 C :   -0.123600
  18 C :   -0.364366
  19 H :    0.131757
  20 H :    0.131437
  21 H :    0.130863
  22 H :    0.114962
  23 H :    0.106173
  24 H :    0.103283
  25 H :    0.104723
  26 H :    0.121785
  27 H :    0.127422
  28 H :    0.128043
  29 H :    0.132633
  30 H :    0.131226
  31 H :    0.123378
  32 H :    0.108837
  33 H :    0.118513
  34 H :    0.133132
  35 H :    0.132204
  36 H :    0.107878
  37 H :    0.114023
  38 H :    0.130907
  39 H :    0.120793
  40 H :    0.125583

  Mayer bond orders larger than 0.100000
B(  0-C ,  1-C ) :   1.1625 B(  0-C , 19-H ) :   0.9494 B(  0-C , 20-H ) :   0.9493
B(  0-C , 21-H ) :   0.9403 B(  1-C ,  2-O ) :   0.8958 B(  1-C , 22-H ) :   0.9288
B(  1-C , 23-H ) :   0.9146 B(  2-O ,  3-P ) :   1.1421 B(  3-P ,  4-S ) :   1.6443
B(  3-P ,  5-O ) :   1.0776 B(  3-P ,  8-S ) :   0.9312 B(  4-S ,  8-S ) :   0.1038
B(  5-O ,  6-C ) :   0.9025 B(  6-C ,  7-C ) :   1.1566 B(  6-C , 24-H ) :   0.9003
B(  6-C , 25-H ) :   0.9194 B(  7-C , 26-H ) :   0.9499 B(  7-C , 27-H ) :   0.9475
B(  7-C , 28-H ) :   0.9417 B(  8-S ,  9-C ) :   1.0191 B(  9-C , 10-S ) :   0.9978
B(  9-C , 29-H ) :   0.8841 B(  9-C , 30-H ) :   0.8794 B( 10-S , 11-P ) :   0.9512
B( 10-S , 12-S ) :   0.1020 B( 11-P , 12-S ) :   1.6335 B( 11-P , 13-O ) :   1.1301
B( 11-P , 16-O ) :   1.0587 B( 13-O , 14-C ) :   0.9043 B( 14-C , 15-C ) :   1.1703
B( 14-C , 31-H ) :   0.9326 B( 14-C , 32-H ) :   0.9115 B( 15-C , 33-H ) :   0.9296
B( 15-C , 34-H ) :   0.9454 B( 15-C , 35-H ) :   0.9376 B( 16-O , 17-C ) :   0.8994
B( 17-C , 18-C ) :   1.1617 B( 17-C , 36-H ) :   0.9096 B( 17-C , 37-H ) :   0.9317
B( 18-C , 38-H ) :   0.9407 B( 18-C , 39-H ) :   0.9470 B( 18-C , 40-H ) :   0.9360

Dispersion correction           -0.066276666
FINAL SINGLE POINT ENERGY     -2929.519248302226

DIPOLE MOMENT
-------------

Method             : SCF
Type of density    : Electron Density
Multiplicity       :   1
Irrep              :   0
Energy             : -2929.6387532849985291 Eh
Relativity type    :
Basis              : AO
                                X                 Y                 Z
Electronic contribution:      0.073071860      14.964584643     -17.626573344
Nuclear contribution   :     -0.276260852     -16.419195711      19.138723813
                        -----------------------------------------
Total Dipole Moment    :     -0.203188992      -1.454611069       1.512150469
                        -----------------------------------------
Magnitude (a.u.)       :      2.108027080
Magnitude (Debye)      :      5.358179015

Rotational constants in cm-1:             0.010669             0.005711             0.005223
Rotational constants in MHz :           319.846099           171.216277           156.587127

                             ****ORCA TERMINATED NORMALLY****
TOTAL RUN TIME: 0 days 0 hours 0 minutes 22 seconds 72 msec
