                         Program Version 6.0.1  -  RELEASE   -
|  1> ! pbe def2-sv(p) def2/J RI DEFGRID1 loosescf d4 GCP(DFT/SV(P)) printgap
|  2> %output
|  3>     printlevel normal
|  4> end
|  5> * xyz 0 1
|  6> C 5.134717825 -2.123504406 -0.4422862798
|  7> C 3.8452473896 -2.771033504 -0.921173424
|  8> O 3.0325167376 -1.8241329484 -1.6433029663
|  9> C 2.2154974121 -1.0502270219 -0.9674526696
| 10> O 2.0583549175 -1.0891492267 0.2368351569
| 11> C 1.4800519683 -0.0779604547 -1.8652696278
| 12> C 0.2800289165 0.4870610359 -1.1205880336
| 13> H -0.1592441002 1.3330274316 -1.6574272857
| 14> C 0.6566144924 0.958994782 0.272820802
| 15> O -0.0183404636 0.6988939507 1.2505709036
| 16> O 1.6938187755 1.7529494661 0.2537148882
| 17> C 2.1654433778 2.3032265174 1.5022038582
| 18> C 3.3009017611 1.456841195 2.0531079536
| 19> S -1.0154009105 -0.7856985095 -0.9318705957
| 20> P -2.3717672958 0.2917977634 0.2922125444
| 21> S -2.3996087509 2.2407851582 0.1094161984
| 22> O -3.750744035 -0.3681180506 -0.2236319953
| 23> C -4.2621767018 -0.10452062 -1.5322060376
| 24> O -2.4277032768 -0.2494844861 1.7770738051
| 25> C -2.1942852144 -1.6294929824 2.1081294621
| 26> H 4.9153315149 -1.3410499835 0.2808128156
| 27> H 5.7584356268 -2.8739996244 0.0318644258
| 28> H 5.6704386587 -1.6908255661 -1.2825036494
| 29> H 3.2664442343 -3.1566491906 -0.0772270677
| 30> H 4.04179333 -3.5643453807 -1.6420663039
| 31> H 1.1746050221 -0.5819151192 -2.7813523947
| 32> H 2.1650775256 0.7335992821 -2.1197821454
| 33> H 2.4986148503 3.3106663129 1.2505004562
| 34> H 1.3261897241 2.3446068809 2.2019002261
| 35> H 4.1421653817 1.4651265858 1.3656210085
| 36> H 3.615186904 1.8556225333 3.0117151069
| 37> H 2.9628728346 0.4308549496 2.1851088438
| 38> H -5.2836433946 -0.4758827971 -1.5281432796
| 39> H -3.6630631135 -0.6284047189 -2.2770277182
| 40> H -4.2474765732 0.9691226495 -1.7284013801
| 41> H -2.8035070303 -2.2783202116 1.4801592291
| 42> H -2.4783619264 -1.7216622015 3.1531490449
| 43> H -1.1354800405 -1.857219694 1.978926691
| 44> *
| 45>
| 46>                          ****END OF INPUT****

CARTESIAN COORDINATES (ANGSTROEM)
---------------------------------
  C      5.134718   -2.123504   -0.442286
  C      3.845247   -2.771034   -0.921173
  O      3.032517   -1.824133   -1.643303
  C      2.215497   -1.050227   -0.967453
  O      2.058355   -1.089149    0.236835
  C      1.480052   -0.077960   -1.865270
  C      0.280029    0.487061   -1.120588
  H     -0.159244    1.333027   -1.657427
  C      0.656614    0.958995    0.272821
  O     -0.018340    0.698894    1.250571
  O      1.693819    1.752949    0.253715
  C      2.165443    2.303227    1.502204
  C      3.300902    1.456841    2.053108
  S     -1.015401   -0.785699   -0.931871
  P     -2.371767    0.291798    0.292213
  S     -2.399609    2.240785    0.109416
  O     -3.750744   -0.368118   -0.223632
  C     -4.262177   -0.104521   -1.532206
  O     -2.427703   -0.249484    1.777074
  C     -2.194285   -1.629493    2.108129
  H      4.915332   -1.341050    0.280813
  H      5.758436   -2.874000    0.031864
  H      5.670439   -1.690826   -1.282504
  H      3.266444   -3.156649   -0.077227
  H      4.041793   -3.564345   -1.642066
  H      1.174605   -0.581915   -2.781352
  H      2.165078    0.733599   -2.119782
  H      2.498615    3.310666    1.250500
  H      1.326190    2.344607    2.201900
  H      4.142165    1.465127    1.365621
  H      3.615187    1.855623    3.011715
  H      2.962873    0.430855    2.185109
  H     -5.283643   -0.475883   -1.528143
  H     -3.663063   -0.628405   -2.277028
  H     -4.247477    0.969123   -1.728401
  H     -2.803507   -2.278320    1.480159
  H     -2.478362   -1.721662    3.153149
  H     -1.135480   -1.857220    1.978927

 Total Charge           Charge          ....    0
 Multiplicity           Mult            ....    1
 Number of Electrons    NEL             ....  174
 Basis Dimension        Dim             ....  316

ORBITAL ENERGIES
----------------

  NO   OCC          E(Eh)            E(eV)
   0   2.0000     -88.031681     -2395.4638
   1   2.0000     -87.963657     -2393.6128
   2   2.0000     -76.412368     -2079.2863
   3   2.0000     -18.818599      -512.0801
   4   2.0000     -18.806825      -511.7597
   5   2.0000     -18.773428      -510.8509
   6   2.0000     -18.770455      -510.7700
   7   2.0000     -18.757294      -510.4119
   8   2.0000     -18.735245      -509.8119
   9   2.0000     -10.026359      -272.8311
  10   2.0000     -10.014182      -272.4997
  11   2.0000      -9.960815      -271.0476
  12   2.0000      -9.946432      -270.6562
  13   2.0000      -9.944492      -270.6034
  14   2.0000      -9.934634      -270.3351
  15   2.0000      -9.927879      -270.1513
  16   2.0000      -9.924151      -270.0499
  17   2.0000      -9.898911      -269.3631
  18   2.0000      -9.885045      -268.9858
  19   2.0000      -7.676471      -208.8874
  20   2.0000      -7.609110      -207.0544
  21   2.0000      -6.408096      -174.3732
  22   2.0000      -5.704302      -155.2219
  23   2.0000      -5.701130      -155.1356
  24   2.0000      -5.693397      -154.9252
  25   2.0000      -5.638349      -153.4273
  26   2.0000      -5.629818      -153.1951
  27   2.0000      -5.628775      -153.1668
  28   2.0000      -4.630726      -126.0085
  29   2.0000      -4.630338      -125.9979
  30   2.0000      -4.628441      -125.9463
  31   2.0000      -1.028093       -27.9758
  32   2.0000      -1.014505       -27.6061
  33   2.0000      -0.967034       -26.3143
  34   2.0000      -0.933838       -25.4110
  35   2.0000      -0.922472       -25.1017
  36   2.0000      -0.916173       -24.9303
  37   2.0000      -0.765872       -20.8404
  38   2.0000      -0.721567       -19.6348
  39   2.0000      -0.704309       -19.1652
  40   2.0000      -0.686811       -18.6891
  41   2.0000      -0.658026       -17.9058
  42   2.0000      -0.623977       -16.9793
  43   2.0000      -0.616713       -16.7816
  44   2.0000      -0.605051       -16.4643
  45   2.0000      -0.601635       -16.3713
  46   2.0000      -0.563836       -15.3427
  47   2.0000      -0.512718       -13.9518
  48   2.0000      -0.504229       -13.7208
  49   2.0000      -0.494837       -13.4652
  50   2.0000      -0.488342       -13.2885
  51   2.0000      -0.466258       -12.6875
  52   2.0000      -0.456962       -12.4346
  53   2.0000      -0.448885       -12.2148
  54   2.0000      -0.438710       -11.9379
  55   2.0000      -0.434013       -11.8101
  56   2.0000      -0.424176       -11.5424
  57   2.0000      -0.417432       -11.3589
  58   2.0000      -0.412112       -11.2141
  59   2.0000      -0.402317       -10.9476
  60   2.0000      -0.398078       -10.8322
  61   2.0000      -0.397149       -10.8070
  62   2.0000      -0.389105       -10.5881
  63   2.0000      -0.382878       -10.4186
  64   2.0000      -0.382254       -10.4017
  65   2.0000      -0.368185       -10.0188
  66   2.0000      -0.366876        -9.9832
  67   2.0000      -0.356951        -9.7131
  68   2.0000      -0.350000        -9.5240
  69   2.0000      -0.340704        -9.2710
  70   2.0000      -0.334624        -9.1056
  71   2.0000      -0.330882        -9.0038
  72   2.0000      -0.325595        -8.8599
  73   2.0000      -0.308858        -8.4044
  74   2.0000      -0.305589        -8.3155
  75   2.0000      -0.295826        -8.0498
  76   2.0000      -0.283144        -7.7047
  77   2.0000      -0.280423        -7.6307
  78   2.0000      -0.276571        -7.5259
  79   2.0000      -0.261762        -7.1229
  80   2.0000      -0.255503        -6.9526
  81   2.0000      -0.243018        -6.6128
  82   2.0000      -0.241472        -6.5708
  83   2.0000      -0.226194        -6.1551
  84   2.0000      -0.213608        -5.8126
  85   2.0000      -0.186442        -5.0734
  86   2.0000      -0.177840        -4.8393
  87   0.0000      -0.042270        -1.1502
  88   0.0000      -0.028082        -0.7642
  89   0.0000      -0.018806        -0.5117
  90   0.0000       0.012204         0.3321
  91   0.0000       0.029121         0.7924

MULLIKEN ATOMIC CHARGES
-----------------------
   0 C :   -0.313579
   1 C :   -0.013567
   2 O :   -0.220876
   3 C :    0.119432
   4 O :   -0.194527
   5 C :   -0.100798
   6 C :   -0.279307
   7 H :    0.147006
   8 C :    0.229850
   9 O :   -0.192331
  10 O :   -0.236565
  11 C :   -0.014719
  12 C :   -0.313869
  13 S :   -0.106929
  14 P :    0.616575
  15 S :   -0.339807
  16 O :   -0.392527
  17 C :   -0.096576
  18 O :   -0.353200
  19 C :   -0.098555
  20 H :    0.131649
  21 H :    0.118521
  22 H :    0.117494
  23 H :    0.115143
  24 H :    0.108930
  25 H :    0.130648
  26 H :    0.140537
  27 H :    0.104326
  28 H :    0.123815
  29 H :    0.108915
  30 H :    0.112059
  31 H :    0.143144
  32 H :    0.117744
  33 H :    0.104248
  34 H :    0.111290
  35 H :    0.111116
  36 H :    0.125560
  37 H :    0.129731
Sum of atomic charges:    0.0000000

LOEWDIN ATOMIC CHARGES
----------------------
   0 C :   -0.356353
   1 C :   -0.108570
   2 O :   -0.050509
   3 C :    0.039071
   4 O :   -0.147008
   5 C :   -0.251741
   6 C :   -0.263224
   7 H :    0.144048
   8 C :    0.014837
   9 O :   -0.160404
  10 O :   -0.049161
  11 C :   -0.105055
  12 C :   -0.358277
  13 S :    0.088926
  14 P :    0.590640
  15 S :   -0.334598
  16 O :   -0.271588
  17 C :   -0.221953
  18 O :   -0.232227
  19 C :   -0.208002
  20 H :    0.130479
  21 H :    0.133669
  22 H :    0.126619
  23 H :    0.122845
  24 H :    0.120945
  25 H :    0.144248
  26 H :    0.156096
  27 H :    0.118077
  28 H :    0.126967
  29 H :    0.120076
  30 H :    0.130036
  31 H :    0.134742
  32 H :    0.118422
  33 H :    0.101937
  34 H :    0.107115
  35 H :    0.108467
  36 H :    0.123873
  37 H :    0.116533

  Mayer bond orders larger than 0.100000
B(  0-C ,  1-C ) :   1.1739 B(  0-C , 20-H ) :   0.9438 B(  0-C , 21-H ) :   0.9430
B(  0-C , 22-H ) :   0.9483 B(  1-C ,  2-O ) :   0.9079 B(  1-C , 23-H ) :   0.9149
B(  1-C , 24-H ) :   0.9368 B(  2-O ,  3-C ) :   1.2584 B(  3-C ,  4-O ) :   1.9727
B(  3-C ,  5-C ) :   0.9918 B(  5-C ,  6-C ) :   1.0580 B(  5-C , 25-H ) :   0.8995
B(  5-C , 26-H ) :   0.8756 B(  6-C ,  7-H ) :   0.8547 B(  6-C ,  8-C ) :   0.8768
B(  6-C , 13-S ) :   1.0347 B(  8-C ,  9-O ) :   1.9709 B(  8-C , 10-O ) :   1.2474
B(  9-O , 14-P ) :   0.1073 B( 10-O , 11-C ) :   0.9070 B( 11-C , 12-C ) :   1.1756
B( 11-C , 27-H ) :   0.9375 B( 11-C , 28-H ) :   0.9104 B( 12-C , 29-H ) :   0.9477
B( 12-C , 30-H ) :   0.9424 B( 12-C , 31-H ) :   0.9377 B( 13-S , 14-P ) :   0.9368
B( 13-S , 15-S ) :   0.1098 B( 14-P , 15-S ) :   1.6130 B( 14-P , 16-O ) :   1.0497
B( 14-P , 18-O ) :   1.1314 B( 16-O , 17-C ) :   0.9446 B( 17-C , 32-H ) :   0.9592
B( 17-C , 33-H ) :   0.9455 B( 17-C , 34-H ) :   0.9320 B( 18-O , 19-C ) :   0.9241
B( 19-C , 35-H ) :   0.9453 B( 19-C , 36-H ) :   0.9596 B( 19-C , 37-H ) :   0.9430

Dispersion correction           -0.052140550
FINAL SINGLE POINT ENERGY     -1979.013908435365

DIPOLE MOMENT
-------------

Method             : SCF
Type of density    : Electron Density
Multiplicity       :   1
Irrep              :   0
Energy             : -1979.1449180838258144 Eh
Relativity type    :
Basis              : AO
                                X                 Y                 Z
Electronic contribution:    -20.645097149       6.309205022      -2.264858396
Nuclear contribution   :     22.647349579      -7.568684516       1.518872152
                        -----------------------------------------
Total Dipole Moment    :      2.002252430      -1.259479494      -0.745986244
                        -----------------------------------------
Magnitude (a.u.)       :      2.480282013
Magnitude (Debye)      :      6.304375860

Rotational constants in cm-1:             0.015811             0.006266             0.005489
Rotational constants in MHz :           473.991075           187.840586           164.567859

                             ****ORCA TERMINATED NORMALLY****
TOTAL RUN TIME: 0 days 0 hours 0 minutes 34 seconds 10 msec
