                         Program Version 6.0.1  -  RELEASE   -
|  1> ! r2scan-3c def2/J RI DEFGRID2 scfconv6 printgap
|  2> %output
|  3>     printlevel normal
|  4> end
|  5> * xyz 0 1
|  6> C 4.8007652964 -1.4543600016 0.8201441425
|  7> C 4.367495581 -2.2643005696 -0.3910868048
|  8> O 2.9344426981 -2.2199832675 -0.5286055133
|  9> C 2.4044635042 -1.3209260455 -1.3296254284
| 10> O 3.0308839365 -0.5706922755 -2.0478432832
| 11> C 0.886731197 -1.3756500957 -1.297325657
| 12> C 0.3554756462 0.051918217 -1.3238797797
| 13> H 0.7549044627 0.5612906772 -2.2097674522
| 14> C 0.8530180022 0.8324052443 -0.1215914632
| 15> O 1.9019291192 0.577837205 0.4221474585
| 16> O 0.0537693202 1.8321144868 0.1973344662
| 17> C 0.4585901523 2.7048840502 1.2716472666
| 18> C 1.3278360783 3.8337035133 0.7456657504
| 19> S -1.4481104601 0.1396969344 -1.5133983605
| 20> P -2.0869104156 -0.0027125973 0.5116011616
| 21> S -0.8781559721 -0.8514449784 1.8000399696
| 22> O -2.5779749647 1.4215196034 0.9843536133
| 23> C -3.5193756168 2.2015202521 0.2177433726
| 24> O -3.4942733264 -0.7450908253 0.34319313
| 25> C -3.5700958162 -2.1248963222 -0.0328208656
| 26> H 4.4694530302 -0.4238245756 0.7098538312
| 27> H 4.3531514934 -1.8628130034 1.7218792569
| 28> H 5.8818515152 -1.4786291668 0.9071309368
| 29> H 4.6066034883 -3.3216274671 -0.2719460976
| 30> H 4.8164154733 -1.8695170459 -1.3071503477
| 31> H 0.573411821 -1.9034582847 -0.395646492
| 32> H 0.5369294392 -1.912271677 -2.1804241628
| 33> H -0.4782459826 3.0731594808 1.6905605456
| 34> H 0.9916134414 2.1058243644 2.0157999131
| 35> H 0.8007487331 4.3835025437 -0.0290992764
| 36> H 1.5698107956 4.5053158257 1.5625065967
| 37> H 2.2509766328 3.4327621164 0.3325680442
| 38> H -3.6279000152 3.1341641694 0.7649834532
| 39> H -4.4703750757 1.6769147049 0.1548084721
| 40> H -3.1230865129 2.3821064627 -0.7812604485
| 41> H -2.8978310065 -2.7205079524 0.5866099977
| 42> H -3.3082948081 -2.236528598 -1.0846711904
| 43> H -4.6026245993 -2.4181593964 0.1387023064
| 44> *
| 45>
| 46>                          ****END OF INPUT****

CARTESIAN COORDINATES (ANGSTROEM)
---------------------------------
  C      4.800765   -1.454360    0.820144
  C      4.367496   -2.264301   -0.391087
  O      2.934443   -2.219983   -0.528606
  C      2.404464   -1.320926   -1.329625
  O      3.030884   -0.570692   -2.047843
  C      0.886731   -1.375650   -1.297326
  C      0.355476    0.051918   -1.323880
  H      0.754904    0.561291   -2.209767
  C      0.853018    0.832405   -0.121591
  O      1.901929    0.577837    0.422147
  O      0.053769    1.832114    0.197334
  C      0.458590    2.704884    1.271647
  C      1.327836    3.833704    0.745666
  S     -1.448110    0.139697   -1.513398
  P     -2.086910   -0.002713    0.511601
  S     -0.878156   -0.851445    1.800040
  O     -2.577975    1.421520    0.984354
  C     -3.519376    2.201520    0.217743
  O     -3.494273   -0.745091    0.343193
  C     -3.570096   -2.124896   -0.032821
  H      4.469453   -0.423825    0.709854
  H      4.353151   -1.862813    1.721879
  H      5.881852   -1.478629    0.907131
  H      4.606603   -3.321627   -0.271946
  H      4.816415   -1.869517   -1.307150
  H      0.573412   -1.903458   -0.395646
  H      0.536929   -1.912272   -2.180424
  H     -0.478246    3.073159    1.690561
  H      0.991613    2.105824    2.015800
  H      0.800749    4.383503   -0.029099
  H      1.569811    4.505316    1.562507
  H      2.250977    3.432762    0.332568
  H     -3.627900    3.134164    0.764983
  H     -4.470375    1.676915    0.154808
  H     -3.123087    2.382106   -0.781260
  H     -2.897831   -2.720508    0.586610
  H     -3.308295   -2.236529   -1.084671
  H     -4.602625   -2.418159    0.138702

 Total Charge           Charge          ....    0
 Multiplicity           Mult            ....    1
 Number of Electrons    NEL             ....  174
 Basis Dimension        Dim             ....  510

ORBITAL ENERGIES
----------------

  NO   OCC          E(Eh)            E(eV)
   0   2.0000     -88.579526     -2410.3714
   1   2.0000     -88.522325     -2408.8149
   2   2.0000     -76.918484     -2093.0583
   3   2.0000     -19.004036      -517.1261
   4   2.0000     -18.998695      -516.9808
   5   2.0000     -18.996174      -516.9122
   6   2.0000     -18.989376      -516.7272
   7   2.0000     -18.938107      -515.3321
   8   2.0000     -18.919700      -514.8312
   9   2.0000     -10.166028      -276.6317
  10   2.0000     -10.149281      -276.1760
  11   2.0000     -10.101894      -274.8865
  12   2.0000     -10.098130      -274.7841
  13   2.0000     -10.095905      -274.7235
  14   2.0000     -10.091435      -274.6019
  15   2.0000     -10.081543      -274.3327
  16   2.0000     -10.048459      -273.4325
  17   2.0000     -10.029938      -272.9285
  18   2.0000     -10.015759      -272.5427
  19   2.0000      -7.873848      -214.2583
  20   2.0000      -7.816961      -212.7103
  21   2.0000      -6.596674      -179.5046
  22   2.0000      -5.820817      -158.3925
  23   2.0000      -5.817563      -158.3039
  24   2.0000      -5.811005      -158.1255
  25   2.0000      -5.764880      -156.8703
  26   2.0000      -5.757057      -156.6575
  27   2.0000      -5.756907      -156.6534
  28   2.0000      -4.742429      -129.0480
  29   2.0000      -4.741730      -129.0290
  30   2.0000      -4.740126      -128.9854
  31   2.0000      -1.082980       -29.4694
  32   2.0000      -1.065807       -29.0021
  33   2.0000      -1.055590       -28.7241
  34   2.0000      -1.013622       -27.5821
  35   2.0000      -0.989100       -26.9148
  36   2.0000      -0.970023       -26.3957
  37   2.0000      -0.810364       -22.0511
  38   2.0000      -0.748224       -20.3602
  39   2.0000      -0.741533       -20.1781
  40   2.0000      -0.731132       -19.8951
  41   2.0000      -0.695650       -18.9296
  42   2.0000      -0.681008       -18.5312
  43   2.0000      -0.663239       -18.0477
  44   2.0000      -0.650883       -17.7114
  45   2.0000      -0.622956       -16.9515
  46   2.0000      -0.592931       -16.1345
  47   2.0000      -0.545599       -14.8465
  48   2.0000      -0.528266       -14.3748
  49   2.0000      -0.516458       -14.0535
  50   2.0000      -0.502932       -13.6855
  51   2.0000      -0.499171       -13.5831
  52   2.0000      -0.477532       -12.9943
  53   2.0000      -0.460113       -12.5203
  54   2.0000      -0.457501       -12.4492
  55   2.0000      -0.450362       -12.2550
  56   2.0000      -0.445938       -12.1346
  57   2.0000      -0.437928       -11.9166
  58   2.0000      -0.437827       -11.9139
  59   2.0000      -0.433532       -11.7970
  60   2.0000      -0.423534       -11.5250
  61   2.0000      -0.416178       -11.3248
  62   2.0000      -0.409105       -11.1323
  63   2.0000      -0.399024       -10.8580
  64   2.0000      -0.385963       -10.5026
  65   2.0000      -0.381422       -10.3790
  66   2.0000      -0.367102        -9.9893
  67   2.0000      -0.363350        -9.8873
  68   2.0000      -0.359738        -9.7890
  69   2.0000      -0.352553        -9.5934
  70   2.0000      -0.342338        -9.3155
  71   2.0000      -0.341905        -9.3037
  72   2.0000      -0.331480        -9.0200
  73   2.0000      -0.328934        -8.9507
  74   2.0000      -0.327170        -8.9027
  75   2.0000      -0.318389        -8.6638
  76   2.0000      -0.312287        -8.4978
  77   2.0000      -0.297401        -8.0927
  78   2.0000      -0.292903        -7.9703
  79   2.0000      -0.283448        -7.7130
  80   2.0000      -0.277967        -7.5639
  81   2.0000      -0.261634        -7.1194
  82   2.0000      -0.257032        -6.9942
  83   2.0000      -0.238356        -6.4860
  84   2.0000      -0.227985        -6.2038
  85   2.0000      -0.220428        -5.9981
  86   2.0000      -0.217409        -5.9160
  87   0.0000      -0.044827        -1.2198
  88   0.0000      -0.030543        -0.8311
  89   0.0000      -0.002155        -0.0587
  90   0.0000       0.004610         0.1254
  91   0.0000       0.009941         0.2705

MULLIKEN ATOMIC CHARGES
-----------------------
   0 C :   -0.458781
   1 C :   -0.151924
   2 O :   -0.147678
   3 C :    0.340842
   4 O :   -0.413555
   5 C :   -0.426569
   6 C :    0.058874
   7 H :    0.219764
   8 C :    0.240983
   9 O :   -0.375553
  10 O :   -0.143971
  11 C :   -0.159485
  12 C :   -0.467697
  13 S :   -0.188472
  14 P :    0.759940
  15 S :   -0.418673
  16 O :   -0.307820
  17 C :   -0.292908
  18 O :   -0.357363
  19 C :   -0.298469
  20 H :    0.180254
  21 H :    0.150100
  22 H :    0.141509
  23 H :    0.144405
  24 H :    0.173425
  25 H :    0.212426
  26 H :    0.184291
  27 H :    0.161054
  28 H :    0.182415
  29 H :    0.151176
  30 H :    0.150269
  31 H :    0.172618
  32 H :    0.155705
  33 H :    0.169616
  34 H :    0.171936
  35 H :    0.175320
  36 H :    0.158829
  37 H :    0.153170
Sum of atomic charges:    0.0000000

LOEWDIN ATOMIC CHARGES
----------------------
   0 C :   -0.387628
   1 C :    0.030159
   2 O :   -0.575525
   3 C :    0.359190
   4 O :   -0.443722
   5 C :   -0.212044
   6 C :   -0.197778
   7 H :    0.217391
   8 C :    0.344566
   9 O :   -0.411029
  10 O :   -0.621897
  11 C :    0.031663
  12 C :   -0.386931
  13 S :    0.196483
  14 P :    0.400664
  15 S :   -0.050271
  16 O :   -0.652157
  17 C :   -0.051448
  18 O :   -0.684198
  19 C :   -0.059076
  20 H :    0.172105
  21 H :    0.158545
  22 H :    0.155556
  23 H :    0.175850
  24 H :    0.190242
  25 H :    0.200488
  26 H :    0.184987
  27 H :    0.183939
  28 H :    0.195400
  29 H :    0.157017
  30 H :    0.160189
  31 H :    0.166146
  32 H :    0.179628
  33 H :    0.174891
  34 H :    0.174584
  35 H :    0.176853
  36 H :    0.169279
  37 H :    0.177890

  Mayer bond orders larger than 0.100000
B(  0-C ,  1-C ) :   0.9459 B(  0-C , 20-H ) :   0.9658 B(  0-C , 21-H ) :   0.9697
B(  0-C , 22-H ) :   0.9691 B(  1-C ,  2-O ) :   0.7966 B(  1-C , 23-H ) :   0.9615
B(  1-C , 24-H ) :   0.9708 B(  2-O ,  3-C ) :   1.1135 B(  3-C ,  4-O ) :   1.8661
B(  3-C ,  5-C ) :   0.8625 B(  4-O ,  6-C ) :   0.1025 B(  5-C ,  6-C ) :   0.8814
B(  5-C , 25-H ) :   0.9787 B(  5-C , 26-H ) :   0.9517 B(  6-C ,  7-H ) :   0.8819
B(  6-C ,  8-C ) :   0.9744 B(  6-C , 13-S ) :   0.8298 B(  8-C ,  9-O ) :   1.7959
B(  8-C , 10-O ) :   1.0920 B( 10-O , 11-C ) :   0.7899 B( 11-C , 12-C ) :   0.9278
B( 11-C , 27-H ) :   0.9568 B( 11-C , 28-H ) :   0.9657 B( 12-C , 29-H ) :   0.9754
B( 12-C , 30-H ) :   0.9663 B( 12-C , 31-H ) :   0.9713 B( 13-S , 14-P ) :   1.0168
B( 14-P , 15-S ) :   1.7903 B( 14-P , 16-O ) :   1.1421 B( 14-P , 18-O ) :   1.0232
B( 16-O , 17-C ) :   0.7974 B( 17-C , 32-H ) :   0.9648 B( 17-C , 33-H ) :   0.9608
B( 17-C , 34-H ) :   0.9553 B( 18-O , 19-C ) :   0.8319 B( 19-C , 35-H ) :   0.9590
B( 19-C , 36-H ) :   0.9561 B( 19-C , 37-H ) :   0.9672

Dispersion correction           -0.017754835
FINAL SINGLE POINT ENERGY     -1981.455108768999

DIPOLE MOMENT
-------------

Method             : SCF
Type of density    : Electron Density
Multiplicity       :   1
Irrep              :   0
Energy             : -1981.4747570107483625 Eh
Relativity type    :
Basis              : AO
                                X                 Y                 Z
Electronic contribution:    -11.667476378      -4.379452738      -2.025210553
Nuclear contribution   :     10.494415935       4.819308082       1.706920569
                        -----------------------------------------
Total Dipole Moment    :     -1.173060443       0.439855344      -0.318289984
                        -----------------------------------------
Magnitude (a.u.)       :      1.292614420
Magnitude (Debye)      :      3.285564748

Rotational constants in cm-1:             0.014637             0.006832             0.005789
Rotational constants in MHz :           438.810039           204.814477           173.539731

                             ****ORCA TERMINATED NORMALLY****
TOTAL RUN TIME: 0 days 0 hours 1 minutes 38 seconds 410 msec
