                         Program Version 6.0.1  -  RELEASE   -
|  1> ! r2scan-3c def2/J RI DEFGRID2 scfconv6 printgap
|  2> %output
|  3>     printlevel normal
|  4> end
|  5> %cpcm
|  6>     smd true
|  7>     smdsolvent "water"
|  8> end
|  9> * xyz 0 1
| 10> C 4.8007652964 -1.4543600016 0.8201441425
| 11> C 4.367495581 -2.2643005696 -0.3910868048
| 12> O 2.9344426981 -2.2199832675 -0.5286055133
| 13> C 2.4044635042 -1.3209260455 -1.3296254284
| 14> O 3.0308839365 -0.5706922755 -2.0478432832
| 15> C 0.886731197 -1.3756500957 -1.297325657
| 16> C 0.3554756462 0.051918217 -1.3238797797
| 17> H 0.7549044627 0.5612906772 -2.2097674522
| 18> C 0.8530180022 0.8324052443 -0.1215914632
| 19> O 1.9019291192 0.577837205 0.4221474585
| 20> O 0.0537693202 1.8321144868 0.1973344662
| 21> C 0.4585901523 2.7048840502 1.2716472666
| 22> C 1.3278360783 3.8337035133 0.7456657504
| 23> S -1.4481104601 0.1396969344 -1.5133983605
| 24> P -2.0869104156 -0.0027125973 0.5116011616
| 25> S -0.8781559721 -0.8514449784 1.8000399696
| 26> O -2.5779749647 1.4215196034 0.9843536133
| 27> C -3.5193756168 2.2015202521 0.2177433726
| 28> O -3.4942733264 -0.7450908253 0.34319313
| 29> C -3.5700958162 -2.1248963222 -0.0328208656
| 30> H 4.4694530302 -0.4238245756 0.7098538312
| 31> H 4.3531514934 -1.8628130034 1.7218792569
| 32> H 5.8818515152 -1.4786291668 0.9071309368
| 33> H 4.6066034883 -3.3216274671 -0.2719460976
| 34> H 4.8164154733 -1.8695170459 -1.3071503477
| 35> H 0.573411821 -1.9034582847 -0.395646492
| 36> H 0.5369294392 -1.912271677 -2.1804241628
| 37> H -0.4782459826 3.0731594808 1.6905605456
| 38> H 0.9916134414 2.1058243644 2.0157999131
| 39> H 0.8007487331 4.3835025437 -0.0290992764
| 40> H 1.5698107956 4.5053158257 1.5625065967
| 41> H 2.2509766328 3.4327621164 0.3325680442
| 42> H -3.6279000152 3.1341641694 0.7649834532
| 43> H -4.4703750757 1.6769147049 0.1548084721
| 44> H -3.1230865129 2.3821064627 -0.7812604485
| 45> H -2.8978310065 -2.7205079524 0.5866099977
| 46> H -3.3082948081 -2.236528598 -1.0846711904
| 47> H -4.6026245993 -2.4181593964 0.1387023064
| 48> *
| 49>
| 50>                          ****END OF INPUT****

CARTESIAN COORDINATES (ANGSTROEM)
---------------------------------
  C      4.800765   -1.454360    0.820144
  C      4.367496   -2.264301   -0.391087
  O      2.934443   -2.219983   -0.528606
  C      2.404464   -1.320926   -1.329625
  O      3.030884   -0.570692   -2.047843
  C      0.886731   -1.375650   -1.297326
  C      0.355476    0.051918   -1.323880
  H      0.754904    0.561291   -2.209767
  C      0.853018    0.832405   -0.121591
  O      1.901929    0.577837    0.422147
  O      0.053769    1.832114    0.197334
  C      0.458590    2.704884    1.271647
  C      1.327836    3.833704    0.745666
  S     -1.448110    0.139697   -1.513398
  P     -2.086910   -0.002713    0.511601
  S     -0.878156   -0.851445    1.800040
  O     -2.577975    1.421520    0.984354
  C     -3.519376    2.201520    0.217743
  O     -3.494273   -0.745091    0.343193
  C     -3.570096   -2.124896   -0.032821
  H      4.469453   -0.423825    0.709854
  H      4.353151   -1.862813    1.721879
  H      5.881852   -1.478629    0.907131
  H      4.606603   -3.321627   -0.271946
  H      4.816415   -1.869517   -1.307150
  H      0.573412   -1.903458   -0.395646
  H      0.536929   -1.912272   -2.180424
  H     -0.478246    3.073159    1.690561
  H      0.991613    2.105824    2.015800
  H      0.800749    4.383503   -0.029099
  H      1.569811    4.505316    1.562507
  H      2.250977    3.432762    0.332568
  H     -3.627900    3.134164    0.764983
  H     -4.470375    1.676915    0.154808
  H     -3.123087    2.382106   -0.781260
  H     -2.897831   -2.720508    0.586610
  H     -3.308295   -2.236529   -1.084671
  H     -4.602625   -2.418159    0.138702

 Total Charge           Charge          ....    0
 Multiplicity           Mult            ....    1
 Number of Electrons    NEL             ....  174
 Basis Dimension        Dim             ....  510

ORBITAL ENERGIES
----------------

  NO   OCC          E(Eh)            E(eV)
   0   2.0000     -88.582050     -2410.4401
   1   2.0000     -88.531842     -2409.0739
   2   2.0000     -76.922998     -2093.1812
   3   2.0000     -19.011074      -517.3176
   4   2.0000     -19.005693      -517.1712
   5   2.0000     -18.998544      -516.9767
   6   2.0000     -18.996107      -516.9104
   7   2.0000     -18.954211      -515.7703
   8   2.0000     -18.943381      -515.4756
   9   2.0000     -10.178769      -276.9784
  10   2.0000     -10.168772      -276.7064
  11   2.0000     -10.100490      -274.8483
  12   2.0000     -10.087042      -274.4824
  13   2.0000     -10.085211      -274.4325
  14   2.0000     -10.084112      -274.4026
  15   2.0000     -10.082571      -274.3607
  16   2.0000     -10.052011      -273.5291
  17   2.0000     -10.020082      -272.6603
  18   2.0000     -10.018457      -272.6161
  19   2.0000      -7.876271      -214.3242
  20   2.0000      -7.826864      -212.9798
  21   2.0000      -6.601249      -179.6291
  22   2.0000      -5.823318      -158.4605
  23   2.0000      -5.820047      -158.3715
  24   2.0000      -5.813296      -158.1878
  25   2.0000      -5.774643      -157.1360
  26   2.0000      -5.767045      -156.9293
  27   2.0000      -5.766791      -156.9224
  28   2.0000      -4.746928      -129.1705
  29   2.0000      -4.746266      -129.1525
  30   2.0000      -4.744859      -129.1142
  31   2.0000      -1.092229       -29.7211
  32   2.0000      -1.083112       -29.4730
  33   2.0000      -1.055264       -28.7152
  34   2.0000      -1.012517       -27.5520
  35   2.0000      -1.003431       -27.3047
  36   2.0000      -0.992187       -26.9988
  37   2.0000      -0.814180       -22.1550
  38   2.0000      -0.752043       -20.4641
  39   2.0000      -0.739409       -20.1203
  40   2.0000      -0.731922       -19.9166
  41   2.0000      -0.697120       -18.9696
  42   2.0000      -0.671809       -18.2809
  43   2.0000      -0.662633       -18.0312
  44   2.0000      -0.652592       -17.7579
  45   2.0000      -0.626655       -17.0521
  46   2.0000      -0.594785       -16.1849
  47   2.0000      -0.542962       -14.7748
  48   2.0000      -0.529502       -14.4085
  49   2.0000      -0.523433       -14.2433
  50   2.0000      -0.506020       -13.7695
  51   2.0000      -0.493997       -13.4423
  52   2.0000      -0.486391       -13.2354
  53   2.0000      -0.466906       -12.7052
  54   2.0000      -0.463285       -12.6066
  55   2.0000      -0.454173       -12.3587
  56   2.0000      -0.450022       -12.2457
  57   2.0000      -0.446343       -12.1456
  58   2.0000      -0.440662       -11.9910
  59   2.0000      -0.428679       -11.6649
  60   2.0000      -0.423425       -11.5220
  61   2.0000      -0.413104       -11.2411
  62   2.0000      -0.410839       -11.1795
  63   2.0000      -0.400711       -10.9039
  64   2.0000      -0.387857       -10.5541
  65   2.0000      -0.381919       -10.3925
  66   2.0000      -0.369323       -10.0498
  67   2.0000      -0.366572        -9.9749
  68   2.0000      -0.361101        -9.8261
  69   2.0000      -0.351906        -9.5759
  70   2.0000      -0.348939        -9.4951
  71   2.0000      -0.342890        -9.3305
  72   2.0000      -0.337880        -9.1942
  73   2.0000      -0.333090        -9.0638
  74   2.0000      -0.323246        -8.7960
  75   2.0000      -0.318374        -8.6634
  76   2.0000      -0.309796        -8.4300
  77   2.0000      -0.305360        -8.3093
  78   2.0000      -0.292896        -7.9701
  79   2.0000      -0.284750        -7.7484
  80   2.0000      -0.283430        -7.7125
  81   2.0000      -0.277998        -7.5647
  82   2.0000      -0.268608        -7.3092
  83   2.0000      -0.256848        -6.9892
  84   2.0000      -0.240767        -6.5516
  85   2.0000      -0.230996        -6.2857
  86   2.0000      -0.226884        -6.1738
  87   0.0000      -0.050699        -1.3796
  88   0.0000      -0.039663        -1.0793
  89   0.0000      -0.018297        -0.4979
  90   0.0000       0.002540         0.0691
  91   0.0000       0.006602         0.1797

MULLIKEN ATOMIC CHARGES
-----------------------
   0 C :   -0.502746
   1 C :   -0.138085
   2 O :   -0.174770
   3 C :    0.358838
   4 O :   -0.486891
   5 C :   -0.439435
   6 C :    0.058142
   7 H :    0.254224
   8 C :    0.260700
   9 O :   -0.441619
  10 O :   -0.151512
  11 C :   -0.152687
  12 C :   -0.499999
  13 S :   -0.179666
  14 P :    0.784770
  15 S :   -0.480961
  16 O :   -0.341512
  17 C :   -0.298516
  18 O :   -0.382734
  19 C :   -0.307728
  20 H :    0.169656
  21 H :    0.168533
  22 H :    0.171042
  23 H :    0.174409
  24 H :    0.177712
  25 H :    0.215692
  26 H :    0.224522
  27 H :    0.182743
  28 H :    0.180346
  29 H :    0.168748
  30 H :    0.173750
  31 H :    0.170395
  32 H :    0.184032
  33 H :    0.185643
  34 H :    0.180820
  35 H :    0.177297
  36 H :    0.176151
  37 H :    0.180696
Sum of atomic charges:    0.0000000

LOEWDIN ATOMIC CHARGES
----------------------
   0 C :   -0.391802
   1 C :    0.036427
   2 O :   -0.584379
   3 C :    0.365308
   4 O :   -0.493815
   5 C :   -0.207014
   6 C :   -0.196070
   7 H :    0.229399
   8 C :    0.349287
   9 O :   -0.459773
  10 O :   -0.621129
  11 C :    0.035216
  12 C :   -0.387604
  13 S :    0.215141
  14 P :    0.404245
  15 S :   -0.095929
  16 O :   -0.669048
  17 C :   -0.042458
  18 O :   -0.692320
  19 C :   -0.053684
  20 H :    0.164837
  21 H :    0.162323
  22 H :    0.167530
  23 H :    0.189192
  24 H :    0.192115
  25 H :    0.200273
  26 H :    0.202215
  27 H :    0.193040
  28 H :    0.193900
  29 H :    0.163482
  30 H :    0.169188
  31 H :    0.163966
  32 H :    0.191801
  33 H :    0.182236
  34 H :    0.179790
  35 H :    0.177835
  36 H :    0.176756
  37 H :    0.189523

  Mayer bond orders larger than 0.100000
B(  0-C ,  1-C ) :   0.9271 B(  0-C , 20-H ) :   0.9681 B(  0-C , 21-H ) :   0.9697
B(  0-C , 22-H ) :   0.9612 B(  1-C ,  2-O ) :   0.7833 B(  1-C , 23-H ) :   0.9512
B(  1-C , 24-H ) :   0.9650 B(  2-O ,  3-C ) :   1.1184 B(  3-C ,  4-O ) :   1.8064
B(  3-C ,  5-C ) :   0.8796 B(  5-C ,  6-C ) :   0.8439 B(  5-C , 25-H ) :   0.9815
B(  5-C , 26-H ) :   0.9301 B(  6-C ,  7-H ) :   0.8818 B(  6-C ,  8-C ) :   0.9678
B(  6-C , 13-S ) :   0.8205 B(  8-C ,  9-O ) :   1.7505 B(  8-C , 10-O ) :   1.1104
B( 10-O , 11-C ) :   0.7709 B( 11-C , 12-C ) :   0.9325 B( 11-C , 27-H ) :   0.9470
B( 11-C , 28-H ) :   0.9571 B( 12-C , 29-H ) :   0.9717 B( 12-C , 30-H ) :   0.9598
B( 12-C , 31-H ) :   0.9697 B( 13-S , 14-P ) :   1.0312 B( 14-P , 15-S ) :   1.7532
B( 14-P , 16-O ) :   1.1498 B( 14-P , 18-O ) :   1.0333 B( 16-O , 17-C ) :   0.7890
B( 17-C , 32-H ) :   0.9539 B( 17-C , 33-H ) :   0.9522 B( 17-C , 34-H ) :   0.9475
B( 18-O , 19-C ) :   0.8238 B( 19-C , 35-H ) :   0.9549 B( 19-C , 36-H ) :   0.9496
B( 19-C , 37-H ) :   0.9572

Dispersion correction           -0.017754835
FINAL SINGLE POINT ENERGY     -1981.469562762668

DIPOLE MOMENT
-------------

Method             : SCF
Type of density    : Electron Density
Multiplicity       :   1
Irrep              :   0
Energy             : -1981.4892110044168021 Eh
Relativity type    :
Basis              : AO
                                X                 Y                 Z
Electronic contribution:    -12.225481432      -4.343870603      -2.472632748
Nuclear contribution   :     10.494415935       4.819308082       1.706920569
                        -----------------------------------------
Total Dipole Moment    :     -1.731065496       0.475437480      -0.765712179
                        -----------------------------------------
Magnitude (a.u.)       :      1.951651529
Magnitude (Debye)      :      4.960703954

Rotational constants in cm-1:             0.014637             0.006832             0.005789
Rotational constants in MHz :           438.810039           204.814477           173.539731

                             ****ORCA TERMINATED NORMALLY****
TOTAL RUN TIME: 0 days 0 hours 2 minutes 1 seconds 804 msec
