                         Program Version 6.0.0  -   RELEASE  -
|  1> ! r2scan-3c def2/J RI DEFGRID2 scfconv6 printgap
|  2> %output
|  3>     printlevel normal
|  4> end
|  5> * xyz 0 1
|  6> C 3.341715216 1.4377752608 -0.0001735421
|  7> C 2.0204108785 1.8559387986 0.0013835123
|  8> C 0.9921551769 0.9291600307 0.0023627925
|  9> C 1.2861670812 -0.4359891322 0.0019987721
| 10> C 2.6035625785 -0.8613515515 0.000234449
| 11> C 3.6191543106 0.0832631898 -0.0008515913
| 12> Cl 5.2659521561 -0.459246409 -0.0032881447
| 13> O 0.3035330185 -1.3955471896 0.0034730443
| 14> C -0.9921585828 -0.9292077531 0.0023769768
| 15> C -2.020434422 -1.8559649663 0.001405457
| 16> C -3.3417381655 -1.4377808384 -0.0001583307
| 17> C -3.6191656531 -0.0832482622 -0.0008601214
| 18> C -2.6035581795 0.8613392989 0.0002836532
| 19> C -1.286170082 0.4359467755 0.0020677704
| 20> O -0.3035339536 1.3955021944 0.0034913072
| 21> Cl -5.2659299841 0.4593073499 -0.0033110092
| 22> H 4.140730136 2.1592514502 -0.0009991957
| 23> H 1.7691275512 2.903155157 0.0019241047
| 24> H 2.812873267 -1.9176004589 -0.00021482
| 25> H -1.7691842399 -2.9031398632 0.0018853105
| 26> H -4.140775646 -2.1592523555 -0.0008832195
| 27> H -2.812822982 1.9175766092 -0.0001385929
| 28> *
| 29>
| 30>                          ****END OF INPUT****

CARTESIAN COORDINATES (ANGSTROEM)
---------------------------------
  C      3.341715    1.437775   -0.000174
  C      2.020411    1.855939    0.001384
  C      0.992155    0.929160    0.002363
  C      1.286167   -0.435989    0.001999
  C      2.603563   -0.861352    0.000234
  C      3.619154    0.083263   -0.000852
  Cl     5.265952   -0.459246   -0.003288
  O      0.303533   -1.395547    0.003473
  C     -0.992159   -0.929208    0.002377
  C     -2.020434   -1.855965    0.001405
  C     -3.341738   -1.437781   -0.000158
  C     -3.619166   -0.083248   -0.000860
  C     -2.603558    0.861339    0.000284
  C     -1.286170    0.435947    0.002068
  O     -0.303534    1.395502    0.003491
  Cl    -5.265930    0.459307   -0.003311
  H      4.140730    2.159251   -0.000999
  H      1.769128    2.903155    0.001924
  H      2.812873   -1.917600   -0.000215
  H     -1.769184   -2.903140    0.001885
  H     -4.140776   -2.159252   -0.000883
  H     -2.812823    1.917577   -0.000139

 Total Charge           Charge          ....    0
 Multiplicity           Mult            ....    1
 Number of Electrons    NEL             ....  128
 Basis Dimension        Dim             ....  360

ORBITAL ENERGIES
----------------

  NO   OCC          E(Eh)            E(eV)
   0   2.0000    -101.226664     -2754.5176
   1   2.0000    -101.226662     -2754.5175
   2   2.0000     -19.029991      -517.8324
   3   2.0000     -19.029984      -517.8322
   4   2.0000     -10.128716      -275.6164
   5   2.0000     -10.128714      -275.6163
   6   2.0000     -10.124428      -275.4997
   7   2.0000     -10.124426      -275.4996
   8   2.0000     -10.112111      -275.1645
   9   2.0000     -10.112111      -275.1645
  10   2.0000     -10.062860      -273.8243
  11   2.0000     -10.062856      -273.8242
  12   2.0000     -10.062662      -273.8190
  13   2.0000     -10.062659      -273.8189
  14   2.0000     -10.059199      -273.7247
  15   2.0000     -10.059196      -273.7246
  16   2.0000      -9.382584      -255.3131
  17   2.0000      -9.382582      -255.3130
  18   2.0000      -7.128850      -193.9859
  19   2.0000      -7.128848      -193.9858
  20   2.0000      -7.118789      -193.7121
  21   2.0000      -7.118787      -193.7120
  22   2.0000      -7.118388      -193.7012
  23   2.0000      -7.118387      -193.7011
  24   2.0000      -1.099203       -29.9108
  25   2.0000      -1.065732       -29.0000
  26   2.0000      -0.882184       -24.0054
  27   2.0000      -0.871294       -23.7091
  28   2.0000      -0.831484       -22.6258
  29   2.0000      -0.808036       -21.9878
  30   2.0000      -0.765058       -20.8183
  31   2.0000      -0.747512       -20.3408
  32   2.0000      -0.720560       -19.6074
  33   2.0000      -0.701774       -19.0963
  34   2.0000      -0.646173       -17.5833
  35   2.0000      -0.627328       -17.0705
  36   2.0000      -0.601759       -16.3747
  37   2.0000      -0.578960       -15.7543
  38   2.0000      -0.551477       -15.0065
  39   2.0000      -0.512184       -13.9372
  40   2.0000      -0.496016       -13.4973
  41   2.0000      -0.467975       -12.7342
  42   2.0000      -0.467645       -12.7253
  43   2.0000      -0.465049       -12.6546
  44   2.0000      -0.441602       -12.0166
  45   2.0000      -0.438286       -11.9264
  46   2.0000      -0.429196       -11.6790
  47   2.0000      -0.403971       -10.9926
  48   2.0000      -0.401080       -10.9139
  49   2.0000      -0.394756       -10.7419
  50   2.0000      -0.391333       -10.6487
  51   2.0000      -0.388647       -10.5756
  52   2.0000      -0.368774       -10.0349
  53   2.0000      -0.368351       -10.0233
  54   2.0000      -0.365008        -9.9324
  55   2.0000      -0.327778        -8.9193
  56   2.0000      -0.321942        -8.7605
  57   2.0000      -0.296082        -8.0568
  58   2.0000      -0.294469        -8.0129
  59   2.0000      -0.293991        -7.9999
  60   2.0000      -0.262000        -7.1294
  61   2.0000      -0.255141        -6.9427
  62   2.0000      -0.233968        -6.3666
  63   2.0000      -0.195774        -5.3273
  64   0.0000      -0.062210        -1.6928
  65   0.0000      -0.056306        -1.5322
  66   0.0000      -0.054510        -1.4833
  67   0.0000      -0.019879        -0.5409
  68   0.0000      -0.004649        -0.1265

MULLIKEN ATOMIC CHARGES
-----------------------
   0 C :   -0.213319
   1 C :   -0.307741
   2 C :    0.191061
   3 C :    0.262674
   4 C :   -0.457121
   5 C :    0.263727
   6 Cl:   -0.140160
   7 O :   -0.095189
   8 C :    0.191052
   9 C :   -0.307746
  10 C :   -0.213320
  11 C :    0.263728
  12 C :   -0.457126
  13 C :    0.262685
  14 O :   -0.095195
  15 Cl:   -0.140149
  16 H :    0.165168
  17 H :    0.160007
  18 H :    0.170900
  19 H :    0.159999
  20 H :    0.165170
  21 H :    0.170896
Sum of atomic charges:   -0.0000000

LOEWDIN ATOMIC CHARGES
----------------------
   0 C :   -0.174422
   1 C :   -0.109196
   2 C :    0.215966
   3 C :    0.226519
   4 C :   -0.129639
   5 C :   -0.166459
   6 Cl:    0.132206
   7 O :   -0.557632
   8 C :    0.215967
   9 C :   -0.109195
  10 C :   -0.174422
  11 C :   -0.166465
  12 C :   -0.129638
  13 C :    0.226521
  14 O :   -0.557639
  15 Cl:    0.132218
  16 H :    0.181117
  17 H :    0.187397
  18 H :    0.194147
  19 H :    0.187388
  20 H :    0.181119
  21 H :    0.194143

  Mayer bond orders larger than 0.100000
B(  0-C ,  1-C ) :   1.3116 B(  0-C ,  5-C ) :   1.3881 B(  0-C , 16-H ) :   0.9394
B(  1-C ,  2-C ) :   1.3614 B(  1-C , 17-H ) :   0.9717 B(  2-C ,  3-C ) :   1.4200
B(  2-C , 14-O ) :   0.9458 B(  3-C ,  4-C ) :   1.3106 B(  3-C ,  7-O ) :   0.9358
B(  4-C ,  5-C ) :   1.3191 B(  4-C , 18-H ) :   0.9464 B(  5-C ,  6-Cl) :   0.9066
B(  7-O ,  8-C ) :   0.9458 B(  8-C ,  9-C ) :   1.3614 B(  8-C , 13-C ) :   1.4200
B(  9-C , 10-C ) :   1.3116 B(  9-C , 19-H ) :   0.9717 B( 10-C , 11-C ) :   1.3880
B( 10-C , 20-H ) :   0.9394 B( 11-C , 12-C ) :   1.3191 B( 11-C , 15-Cl) :   0.9066
B( 12-C , 13-C ) :   1.3106 B( 12-C , 21-H ) :   0.9464 B( 13-C , 14-O ) :   0.9358

Dispersion correction           -0.010716334
FINAL SINGLE POINT ENERGY     -1531.555917361636

DIPOLE MOMENT
-------------

Method             : SCF
Type of density    : Electron Density
Multiplicity       :   1
Irrep              :   0
Energy             : -1531.5542044284122767 Eh
Relativity type    :
Basis              : AO
                                X                 Y                 Z
Electronic contribution:      0.000043278       0.000096155      -0.010030794
Nuclear contribution   :     -0.000078477      -0.000091337       0.010436765
                        -----------------------------------------
Total Dipole Moment    :     -0.000035199       0.000004818       0.000405970
                        -----------------------------------------
Magnitude (a.u.)       :      0.000407522
Magnitude (Debye)      :      0.001035838

Rotational constants in cm-1:             0.058783             0.005747             0.005235
Rotational constants in MHz :          1762.279369           172.296717           156.951814

                             ****ORCA TERMINATED NORMALLY****
TOTAL RUN TIME: 0 days 0 hours 0 minutes 48 seconds 912 msec
