                         Program Version 6.0.0  -   RELEASE  -
|  1> ! r2scan-3c def2/J RI DEFGRID2 scfconv6 printgap
|  2> %output
|  3>     printlevel normal
|  4> end
|  5> %cpcm
|  6>     smd true
|  7>     smdsolvent "water"
|  8> end
|  9> * xyz 0 1
| 10> C 3.341715216 1.4377752608 -0.0001735421
| 11> C 2.0204108785 1.8559387986 0.0013835123
| 12> C 0.9921551769 0.9291600307 0.0023627925
| 13> C 1.2861670812 -0.4359891322 0.0019987721
| 14> C 2.6035625785 -0.8613515515 0.000234449
| 15> C 3.6191543106 0.0832631898 -0.0008515913
| 16> Cl 5.2659521561 -0.459246409 -0.0032881447
| 17> O 0.3035330185 -1.3955471896 0.0034730443
| 18> C -0.9921585828 -0.9292077531 0.0023769768
| 19> C -2.020434422 -1.8559649663 0.001405457
| 20> C -3.3417381655 -1.4377808384 -0.0001583307
| 21> C -3.6191656531 -0.0832482622 -0.0008601214
| 22> C -2.6035581795 0.8613392989 0.0002836532
| 23> C -1.286170082 0.4359467755 0.0020677704
| 24> O -0.3035339536 1.3955021944 0.0034913072
| 25> Cl -5.2659299841 0.4593073499 -0.0033110092
| 26> H 4.140730136 2.1592514502 -0.0009991957
| 27> H 1.7691275512 2.903155157 0.0019241047
| 28> H 2.812873267 -1.9176004589 -0.00021482
| 29> H -1.7691842399 -2.9031398632 0.0018853105
| 30> H -4.140775646 -2.1592523555 -0.0008832195
| 31> H -2.812822982 1.9175766092 -0.0001385929
| 32> *
| 33>
| 34>                          ****END OF INPUT****

CARTESIAN COORDINATES (ANGSTROEM)
---------------------------------
  C      3.341715    1.437775   -0.000174
  C      2.020411    1.855939    0.001384
  C      0.992155    0.929160    0.002363
  C      1.286167   -0.435989    0.001999
  C      2.603563   -0.861352    0.000234
  C      3.619154    0.083263   -0.000852
  Cl     5.265952   -0.459246   -0.003288
  O      0.303533   -1.395547    0.003473
  C     -0.992159   -0.929208    0.002377
  C     -2.020434   -1.855965    0.001405
  C     -3.341738   -1.437781   -0.000158
  C     -3.619166   -0.083248   -0.000860
  C     -2.603558    0.861339    0.000284
  C     -1.286170    0.435947    0.002068
  O     -0.303534    1.395502    0.003491
  Cl    -5.265930    0.459307   -0.003311
  H      4.140730    2.159251   -0.000999
  H      1.769128    2.903155    0.001924
  H      2.812873   -1.917600   -0.000215
  H     -1.769184   -2.903140    0.001885
  H     -4.140776   -2.159252   -0.000883
  H     -2.812823    1.917577   -0.000139

 Total Charge           Charge          ....    0
 Multiplicity           Mult            ....    1
 Number of Electrons    NEL             ....  128
 Basis Dimension        Dim             ....  360

ORBITAL ENERGIES
----------------

  NO   OCC          E(Eh)            E(eV)
   0   2.0000    -101.226057     -2754.5010
   1   2.0000    -101.226056     -2754.5010
   2   2.0000     -19.024579      -517.6851
   3   2.0000     -19.024572      -517.6849
   4   2.0000     -10.121954      -275.4324
   5   2.0000     -10.121953      -275.4323
   6   2.0000     -10.117534      -275.3121
   7   2.0000     -10.117532      -275.3120
   8   2.0000     -10.105981      -274.9977
   9   2.0000     -10.105981      -274.9977
  10   2.0000     -10.054647      -273.6009
  11   2.0000     -10.054643      -273.6008
  12   2.0000     -10.052570      -273.5443
  13   2.0000     -10.052566      -273.5442
  14   2.0000     -10.050139      -273.4782
  15   2.0000     -10.050136      -273.4781
  16   2.0000      -9.382127      -255.3006
  17   2.0000      -9.382125      -255.3006
  18   2.0000      -7.128252      -193.9696
  19   2.0000      -7.128251      -193.9696
  20   2.0000      -7.118408      -193.7017
  21   2.0000      -7.118407      -193.7017
  22   2.0000      -7.117969      -193.6898
  23   2.0000      -7.117968      -193.6897
  24   2.0000      -1.093155       -29.7463
  25   2.0000      -1.060002       -28.8441
  26   2.0000      -0.876607       -23.8537
  27   2.0000      -0.866993       -23.5921
  28   2.0000      -0.827821       -22.5262
  29   2.0000      -0.803401       -21.8616
  30   2.0000      -0.757627       -20.6161
  31   2.0000      -0.739694       -20.1281
  32   2.0000      -0.714436       -19.4408
  33   2.0000      -0.695213       -18.9177
  34   2.0000      -0.639216       -17.3939
  35   2.0000      -0.619527       -16.8582
  36   2.0000      -0.592803       -16.1310
  37   2.0000      -0.571318       -15.5464
  38   2.0000      -0.544763       -14.8238
  39   2.0000      -0.503570       -13.7028
  40   2.0000      -0.487820       -13.2742
  41   2.0000      -0.461633       -12.5617
  42   2.0000      -0.460232       -12.5235
  43   2.0000      -0.458791       -12.4843
  44   2.0000      -0.434943       -11.8354
  45   2.0000      -0.427543       -11.6340
  46   2.0000      -0.417214       -11.3530
  47   2.0000      -0.398545       -10.8450
  48   2.0000      -0.395809       -10.7705
  49   2.0000      -0.387082       -10.5330
  50   2.0000      -0.386367       -10.5136
  51   2.0000      -0.381560       -10.3828
  52   2.0000      -0.365640        -9.9496
  53   2.0000      -0.360890        -9.8203
  54   2.0000      -0.354018        -9.6333
  55   2.0000      -0.325519        -8.8578
  56   2.0000      -0.314986        -8.5712
  57   2.0000      -0.293966        -7.9992
  58   2.0000      -0.293426        -7.9845
  59   2.0000      -0.292617        -7.9625
  60   2.0000      -0.256432        -6.9779
  61   2.0000      -0.249159        -6.7800
  62   2.0000      -0.229212        -6.2372
  63   2.0000      -0.190503        -5.1839
  64   0.0000      -0.056073        -1.5258
  65   0.0000      -0.049087        -1.3357
  66   0.0000      -0.047076        -1.2810
  67   0.0000      -0.014066        -0.3828
  68   0.0000       0.000676         0.0184

MULLIKEN ATOMIC CHARGES
-----------------------
   0 C :   -0.234589
   1 C :   -0.339741
   2 C :    0.196425
   3 C :    0.246275
   4 C :   -0.449579
   5 C :    0.244848
   6 Cl:   -0.158446
   7 O :   -0.103447
   8 C :    0.196406
   9 C :   -0.339764
  10 C :   -0.234580
  11 C :    0.244875
  12 C :   -0.449629
  13 C :    0.246315
  14 O :   -0.103457
  15 Cl:   -0.158435
  16 H :    0.198688
  17 H :    0.196156
  18 H :    0.203425
  19 H :    0.196146
  20 H :    0.198690
  21 H :    0.203416
Sum of atomic charges:   -0.0000000

LOEWDIN ATOMIC CHARGES
----------------------
   0 C :   -0.176187
   1 C :   -0.108540
   2 C :    0.216274
   3 C :    0.226056
   4 C :   -0.131156
   5 C :   -0.176848
   6 Cl:    0.116590
   7 O :   -0.563650
   8 C :    0.216275
   9 C :   -0.108537
  10 C :   -0.176187
  11 C :   -0.176854
  12 C :   -0.131155
  13 C :    0.226059
  14 O :   -0.563656
  15 Cl:    0.116602
  16 H :    0.192158
  17 H :    0.200345
  18 H :    0.204960
  19 H :    0.200334
  20 H :    0.192160
  21 H :    0.204956

  Mayer bond orders larger than 0.100000
B(  0-C ,  1-C ) :   1.3230 B(  0-C ,  5-C ) :   1.3485 B(  0-C , 16-H ) :   0.9405
B(  1-C ,  2-C ) :   1.3155 B(  1-C , 17-H ) :   0.9792 B(  2-C ,  3-C ) :   1.4051
B(  2-C , 14-O ) :   0.9408 B(  3-C ,  4-C ) :   1.3310 B(  3-C ,  7-O ) :   0.9333
B(  4-C ,  5-C ) :   1.3022 B(  4-C , 18-H ) :   0.9331 B(  5-C ,  6-Cl) :   0.9057
B(  7-O ,  8-C ) :   0.9408 B(  8-C ,  9-C ) :   1.3155 B(  8-C , 13-C ) :   1.4051
B(  9-C , 10-C ) :   1.3230 B(  9-C , 19-H ) :   0.9792 B( 10-C , 11-C ) :   1.3485
B( 10-C , 20-H ) :   0.9405 B( 11-C , 12-C ) :   1.3021 B( 11-C , 15-Cl) :   0.9057
B( 12-C , 13-C ) :   1.3309 B( 12-C , 21-H ) :   0.9331 B( 13-C , 14-O ) :   0.9333

Dispersion correction           -0.010716334
FINAL SINGLE POINT ENERGY     -1531.558834930258

DIPOLE MOMENT
-------------

Method             : SCF
Type of density    : Electron Density
Multiplicity       :   1
Irrep              :   0
Energy             : -1531.5571219970345282 Eh
Relativity type    :
Basis              : AO
                                X                 Y                 Z
Electronic contribution:      0.000036005       0.000096777      -0.009851354
Nuclear contribution   :     -0.000078477      -0.000091337       0.010436765
                        -----------------------------------------
Total Dipole Moment    :     -0.000042473       0.000005440       0.000585411
                        -----------------------------------------
Magnitude (a.u.)       :      0.000586975
Magnitude (Debye)      :      0.001491971

Rotational constants in cm-1:             0.058783             0.005747             0.005235
Rotational constants in MHz :          1762.279369           172.296717           156.951814

                             ****ORCA TERMINATED NORMALLY****
TOTAL RUN TIME: 0 days 0 hours 0 minutes 54 seconds 463 msec
