                         Program Version 6.0.0  -   RELEASE  -
|  1> ! pbe def2-sv(p) def2/J RI DEFGRID1 loosescf d4 GCP(DFT/SV(P)) printgap
|  2> %output
|  3>     printlevel normal
|  4> end
|  5> * xyz 0 1
|  6> C 5.7269748551 0.3477587073 -1.2704323507
|  7> C 4.2531227181 0.0760162464 -1.4943587666
|  8> O 3.6670533286 -0.2577423877 -0.2204997981
|  9> P 2.0949984765 -0.2496192163 0.0038000044
| 10> S 1.1968315462 1.4027604678 -0.5848337979
| 11> O 1.9744906372 -0.5938829603 1.5405721903
| 12> C 1.9717815815 0.4231429912 2.5634187927
| 13> C 3.3515515564 1.0118507016 2.7681004891
| 14> S 1.4946519064 -2.0701293654 -0.8594287163
| 15> C -0.2691217154 -1.7278563375 -1.0972234802
| 16> S -1.1163634864 -1.2664761211 0.4435244331
| 17> P -2.2254509371 0.4326058561 -0.2510634098
| 18> S -2.0744477084 0.8886228872 -2.144523332
| 19> O -1.8248219629 1.6132782669 0.7101084815
| 20> C -1.7702018873 1.5333366214 2.1541445335
| 21> C -3.1140522493 1.8305340773 2.7867403387
| 22> O -3.7154825527 0.1197988425 0.2238904079
| 23> C -4.6583968762 -0.5936942365 -0.5932521767
| 24> C -4.2421410632 -2.0293632861 -0.8409571195
| 25> H 6.1972153543 0.5659450581 -2.2235853943
| 26> H 5.8562711861 1.1963392363 -0.6047231908
| 27> H 6.198232385 -0.5239991874 -0.8262666639
| 28> H 4.1017211682 -0.7681924567 -2.1726561042
| 29> H 3.736482522 0.9542791852 -1.8967174848
| 30> H 1.2588247516 1.2023201735 2.2738784537
| 31> H 1.6147730697 -0.0998459358 3.4515406164
| 32> H 4.0714250709 0.2203261142 2.9568036084
| 33> H 3.6553296337 1.5582455776 1.8765219903
| 34> H 3.3306532498 1.6937092898 3.612526514
| 35> H -0.6941756068 -2.6570216078 -1.4695313221
| 36> H -0.4005014226 -0.9158206903 -1.8188259653
| 37> H -1.4101006989 0.5395912932 2.4380651062
| 38> H -1.0299603029 2.2888990569 2.426781494
| 39> H -2.9926734161 1.8680442468 3.8648860165
| 40> H -3.4862000357 2.7883434783 2.4334159903
| 41> H -3.8336193076 1.057802286 2.5323978209
| 42> H -5.5887647998 -0.5357795793 -0.0266033131
| 43> H -4.7655035932 -0.0573377871 -1.5410073141
| 44> H -3.3619471179 -2.0516653149 -1.4821321409
| 45> H -4.012291195 -2.526245164 0.0982205467
| 46> H -5.0506751283 -2.5545171323 -1.3391742904
| 47> *
| 48>
| 49>                          ****END OF INPUT****

CARTESIAN COORDINATES (ANGSTROEM)
---------------------------------
  C      5.726975    0.347759   -1.270432
  C      4.253123    0.076016   -1.494359
  O      3.667053   -0.257742   -0.220500
  P      2.094998   -0.249619    0.003800
  S      1.196832    1.402760   -0.584834
  O      1.974491   -0.593883    1.540572
  C      1.971782    0.423143    2.563419
  C      3.351552    1.011851    2.768100
  S      1.494652   -2.070129   -0.859429
  C     -0.269122   -1.727856   -1.097223
  S     -1.116363   -1.266476    0.443524
  P     -2.225451    0.432606   -0.251063
  S     -2.074448    0.888623   -2.144523
  O     -1.824822    1.613278    0.710108
  C     -1.770202    1.533337    2.154145
  C     -3.114052    1.830534    2.786740
  O     -3.715483    0.119799    0.223890
  C     -4.658397   -0.593694   -0.593252
  C     -4.242141   -2.029363   -0.840957
  H      6.197215    0.565945   -2.223585
  H      5.856271    1.196339   -0.604723
  H      6.198232   -0.523999   -0.826267
  H      4.101721   -0.768192   -2.172656
  H      3.736483    0.954279   -1.896717
  H      1.258825    1.202320    2.273878
  H      1.614773   -0.099846    3.451541
  H      4.071425    0.220326    2.956804
  H      3.655330    1.558246    1.876522
  H      3.330653    1.693709    3.612527
  H     -0.694176   -2.657022   -1.469531
  H     -0.400501   -0.915821   -1.818826
  H     -1.410101    0.539591    2.438065
  H     -1.029960    2.288899    2.426781
  H     -2.992673    1.868044    3.864886
  H     -3.486200    2.788343    2.433416
  H     -3.833619    1.057802    2.532398
  H     -5.588765   -0.535780   -0.026603
  H     -4.765504   -0.057338   -1.541007
  H     -3.361947   -2.051665   -1.482132
  H     -4.012291   -2.526245    0.098221
  H     -5.050675   -2.554517   -1.339174

 Total Charge           Charge          ....    0
 Multiplicity           Mult            ....    1
 Number of Electrons    NEL             ....  202
 Basis Dimension        Dim             ....  334

ORBITAL ENERGIES
----------------

  NO   OCC          E(Eh)            E(eV)
   0   2.0000     -88.041259     -2395.7245
   1   2.0000     -88.039781     -2395.6842
   2   2.0000     -87.982946     -2394.1377
   3   2.0000     -87.980323     -2394.0663
   4   2.0000     -76.423548     -2079.5905
   5   2.0000     -76.421909     -2079.5459
   6   2.0000     -18.789992      -511.3017
   7   2.0000     -18.788722      -511.2671
   8   2.0000     -18.787690      -511.2390
   9   2.0000     -18.787041      -511.2214
  10   2.0000      -9.957222      -270.9498
  11   2.0000      -9.952433      -270.8195
  12   2.0000      -9.951984      -270.8073
  13   2.0000      -9.950756      -270.7738
  14   2.0000      -9.950537      -270.7679
  15   2.0000      -9.887455      -269.0513
  16   2.0000      -9.885689      -269.0033
  17   2.0000      -9.884380      -268.9676
  18   2.0000      -9.883934      -268.9555
  19   2.0000      -7.686981      -209.1734
  20   2.0000      -7.684015      -209.0927
  21   2.0000      -7.628200      -207.5739
  22   2.0000      -7.624839      -207.4824
  23   2.0000      -6.420783      -174.7184
  24   2.0000      -6.419528      -174.6842
  25   2.0000      -5.714930      -155.5112
  26   2.0000      -5.711880      -155.4282
  27   2.0000      -5.711363      -155.4141
  28   2.0000      -5.708678      -155.3410
  29   2.0000      -5.703922      -155.2116
  30   2.0000      -5.700960      -155.1310
  31   2.0000      -5.657186      -153.9399
  32   2.0000      -5.653685      -153.8446
  33   2.0000      -5.648880      -153.7138
  34   2.0000      -5.648162      -153.6943
  35   2.0000      -5.645512      -153.6222
  36   2.0000      -5.645120      -153.6115
  37   2.0000      -4.643526      -126.3568
  38   2.0000      -4.642391      -126.3259
  39   2.0000      -4.641937      -126.3135
  40   2.0000      -4.641368      -126.2980
  41   2.0000      -4.641285      -126.2958
  42   2.0000      -4.640007      -126.2610
  43   2.0000      -0.984711       -26.7954
  44   2.0000      -0.984215       -26.7819
  45   2.0000      -0.943890       -25.6845
  46   2.0000      -0.941483       -25.6191
  47   2.0000      -0.760193       -20.6859
  48   2.0000      -0.719720       -19.5846
  49   2.0000      -0.709874       -19.3167
  50   2.0000      -0.688880       -18.7454
  51   2.0000      -0.688422       -18.7329
  52   2.0000      -0.673670       -18.3315
  53   2.0000      -0.647206       -17.6114
  54   2.0000      -0.632956       -17.2236
  55   2.0000      -0.598370       -16.2825
  56   2.0000      -0.591107       -16.0848
  57   2.0000      -0.574991       -15.6463
  58   2.0000      -0.565542       -15.3892
  59   2.0000      -0.560791       -15.2599
  60   2.0000      -0.502884       -13.6842
  61   2.0000      -0.496504       -13.5106
  62   2.0000      -0.476833       -12.9753
  63   2.0000      -0.471215       -12.8224
  64   2.0000      -0.448037       -12.1917
  65   2.0000      -0.446646       -12.1539
  66   2.0000      -0.441998       -12.0274
  67   2.0000      -0.434161       -11.8141
  68   2.0000      -0.429677       -11.6921
  69   2.0000      -0.423635       -11.5277
  70   2.0000      -0.405352       -11.0302
  71   2.0000      -0.395658       -10.7664
  72   2.0000      -0.390167       -10.6170
  73   2.0000      -0.386233       -10.5099
  74   2.0000      -0.377858       -10.2820
  75   2.0000      -0.372576       -10.1383
  76   2.0000      -0.366424        -9.9709
  77   2.0000      -0.356540        -9.7019
  78   2.0000      -0.354537        -9.6474
  79   2.0000      -0.350512        -9.5379
  80   2.0000      -0.347165        -9.4468
  81   2.0000      -0.346439        -9.4271
  82   2.0000      -0.343309        -9.3419
  83   2.0000      -0.338450        -9.2097
  84   2.0000      -0.333569        -9.0769
  85   2.0000      -0.313759        -8.5378
  86   2.0000      -0.311981        -8.4894
  87   2.0000      -0.299235        -8.1426
  88   2.0000      -0.294110        -8.0031
  89   2.0000      -0.289039        -7.8651
  90   2.0000      -0.282277        -7.6811
  91   2.0000      -0.275841        -7.5060
  92   2.0000      -0.266905        -7.2629
  93   2.0000      -0.260727        -7.0948
  94   2.0000      -0.257038        -6.9944
  95   2.0000      -0.232811        -6.3351
  96   2.0000      -0.219380        -5.9696
  97   2.0000      -0.210893        -5.7387
  98   2.0000      -0.199241        -5.4216
  99   2.0000      -0.194816        -5.3012
 100   2.0000      -0.185155        -5.0383
 101   0.0000      -0.042574        -1.1585
 102   0.0000      -0.032550        -0.8857
 103   0.0000      -0.006250        -0.1701
 104   0.0000       0.011542         0.3141
 105   0.0000       0.018073         0.4918

MULLIKEN ATOMIC CHARGES
-----------------------
   0 C :   -0.282827
   1 C :   -0.010412
   2 O :   -0.376492
   3 P :    0.605859
   4 S :   -0.315432
   5 O :   -0.359905
   6 C :   -0.030106
   7 C :   -0.298156
   8 S :   -0.095444
   9 C :   -0.348729
  10 S :   -0.125957
  11 P :    0.621416
  12 S :   -0.293056
  13 O :   -0.349129
  14 C :   -0.046515
  15 C :   -0.278096
  16 O :   -0.382276
  17 C :    0.004148
  18 C :   -0.318532
  19 H :    0.112640
  20 H :    0.119801
  21 H :    0.116510
  22 H :    0.102056
  23 H :    0.107268
  24 H :    0.123950
  25 H :    0.103861
  26 H :    0.117890
  27 H :    0.123421
  28 H :    0.108706
  29 H :    0.181207
  30 H :    0.207177
  31 H :    0.115662
  32 H :    0.123694
  33 H :    0.106734
  34 H :    0.120008
  35 H :    0.123594
  36 H :    0.102356
  37 H :    0.111585
  38 H :    0.120050
  39 H :    0.119312
  40 H :    0.112159
Sum of atomic charges:    0.0000000

LOEWDIN ATOMIC CHARGES
----------------------
   0 C :   -0.350463
   1 C :   -0.120953
   2 O :   -0.248776
   3 P :    0.558313
   4 S :   -0.310004
   5 O :   -0.237833
   6 C :   -0.119111
   7 C :   -0.362325
   8 S :    0.080861
   9 C :   -0.478780
  10 S :    0.060958
  11 P :    0.577686
  12 S :   -0.286528
  13 O :   -0.227009
  14 C :   -0.114319
  15 C :   -0.360911
  16 O :   -0.251246
  17 C :   -0.117392
  18 C :   -0.370892
  19 H :    0.131141
  20 H :    0.127546
  21 H :    0.126922
  22 H :    0.109486
  23 H :    0.109206
  24 H :    0.109100
  25 H :    0.117504
  26 H :    0.127219
  27 H :    0.123864
  28 H :    0.128877
  29 H :    0.132787
  30 H :    0.123831
  31 H :    0.104411
  32 H :    0.121302
  33 H :    0.128279
  34 H :    0.129845
  35 H :    0.125945
  36 H :    0.117190
  37 H :    0.111571
  38 H :    0.118768
  39 H :    0.123740
  40 H :    0.130192

  Mayer bond orders larger than 0.100000
B(  0-C ,  1-C ) :   1.1600 B(  0-C , 19-H ) :   0.9420 B(  0-C , 20-H ) :   0.9518
B(  0-C , 21-H ) :   0.9503 B(  1-C ,  2-O ) :   0.9035 B(  1-C , 22-H ) :   0.9282
B(  1-C , 23-H ) :   0.9096 B(  2-O ,  3-P ) :   1.0992 B(  3-P ,  4-S ) :   1.6294
B(  3-P ,  5-O ) :   1.1276 B(  3-P ,  8-S ) :   0.9613 B(  4-S ,  8-S ) :   0.1144
B(  5-O ,  6-C ) :   0.9088 B(  6-C ,  7-C ) :   1.1632 B(  6-C , 24-H ) :   0.9029
B(  6-C , 25-H ) :   0.9345 B(  7-C , 26-H ) :   0.9463 B(  7-C , 27-H ) :   0.9376
B(  7-C , 28-H ) :   0.9390 B(  8-S ,  9-C ) :   0.9983 B(  9-C , 10-S ) :   1.0028
B(  9-C , 29-H ) :   0.9061 B(  9-C , 30-H ) :   0.8484 B( 10-S , 11-P ) :   0.9329
B( 10-S , 12-S ) :   0.1174 B( 11-P , 12-S ) :   1.6267 B( 11-P , 13-O ) :   1.1426
B( 11-P , 16-O ) :   1.0720 B( 12-S , 30-H ) :   0.1068 B( 13-O , 14-C ) :   0.9039
B( 14-C , 15-C ) :   1.1575 B( 14-C , 31-H ) :   0.9126 B( 14-C , 32-H ) :   0.9267
B( 15-C , 33-H ) :   0.9389 B( 15-C , 34-H ) :   0.9460 B( 15-C , 35-H ) :   0.9374
B( 16-O , 17-C ) :   0.9154 B( 17-C , 18-C ) :   1.1643 B( 17-C , 36-H ) :   0.9342
B( 17-C , 37-H ) :   0.9174 B( 18-C , 38-H ) :   0.9363 B( 18-C , 39-H ) :   0.9415
B( 18-C , 40-H ) :   0.9370

Dispersion correction           -0.065784808
FINAL SINGLE POINT ENERGY     -2929.517142784105

DIPOLE MOMENT
-------------

Method             : SCF
Type of density    : Electron Density
Multiplicity       :   1
Irrep              :   0
Energy             : -2929.6356902081288354 Eh
Relativity type    :
Basis              : AO
                                X                 Y                 Z
Electronic contribution:     -3.235657981      -3.459175530     -10.997355912
Nuclear contribution   :      3.317152455       2.922696543      12.132377933
                        -----------------------------------------
Total Dipole Moment    :      0.081494474      -0.536478987       1.135022020
                        -----------------------------------------
Magnitude (a.u.)       :      1.258064402
Magnitude (Debye)      :      3.197745581

Rotational constants in cm-1:             0.012961             0.005047             0.004488
Rotational constants in MHz :           388.546257           151.310279           134.537386

                             ****ORCA TERMINATED NORMALLY****
TOTAL RUN TIME: 0 days 0 hours 0 minutes 20 seconds 821 msec
