                         Program Version 6.0.0  -   RELEASE  -
|  1> ! pbe def2-sv(p) def2/J RI DEFGRID1 loosescf d4 GCP(DFT/SV(P)) printgap
|  2> %output
|  3>     printlevel normal
|  4> end
|  5> * xyz 0 1
|  6> C 5.4884246365 -0.6190249295 -0.2517199317
|  7> C 4.2856350378 -1.382627772 -0.7638607099
|  8> O 3.2190466887 -0.5020807173 -1.1881247267
|  9> P 2.4200020254 0.4546066619 -0.2080585142
| 10> S 3.2162374569 2.1484780831 0.3688803514
| 11> O 2.0266865983 -0.5534365516 0.9609522687
| 12> C 1.6876326617 -0.1262222865 2.2935846826
| 13> C 2.8752409583 -0.3122634491 3.2172421301
| 14> S 0.6855322318 0.7320199391 -1.3866731358
| 15> C 0.0569644128 -0.9788754743 -1.3528849576
| 16> S -0.9311147708 -1.3350306397 0.1158192338
| 17> P -2.5563501786 -0.046616758 -0.3860931015
| 18> S -3.0374481342 0.0288485564 -2.2782859933
| 19> O -2.1431291495 1.3707826401 0.1708653013
| 20> C -1.7765143297 1.6228346587 1.5479082344
| 21> C -2.9553537086 2.1642777297 2.3298062541
| 22> O -3.7085081609 -0.4921685311 0.61388761
| 23> C -4.6496063243 -1.5356291335 0.2972443773
| 24> C -3.9867915242 -2.8906353229 0.1608202745
| 25> H 5.8398639825 0.0822477162 -1.0047640827
| 26> H 5.2244292433 -0.0566133008 0.6422786404
| 27> H 6.2838298942 -1.3175047641 -0.0115282902
| 28> H 3.8935618341 -2.0548724831 0.0023892292
| 29> H 4.5244884015 -1.94479397 -1.6682904969
| 30> H 1.3821887002 0.9234902127 2.2713748089
| 31> H 0.8462989228 -0.7576169404 2.5855376185
| 32> H 3.2212751956 -1.3412410008 3.1836632065
| 33> H 3.6853197437 0.3486175241 2.9158960305
| 34> H 2.5796626287 -0.0655249233 4.2316312443
| 35> H 0.8891139654 -1.6767557676 -1.3682656858
| 36> H -0.5719785075 -1.0846870795 -2.2370468959
| 37> H -1.4035508338 0.6949513439 1.9913710198
| 38> H -0.968127929 2.3556145784 1.4851870497
| 39> H -3.7448326976 1.4195825037 2.3827172624
| 40> H -2.6286135411 2.4157746732 3.3339559763
| 41> H -3.3443593307 3.0555592209 1.8452518513
| 42> H -5.3516247715 -1.5126734647 1.1319187285
| 43> H -5.1634357079 -1.2637948012 -0.6295647796
| 44> H -3.377813445 -3.1057461993 1.0351805372
| 45> H -4.7523516728 -3.6528737 0.0572216612
| 46> H -3.3528147279 -2.9072891693 -0.7242503284
| 47> *
| 48>
| 49>                          ****END OF INPUT****

CARTESIAN COORDINATES (ANGSTROEM)
---------------------------------
  C      5.488425   -0.619025   -0.251720
  C      4.285635   -1.382628   -0.763861
  O      3.219047   -0.502081   -1.188125
  P      2.420002    0.454607   -0.208059
  S      3.216237    2.148478    0.368880
  O      2.026687   -0.553437    0.960952
  C      1.687633   -0.126222    2.293585
  C      2.875241   -0.312263    3.217242
  S      0.685532    0.732020   -1.386673
  C      0.056964   -0.978875   -1.352885
  S     -0.931115   -1.335031    0.115819
  P     -2.556350   -0.046617   -0.386093
  S     -3.037448    0.028849   -2.278286
  O     -2.143129    1.370783    0.170865
  C     -1.776514    1.622835    1.547908
  C     -2.955354    2.164278    2.329806
  O     -3.708508   -0.492169    0.613888
  C     -4.649606   -1.535629    0.297244
  C     -3.986792   -2.890635    0.160820
  H      5.839864    0.082248   -1.004764
  H      5.224429   -0.056613    0.642279
  H      6.283830   -1.317505   -0.011528
  H      3.893562   -2.054872    0.002389
  H      4.524488   -1.944794   -1.668290
  H      1.382189    0.923490    2.271375
  H      0.846299   -0.757617    2.585538
  H      3.221275   -1.341241    3.183663
  H      3.685320    0.348618    2.915896
  H      2.579663   -0.065525    4.231631
  H      0.889114   -1.676756   -1.368266
  H     -0.571979   -1.084687   -2.237047
  H     -1.403551    0.694951    1.991371
  H     -0.968128    2.355615    1.485187
  H     -3.744833    1.419583    2.382717
  H     -2.628614    2.415775    3.333956
  H     -3.344359    3.055559    1.845252
  H     -5.351625   -1.512673    1.131919
  H     -5.163436   -1.263795   -0.629565
  H     -3.377813   -3.105746    1.035181
  H     -4.752352   -3.652874    0.057222
  H     -3.352815   -2.907289   -0.724250

 Total Charge           Charge          ....    0
 Multiplicity           Mult            ....    1
 Number of Electrons    NEL             ....  202
 Basis Dimension        Dim             ....  334

ORBITAL ENERGIES
----------------

  NO   OCC          E(Eh)            E(eV)
   0   2.0000     -88.045057     -2395.8278
   1   2.0000     -88.037644     -2395.6261
   2   2.0000     -87.989019     -2394.3029
   3   2.0000     -87.986397     -2394.2316
   4   2.0000     -76.429285     -2079.7466
   5   2.0000     -76.427318     -2079.6930
   6   2.0000     -18.800002      -511.5741
   7   2.0000     -18.798412      -511.5308
   8   2.0000     -18.794471      -511.4235
   9   2.0000     -18.791883      -511.3531
  10   2.0000      -9.959256      -271.0051
  11   2.0000      -9.958566      -270.9864
  12   2.0000      -9.957432      -270.9555
  13   2.0000      -9.956076      -270.9186
  14   2.0000      -9.955117      -270.8925
  15   2.0000      -9.889379      -269.1037
  16   2.0000      -9.888726      -269.0859
  17   2.0000      -9.887018      -269.0395
  18   2.0000      -9.886737      -269.0318
  19   2.0000      -7.689903      -209.2529
  20   2.0000      -7.682840      -209.0607
  21   2.0000      -7.634298      -207.7398
  22   2.0000      -7.631612      -207.6667
  23   2.0000      -6.426778      -174.8815
  24   2.0000      -6.424916      -174.8309
  25   2.0000      -5.717561      -155.5828
  26   2.0000      -5.714501      -155.4995
  27   2.0000      -5.711052      -155.4056
  28   2.0000      -5.707207      -155.3010
  29   2.0000      -5.707024      -155.2960
  30   2.0000      -5.699600      -155.0940
  31   2.0000      -5.663259      -154.1051
  32   2.0000      -5.660587      -154.0324
  33   2.0000      -5.654817      -153.8754
  34   2.0000      -5.654483      -153.8663
  35   2.0000      -5.652004      -153.7988
  36   2.0000      -5.651961      -153.7977
  37   2.0000      -4.649702      -126.5248
  38   2.0000      -4.648443      -126.4906
  39   2.0000      -4.647856      -126.4746
  40   2.0000      -4.647024      -126.4519
  41   2.0000      -4.646605      -126.4406
  42   2.0000      -4.645142      -126.4007
  43   2.0000      -0.991685       -26.9851
  44   2.0000      -0.991405       -26.9775
  45   2.0000      -0.948523       -25.8106
  46   2.0000      -0.947712       -25.7885
  47   2.0000      -0.763864       -20.7858
  48   2.0000      -0.725198       -19.7336
  49   2.0000      -0.712531       -19.3890
  50   2.0000      -0.693935       -18.8829
  51   2.0000      -0.692903       -18.8548
  52   2.0000      -0.675815       -18.3899
  53   2.0000      -0.656157       -17.8550
  54   2.0000      -0.638891       -17.3851
  55   2.0000      -0.599052       -16.3010
  56   2.0000      -0.593455       -16.1487
  57   2.0000      -0.580613       -15.7993
  58   2.0000      -0.576694       -15.6926
  59   2.0000      -0.563486       -15.3332
  60   2.0000      -0.506894       -13.7933
  61   2.0000      -0.502648       -13.6777
  62   2.0000      -0.480240       -13.0680
  63   2.0000      -0.476891       -12.9769
  64   2.0000      -0.461217       -12.5504
  65   2.0000      -0.451033       -12.2732
  66   2.0000      -0.446258       -12.1433
  67   2.0000      -0.437218       -11.8973
  68   2.0000      -0.430878       -11.7248
  69   2.0000      -0.421344       -11.4654
  70   2.0000      -0.414400       -11.2764
  71   2.0000      -0.397995       -10.8300
  72   2.0000      -0.396063       -10.7774
  73   2.0000      -0.393192       -10.6993
  74   2.0000      -0.382228       -10.4009
  75   2.0000      -0.374257       -10.1841
  76   2.0000      -0.367874       -10.0104
  77   2.0000      -0.361566        -9.8387
  78   2.0000      -0.356426        -9.6988
  79   2.0000      -0.354891        -9.6571
  80   2.0000      -0.349909        -9.5215
  81   2.0000      -0.348013        -9.4699
  82   2.0000      -0.346366        -9.4251
  83   2.0000      -0.344295        -9.3687
  84   2.0000      -0.337006        -9.1704
  85   2.0000      -0.326970        -8.8973
  86   2.0000      -0.315268        -8.5789
  87   2.0000      -0.300242        -8.1700
  88   2.0000      -0.300011        -8.1637
  89   2.0000      -0.295563        -8.0427
  90   2.0000      -0.294075        -8.0022
  91   2.0000      -0.281725        -7.6661
  92   2.0000      -0.273744        -7.4489
  93   2.0000      -0.267085        -7.2677
  94   2.0000      -0.257626        -7.0104
  95   2.0000      -0.236669        -6.4401
  96   2.0000      -0.220037        -5.9875
  97   2.0000      -0.209756        -5.7077
  98   2.0000      -0.204694        -5.5700
  99   2.0000      -0.204385        -5.5616
 100   2.0000      -0.198628        -5.4049
 101   0.0000      -0.041251        -1.1225
 102   0.0000      -0.020830        -0.5668
 103   0.0000      -0.011768        -0.3202
 104   0.0000       0.002890         0.0786
 105   0.0000       0.008892         0.2420

MULLIKEN ATOMIC CHARGES
-----------------------
   0 C :   -0.318815
   1 C :   -0.006544
   2 O :   -0.375841
   3 P :    0.605406
   4 S :   -0.319747
   5 O :   -0.389910
   6 C :   -0.025274
   7 C :   -0.291739
   8 S :   -0.043530
   9 C :   -0.362639
  10 S :   -0.099396
  11 P :    0.599858
  12 S :   -0.307471
  13 O :   -0.344150
  14 C :   -0.030353
  15 C :   -0.284801
  16 O :   -0.382525
  17 C :    0.000167
  18 C :   -0.318506
  19 H :    0.126740
  20 H :    0.134879
  21 H :    0.110236
  22 H :    0.105965
  23 H :    0.109591
  24 H :    0.110764
  25 H :    0.112526
  26 H :    0.110890
  27 H :    0.130457
  28 H :    0.109674
  29 H :    0.181534
  30 H :    0.195748
  31 H :    0.101893
  32 H :    0.123396
  33 H :    0.118720
  34 H :    0.108101
  35 H :    0.122589
  36 H :    0.105748
  37 H :    0.115542
  38 H :    0.116232
  39 H :    0.115459
  40 H :    0.129125
Sum of atomic charges:   -0.0000000

LOEWDIN ATOMIC CHARGES
----------------------
   0 C :   -0.366823
   1 C :   -0.112777
   2 O :   -0.245926
   3 P :    0.561457
   4 S :   -0.320982
   5 O :   -0.249195
   6 C :   -0.122667
   7 C :   -0.360177
   8 S :    0.101663
   9 C :   -0.482399
  10 S :    0.078692
  11 P :    0.570713
  12 S :   -0.305090
  13 O :   -0.229677
  14 C :   -0.118050
  15 C :   -0.358317
  16 O :   -0.247898
  17 C :   -0.115405
  18 C :   -0.371509
  19 H :    0.132083
  20 H :    0.122117
  21 H :    0.129622
  22 H :    0.109657
  23 H :    0.121124
  24 H :    0.108778
  25 H :    0.111363
  26 H :    0.123314
  27 H :    0.125480
  28 H :    0.130397
  29 H :    0.131732
  30 H :    0.130927
  31 H :    0.100275
  32 H :    0.122979
  33 H :    0.125055
  34 H :    0.128868
  35 H :    0.130228
  36 H :    0.118844
  37 H :    0.114800
  38 H :    0.122464
  39 H :    0.132304
  40 H :    0.121959

  Mayer bond orders larger than 0.100000
B(  0-C ,  1-C ) :   1.1691 B(  0-C , 19-H ) :   0.9445 B(  0-C , 20-H ) :   0.9333
B(  0-C , 21-H ) :   0.9360 B(  1-C ,  2-O ) :   0.9052 B(  1-C , 22-H ) :   0.9262
B(  1-C , 23-H ) :   0.9348 B(  2-O ,  3-P ) :   1.1015 B(  3-P ,  4-S ) :   1.6487
B(  3-P ,  5-O ) :   1.0602 B(  3-P ,  8-S ) :   0.9978 B(  5-O ,  6-C ) :   0.8997
B(  6-C ,  7-C ) :   1.1637 B(  6-C , 24-H ) :   0.9071 B(  6-C , 25-H ) :   0.9233
B(  7-C , 26-H ) :   0.9477 B(  7-C , 27-H ) :   0.9338 B(  7-C , 28-H ) :   0.9399
B(  8-S ,  9-C ) :   0.9839 B(  9-C , 10-S ) :   0.9980 B(  9-C , 29-H ) :   0.8957
B(  9-C , 30-H ) :   0.8739 B( 10-S , 11-P ) :   0.9451 B( 10-S , 12-S ) :   0.1086
B( 11-P , 12-S ) :   1.6385 B( 11-P , 13-O ) :   1.1452 B( 11-P , 16-O ) :   1.0844
B( 13-O , 14-C ) :   0.8937 B( 14-C , 15-C ) :   1.1605 B( 14-C , 31-H ) :   0.9085
B( 14-C , 32-H ) :   0.9289 B( 15-C , 33-H ) :   0.9424 B( 15-C , 34-H ) :   0.9402
B( 15-C , 35-H ) :   0.9467 B( 16-O , 17-C ) :   0.9036 B( 17-C , 18-C ) :   1.1667
B( 17-C , 36-H ) :   0.9342 B( 17-C , 37-H ) :   0.9195 B( 18-C , 38-H ) :   0.9433
B( 18-C , 39-H ) :   0.9365 B( 18-C , 40-H ) :   0.9342

Dispersion correction           -0.064510664
FINAL SINGLE POINT ENERGY     -2929.519527028315

DIPOLE MOMENT
-------------

Method             : SCF
Type of density    : Electron Density
Multiplicity       :   1
Irrep              :   0
Energy             : -2929.6403137232382505 Eh
Relativity type    :
Basis              : AO
                                X                 Y                 Z
Electronic contribution:     -3.618347920       9.423481224     -19.066649448
Nuclear contribution   :      3.595901692     -11.151188112      20.756729389
                        -----------------------------------------
Total Dipole Moment    :     -0.022446228      -1.727706888       1.690079942
                        -----------------------------------------
Magnitude (a.u.)       :      2.416990925
Magnitude (Debye)      :      6.143502700

Rotational constants in cm-1:             0.013361             0.004490             0.004258
Rotational constants in MHz :           400.555747           134.613556           127.662041

                             ****ORCA TERMINATED NORMALLY****
TOTAL RUN TIME: 0 days 0 hours 0 minutes 21 seconds 177 msec
