                         Program Version 6.0.0  -   RELEASE  -
|  1> ! pbe def2-sv(p) def2/J RI DEFGRID1 loosescf d4 GCP(DFT/SV(P)) printgap
|  2> %output
|  3>     printlevel normal
|  4> end
|  5> * xyz 0 1
|  6> C 5.5694512699 0.5752068649 -0.4379105788
|  7> C 4.2865918905 1.196963117 -0.9551137456
|  8> O 3.2504739967 0.2031922603 -1.0997894145
|  9> P 2.2073168875 -0.1202455027 0.0515665491
| 10> S 2.9276820165 -0.6192418441 1.8087271056
| 11> O 1.2905334145 -1.1962756704 -0.6491132833
| 12> C 1.4710294828 -2.6130719294 -0.4578472781
| 13> C 2.7662839311 -3.0927828417 -1.0761962185
| 14> S 0.9568018095 1.5836246716 0.0339637007
| 15> C 0.1671423438 1.281854523 1.6356729238
| 16> S -0.8823432357 -0.2017750597 1.659274078
| 17> P -2.1380076964 0.2208274736 -0.0086518609
| 18> S -1.6111083684 -0.4025233692 -1.7948345681
| 19> O -2.3488415197 1.7731535293 0.1825627848
| 20> C -2.716384909 2.626910046 -0.9235491705
| 21> C -4.1447572272 2.379488763 -1.3580359877
| 22> O -3.5313282601 -0.372523676 0.4741196354
| 23> C -3.8327334096 -1.7782982208 0.3936729341
| 24> C -5.3290561464 -1.9429238651 0.5679816431
| 25> H 6.342689568 1.3354936815 -0.3971347799
| 26> H 5.417744168 0.1702301686 0.5602114084
| 27> H 5.8884225431 -0.2267000451 -1.0979048391
| 28> H 4.4170417914 1.600711322 -1.9608791389
| 29> H 3.9357553586 1.9893027447 -0.2874061561
| 30> H 1.4471252333 -2.82335327 0.6167891209
| 31> H 0.5974038238 -3.0521316061 -0.9425205395
| 32> H 3.609441439 -2.6365742716 -0.5579145062
| 33> H 2.8337971789 -4.1721269967 -0.9837103776
| 34> H 2.8046472079 -2.8127306733 -2.1257373917
| 35> H -0.4330150994 2.1577536965 1.8659535529
| 36> H 0.9339484566 1.1105732464 2.3927582034
| 37> H -2.5750118777 3.6355459316 -0.5337168862
| 38> H -2.0203200338 2.4460605225 -1.7488899137
| 39> H -4.4156496022 3.0916303509 -2.1310701521
| 40> H -4.235729241 1.3700328268 -1.7573937624
| 41> H -4.8184016062 2.4853535036 -0.5120361372
| 42> H -3.4959598451 -2.1512331947 -0.57995155
| 43> H -3.2789188234 -2.2930962852 1.184428847
| 44> H -5.8576081242 -1.4293429528 -0.2298417514
| 45> H -5.5765596877 -2.9989318647 0.5406684021
| 46> H -5.6372083741 -1.5244463021 1.5215640865
| 47> *
| 48>
| 49>                          ****END OF INPUT****

CARTESIAN COORDINATES (ANGSTROEM)
---------------------------------
  C      5.569451    0.575207   -0.437911
  C      4.286592    1.196963   -0.955114
  O      3.250474    0.203192   -1.099789
  P      2.207317   -0.120246    0.051567
  S      2.927682   -0.619242    1.808727
  O      1.290533   -1.196276   -0.649113
  C      1.471029   -2.613072   -0.457847
  C      2.766284   -3.092783   -1.076196
  S      0.956802    1.583625    0.033964
  C      0.167142    1.281855    1.635673
  S     -0.882343   -0.201775    1.659274
  P     -2.138008    0.220827   -0.008652
  S     -1.611108   -0.402523   -1.794835
  O     -2.348842    1.773154    0.182563
  C     -2.716385    2.626910   -0.923549
  C     -4.144757    2.379489   -1.358036
  O     -3.531328   -0.372524    0.474120
  C     -3.832733   -1.778298    0.393673
  C     -5.329056   -1.942924    0.567982
  H      6.342690    1.335494   -0.397135
  H      5.417744    0.170230    0.560211
  H      5.888423   -0.226700   -1.097905
  H      4.417042    1.600711   -1.960879
  H      3.935755    1.989303   -0.287406
  H      1.447125   -2.823353    0.616789
  H      0.597404   -3.052132   -0.942521
  H      3.609441   -2.636574   -0.557915
  H      2.833797   -4.172127   -0.983710
  H      2.804647   -2.812731   -2.125737
  H     -0.433015    2.157754    1.865954
  H      0.933948    1.110573    2.392758
  H     -2.575012    3.635546   -0.533717
  H     -2.020320    2.446061   -1.748890
  H     -4.415650    3.091630   -2.131070
  H     -4.235729    1.370033   -1.757394
  H     -4.818402    2.485354   -0.512036
  H     -3.495960   -2.151233   -0.579952
  H     -3.278919   -2.293096    1.184429
  H     -5.857608   -1.429343   -0.229842
  H     -5.576560   -2.998932    0.540668
  H     -5.637208   -1.524446    1.521564

 Total Charge           Charge          ....    0
 Multiplicity           Mult            ....    1
 Number of Electrons    NEL             ....  202
 Basis Dimension        Dim             ....  334

ORBITAL ENERGIES
----------------

  NO   OCC          E(Eh)            E(eV)
   0   2.0000     -88.041041     -2395.7185
   1   2.0000     -88.035319     -2395.5628
   2   2.0000     -87.986157     -2394.2251
   3   2.0000     -87.980292     -2394.0655
   4   2.0000     -76.424285     -2079.6105
   5   2.0000     -76.423215     -2079.5814
   6   2.0000     -18.795746      -511.4583
   7   2.0000     -18.792303      -511.3646
   8   2.0000     -18.788336      -511.2566
   9   2.0000     -18.782721      -511.1038
  10   2.0000      -9.954727      -270.8819
  11   2.0000      -9.954204      -270.8677
  12   2.0000      -9.953324      -270.8437
  13   2.0000      -9.952375      -270.8179
  14   2.0000      -9.943037      -270.5638
  15   2.0000      -9.887961      -269.0651
  16   2.0000      -9.883845      -268.9531
  17   2.0000      -9.880813      -268.8706
  18   2.0000      -9.877668      -268.7850
  19   2.0000      -7.686187      -209.1518
  20   2.0000      -7.680578      -208.9992
  21   2.0000      -7.631124      -207.6534
  22   2.0000      -7.625323      -207.4956
  23   2.0000      -6.421818      -174.7466
  24   2.0000      -6.420831      -174.7197
  25   2.0000      -5.713983      -155.4854
  26   2.0000      -5.710723      -155.3967
  27   2.0000      -5.708701      -155.3417
  28   2.0000      -5.705177      -155.2458
  29   2.0000      -5.703166      -155.1910
  30   2.0000      -5.697191      -155.0284
  31   2.0000      -5.659847      -154.0123
  32   2.0000      -5.654166      -153.8577
  33   2.0000      -5.651824      -153.7939
  34   2.0000      -5.651402      -153.7825
  35   2.0000      -5.646106      -153.6384
  36   2.0000      -5.645414      -153.6195
  37   2.0000      -4.644207      -126.3753
  38   2.0000      -4.643581      -126.3583
  39   2.0000      -4.643501      -126.3561
  40   2.0000      -4.642665      -126.3333
  41   2.0000      -4.642468      -126.3280
  42   2.0000      -4.641081      -126.2902
  43   2.0000      -0.987701       -26.8767
  44   2.0000      -0.984037       -26.7770
  45   2.0000      -0.947126       -25.7726
  46   2.0000      -0.942172       -25.6378
  47   2.0000      -0.761622       -20.7248
  48   2.0000      -0.719854       -19.5882
  49   2.0000      -0.706488       -19.2245
  50   2.0000      -0.689105       -18.7515
  51   2.0000      -0.682872       -18.5819
  52   2.0000      -0.668769       -18.1981
  53   2.0000      -0.648250       -17.6398
  54   2.0000      -0.636533       -17.3209
  55   2.0000      -0.596883       -16.2420
  56   2.0000      -0.592466       -16.1218
  57   2.0000      -0.568741       -15.4762
  58   2.0000      -0.565477       -15.3874
  59   2.0000      -0.560443       -15.2504
  60   2.0000      -0.504459       -13.7270
  61   2.0000      -0.495895       -13.4940
  62   2.0000      -0.479681       -13.0528
  63   2.0000      -0.470424       -12.8009
  64   2.0000      -0.455716       -12.4007
  65   2.0000      -0.440354       -11.9826
  66   2.0000      -0.436889       -11.8884
  67   2.0000      -0.435594       -11.8531
  68   2.0000      -0.424628       -11.5547
  69   2.0000      -0.409770       -11.1504
  70   2.0000      -0.402467       -10.9517
  71   2.0000      -0.397732       -10.8228
  72   2.0000      -0.392788       -10.6883
  73   2.0000      -0.385680       -10.4949
  74   2.0000      -0.377399       -10.2696
  75   2.0000      -0.374266       -10.1843
  76   2.0000      -0.368455       -10.0262
  77   2.0000      -0.356930        -9.7126
  78   2.0000      -0.351316        -9.5598
  79   2.0000      -0.349359        -9.5065
  80   2.0000      -0.347167        -9.4469
  81   2.0000      -0.344120        -9.3640
  82   2.0000      -0.342249        -9.3131
  83   2.0000      -0.333337        -9.0706
  84   2.0000      -0.330272        -8.9872
  85   2.0000      -0.319939        -8.7060
  86   2.0000      -0.308694        -8.4000
  87   2.0000      -0.298797        -8.1307
  88   2.0000      -0.296292        -8.0625
  89   2.0000      -0.287974        -7.8362
  90   2.0000      -0.281309        -7.6548
  91   2.0000      -0.274558        -7.4711
  92   2.0000      -0.269440        -7.3318
  93   2.0000      -0.262577        -7.1451
  94   2.0000      -0.257524        -7.0076
  95   2.0000      -0.234337        -6.3766
  96   2.0000      -0.216002        -5.8777
  97   2.0000      -0.207015        -5.6332
  98   2.0000      -0.202222        -5.5028
  99   2.0000      -0.195500        -5.3198
 100   2.0000      -0.188705        -5.1349
 101   0.0000      -0.045688        -1.2432
 102   0.0000      -0.019141        -0.5209
 103   0.0000      -0.015892        -0.4324
 104   0.0000       0.003983         0.1084
 105   0.0000       0.025840         0.7031

MULLIKEN ATOMIC CHARGES
-----------------------
   0 C :   -0.295424
   1 C :   -0.010961
   2 O :   -0.368199
   3 P :    0.620406
   4 S :   -0.341968
   5 O :   -0.340840
   6 C :    0.003380
   7 C :   -0.311981
   8 S :   -0.089380
   9 C :   -0.346089
  10 S :   -0.104122
  11 P :    0.619490
  12 S :   -0.313677
  13 O :   -0.374811
  14 C :   -0.006433
  15 C :   -0.304031
  16 O :   -0.374013
  17 C :   -0.013212
  18 C :   -0.280486
  19 H :    0.107378
  20 H :    0.130396
  21 H :    0.114921
  22 H :    0.109133
  23 H :    0.101597
  24 H :    0.109625
  25 H :    0.103979
  26 H :    0.122188
  27 H :    0.109466
  28 H :    0.118448
  29 H :    0.186174
  30 H :    0.192720
  31 H :    0.103040
  32 H :    0.117322
  33 H :    0.112295
  34 H :    0.123681
  35 H :    0.116396
  36 H :    0.103595
  37 H :    0.101758
  38 H :    0.118925
  39 H :    0.111153
  40 H :    0.118163
Sum of atomic charges:   -0.0000000

LOEWDIN ATOMIC CHARGES
----------------------
   0 C :   -0.364084
   1 C :   -0.115264
   2 O :   -0.242207
   3 P :    0.573779
   4 S :   -0.323612
   5 O :   -0.223340
   6 C :   -0.115557
   7 C :   -0.365841
   8 S :    0.085384
   9 C :   -0.476282
  10 S :    0.067074
  11 P :    0.568428
  12 S :   -0.310453
  13 O :   -0.238733
  14 C :   -0.117231
  15 C :   -0.364634
  16 O :   -0.250028
  17 C :   -0.121500
  18 C :   -0.350093
  19 H :    0.128712
  20 H :    0.124527
  21 H :    0.125728
  22 H :    0.119771
  23 H :    0.106593
  24 H :    0.109333
  25 H :    0.118086
  26 H :    0.120698
  27 H :    0.129160
  28 H :    0.127006
  29 H :    0.133093
  30 H :    0.129175
  31 H :    0.117439
  32 H :    0.112954
  33 H :    0.130848
  34 H :    0.122716
  35 H :    0.126457
  36 H :    0.106474
  37 H :    0.109443
  38 H :    0.127925
  39 H :    0.130421
  40 H :    0.127636

  Mayer bond orders larger than 0.100000
B(  0-C ,  1-C ) :   1.1671 B(  0-C , 19-H ) :   0.9394 B(  0-C , 20-H ) :   0.9313
B(  0-C , 21-H ) :   0.9465 B(  1-C ,  2-O ) :   0.9049 B(  1-C , 22-H ) :   0.9358
B(  1-C , 23-H ) :   0.9156 B(  2-O ,  3-P ) :   1.1148 B(  3-P ,  4-S ) :   1.5885
B(  3-P ,  5-O ) :   1.1558 B(  3-P ,  8-S ) :   0.9495 B(  4-S ,  8-S ) :   0.1107
B(  5-O ,  6-C ) :   0.9036 B(  6-C ,  7-C ) :   1.1638 B(  6-C , 24-H ) :   0.9180
B(  6-C , 25-H ) :   0.9295 B(  7-C , 26-H ) :   0.9346 B(  7-C , 27-H ) :   0.9394
B(  7-C , 28-H ) :   0.9458 B(  8-S ,  9-C ) :   1.0113 B(  9-C , 10-S ) :   1.0046
B(  9-C , 29-H ) :   0.9028 B(  9-C , 30-H ) :   0.8773 B( 10-S , 11-P ) :   0.9487
B( 10-S , 12-S ) :   0.1059 B( 11-P , 12-S ) :   1.6385 B( 11-P , 13-O ) :   1.1171
B( 11-P , 16-O ) :   1.0969 B( 13-O , 14-C ) :   0.8957 B( 14-C , 15-C ) :   1.1664
B( 14-C , 31-H ) :   0.9340 B( 14-C , 32-H ) :   0.9144 B( 15-C , 33-H ) :   0.9387
B( 15-C , 34-H ) :   0.9331 B( 15-C , 35-H ) :   0.9459 B( 16-O , 17-C ) :   0.9102
B( 17-C , 18-C ) :   1.1612 B( 17-C , 36-H ) :   0.9079 B( 17-C , 37-H ) :   0.9285
B( 18-C , 38-H ) :   0.9519 B( 18-C , 39-H ) :   0.9419 B( 18-C , 40-H ) :   0.9505

Dispersion correction           -0.065286389
FINAL SINGLE POINT ENERGY     -2929.520915301201

DIPOLE MOMENT
-------------

Method             : SCF
Type of density    : Electron Density
Multiplicity       :   1
Irrep              :   0
Energy             : -2929.6389660346303572 Eh
Relativity type    :
Basis              : AO
                                X                 Y                 Z
Electronic contribution:      3.556921883       4.901493877       6.566722497
Nuclear contribution   :     -3.983885920      -4.529915154      -6.824750723
                        -----------------------------------------
Total Dipole Moment    :     -0.426964037       0.371578723      -0.258028226
                        -----------------------------------------
Magnitude (a.u.)       :      0.622051125
Magnitude (Debye)      :      1.581128304

Rotational constants in cm-1:             0.013681             0.004758             0.004369
Rotational constants in MHz :           410.138116           142.629189           130.971854

                             ****ORCA TERMINATED NORMALLY****
TOTAL RUN TIME: 0 days 0 hours 0 minutes 20 seconds 811 msec
