                         Program Version 6.0.0  -   RELEASE  -
|  1> ! pbe def2-sv(p) def2/J RI DEFGRID1 loosescf d4 GCP(DFT/SV(P)) printgap
|  2> %output
|  3>     printlevel normal
|  4> end
|  5> * xyz 0 1
|  6> C 2.4046402191 2.9244327532 0.7416113668
|  7> C 2.0034547883 2.1665465316 -0.5069326873
|  8> O 1.3387662966 0.9236164502 -0.1894487366
|  9> P 2.0493454536 -0.3244643933 0.4885034243
| 10> S 2.1590027061 -0.3626719971 2.4497883002
| 11> O 3.4555962483 -0.3333303521 -0.2472781607
| 12> C 4.5743610596 -1.0863078663 0.2551706919
| 13> C 4.3796682045 -2.5777553881 0.0777654613
| 14> S 0.972841437 -1.9121068658 -0.4055986741
| 15> C -0.4111747024 -1.9646658916 0.7764571019
| 16> S -1.114304038 -0.3474220446 1.1721014026
| 17> P -2.0803061154 0.1206301208 -0.6872251767
| 18> S -1.0714221943 0.0576655106 -2.3588617114
| 19> O -2.7456429961 1.5119725203 -0.298996365
| 20> C -1.9691702528 2.7004421109 -0.0493698787
| 21> C -1.7800440776 3.5070830353 -1.3193991681
| 22> O -3.3081071253 -0.862128674 -0.7592468096
| 23> C -4.3381126648 -0.9522699985 0.2569963191
| 24> C -5.5308567117 -0.0954564994 -0.1143926051
| 25> H 3.1392211205 2.3512020192 1.3060843049
| 26> H 2.8375122833 3.8789714646 0.4598771512
| 27> H 1.5398793526 3.0938966202 1.3792324562
| 28> H 2.8706615666 1.9446819061 -1.1318344127
| 29> H 1.2596810136 2.7096536031 -1.093039565
| 30> H 5.4204191117 -0.7172622155 -0.3260413696
| 31> H 4.7089760663 -0.83919604 1.3133326725
| 32> H 3.5703057564 -2.9258545814 0.7179543757
| 33> H 4.1297418352 -2.8060769819 -0.9554308954
| 34> H 5.293679998 -3.0945232596 0.3519403905
| 35> H -0.0582726863 -2.3655422931 1.7258303301
| 36> H -1.1670328119 -2.6084795475 0.331597402
| 37> H -2.5487020217 3.2550874779 0.6913856842
| 38> H -1.007559734 2.4140802673 0.3854401441
| 39> H -1.2284169532 2.9260793176 -2.0557873277
| 40> H -2.7460773091 3.7692084539 -1.7416067981
| 41> H -1.2301864812 4.4145092951 -1.0903092446
| 42> H -4.603521588 -2.010727947 0.282460392
| 43> H -3.9157035113 -0.6501968165 1.2192247621
| 44> H -5.9054505813 -0.3841570457 -1.0925843383
| 45> H -6.3126938585 -0.2357122142 0.6255283613
| 46> H -5.2469539664 0.9528415463 -0.143988748
| 47> *
| 48>
| 49>                          ****END OF INPUT****

CARTESIAN COORDINATES (ANGSTROEM)
---------------------------------
  C      2.404640    2.924433    0.741611
  C      2.003455    2.166547   -0.506933
  O      1.338766    0.923616   -0.189449
  P      2.049345   -0.324464    0.488503
  S      2.159003   -0.362672    2.449788
  O      3.455596   -0.333330   -0.247278
  C      4.574361   -1.086308    0.255171
  C      4.379668   -2.577755    0.077765
  S      0.972841   -1.912107   -0.405599
  C     -0.411175   -1.964666    0.776457
  S     -1.114304   -0.347422    1.172101
  P     -2.080306    0.120630   -0.687225
  S     -1.071422    0.057666   -2.358862
  O     -2.745643    1.511973   -0.298996
  C     -1.969170    2.700442   -0.049370
  C     -1.780044    3.507083   -1.319399
  O     -3.308107   -0.862129   -0.759247
  C     -4.338113   -0.952270    0.256996
  C     -5.530857   -0.095456   -0.114393
  H      3.139221    2.351202    1.306084
  H      2.837512    3.878971    0.459877
  H      1.539879    3.093897    1.379232
  H      2.870662    1.944682   -1.131834
  H      1.259681    2.709654   -1.093040
  H      5.420419   -0.717262   -0.326041
  H      4.708976   -0.839196    1.313333
  H      3.570306   -2.925855    0.717954
  H      4.129742   -2.806077   -0.955431
  H      5.293680   -3.094523    0.351940
  H     -0.058273   -2.365542    1.725830
  H     -1.167033   -2.608480    0.331597
  H     -2.548702    3.255087    0.691386
  H     -1.007560    2.414080    0.385440
  H     -1.228417    2.926079   -2.055787
  H     -2.746077    3.769208   -1.741607
  H     -1.230186    4.414509   -1.090309
  H     -4.603522   -2.010728    0.282460
  H     -3.915704   -0.650197    1.219225
  H     -5.905451   -0.384157   -1.092584
  H     -6.312694   -0.235712    0.625528
  H     -5.246954    0.952842   -0.143989

 Total Charge           Charge          ....    0
 Multiplicity           Mult            ....    1
 Number of Electrons    NEL             ....  202
 Basis Dimension        Dim             ....  334

ORBITAL ENERGIES
----------------

  NO   OCC          E(Eh)            E(eV)
   0   2.0000     -88.039655     -2395.6808
   1   2.0000     -88.034653     -2395.5447
   2   2.0000     -87.982836     -2394.1347
   3   2.0000     -87.976494     -2393.9621
   4   2.0000     -76.425265     -2079.6372
   5   2.0000     -76.421852     -2079.5443
   6   2.0000     -18.795713      -511.4573
   7   2.0000     -18.793884      -511.4076
   8   2.0000     -18.790909      -511.3266
   9   2.0000     -18.783006      -511.1116
  10   2.0000      -9.957818      -270.9660
  11   2.0000      -9.957454      -270.9561
  12   2.0000      -9.954757      -270.8827
  13   2.0000      -9.952637      -270.8250
  14   2.0000      -9.951669      -270.7987
  15   2.0000      -9.885384      -268.9950
  16   2.0000      -9.883331      -268.9391
  17   2.0000      -9.883204      -268.9356
  18   2.0000      -9.883067      -268.9319
  19   2.0000      -7.683907      -209.0898
  20   2.0000      -7.679931      -208.9816
  21   2.0000      -7.627920      -207.5663
  22   2.0000      -7.621758      -207.3986
  23   2.0000      -6.422170      -174.7561
  24   2.0000      -6.419231      -174.6762
  25   2.0000      -5.711707      -155.4234
  26   2.0000      -5.708419      -155.3340
  27   2.0000      -5.708029      -155.3234
  28   2.0000      -5.704603      -155.2301
  29   2.0000      -5.701031      -155.1329
  30   2.0000      -5.696432      -155.0078
  31   2.0000      -5.656724      -153.9273
  32   2.0000      -5.650842      -153.7672
  33   2.0000      -5.648709      -153.7092
  34   2.0000      -5.648071      -153.6918
  35   2.0000      -5.642318      -153.5353
  36   2.0000      -5.641776      -153.5205
  37   2.0000      -4.645320      -126.4056
  38   2.0000      -4.643694      -126.3613
  39   2.0000      -4.642440      -126.3272
  40   2.0000      -4.642355      -126.3249
  41   2.0000      -4.641129      -126.2915
  42   2.0000      -4.639067      -126.2354
  43   2.0000      -0.987978       -26.8843
  44   2.0000      -0.986442       -26.8425
  45   2.0000      -0.945892       -25.7390
  46   2.0000      -0.941288       -25.6137
  47   2.0000      -0.761015       -20.7083
  48   2.0000      -0.718079       -19.5399
  49   2.0000      -0.708391       -19.2763
  50   2.0000      -0.691440       -18.8150
  51   2.0000      -0.687678       -18.7127
  52   2.0000      -0.669657       -18.2223
  53   2.0000      -0.647718       -17.6253
  54   2.0000      -0.637201       -17.3391
  55   2.0000      -0.594011       -16.1639
  56   2.0000      -0.584937       -15.9169
  57   2.0000      -0.576727       -15.6936
  58   2.0000      -0.573822       -15.6145
  59   2.0000      -0.563385       -15.3305
  60   2.0000      -0.507258       -13.8032
  61   2.0000      -0.495158       -13.4739
  62   2.0000      -0.480352       -13.0710
  63   2.0000      -0.469458       -12.7746
  64   2.0000      -0.456321       -12.4171
  65   2.0000      -0.449392       -12.2286
  66   2.0000      -0.438405       -11.9296
  67   2.0000      -0.430367       -11.7109
  68   2.0000      -0.426472       -11.6049
  69   2.0000      -0.413046       -11.2395
  70   2.0000      -0.406459       -11.0603
  71   2.0000      -0.405022       -11.0212
  72   2.0000      -0.393406       -10.7051
  73   2.0000      -0.387593       -10.5469
  74   2.0000      -0.375108       -10.2072
  75   2.0000      -0.372071       -10.1246
  76   2.0000      -0.363250        -9.8845
  77   2.0000      -0.358972        -9.7681
  78   2.0000      -0.353911        -9.6304
  79   2.0000      -0.351882        -9.5752
  80   2.0000      -0.346530        -9.4295
  81   2.0000      -0.345385        -9.3984
  82   2.0000      -0.339979        -9.2513
  83   2.0000      -0.338333        -9.2065
  84   2.0000      -0.333251        -9.0682
  85   2.0000      -0.323374        -8.7995
  86   2.0000      -0.311533        -8.4773
  87   2.0000      -0.298584        -8.1249
  88   2.0000      -0.295131        -8.0309
  89   2.0000      -0.291711        -7.9379
  90   2.0000      -0.286597        -7.7987
  91   2.0000      -0.274860        -7.4793
  92   2.0000      -0.272815        -7.4237
  93   2.0000      -0.259113        -7.0508
  94   2.0000      -0.257576        -7.0090
  95   2.0000      -0.238951        -6.5022
  96   2.0000      -0.213701        -5.8151
  97   2.0000      -0.203227        -5.5301
  98   2.0000      -0.196672        -5.3517
  99   2.0000      -0.192174        -5.2293
 100   2.0000      -0.179886        -4.8949
 101   0.0000      -0.045770        -1.2455
 102   0.0000      -0.025693        -0.6991
 103   0.0000      -0.003228        -0.0878
 104   0.0000       0.002989         0.0813
 105   0.0000       0.018719         0.5094

MULLIKEN ATOMIC CHARGES
-----------------------
   0 C :   -0.312522
   1 C :   -0.010863
   2 O :   -0.364861
   3 P :    0.631883
   4 S :   -0.339647
   5 O :   -0.380783
   6 C :   -0.005275
   7 C :   -0.315068
   8 S :   -0.068571
   9 C :   -0.329036
  10 S :   -0.101302
  11 P :    0.595675
  12 S :   -0.292363
  13 O :   -0.383956
  14 C :   -0.042885
  15 C :   -0.298845
  16 O :   -0.360312
  17 C :   -0.011916
  18 C :   -0.289976
  19 H :    0.124853
  20 H :    0.107881
  21 H :    0.121457
  22 H :    0.112833
  23 H :    0.110049
  24 H :    0.103647
  25 H :    0.111623
  26 H :    0.126687
  27 H :    0.120075
  28 H :    0.113005
  29 H :    0.189816
  30 H :    0.178483
  31 H :    0.107041
  32 H :    0.134897
  33 H :    0.140687
  34 H :    0.114831
  35 H :    0.105101
  36 H :    0.105731
  37 H :    0.101155
  38 H :    0.119925
  39 H :    0.108520
  40 H :    0.122325
Sum of atomic charges:   -0.0000000

LOEWDIN ATOMIC CHARGES
----------------------
   0 C :   -0.364758
   1 C :   -0.112560
   2 O :   -0.242571
   3 P :    0.573842
   4 S :   -0.333646
   5 O :   -0.242699
   6 C :   -0.120516
   7 C :   -0.369246
   8 S :    0.094388
   9 C :   -0.472744
  10 S :    0.082217
  11 P :    0.557535
  12 S :   -0.297812
  13 O :   -0.248949
  14 C :   -0.117538
  15 C :   -0.365768
  16 O :   -0.238445
  17 C :   -0.117719
  18 C :   -0.359073
  19 H :    0.122862
  20 H :    0.127754
  21 H :    0.125813
  22 H :    0.114276
  23 H :    0.117466
  24 H :    0.117608
  25 H :    0.109836
  26 H :    0.121335
  27 H :    0.125847
  28 H :    0.131238
  29 H :    0.134259
  30 H :    0.133343
  31 H :    0.118477
  32 H :    0.111091
  33 H :    0.125042
  34 H :    0.127301
  35 H :    0.126587
  36 H :    0.118810
  37 H :    0.103255
  38 H :    0.128676
  39 H :    0.128919
  40 H :    0.126269

  Mayer bond orders larger than 0.100000
B(  0-C ,  1-C ) :   1.1640 B(  0-C , 19-H ) :   0.9343 B(  0-C , 20-H ) :   0.9374
B(  0-C , 21-H ) :   0.9484 B(  1-C ,  2-O ) :   0.9052 B(  1-C , 22-H ) :   0.9272
B(  1-C , 23-H ) :   0.9248 B(  2-O ,  3-P ) :   1.1087 B(  3-P ,  4-S ) :   1.5979
B(  3-P ,  5-O ) :   1.0892 B(  3-P ,  8-S ) :   0.9643 B(  4-S ,  8-S ) :   0.1197
B(  5-O ,  6-C ) :   0.9049 B(  6-C ,  7-C ) :   1.1675 B(  6-C , 24-H ) :   0.9328
B(  6-C , 25-H ) :   0.9123 B(  7-C , 26-H ) :   0.9342 B(  7-C , 27-H ) :   0.9451
B(  7-C , 28-H ) :   0.9378 B(  8-S ,  9-C ) :   0.9975 B(  9-C , 10-S ) :   1.0078
B(  9-C , 29-H ) :   0.8977 B(  9-C , 30-H ) :   0.9056 B( 10-S , 11-P ) :   0.9331
B( 10-S , 12-S ) :   0.1187 B( 11-P , 12-S ) :   1.7004 B( 11-P , 13-O ) :   1.0658
B( 11-P , 16-O ) :   1.1222 B( 13-O , 14-C ) :   0.9029 B( 14-C , 15-C ) :   1.1716
B( 14-C , 31-H ) :   0.9352 B( 14-C , 32-H ) :   0.9079 B( 15-C , 33-H ) :   0.9218
B( 15-C , 34-H ) :   0.9445 B( 15-C , 35-H ) :   0.9376 B( 16-O , 17-C ) :   0.8946
B( 17-C , 18-C ) :   1.1671 B( 17-C , 36-H ) :   0.9357 B( 17-C , 37-H ) :   0.9088
B( 18-C , 38-H ) :   0.9472 B( 18-C , 39-H ) :   0.9399 B( 18-C , 40-H ) :   0.9420

Dispersion correction           -0.067104745
FINAL SINGLE POINT ENERGY     -2929.512214056114

DIPOLE MOMENT
-------------

Method             : SCF
Type of density    : Electron Density
Multiplicity       :   1
Irrep              :   0
Energy             : -2929.6298549810376244 Eh
Relativity type    :
Basis              : AO
                                X                 Y                 Z
Electronic contribution:      1.018045034     -12.031692101      -0.830528649
Nuclear contribution   :     -1.144644704      12.538964746       1.218188354
                        -----------------------------------------
Total Dipole Moment    :     -0.126599671       0.507272646       0.387659705
                        -----------------------------------------
Magnitude (a.u.)       :      0.650871001
Magnitude (Debye)      :      1.654382610

Rotational constants in cm-1:             0.013031             0.005314             0.004717
Rotational constants in MHz :           390.674421           159.299085           141.420722

                             ****ORCA TERMINATED NORMALLY****
TOTAL RUN TIME: 0 days 0 hours 0 minutes 21 seconds 282 msec
