                         Program Version 6.0.0  -   RELEASE  -
|  1> ! pbe def2-sv(p) def2/J RI DEFGRID1 loosescf d4 GCP(DFT/SV(P)) printgap
|  2> %output
|  3>     printlevel normal
|  4> end
|  5> * xyz 0 1
|  6> C 3.9780328305 1.7499917425 -1.7528588081
|  7> C 2.6546885418 1.0154247379 -1.7452976028
|  8> O 1.9484706271 1.2515939803 -0.5019076753
|  9> P 1.9501103331 0.2300836616 0.6931513166
| 10> S 0.9923370946 0.9043856077 2.2565236879
| 11> O 3.5083072065 -0.0034503198 0.9187114653
| 12> C 4.0357638097 -0.6826194522 2.0741658135
| 13> C 4.2593994593 -2.1575255655 1.8022849668
| 14> S 1.2549756746 -1.6376881848 -0.083468984
| 15> C -0.2535696645 -1.8558064167 0.9077923687
| 16> S -1.7757379747 -2.0022275735 -0.0625714386
| 17> P -1.9768865222 -0.0641629295 -0.8591196348
| 18> S -0.7478628451 0.589258711 -2.2318929488
| 19> O -1.9710247947 0.7952294729 0.4919598984
| 20> C -1.6755782718 2.1996394675 0.4890019721
| 21> C -2.8153893907 3.0047737517 -0.0974992446
| 22> O -3.4401833112 -0.0823281241 -1.4662134088
| 23> C -4.5848724288 -0.8016381255 -0.9501330723
| 24> C -5.0101499771 -0.316037195 0.4194228466
| 25> H 4.6314575542 1.3589369094 -0.9775580018
| 26> H 4.4479821769 1.6167057965 -2.722113025
| 27> H 3.8143658798 2.8093745968 -1.5756474738
| 28> H 2.7915810382 -0.0614401077 -1.8763334823
| 29> H 1.9775203027 1.3853762449 -2.5183634767
| 30> H 4.9795848513 -0.1736168446 2.2789119864
| 31> H 3.3526827184 -0.5282057973 2.9158331743
| 32> H 4.74664053 -2.6034919912 2.6634032103
| 33> H 3.3153803195 -2.6662436208 1.6252094605
| 34> H 4.8921991681 -2.2832533901 0.9280970613
| 35> H -0.3367799302 -1.0214830575 1.6099607959
| 36> H -0.171975753 -2.8050728397 1.4319902091
| 37> H -1.4967906448 2.4382955457 1.5390095595
| 38> H -0.7525299713 2.3629012712 -0.0797162197
| 39> H -2.980791411 2.7030836837 -1.1319362559
| 40> H -3.72541197 2.8402341647 0.4729487434
| 41> H -2.5600798095 4.0593946039 -0.0719515979
| 42> H -5.3546515306 -0.6144264141 -1.7007458151
| 43> H -4.3406576046 -1.8664270743 -0.930003359
| 44> H -5.2457959904 0.7445634739 0.3883854498
| 45> H -5.8917456026 -0.8675783122 0.7308626074
| 46> H -4.2153161913 -0.4811873843 1.1437705561
| 47> *
| 48>
| 49>                          ****END OF INPUT****

CARTESIAN COORDINATES (ANGSTROEM)
---------------------------------
  C      3.978033    1.749992   -1.752859
  C      2.654689    1.015425   -1.745298
  O      1.948471    1.251594   -0.501908
  P      1.950110    0.230084    0.693151
  S      0.992337    0.904386    2.256524
  O      3.508307   -0.003450    0.918711
  C      4.035764   -0.682619    2.074166
  C      4.259399   -2.157526    1.802285
  S      1.254976   -1.637688   -0.083469
  C     -0.253570   -1.855806    0.907792
  S     -1.775738   -2.002228   -0.062571
  P     -1.976887   -0.064163   -0.859120
  S     -0.747863    0.589259   -2.231893
  O     -1.971025    0.795229    0.491960
  C     -1.675578    2.199639    0.489002
  C     -2.815389    3.004774   -0.097499
  O     -3.440183   -0.082328   -1.466213
  C     -4.584872   -0.801638   -0.950133
  C     -5.010150   -0.316037    0.419423
  H      4.631458    1.358937   -0.977558
  H      4.447982    1.616706   -2.722113
  H      3.814366    2.809375   -1.575647
  H      2.791581   -0.061440   -1.876333
  H      1.977520    1.385376   -2.518363
  H      4.979585   -0.173617    2.278912
  H      3.352683   -0.528206    2.915833
  H      4.746641   -2.603492    2.663403
  H      3.315380   -2.666244    1.625209
  H      4.892199   -2.283253    0.928097
  H     -0.336780   -1.021483    1.609961
  H     -0.171976   -2.805073    1.431990
  H     -1.496791    2.438296    1.539010
  H     -0.752530    2.362901   -0.079716
  H     -2.980791    2.703084   -1.131936
  H     -3.725412    2.840234    0.472949
  H     -2.560080    4.059395   -0.071952
  H     -5.354652   -0.614426   -1.700746
  H     -4.340658   -1.866427   -0.930003
  H     -5.245796    0.744563    0.388385
  H     -5.891746   -0.867578    0.730863
  H     -4.215316   -0.481187    1.143771

 Total Charge           Charge          ....    0
 Multiplicity           Mult            ....    1
 Number of Electrons    NEL             ....  202
 Basis Dimension        Dim             ....  334

ORBITAL ENERGIES
----------------

  NO   OCC          E(Eh)            E(eV)
   0   2.0000     -88.043382     -2395.7822
   1   2.0000     -88.042613     -2395.7613
   2   2.0000     -87.990127     -2394.3331
   3   2.0000     -87.973989     -2393.8939
   4   2.0000     -76.426868     -2079.6808
   5   2.0000     -76.420157     -2079.4982
   6   2.0000     -18.793855      -511.4068
   7   2.0000     -18.789530      -511.2891
   8   2.0000     -18.788735      -511.2675
   9   2.0000     -18.783040      -511.1125
  10   2.0000      -9.957857      -270.9671
  11   2.0000      -9.956693      -270.9354
  12   2.0000      -9.954692      -270.8809
  13   2.0000      -9.950898      -270.7777
  14   2.0000      -9.934970      -270.3443
  15   2.0000      -9.887451      -269.0512
  16   2.0000      -9.886339      -269.0210
  17   2.0000      -9.882885      -268.9270
  18   2.0000      -9.875356      -268.7221
  19   2.0000      -7.688917      -209.2261
  20   2.0000      -7.687269      -209.1812
  21   2.0000      -7.635111      -207.7619
  22   2.0000      -7.619252      -207.3304
  23   2.0000      -6.424663      -174.8240
  24   2.0000      -6.417776      -174.6366
  25   2.0000      -5.716887      -155.5644
  26   2.0000      -5.715120      -155.5163
  27   2.0000      -5.713160      -155.4630
  28   2.0000      -5.711858      -155.4276
  29   2.0000      -5.705951      -155.2668
  30   2.0000      -5.704235      -155.2201
  31   2.0000      -5.663975      -154.1246
  32   2.0000      -5.655611      -153.8970
  33   2.0000      -5.655346      -153.8898
  34   2.0000      -5.648292      -153.6978
  35   2.0000      -5.639967      -153.4713
  36   2.0000      -5.639108      -153.4479
  37   2.0000      -4.647329      -126.4603
  38   2.0000      -4.646274      -126.4316
  39   2.0000      -4.645163      -126.4013
  40   2.0000      -4.640725      -126.2806
  41   2.0000      -4.639509      -126.2475
  42   2.0000      -4.637951      -126.2051
  43   2.0000      -0.988374       -26.8950
  44   2.0000      -0.977914       -26.6104
  45   2.0000      -0.944156       -25.6918
  46   2.0000      -0.940061       -25.5803
  47   2.0000      -0.761267       -20.7151
  48   2.0000      -0.720316       -19.6008
  49   2.0000      -0.709137       -19.2966
  50   2.0000      -0.690413       -18.7871
  51   2.0000      -0.686910       -18.6918
  52   2.0000      -0.671590       -18.2749
  53   2.0000      -0.648488       -17.6463
  54   2.0000      -0.637566       -17.3491
  55   2.0000      -0.597030       -16.2460
  56   2.0000      -0.586629       -15.9630
  57   2.0000      -0.574400       -15.6302
  58   2.0000      -0.570523       -15.5247
  59   2.0000      -0.561186       -15.2706
  60   2.0000      -0.504486       -13.7278
  61   2.0000      -0.489393       -13.3171
  62   2.0000      -0.478833       -13.0297
  63   2.0000      -0.469570       -12.7776
  64   2.0000      -0.451164       -12.2768
  65   2.0000      -0.448263       -12.1978
  66   2.0000      -0.441432       -12.0120
  67   2.0000      -0.432132       -11.7589
  68   2.0000      -0.425280       -11.5725
  69   2.0000      -0.415944       -11.3184
  70   2.0000      -0.407680       -11.0935
  71   2.0000      -0.396879       -10.7996
  72   2.0000      -0.389653       -10.6030
  73   2.0000      -0.387713       -10.5502
  74   2.0000      -0.381051       -10.3689
  75   2.0000      -0.370917       -10.0932
  76   2.0000      -0.362896        -9.8749
  77   2.0000      -0.355616        -9.6768
  78   2.0000      -0.354513        -9.6468
  79   2.0000      -0.351406        -9.5623
  80   2.0000      -0.346184        -9.4202
  81   2.0000      -0.344433        -9.3725
  82   2.0000      -0.339740        -9.2448
  83   2.0000      -0.333485        -9.0746
  84   2.0000      -0.332801        -9.0560
  85   2.0000      -0.317128        -8.6295
  86   2.0000      -0.309324        -8.4171
  87   2.0000      -0.302327        -8.2267
  88   2.0000      -0.295967        -8.0537
  89   2.0000      -0.292101        -7.9485
  90   2.0000      -0.274969        -7.4823
  91   2.0000      -0.273398        -7.4395
  92   2.0000      -0.265878        -7.2349
  93   2.0000      -0.261653        -7.1199
  94   2.0000      -0.256572        -6.9817
  95   2.0000      -0.240007        -6.5309
  96   2.0000      -0.221685        -6.0323
  97   2.0000      -0.207291        -5.6407
  98   2.0000      -0.204032        -5.5520
  99   2.0000      -0.190432        -5.1819
 100   2.0000      -0.188034        -5.1167
 101   0.0000      -0.041295        -1.1237
 102   0.0000      -0.032026        -0.8715
 103   0.0000      -0.011559        -0.3145
 104   0.0000       0.001891         0.0514
 105   0.0000       0.014503         0.3947

MULLIKEN ATOMIC CHARGES
-----------------------
   0 C :   -0.280971
   1 C :   -0.020511
   2 O :   -0.342075
   3 P :    0.608692
   4 S :   -0.307025
   5 O :   -0.380244
   6 C :   -0.005314
   7 C :   -0.297960
   8 S :   -0.096771
   9 C :   -0.341429
  10 S :   -0.116084
  11 P :    0.627551
  12 S :   -0.320952
  13 O :   -0.383459
  14 C :   -0.022388
  15 C :   -0.308337
  16 O :   -0.371733
  17 C :   -0.024075
  18 C :   -0.315064
  19 H :    0.117594
  20 H :    0.109585
  21 H :    0.119218
  22 H :    0.104700
  23 H :    0.124219
  24 H :    0.107851
  25 H :    0.103505
  26 H :    0.110414
  27 H :    0.120387
  28 H :    0.112758
  29 H :    0.206664
  30 H :    0.179804
  31 H :    0.109099
  32 H :    0.121680
  33 H :    0.124108
  34 H :    0.113271
  35 H :    0.110123
  36 H :    0.113496
  37 H :    0.122329
  38 H :    0.125724
  39 H :    0.111851
  40 H :    0.129770
Sum of atomic charges:    0.0000000

LOEWDIN ATOMIC CHARGES
----------------------
   0 C :   -0.358558
   1 C :   -0.114100
   2 O :   -0.224126
   3 P :    0.571722
   4 S :   -0.284619
   5 O :   -0.247914
   6 C :   -0.118265
   7 C :   -0.365542
   8 S :    0.076694
   9 C :   -0.479977
  10 S :    0.080509
  11 P :    0.563903
  12 S :   -0.308714
  13 O :   -0.247110
  14 C :   -0.131549
  15 C :   -0.366323
  16 O :   -0.242837
  17 C :   -0.115958
  18 C :   -0.367617
  19 H :    0.124423
  20 H :    0.129747
  21 H :    0.128858
  22 H :    0.105981
  23 H :    0.119110
  24 H :    0.119558
  25 H :    0.107004
  26 H :    0.129967
  27 H :    0.117264
  28 H :    0.125360
  29 H :    0.123976
  30 H :    0.136609
  31 H :    0.114742
  32 H :    0.109570
  33 H :    0.123273
  34 H :    0.119622
  35 H :    0.130276
  36 H :    0.123653
  37 H :    0.109283
  38 H :    0.126908
  39 H :    0.131051
  40 H :    0.124147

  Mayer bond orders larger than 0.100000
B(  0-C ,  1-C ) :   1.1630 B(  0-C , 19-H ) :   0.9416 B(  0-C , 20-H ) :   0.9401
B(  0-C , 21-H ) :   0.9469 B(  1-C ,  2-O ) :   0.8847 B(  1-C , 22-H ) :   0.9187
B(  1-C , 23-H ) :   0.9238 B(  2-O ,  3-P ) :   1.1548 B(  3-P ,  4-S ) :   1.6261
B(  3-P ,  5-O ) :   1.0765 B(  3-P ,  8-S ) :   0.9520 B(  4-S ,  8-S ) :   0.1172
B(  4-S , 29-H ) :   0.1158 B(  5-O ,  6-C ) :   0.9060 B(  6-C ,  7-C ) :   1.1663
B(  6-C , 24-H ) :   0.9355 B(  6-C , 25-H ) :   0.9064 B(  7-C , 26-H ) :   0.9393
B(  7-C , 27-H ) :   0.9343 B(  7-C , 28-H ) :   0.9484 B(  8-S ,  9-C ) :   1.0076
B(  9-C , 10-S ) :   1.0007 B(  9-C , 29-H ) :   0.8435 B(  9-C , 30-H ) :   0.9127
B( 10-S , 11-P ) :   0.9602 B( 10-S , 12-S ) :   0.1045 B( 11-P , 12-S ) :   1.6556
B( 11-P , 13-O ) :   1.0780 B( 11-P , 16-O ) :   1.1137 B( 13-O , 14-C ) :   0.8966
B( 14-C , 15-C ) :   1.1550 B( 14-C , 31-H ) :   0.9276 B( 14-C , 32-H ) :   0.9097
B( 15-C , 33-H ) :   0.9347 B( 15-C , 34-H ) :   0.9406 B( 15-C , 35-H ) :   0.9398
B( 16-O , 17-C ) :   0.9060 B( 17-C , 18-C ) :   1.1636 B( 17-C , 36-H ) :   0.9341
B( 17-C , 37-H ) :   0.9218 B( 18-C , 38-H ) :   0.9400 B( 18-C , 39-H ) :   0.9358
B( 18-C , 40-H ) :   0.9347

Dispersion correction           -0.066919366
FINAL SINGLE POINT ENERGY     -2929.515935944199

DIPOLE MOMENT
-------------

Method             : SCF
Type of density    : Electron Density
Multiplicity       :   1
Irrep              :   0
Energy             : -2929.6357182526930956 Eh
Relativity type    :
Basis              : AO
                                X                 Y                 Z
Electronic contribution:     -1.651365934      -6.421549439      -3.476508141
Nuclear contribution   :      1.793422085       5.896971504       4.031349193
                        -----------------------------------------
Total Dipole Moment    :      0.142056151      -0.524577935       0.554841052
                        -----------------------------------------
Magnitude (a.u.)       :      0.776666308
Magnitude (Debye)      :      1.974128868

Rotational constants in cm-1:             0.013024             0.005193             0.004818
Rotational constants in MHz :           390.457830           155.696687           144.444782

                             ****ORCA TERMINATED NORMALLY****
TOTAL RUN TIME: 0 days 0 hours 0 minutes 21 seconds 695 msec
