                         Program Version 6.0.0  -   RELEASE  -
|  1> ! r2scan-3c def2/J RI DEFGRID2 scfconv6 printgap
|  2> %output
|  3>     printlevel normal
|  4> end
|  5> * xyz 0 1
|  6> C 3.1491492828 -2.624213681 -1.6310121042
|  7> C 4.3037042589 -1.8004122692 -1.1036200273
|  8> O 3.9783876192 -0.3908718888 -0.9992610029
|  9> P 2.833465033 0.2241665524 -0.1148403343
| 10> S 3.1385794768 2.1194735071 0.2713747797
| 11> O 2.8578362649 -0.7353396079 1.1566622213
| 12> C 2.1174827356 -0.468540027 2.3626769234
| 13> C 0.9748078544 -1.4543308229 2.5075713743
| 14> S 1.019814911 -0.1682575784 -1.1863307347
| 15> C 0.1517364816 1.381199861 -0.861690789
| 16> S -0.7892610948 1.3672326957 0.6889588679
| 17> P -2.3481543542 0.1292989938 -0.0189337521
| 18> S -2.9672385903 0.4394323145 -1.858871898
| 19> O -3.4715943532 0.2153873873 1.1001232974
| 20> C -4.5287530542 1.188585291 1.058226543
| 21> C -4.0151387053 2.5988238346 1.2660311468
| 22> O -1.7072264662 -1.290557679 0.265588801
| 23> C -2.1508562573 -2.4863844711 -0.4087098004
| 24> C -3.5515537918 -2.8794882214 0.0104704808
| 25> H 2.804011412 -2.2307108525 -2.5839014718
| 26> H 3.4763898182 -3.6506706151 -1.7644759752
| 27> H 2.3201201909 -2.604861207 -0.9258680678
| 28> H 5.1513011094 -1.8070376303 -1.7904487834
| 29> H 4.6179442976 -2.1499387443 -0.1185891674
| 30> H 2.8404627201 -0.5827729739 3.1731637447
| 31> H 1.757997906 0.565708651 2.3482721918
| 32> H 0.4699875688 -1.2734846999 3.450984934
| 33> H 0.2570347613 -1.3345741261 1.6996563233
| 34> H 1.3570874182 -2.4711102271 2.4928453329
| 35> H -0.5353933604 1.5410416384 -1.6928556976
| 36> H 0.8798379957 2.1901903309 -0.7823740203
| 37> H -5.0383486682 1.1051623999 0.0927430509
| 38> H -5.2001440718 0.8817633654 1.8612443616
| 39> H -3.4179972522 2.6545237225 2.1727979737
| 40> H -3.3959338485 2.8988778311 0.4212854338
| 41> H -4.8557343334 3.2809051868 1.3441373483
| 42> H -2.100185377 -2.3129973325 -1.4882074292
| 43> H -1.4150179755 -3.2378562938 -0.1203529308
| 44> H -3.6119465701 -2.9562997532 1.0928448574
| 45> H -4.2640424302 -2.1287667267 -0.3294697345
| 46> H -3.8069235996 -3.8350874598 -0.4365927535
| 47> *
| 48>
| 49>                          ****END OF INPUT****

CARTESIAN COORDINATES (ANGSTROEM)
---------------------------------
  C      3.149149   -2.624214   -1.631012
  C      4.303704   -1.800412   -1.103620
  O      3.978388   -0.390872   -0.999261
  P      2.833465    0.224167   -0.114840
  S      3.138579    2.119474    0.271375
  O      2.857836   -0.735340    1.156662
  C      2.117483   -0.468540    2.362677
  C      0.974808   -1.454331    2.507571
  S      1.019815   -0.168258   -1.186331
  C      0.151736    1.381200   -0.861691
  S     -0.789261    1.367233    0.688959
  P     -2.348154    0.129299   -0.018934
  S     -2.967239    0.439432   -1.858872
  O     -3.471594    0.215387    1.100123
  C     -4.528753    1.188585    1.058227
  C     -4.015139    2.598824    1.266031
  O     -1.707226   -1.290558    0.265589
  C     -2.150856   -2.486384   -0.408710
  C     -3.551554   -2.879488    0.010470
  H      2.804011   -2.230711   -2.583901
  H      3.476390   -3.650671   -1.764476
  H      2.320120   -2.604861   -0.925868
  H      5.151301   -1.807038   -1.790449
  H      4.617944   -2.149939   -0.118589
  H      2.840463   -0.582773    3.173164
  H      1.757998    0.565709    2.348272
  H      0.469988   -1.273485    3.450985
  H      0.257035   -1.334574    1.699656
  H      1.357087   -2.471110    2.492845
  H     -0.535393    1.541042   -1.692856
  H      0.879838    2.190190   -0.782374
  H     -5.038349    1.105162    0.092743
  H     -5.200144    0.881763    1.861244
  H     -3.417997    2.654524    2.172798
  H     -3.395934    2.898878    0.421285
  H     -4.855734    3.280905    1.344137
  H     -2.100185   -2.312997   -1.488207
  H     -1.415018   -3.237856   -0.120353
  H     -3.611947   -2.956300    1.092845
  H     -4.264042   -2.128767   -0.329470
  H     -3.806924   -3.835087   -0.436593

 Total Charge           Charge          ....    0
 Multiplicity           Mult            ....    1
 Number of Electrons    NEL             ....  202
 Basis Dimension        Dim             ....  539

ORBITAL ENERGIES
----------------

  NO   OCC          E(Eh)            E(eV)
   0   2.0000     -88.576698     -2410.2945
   1   2.0000     -88.572396     -2410.1774
   2   2.0000     -88.526043     -2408.9161
   3   2.0000     -88.518006     -2408.6974
   4   2.0000     -76.917894     -2093.0423
   5   2.0000     -76.914236     -2092.9428
   6   2.0000     -18.998289      -516.9697
   7   2.0000     -18.994339      -516.8622
   8   2.0000     -18.992921      -516.8237
   9   2.0000     -18.990656      -516.7620
  10   2.0000     -10.106855      -275.0215
  11   2.0000     -10.102891      -274.9136
  12   2.0000     -10.101637      -274.8795
  13   2.0000     -10.099303      -274.8160
  14   2.0000     -10.096379      -274.7364
  15   2.0000     -10.038551      -273.1629
  16   2.0000     -10.032904      -273.0092
  17   2.0000     -10.031430      -272.9691
  18   2.0000     -10.023737      -272.7597
  19   2.0000      -7.871043      -214.1820
  20   2.0000      -7.866568      -214.0602
  21   2.0000      -7.820712      -212.8124
  22   2.0000      -7.812843      -212.5983
  23   2.0000      -6.596568      -179.5017
  24   2.0000      -6.592450      -179.3897
  25   2.0000      -5.817816      -158.3108
  26   2.0000      -5.814987      -158.2338
  27   2.0000      -5.813533      -158.1943
  28   2.0000      -5.810325      -158.1070
  29   2.0000      -5.808179      -158.0486
  30   2.0000      -5.803722      -157.9273
  31   2.0000      -5.768271      -156.9626
  32   2.0000      -5.761045      -156.7660
  33   2.0000      -5.760772      -156.7586
  34   2.0000      -5.760517      -156.7516
  35   2.0000      -5.753091      -156.5496
  36   2.0000      -5.752833      -156.5425
  37   2.0000      -4.741976      -129.0357
  38   2.0000      -4.741452      -129.0215
  39   2.0000      -4.740393      -128.9927
  40   2.0000      -4.738360      -128.9373
  41   2.0000      -4.737151      -128.9044
  42   2.0000      -4.736053      -128.8745
  43   2.0000      -1.055251       -28.7148
  44   2.0000      -1.051549       -28.6141
  45   2.0000      -1.016792       -27.6683
  46   2.0000      -1.009179       -27.4611
  47   2.0000      -0.800166       -21.7736
  48   2.0000      -0.761382       -20.7183
  49   2.0000      -0.752793       -20.4845
  50   2.0000      -0.735918       -20.0253
  51   2.0000      -0.734694       -19.9920
  52   2.0000      -0.714076       -19.4310
  53   2.0000      -0.687386       -18.7047
  54   2.0000      -0.667935       -18.1754
  55   2.0000      -0.636972       -17.3329
  56   2.0000      -0.627020       -17.0621
  57   2.0000      -0.610138       -16.6027
  58   2.0000      -0.609427       -16.5834
  59   2.0000      -0.587999       -16.0003
  60   2.0000      -0.526945       -14.3389
  61   2.0000      -0.520797       -14.1716
  62   2.0000      -0.497737       -13.5441
  63   2.0000      -0.495191       -13.4748
  64   2.0000      -0.477733       -12.9998
  65   2.0000      -0.467907       -12.7324
  66   2.0000      -0.462594       -12.5878
  67   2.0000      -0.458294       -12.4708
  68   2.0000      -0.444789       -12.1033
  69   2.0000      -0.442799       -12.0492
  70   2.0000      -0.429334       -11.6828
  71   2.0000      -0.416392       -11.3306
  72   2.0000      -0.409650       -11.1471
  73   2.0000      -0.404993       -11.0204
  74   2.0000      -0.401432       -10.9235
  75   2.0000      -0.391435       -10.6515
  76   2.0000      -0.382684       -10.4134
  77   2.0000      -0.376550       -10.2465
  78   2.0000      -0.374496       -10.1906
  79   2.0000      -0.367689       -10.0053
  80   2.0000      -0.365901        -9.9567
  81   2.0000      -0.364656        -9.9228
  82   2.0000      -0.359498        -9.7824
  83   2.0000      -0.354780        -9.6541
  84   2.0000      -0.347045        -9.4436
  85   2.0000      -0.337178        -9.1751
  86   2.0000      -0.325327        -8.8526
  87   2.0000      -0.314843        -8.5673
  88   2.0000      -0.313387        -8.5277
  89   2.0000      -0.306521        -8.3409
  90   2.0000      -0.302386        -8.2283
  91   2.0000      -0.293749        -7.9933
  92   2.0000      -0.292181        -7.9506
  93   2.0000      -0.283168        -7.7054
  94   2.0000      -0.270040        -7.3482
  95   2.0000      -0.246654        -6.7118
  96   2.0000      -0.232970        -6.3394
  97   2.0000      -0.228230        -6.2104
  98   2.0000      -0.219338        -5.9685
  99   2.0000      -0.215352        -5.8600
 100   2.0000      -0.212325        -5.7777
 101   0.0000      -0.045957        -1.2506
 102   0.0000      -0.028316        -0.7705
 103   0.0000      -0.006262        -0.1704
 104   0.0000      -0.002324        -0.0632
 105   0.0000       0.013313         0.3623

MULLIKEN ATOMIC CHARGES
-----------------------
   0 C :   -0.498204
   1 C :   -0.099032
   2 O :   -0.280792
   3 P :    0.634407
   4 S :   -0.452903
   5 O :   -0.275189
   6 C :   -0.135006
   7 C :   -0.454661
   8 S :   -0.128909
   9 C :   -0.249081
  10 S :   -0.119028
  11 P :    0.671006
  12 S :   -0.480505
  13 O :   -0.309496
  14 C :   -0.149358
  15 C :   -0.453475
  16 O :   -0.270033
  17 C :   -0.151413
  18 C :   -0.442010
  19 H :    0.174632
  20 H :    0.154014
  21 H :    0.167284
  22 H :    0.152380
  23 H :    0.162646
  24 H :    0.150035
  25 H :    0.165612
  26 H :    0.145370
  27 H :    0.183926
  28 H :    0.144526
  29 H :    0.219499
  30 H :    0.222387
  31 H :    0.170895
  32 H :    0.148978
  33 H :    0.156415
  34 H :    0.178933
  35 H :    0.149081
  36 H :    0.173477
  37 H :    0.151353
  38 H :    0.157001
  39 H :    0.167493
  40 H :    0.147745
Sum of atomic charges:    0.0000000

LOEWDIN ATOMIC CHARGES
----------------------
   0 C :   -0.406452
   1 C :    0.034496
   2 O :   -0.644892
   3 P :    0.390429
   4 S :   -0.108438
   5 O :   -0.675224
   6 C :    0.020691
   7 C :   -0.404952
   8 S :    0.143608
   9 C :   -0.429421
  10 S :    0.164002
  11 P :    0.377174
  12 S :   -0.133420
  13 O :   -0.660443
  14 C :    0.020573
  15 C :   -0.405859
  16 O :   -0.689791
  17 C :    0.019573
  18 C :   -0.398470
  19 H :    0.165377
  20 H :    0.161418
  21 H :    0.163630
  22 H :    0.183516
  23 H :    0.177556
  24 H :    0.177045
  25 H :    0.180517
  26 H :    0.160803
  27 H :    0.178004
  28 H :    0.154796
  29 H :    0.192764
  30 H :    0.197499
  31 H :    0.179571
  32 H :    0.179903
  33 H :    0.160631
  34 H :    0.166547
  35 H :    0.160123
  36 H :    0.181146
  37 H :    0.179941
  38 H :    0.161306
  39 H :    0.164910
  40 H :    0.159812

  Mayer bond orders larger than 0.100000
B(  0-C ,  1-C ) :   0.9060 B(  0-C , 19-H ) :   0.9669 B(  0-C , 20-H ) :   0.9557
B(  0-C , 21-H ) :   0.9648 B(  1-C ,  2-O ) :   0.7965 B(  1-C , 22-H ) :   0.9523
B(  1-C , 23-H ) :   0.9747 B(  2-O ,  3-P ) :   1.1792 B(  3-P ,  4-S ) :   1.8332
B(  3-P ,  5-O ) :   1.0360 B(  3-P ,  8-S ) :   0.9914 B(  5-O ,  6-C ) :   0.7555
B(  6-C ,  7-C ) :   0.9439 B(  6-C , 24-H ) :   0.9653 B(  6-C , 25-H ) :   0.9564
B(  7-C , 26-H ) :   0.9663 B(  7-C , 27-H ) :   0.9493 B(  7-C , 28-H ) :   0.9743
B(  8-S ,  9-C ) :   0.9176 B(  9-C , 10-S ) :   0.8983 B(  9-C , 29-H ) :   0.9091
B(  9-C , 30-H ) :   0.8927 B( 10-S , 11-P ) :   1.0997 B( 11-P , 12-S ) :   1.7540
B( 11-P , 13-O ) :   1.0702 B( 11-P , 16-O ) :   1.1265 B( 13-O , 14-C ) :   0.8120
B( 14-C , 15-C ) :   0.9237 B( 14-C , 31-H ) :   0.9656 B( 14-C , 32-H ) :   0.9579
B( 15-C , 33-H ) :   0.9687 B( 15-C , 34-H ) :   0.9610 B( 15-C , 35-H ) :   0.9580
B( 16-O , 17-C ) :   0.7914 B( 17-C , 18-C ) :   0.9238 B( 17-C , 36-H ) :   0.9630
B( 17-C , 37-H ) :   0.9617 B( 18-C , 38-H ) :   0.9720 B( 18-C , 39-H ) :   0.9598
B( 18-C , 40-H ) :   0.9616

Dispersion correction           -0.021516507
FINAL SINGLE POINT ENERGY     -2932.461517048931

DIPOLE MOMENT
-------------

Method             : SCF
Type of density    : Electron Density
Multiplicity       :   1
Irrep              :   0
Energy             : -2932.4868080683886546 Eh
Relativity type    :
Basis              : AO
                                X                 Y                 Z
Electronic contribution:     10.625284474      15.073456941      -7.040980771
Nuclear contribution   :    -11.406230385     -16.835805587       7.817426610
                        -----------------------------------------
Total Dipole Moment    :     -0.780945912      -1.762348646       0.776445839
                        -----------------------------------------
Magnitude (a.u.)       :      2.078128343
Magnitude (Debye)      :      5.282182465

Rotational constants in cm-1:             0.012633             0.004811             0.004385
Rotational constants in MHz :           378.727707           144.227966           131.448427

                             ****ORCA TERMINATED NORMALLY****
TOTAL RUN TIME: 0 days 0 hours 1 minutes 23 seconds 646 msec
