                         Program Version 6.0.0  -   RELEASE  -
|  1> ! r2scan-3c def2/J RI DEFGRID2 scfconv6 printgap
|  2> %output
|  3>     printlevel normal
|  4> end
|  5> %cpcm
|  6>     smd true
|  7>     smdsolvent "water"
|  8> end
|  9> * xyz 0 1
| 10> C 3.1491492828 -2.624213681 -1.6310121042
| 11> C 4.3037042589 -1.8004122692 -1.1036200273
| 12> O 3.9783876192 -0.3908718888 -0.9992610029
| 13> P 2.833465033 0.2241665524 -0.1148403343
| 14> S 3.1385794768 2.1194735071 0.2713747797
| 15> O 2.8578362649 -0.7353396079 1.1566622213
| 16> C 2.1174827356 -0.468540027 2.3626769234
| 17> C 0.9748078544 -1.4543308229 2.5075713743
| 18> S 1.019814911 -0.1682575784 -1.1863307347
| 19> C 0.1517364816 1.381199861 -0.861690789
| 20> S -0.7892610948 1.3672326957 0.6889588679
| 21> P -2.3481543542 0.1292989938 -0.0189337521
| 22> S -2.9672385903 0.4394323145 -1.858871898
| 23> O -3.4715943532 0.2153873873 1.1001232974
| 24> C -4.5287530542 1.188585291 1.058226543
| 25> C -4.0151387053 2.5988238346 1.2660311468
| 26> O -1.7072264662 -1.290557679 0.265588801
| 27> C -2.1508562573 -2.4863844711 -0.4087098004
| 28> C -3.5515537918 -2.8794882214 0.0104704808
| 29> H 2.804011412 -2.2307108525 -2.5839014718
| 30> H 3.4763898182 -3.6506706151 -1.7644759752
| 31> H 2.3201201909 -2.604861207 -0.9258680678
| 32> H 5.1513011094 -1.8070376303 -1.7904487834
| 33> H 4.6179442976 -2.1499387443 -0.1185891674
| 34> H 2.8404627201 -0.5827729739 3.1731637447
| 35> H 1.757997906 0.565708651 2.3482721918
| 36> H 0.4699875688 -1.2734846999 3.450984934
| 37> H 0.2570347613 -1.3345741261 1.6996563233
| 38> H 1.3570874182 -2.4711102271 2.4928453329
| 39> H -0.5353933604 1.5410416384 -1.6928556976
| 40> H 0.8798379957 2.1901903309 -0.7823740203
| 41> H -5.0383486682 1.1051623999 0.0927430509
| 42> H -5.2001440718 0.8817633654 1.8612443616
| 43> H -3.4179972522 2.6545237225 2.1727979737
| 44> H -3.3959338485 2.8988778311 0.4212854338
| 45> H -4.8557343334 3.2809051868 1.3441373483
| 46> H -2.100185377 -2.3129973325 -1.4882074292
| 47> H -1.4150179755 -3.2378562938 -0.1203529308
| 48> H -3.6119465701 -2.9562997532 1.0928448574
| 49> H -4.2640424302 -2.1287667267 -0.3294697345
| 50> H -3.8069235996 -3.8350874598 -0.4365927535
| 51> *
| 52>
| 53>                          ****END OF INPUT****

CARTESIAN COORDINATES (ANGSTROEM)
---------------------------------
  C      3.149149   -2.624214   -1.631012
  C      4.303704   -1.800412   -1.103620
  O      3.978388   -0.390872   -0.999261
  P      2.833465    0.224167   -0.114840
  S      3.138579    2.119474    0.271375
  O      2.857836   -0.735340    1.156662
  C      2.117483   -0.468540    2.362677
  C      0.974808   -1.454331    2.507571
  S      1.019815   -0.168258   -1.186331
  C      0.151736    1.381200   -0.861691
  S     -0.789261    1.367233    0.688959
  P     -2.348154    0.129299   -0.018934
  S     -2.967239    0.439432   -1.858872
  O     -3.471594    0.215387    1.100123
  C     -4.528753    1.188585    1.058227
  C     -4.015139    2.598824    1.266031
  O     -1.707226   -1.290558    0.265589
  C     -2.150856   -2.486384   -0.408710
  C     -3.551554   -2.879488    0.010470
  H      2.804011   -2.230711   -2.583901
  H      3.476390   -3.650671   -1.764476
  H      2.320120   -2.604861   -0.925868
  H      5.151301   -1.807038   -1.790449
  H      4.617944   -2.149939   -0.118589
  H      2.840463   -0.582773    3.173164
  H      1.757998    0.565709    2.348272
  H      0.469988   -1.273485    3.450985
  H      0.257035   -1.334574    1.699656
  H      1.357087   -2.471110    2.492845
  H     -0.535393    1.541042   -1.692856
  H      0.879838    2.190190   -0.782374
  H     -5.038349    1.105162    0.092743
  H     -5.200144    0.881763    1.861244
  H     -3.417997    2.654524    2.172798
  H     -3.395934    2.898878    0.421285
  H     -4.855734    3.280905    1.344137
  H     -2.100185   -2.312997   -1.488207
  H     -1.415018   -3.237856   -0.120353
  H     -3.611947   -2.956300    1.092845
  H     -4.264042   -2.128767   -0.329470
  H     -3.806924   -3.835087   -0.436593

 Total Charge           Charge          ....    0
 Multiplicity           Mult            ....    1
 Number of Electrons    NEL             ....  202
 Basis Dimension        Dim             ....  539

ORBITAL ENERGIES
----------------

  NO   OCC          E(Eh)            E(eV)
   0   2.0000     -88.579241     -2410.3637
   1   2.0000     -88.578084     -2410.3322
   2   2.0000     -88.530831     -2409.0464
   3   2.0000     -88.530273     -2409.0312
   4   2.0000     -76.922333     -2093.1631
   5   2.0000     -76.920018     -2093.1001
   6   2.0000     -18.997542      -516.9494
   7   2.0000     -18.997110      -516.9376
   8   2.0000     -18.994152      -516.8572
   9   2.0000     -18.993334      -516.8349
  10   2.0000     -10.101420      -274.8736
  11   2.0000     -10.094215      -274.6776
  12   2.0000     -10.090562      -274.5782
  13   2.0000     -10.090370      -274.5729
  14   2.0000     -10.089589      -274.5517
  15   2.0000     -10.022942      -272.7381
  16   2.0000     -10.019057      -272.6324
  17   2.0000     -10.018985      -272.6304
  18   2.0000     -10.015323      -272.5308
  19   2.0000      -7.873650      -214.2529
  20   2.0000      -7.872210      -214.2137
  21   2.0000      -7.826039      -212.9574
  22   2.0000      -7.825224      -212.9352
  23   2.0000      -6.600592      -179.6112
  24   2.0000      -6.598716      -179.5602
  25   2.0000      -5.820416      -158.3816
  26   2.0000      -5.819178      -158.3479
  27   2.0000      -5.817604      -158.3051
  28   2.0000      -5.815950      -158.2600
  29   2.0000      -5.810774      -158.1192
  30   2.0000      -5.809389      -158.0815
  31   2.0000      -5.773582      -157.1072
  32   2.0000      -5.772726      -157.0839
  33   2.0000      -5.766307      -156.9092
  34   2.0000      -5.766069      -156.9027
  35   2.0000      -5.765549      -156.8886
  36   2.0000      -5.765297      -156.8817
  37   2.0000      -4.746454      -129.1576
  38   2.0000      -4.745246      -129.1247
  39   2.0000      -4.744332      -129.0998
  40   2.0000      -4.744060      -129.0924
  41   2.0000      -4.743592      -129.0797
  42   2.0000      -4.742645      -129.0539
  43   2.0000      -1.055127       -28.7115
  44   2.0000      -1.054013       -28.6812
  45   2.0000      -1.014799       -27.6141
  46   2.0000      -1.012057       -27.5395
  47   2.0000      -0.803212       -21.8565
  48   2.0000      -0.757744       -20.6193
  49   2.0000      -0.745257       -20.2795
  50   2.0000      -0.727275       -19.7902
  51   2.0000      -0.724148       -19.7051
  52   2.0000      -0.712365       -19.3844
  53   2.0000      -0.690000       -18.7758
  54   2.0000      -0.674184       -18.3455
  55   2.0000      -0.634592       -17.2681
  56   2.0000      -0.623397       -16.9635
  57   2.0000      -0.603298       -16.4166
  58   2.0000      -0.600348       -16.3363
  59   2.0000      -0.587616       -15.9898
  60   2.0000      -0.524152       -14.2629
  61   2.0000      -0.514875       -14.0105
  62   2.0000      -0.492294       -13.3960
  63   2.0000      -0.490319       -13.3423
  64   2.0000      -0.477165       -12.9843
  65   2.0000      -0.462904       -12.5963
  66   2.0000      -0.455422       -12.3927
  67   2.0000      -0.454428       -12.3656
  68   2.0000      -0.439536       -11.9604
  69   2.0000      -0.437956       -11.9174
  70   2.0000      -0.424506       -11.5514
  71   2.0000      -0.408636       -11.1196
  72   2.0000      -0.405228       -11.0268
  73   2.0000      -0.403131       -10.9698
  74   2.0000      -0.399663       -10.8754
  75   2.0000      -0.389897       -10.6096
  76   2.0000      -0.380472       -10.3532
  77   2.0000      -0.368104       -10.0166
  78   2.0000      -0.364856        -9.9282
  79   2.0000      -0.361434        -9.8351
  80   2.0000      -0.359375        -9.7791
  81   2.0000      -0.353908        -9.6303
  82   2.0000      -0.352543        -9.5932
  83   2.0000      -0.347723        -9.4620
  84   2.0000      -0.342655        -9.3241
  85   2.0000      -0.332642        -9.0516
  86   2.0000      -0.322218        -8.7680
  87   2.0000      -0.309389        -8.4189
  88   2.0000      -0.305519        -8.3136
  89   2.0000      -0.303699        -8.2641
  90   2.0000      -0.298320        -8.1177
  91   2.0000      -0.291486        -7.9317
  92   2.0000      -0.289544        -7.8789
  93   2.0000      -0.280667        -7.6373
  94   2.0000      -0.273398        -7.4395
  95   2.0000      -0.250359        -6.8126
  96   2.0000      -0.240870        -6.5544
  97   2.0000      -0.235118        -6.3979
  98   2.0000      -0.227041        -6.1781
  99   2.0000      -0.226709        -6.1691
 100   2.0000      -0.220344        -5.9959
 101   0.0000      -0.051372        -1.3979
 102   0.0000      -0.034553        -0.9402
 103   0.0000      -0.009618        -0.2617
 104   0.0000      -0.007100        -0.1932
 105   0.0000       0.010658         0.2900

MULLIKEN ATOMIC CHARGES
-----------------------
   0 C :   -0.527492
   1 C :   -0.097433
   2 O :   -0.313702
   3 P :    0.644579
   4 S :   -0.510394
   5 O :   -0.290498
   6 C :   -0.124316
   7 C :   -0.488088
   8 S :   -0.133072
   9 C :   -0.259697
  10 S :   -0.123716
  11 P :    0.708927
  12 S :   -0.528422
  13 O :   -0.332863
  14 C :   -0.149832
  15 C :   -0.490264
  16 O :   -0.291944
  17 C :   -0.147961
  18 C :   -0.482917
  19 H :    0.180777
  20 H :    0.181184
  21 H :    0.170892
  22 H :    0.176201
  23 H :    0.179375
  24 H :    0.175236
  25 H :    0.164181
  26 H :    0.169755
  27 H :    0.170263
  28 H :    0.165005
  29 H :    0.236682
  30 H :    0.231375
  31 H :    0.178124
  32 H :    0.176208
  33 H :    0.170283
  34 H :    0.173083
  35 H :    0.173497
  36 H :    0.177061
  37 H :    0.178986
  38 H :    0.170482
  39 H :    0.168032
  40 H :    0.172424
Sum of atomic charges:   -0.0000000

LOEWDIN ATOMIC CHARGES
----------------------
   0 C :   -0.405571
   1 C :    0.041287
   2 O :   -0.666317
   3 P :    0.390370
   4 S :   -0.153235
   5 O :   -0.679075
   6 C :    0.025009
   7 C :   -0.407014
   8 S :    0.144637
   9 C :   -0.427278
  10 S :    0.160684
  11 P :    0.382734
  12 S :   -0.162280
  13 O :   -0.670135
  14 C :    0.026414
  15 C :   -0.409487
  16 O :   -0.698579
  17 C :    0.024569
  18 C :   -0.401866
  19 H :    0.165671
  20 H :    0.172666
  21 H :    0.163477
  22 H :    0.193624
  23 H :    0.184939
  24 H :    0.187597
  25 H :    0.179789
  26 H :    0.169080
  27 H :    0.172205
  28 H :    0.162045
  29 H :    0.197265
  30 H :    0.199502
  31 H :    0.181895
  32 H :    0.191476
  33 H :    0.163821
  34 H :    0.161767
  35 H :    0.168905
  36 H :    0.182185
  37 H :    0.191042
  38 H :    0.164536
  39 H :    0.162678
  40 H :    0.168971

  Mayer bond orders larger than 0.100000
B(  0-C ,  1-C ) :   0.8939 B(  0-C , 19-H ) :   0.9659 B(  0-C , 20-H ) :   0.9483
B(  0-C , 21-H ) :   0.9606 B(  1-C ,  2-O ) :   0.7831 B(  1-C , 22-H ) :   0.9433
B(  1-C , 23-H ) :   0.9658 B(  2-O ,  3-P ) :   1.1863 B(  3-P ,  4-S ) :   1.8068
B(  3-P ,  5-O ) :   1.0445 B(  3-P ,  8-S ) :   1.0078 B(  5-O ,  6-C ) :   0.7433
B(  6-C ,  7-C ) :   0.9410 B(  6-C , 24-H ) :   0.9543 B(  6-C , 25-H ) :   0.9540
B(  7-C , 26-H ) :   0.9623 B(  7-C , 27-H ) :   0.9532 B(  7-C , 28-H ) :   0.9699
B(  8-S ,  9-C ) :   0.9073 B(  9-C , 10-S ) :   0.8959 B(  9-C , 29-H ) :   0.9046
B(  9-C , 30-H ) :   0.8924 B( 10-S , 11-P ) :   1.1062 B( 11-P , 12-S ) :   1.7103
B( 11-P , 13-O ) :   1.0797 B( 11-P , 16-O ) :   1.1390 B( 13-O , 14-C ) :   0.8001
B( 14-C , 15-C ) :   0.9093 B( 14-C , 31-H ) :   0.9646 B( 14-C , 32-H ) :   0.9481
B( 15-C , 33-H ) :   0.9658 B( 15-C , 34-H ) :   0.9629 B( 15-C , 35-H ) :   0.9528
B( 16-O , 17-C ) :   0.7797 B( 17-C , 18-C ) :   0.9124 B( 17-C , 36-H ) :   0.9593
B( 17-C , 37-H ) :   0.9516 B( 18-C , 38-H ) :   0.9709 B( 18-C , 39-H ) :   0.9591
B( 18-C , 40-H ) :   0.9556

Dispersion correction           -0.021516507
FINAL SINGLE POINT ENERGY     -2932.470198602162

DIPOLE MOMENT
-------------

Method             : SCF
Type of density    : Electron Density
Multiplicity       :   1
Irrep              :   0
Energy             : -2932.4954896216195266 Eh
Relativity type    :
Basis              : AO
                                X                 Y                 Z
Electronic contribution:     10.337327972      14.395463572      -6.740771830
Nuclear contribution   :    -11.406230385     -16.835805587       7.817426610
                        -----------------------------------------
Total Dipole Moment    :     -1.068902413      -2.440342014       1.076654779
                        -----------------------------------------
Magnitude (a.u.)       :      2.873500832
Magnitude (Debye)      :      7.303858667

Rotational constants in cm-1:             0.012633             0.004811             0.004385
Rotational constants in MHz :           378.727707           144.227966           131.448427

                             ****ORCA TERMINATED NORMALLY****
TOTAL RUN TIME: 0 days 0 hours 1 minutes 49 seconds 671 msec
