                         Program Version 6.0.1  -  RELEASE   -
|  1> ! pbe def2-sv(p) def2/J RI DEFGRID1 loosescf d4 GCP(DFT/SV(P)) printgap
|  2> %output
|  3>     printlevel normal
|  4> end
|  5> * xyz 0 1
|  6> C 3.1849323956 -3.466018519 0.3641784911
|  7> C 2.9084605456 -2.0607018142 0.8732907063
|  8> O 2.7484681094 -1.1359438937 -0.2209300361
|  9> C 1.5859355655 -1.0581758427 -0.8202737641
| 10> O 0.6038829446 -1.7128014738 -0.5135119073
| 11> C 1.5781021607 -0.0405210814 -1.9382722051
| 12> C 0.4103568206 0.9294431752 -1.7614159826
| 13> H 0.3564801775 1.6024765312 -2.6226799863
| 14> C 0.5020935513 1.7811223554 -0.5057055327
| 15> O -0.4813341531 2.1690600809 0.0904226691
| 16> O 1.7407053969 2.031591898 -0.1686928555
| 17> C 1.9795244912 2.8235316472 1.0144345542
| 18> C 1.8343562645 4.3070968553 0.7207115172
| 19> S -1.21883349 0.1011953195 -1.7561100241
| 20> P -1.493606896 -0.3968150289 0.2804767026
| 21> S -0.3451771901 -0.2269664932 1.8618265669
| 22> O -2.8426939538 0.4902779692 0.4084628655
| 23> C -3.5101284385 0.641382478 1.6606712486
| 24> O -2.0438805869 -1.8984209626 0.2769370245
| 25> C -2.8611140112 -2.414187392 -0.7842048155
| 26> H 4.0504504455 -3.4622210071 -0.2926563456
| 27> H 3.3771452945 -4.1187871695 1.2090901727
| 28> H 2.3227923894 -3.8428884623 -0.1815130508
| 29> H 3.7542400367 -1.6652052033 1.4350229294
| 30> H 2.0037496142 -2.033985922 1.4883229163
| 31> H 1.4466691757 -0.5711330732 -2.8826523432
| 32> H 2.5227064507 0.5017327547 -1.9361181321
| 33> H 1.2788664527 2.5012033862 1.790643012
| 34> H 2.9998977353 2.5676660265 1.2985081609
| 35> H 0.8083092317 4.5356524636 0.4413787759
| 36> H 2.0888255336 4.8709630788 1.611853148
| 37> H 2.4984995344 4.595325767 -0.0893435074
| 38> H -4.3710639194 1.2725848856 1.4564486953
| 39> H -2.8455223631 1.1217416866 2.3806565578
| 40> H -3.822817745 -0.3300478764 2.0482167041
| 41> H -3.3828413302 -3.2684287329 -0.3593097067
| 42> H -2.221703862 -2.7259628144 -1.6091022787
| 43> H -3.5698073148 -1.6585436105 -1.1266398691
| 44> *
| 45>
| 46>                          ****END OF INPUT****

CARTESIAN COORDINATES (ANGSTROEM)
---------------------------------
  C      3.184932   -3.466019    0.364178
  C      2.908461   -2.060702    0.873291
  O      2.748468   -1.135944   -0.220930
  C      1.585936   -1.058176   -0.820274
  O      0.603883   -1.712801   -0.513512
  C      1.578102   -0.040521   -1.938272
  C      0.410357    0.929443   -1.761416
  H      0.356480    1.602477   -2.622680
  C      0.502094    1.781122   -0.505706
  O     -0.481334    2.169060    0.090423
  O      1.740705    2.031592   -0.168693
  C      1.979524    2.823532    1.014435
  C      1.834356    4.307097    0.720712
  S     -1.218833    0.101195   -1.756110
  P     -1.493607   -0.396815    0.280477
  S     -0.345177   -0.226966    1.861827
  O     -2.842694    0.490278    0.408463
  C     -3.510128    0.641382    1.660671
  O     -2.043881   -1.898421    0.276937
  C     -2.861114   -2.414187   -0.784205
  H      4.050450   -3.462221   -0.292656
  H      3.377145   -4.118787    1.209090
  H      2.322792   -3.842888   -0.181513
  H      3.754240   -1.665205    1.435023
  H      2.003750   -2.033986    1.488323
  H      1.446669   -0.571133   -2.882652
  H      2.522706    0.501733   -1.936118
  H      1.278866    2.501203    1.790643
  H      2.999898    2.567666    1.298508
  H      0.808309    4.535652    0.441379
  H      2.088826    4.870963    1.611853
  H      2.498500    4.595326   -0.089344
  H     -4.371064    1.272585    1.456449
  H     -2.845522    1.121742    2.380657
  H     -3.822818   -0.330048    2.048217
  H     -3.382841   -3.268429   -0.359310
  H     -2.221704   -2.725963   -1.609102
  H     -3.569807   -1.658544   -1.126640

 Total Charge           Charge          ....    0
 Multiplicity           Mult            ....    1
 Number of Electrons    NEL             ....  174
 Basis Dimension        Dim             ....  316

ORBITAL ENERGIES
----------------

  NO   OCC          E(Eh)            E(eV)
   0   2.0000     -88.027957     -2395.3625
   1   2.0000     -87.965834     -2393.6720
   2   2.0000     -76.410078     -2079.2239
   3   2.0000     -18.813313      -511.9363
   4   2.0000     -18.806599      -511.7536
   5   2.0000     -18.772454      -510.8244
   6   2.0000     -18.762485      -510.5532
   7   2.0000     -18.739879      -509.9380
   8   2.0000     -18.738510      -509.9008
   9   2.0000     -10.014920      -272.5198
  10   2.0000     -10.010572      -272.4015
  11   2.0000      -9.951354      -270.7901
  12   2.0000      -9.948276      -270.7063
  13   2.0000      -9.941939      -270.5339
  14   2.0000      -9.934812      -270.3400
  15   2.0000      -9.923294      -270.0266
  16   2.0000      -9.911224      -269.6981
  17   2.0000      -9.886995      -269.0388
  18   2.0000      -9.883202      -268.9356
  19   2.0000      -7.673122      -208.7963
  20   2.0000      -7.610939      -207.1042
  21   2.0000      -6.405932      -174.3143
  22   2.0000      -5.701534      -155.1466
  23   2.0000      -5.698164      -155.0549
  24   2.0000      -5.688916      -154.8033
  25   2.0000      -5.640513      -153.4862
  26   2.0000      -5.631698      -153.2463
  27   2.0000      -5.630189      -153.2052
  28   2.0000      -4.628843      -125.9572
  29   2.0000      -4.627843      -125.9300
  30   2.0000      -4.626393      -125.8906
  31   2.0000      -1.019671       -27.7467
  32   2.0000      -1.012182       -27.5429
  33   2.0000      -0.960354       -26.1326
  34   2.0000      -0.921317       -25.0703
  35   2.0000      -0.917614       -24.9696
  36   2.0000      -0.914668       -24.8894
  37   2.0000      -0.762955       -20.7610
  38   2.0000      -0.708347       -19.2751
  39   2.0000      -0.704948       -19.1826
  40   2.0000      -0.682466       -18.5708
  41   2.0000      -0.651784       -17.7359
  42   2.0000      -0.626289       -17.0422
  43   2.0000      -0.613031       -16.6814
  44   2.0000      -0.602764       -16.4020
  45   2.0000      -0.594566       -16.1790
  46   2.0000      -0.566443       -15.4137
  47   2.0000      -0.507974       -13.8227
  48   2.0000      -0.498173       -13.5560
  49   2.0000      -0.491835       -13.3835
  50   2.0000      -0.478855       -13.0303
  51   2.0000      -0.458160       -12.4672
  52   2.0000      -0.452181       -12.3045
  53   2.0000      -0.442108       -12.0304
  54   2.0000      -0.436181       -11.8691
  55   2.0000      -0.423952       -11.5363
  56   2.0000      -0.416860       -11.3433
  57   2.0000      -0.411947       -11.2097
  58   2.0000      -0.409963       -11.1557
  59   2.0000      -0.400117       -10.8877
  60   2.0000      -0.393905       -10.7187
  61   2.0000      -0.388874       -10.5818
  62   2.0000      -0.385735       -10.4964
  63   2.0000      -0.384707       -10.4684
  64   2.0000      -0.373756       -10.1704
  65   2.0000      -0.363198        -9.8831
  66   2.0000      -0.359339        -9.7781
  67   2.0000      -0.353777        -9.6268
  68   2.0000      -0.347341        -9.4516
  69   2.0000      -0.335590        -9.1319
  70   2.0000      -0.331463        -9.0196
  71   2.0000      -0.323439        -8.8012
  72   2.0000      -0.319147        -8.6844
  73   2.0000      -0.304189        -8.2774
  74   2.0000      -0.300980        -8.1901
  75   2.0000      -0.295067        -8.0292
  76   2.0000      -0.291916        -7.9434
  77   2.0000      -0.269987        -7.3467
  78   2.0000      -0.263493        -7.1700
  79   2.0000      -0.261117        -7.1054
  80   2.0000      -0.253064        -6.8862
  81   2.0000      -0.242809        -6.6072
  82   2.0000      -0.233158        -6.3446
  83   2.0000      -0.224366        -6.1053
  84   2.0000      -0.191852        -5.2206
  85   2.0000      -0.185544        -5.0489
  86   2.0000      -0.173189        -4.7127
  87   0.0000      -0.044736        -1.2173
  88   0.0000      -0.037544        -1.0216
  89   0.0000      -0.028224        -0.7680
  90   0.0000       0.007218         0.1964
  91   0.0000       0.042087         1.1452

MULLIKEN ATOMIC CHARGES
-----------------------
   0 C :   -0.308862
   1 C :   -0.025018
   2 O :   -0.214727
   3 C :    0.102011
   4 O :   -0.208613
   5 C :    0.005396
   6 C :   -0.328189
   7 H :    0.155348
   8 C :    0.187105
   9 O :   -0.174754
  10 O :   -0.222627
  11 C :   -0.010386
  12 C :   -0.311046
  13 S :   -0.066884
  14 P :    0.627103
  15 S :   -0.338683
  16 O :   -0.385653
  17 C :   -0.097481
  18 O :   -0.371029
  19 C :   -0.114242
  20 H :    0.108713
  21 H :    0.114102
  22 H :    0.128899
  23 H :    0.098964
  24 H :    0.134346
  25 H :    0.116684
  26 H :    0.110568
  27 H :    0.126748
  28 H :    0.102184
  29 H :    0.132528
  30 H :    0.115666
  31 H :    0.110146
  32 H :    0.114724
  33 H :    0.120215
  34 H :    0.102758
  35 H :    0.125144
  36 H :    0.124280
  37 H :    0.114560
Sum of atomic charges:    0.0000000

LOEWDIN ATOMIC CHARGES
----------------------
   0 C :   -0.357189
   1 C :   -0.113528
   2 O :   -0.041327
   3 C :    0.030333
   4 O :   -0.174903
   5 C :   -0.252438
   6 C :   -0.258443
   7 H :    0.153768
   8 C :   -0.002425
   9 O :   -0.153605
  10 O :   -0.041518
  11 C :   -0.107503
  12 C :   -0.357955
  13 S :    0.125875
  14 P :    0.603612
  15 S :   -0.311163
  16 O :   -0.269398
  17 C :   -0.217272
  18 O :   -0.251430
  19 C :   -0.219058
  20 H :    0.121970
  21 H :    0.131608
  22 H :    0.130823
  23 H :    0.116998
  24 H :    0.123852
  25 H :    0.145086
  26 H :    0.138935
  27 H :    0.125505
  28 H :    0.118597
  29 H :    0.132320
  30 H :    0.132499
  31 H :    0.122957
  32 H :    0.116614
  33 H :    0.110816
  34 H :    0.105011
  35 H :    0.122036
  36 H :    0.113710
  37 H :    0.106231

  Mayer bond orders larger than 0.100000
B(  0-C ,  1-C ) :   1.1680 B(  0-C , 20-H ) :   0.9481 B(  0-C , 21-H ) :   0.9444
B(  0-C , 22-H ) :   0.9455 B(  1-C ,  2-O ) :   0.9059 B(  1-C , 23-H ) :   0.9383
B(  1-C , 24-H ) :   0.9055 B(  2-O ,  3-C ) :   1.2717 B(  3-C ,  4-O ) :   1.9318
B(  3-C ,  5-C ) :   1.0074 B(  5-C ,  6-C ) :   1.0212 B(  5-C , 25-H ) :   0.8815
B(  5-C , 26-H ) :   0.8803 B(  6-C ,  7-H ) :   0.8712 B(  6-C ,  8-C ) :   0.8860
B(  6-C , 13-S ) :   1.0549 B(  8-C ,  9-O ) :   2.0286 B(  8-C , 10-O ) :   1.2645
B( 10-O , 11-C ) :   0.9010 B( 11-C , 12-C ) :   1.1706 B( 11-C , 27-H ) :   0.9106
B( 11-C , 28-H ) :   0.9378 B( 12-C , 29-H ) :   0.9437 B( 12-C , 30-H ) :   0.9441
B( 12-C , 31-H ) :   0.9476 B( 13-S , 14-P ) :   0.9279 B( 13-S , 15-S ) :   0.1148
B( 14-P , 15-S ) :   1.5424 B( 14-P , 16-O ) :   1.0550 B( 14-P , 18-O ) :   1.0912
B( 16-O , 17-C ) :   0.9450 B( 17-C , 32-H ) :   0.9579 B( 17-C , 33-H ) :   0.9404
B( 17-C , 34-H ) :   0.9481 B( 18-O , 19-C ) :   0.9366 B( 19-C , 35-H ) :   0.9580
B( 19-C , 36-H ) :   0.9464 B( 19-C , 37-H ) :   0.9395

Dispersion correction           -0.055647374
FINAL SINGLE POINT ENERGY     -1978.994709375573

DIPOLE MOMENT
-------------

Method             : SCF
Type of density    : Electron Density
Multiplicity       :   1
Irrep              :   0
Energy             : -1979.1226278584113061 Eh
Relativity type    :
Basis              : AO
                                X                 Y                 Z
Electronic contribution:     -9.231471873      -0.141855350      -4.164915127
Nuclear contribution   :     10.095938728       0.256176199       3.553539918
                        -----------------------------------------
Total Dipole Moment    :      0.864466856       0.114320849      -0.611375209
                        -----------------------------------------
Magnitude (a.u.)       :      1.064965655
Magnitude (Debye)      :      2.706927573

Rotational constants in cm-1:             0.011171             0.009860             0.007132
Rotational constants in MHz :           334.911345           295.590505           213.806496

                             ****ORCA TERMINATED NORMALLY****
TOTAL RUN TIME: 0 days 0 hours 0 minutes 39 seconds 830 msec
