                         Program Version 6.0.0  -   RELEASE  -
|  1> ! pbe def2-sv(p) def2/J RI DEFGRID1 loosescf d4 GCP(DFT/SV(P)) printgap
|  2> %output
|  3>     printlevel normal
|  4> end
|  5> * xyz 0 1
|  6> C 4.2545064316 -1.6087024879 -1.2600992451
|  7> C 4.6672164079 -0.1937295462 -0.9090825667
|  8> O 3.7692111583 0.4275769401 0.0252200871
|  9> P 2.2374532244 0.7228668731 -0.3087458932
| 10> S 1.9183328706 1.2925848788 -2.1560506632
| 11> O 1.8986158348 1.8338551333 0.7539510808
| 12> C 2.4869469676 1.9418502569 2.0749194234
| 13> C 2.2642272731 0.7048054914 2.9181718318
| 14> S 1.216574217 -1.0467359044 0.3051612412
| 15> C 0.2519690611 -1.4103631056 -1.1967723889
| 16> S -1.4277029946 -1.9477133073 -0.8217245431
| 17> P -2.2936827684 -0.1184344702 -0.1323994412
| 18> S -1.1725640637 1.4860232679 -0.2328661198
| 19> O -2.8734263772 -0.516964525 1.2958638815
| 20> C -2.0311245406 -0.8362073743 2.420886431
| 21> C -1.7545771505 0.4003451146 3.2538433739
| 22> O -3.6007373385 0.063399822 -0.9855452529
| 23> C -4.6140081774 -0.9664061758 -1.126373104
| 24> C -5.7348285205 -0.7614514943 -0.1284605222
| 25> H 4.0959116978 -2.1955107144 -0.3588786568
| 26> H 3.3331680468 -1.5881353807 -1.8410078202
| 27> H 5.0336804262 -2.0691365584 -1.8589566509
| 28> H 4.7087728607 0.4260462569 -1.8100015028
| 29> H 5.6294121176 -0.1700449817 -0.3954474692
| 30> H 3.5524853902 2.1476926082 1.9540844058
| 31> H 1.9835671259 2.8139348483 2.4954047822
| 32> H 2.6623248509 0.8789280365 3.9129093454
| 33> H 1.2032071171 0.4821187854 2.9896014579
| 34> H 2.7727689767 -0.1499844593 2.4752254239
| 35> H 0.7109351283 -2.2458346437 -1.7200516397
| 36> H 0.2362902364 -0.511929463 -1.8193694223
| 37> H -2.599122267 -1.5768429336 2.9868144694
| 38> H -1.1000975374 -1.2881478645 2.0632534784
| 39> H -1.2163496017 1.1382611875 2.6615439494
| 40> H -2.6891066651 0.8439156968 3.5858062088
| 41> H -1.1597438245 0.1263251185 4.1194718019
| 42> H -4.9691220186 -0.8553463141 -2.1523823148
| 43> H -4.1423054611 -1.9451268769 -1.0026716276
| 44> H -6.1593707026 0.2318401772 -0.2458403158
| 45> H -6.506053689 -1.5045505813 -0.3054783482
| 46> H -5.3610535872 -0.864384767 0.8861927081
| 47> *
| 48>
| 49>                          ****END OF INPUT****

CARTESIAN COORDINATES (ANGSTROEM)
---------------------------------
  C      4.254506   -1.608702   -1.260099
  C      4.667216   -0.193730   -0.909083
  O      3.769211    0.427577    0.025220
  P      2.237453    0.722867   -0.308746
  S      1.918333    1.292585   -2.156051
  O      1.898616    1.833855    0.753951
  C      2.486947    1.941850    2.074919
  C      2.264227    0.704805    2.918172
  S      1.216574   -1.046736    0.305161
  C      0.251969   -1.410363   -1.196772
  S     -1.427703   -1.947713   -0.821725
  P     -2.293683   -0.118434   -0.132399
  S     -1.172564    1.486023   -0.232866
  O     -2.873426   -0.516965    1.295864
  C     -2.031125   -0.836207    2.420886
  C     -1.754577    0.400345    3.253843
  O     -3.600737    0.063400   -0.985545
  C     -4.614008   -0.966406   -1.126373
  C     -5.734829   -0.761451   -0.128461
  H      4.095912   -2.195511   -0.358879
  H      3.333168   -1.588135   -1.841008
  H      5.033680   -2.069137   -1.858957
  H      4.708773    0.426046   -1.810002
  H      5.629412   -0.170045   -0.395447
  H      3.552485    2.147693    1.954084
  H      1.983567    2.813935    2.495405
  H      2.662325    0.878928    3.912909
  H      1.203207    0.482119    2.989601
  H      2.772769   -0.149984    2.475225
  H      0.710935   -2.245835   -1.720052
  H      0.236290   -0.511929   -1.819369
  H     -2.599122   -1.576843    2.986814
  H     -1.100098   -1.288148    2.063253
  H     -1.216350    1.138261    2.661544
  H     -2.689107    0.843916    3.585806
  H     -1.159744    0.126325    4.119472
  H     -4.969122   -0.855346   -2.152382
  H     -4.142305   -1.945127   -1.002672
  H     -6.159371    0.231840   -0.245840
  H     -6.506054   -1.504551   -0.305478
  H     -5.361054   -0.864385    0.886193

 Total Charge           Charge          ....    0
 Multiplicity           Mult            ....    1
 Number of Electrons    NEL             ....  202
 Basis Dimension        Dim             ....  334

ORBITAL ENERGIES
----------------

  NO   OCC          E(Eh)            E(eV)
   0   2.0000     -88.041962     -2395.7436
   1   2.0000     -88.038160     -2395.6401
   2   2.0000     -87.980838     -2394.0803
   3   2.0000     -87.977917     -2394.0008
   4   2.0000     -76.423819     -2079.5978
   5   2.0000     -76.420978     -2079.5205
   6   2.0000     -18.789084      -511.2770
   7   2.0000     -18.788894      -511.2718
   8   2.0000     -18.788704      -511.2666
   9   2.0000     -18.786789      -511.2145
  10   2.0000      -9.957561      -270.9590
  11   2.0000      -9.955879      -270.9132
  12   2.0000      -9.952647      -270.8253
  13   2.0000      -9.952239      -270.8142
  14   2.0000      -9.951002      -270.7805
  15   2.0000      -9.890720      -269.1402
  16   2.0000      -9.886183      -269.0167
  17   2.0000      -9.884584      -268.9732
  18   2.0000      -9.881093      -268.8782
  19   2.0000      -7.686951      -209.1726
  20   2.0000      -7.682440      -209.0498
  21   2.0000      -7.625970      -207.5132
  22   2.0000      -7.622614      -207.4219
  23   2.0000      -6.420748      -174.7174
  24   2.0000      -6.418525      -174.6569
  25   2.0000      -5.714866      -155.5094
  26   2.0000      -5.711243      -155.4108
  27   2.0000      -5.710376      -155.3872
  28   2.0000      -5.707122      -155.2987
  29   2.0000      -5.704148      -155.2178
  30   2.0000      -5.699318      -155.0863
  31   2.0000      -5.655018      -153.8809
  32   2.0000      -5.651761      -153.7922
  33   2.0000      -5.646376      -153.6457
  34   2.0000      -5.646175      -153.6402
  35   2.0000      -5.643074      -153.5559
  36   2.0000      -5.642754      -153.5471
  37   2.0000      -4.643746      -126.3628
  38   2.0000      -4.642200      -126.3207
  39   2.0000      -4.641269      -126.2953
  40   2.0000      -4.641208      -126.2937
  41   2.0000      -4.640399      -126.2717
  42   2.0000      -4.638696      -126.2253
  43   2.0000      -0.985702       -26.8223
  44   2.0000      -0.985009       -26.8035
  45   2.0000      -0.942597       -25.6494
  46   2.0000      -0.940106       -25.5816
  47   2.0000      -0.758097       -20.6289
  48   2.0000      -0.718166       -19.5423
  49   2.0000      -0.710527       -19.3344
  50   2.0000      -0.690906       -18.8005
  51   2.0000      -0.689405       -18.7597
  52   2.0000      -0.675505       -18.3814
  53   2.0000      -0.647377       -17.6160
  54   2.0000      -0.631676       -17.1888
  55   2.0000      -0.596659       -16.2359
  56   2.0000      -0.584113       -15.8945
  57   2.0000      -0.579628       -15.7725
  58   2.0000      -0.572373       -15.5751
  59   2.0000      -0.562496       -15.3063
  60   2.0000      -0.502494       -13.6735
  61   2.0000      -0.492847       -13.4111
  62   2.0000      -0.478774       -13.0281
  63   2.0000      -0.467447       -12.7199
  64   2.0000      -0.450696       -12.2641
  65   2.0000      -0.447006       -12.1637
  66   2.0000      -0.444516       -12.0959
  67   2.0000      -0.436058       -11.8657
  68   2.0000      -0.427461       -11.6318
  69   2.0000      -0.424437       -11.5495
  70   2.0000      -0.406018       -11.0483
  71   2.0000      -0.401239       -10.9183
  72   2.0000      -0.392201       -10.6723
  73   2.0000      -0.387461       -10.5433
  74   2.0000      -0.383566       -10.4374
  75   2.0000      -0.367411        -9.9978
  76   2.0000      -0.361600        -9.8396
  77   2.0000      -0.359326        -9.7777
  78   2.0000      -0.354353        -9.6424
  79   2.0000      -0.352615        -9.5952
  80   2.0000      -0.347388        -9.4529
  81   2.0000      -0.343344        -9.3429
  82   2.0000      -0.341035        -9.2800
  83   2.0000      -0.338355        -9.2071
  84   2.0000      -0.333017        -9.0619
  85   2.0000      -0.316686        -8.6175
  86   2.0000      -0.310539        -8.4502
  87   2.0000      -0.296415        -8.0659
  88   2.0000      -0.293462        -7.9855
  89   2.0000      -0.291150        -7.9226
  90   2.0000      -0.288755        -7.8574
  91   2.0000      -0.275493        -7.4966
  92   2.0000      -0.272764        -7.4223
  93   2.0000      -0.260637        -7.0923
  94   2.0000      -0.253728        -6.9043
  95   2.0000      -0.233711        -6.3596
  96   2.0000      -0.217515        -5.9189
  97   2.0000      -0.209258        -5.6942
  98   2.0000      -0.196594        -5.3496
  99   2.0000      -0.188451        -5.1280
 100   2.0000      -0.183079        -4.9818
 101   0.0000      -0.042336        -1.1520
 102   0.0000      -0.034028        -0.9260
 103   0.0000      -0.011464        -0.3119
 104   0.0000       0.007584         0.2064
 105   0.0000       0.011834         0.3220

MULLIKEN ATOMIC CHARGES
-----------------------
   0 C :   -0.319819
   1 C :    0.006017
   2 O :   -0.388739
   3 P :    0.626678
   4 S :   -0.295128
   5 O :   -0.358410
   6 C :    0.016073
   7 C :   -0.362126
   8 S :   -0.129359
   9 C :   -0.325342
  10 S :   -0.134921
  11 P :    0.587803
  12 S :   -0.281278
  13 O :   -0.380067
  14 C :   -0.022868
  15 C :   -0.300986
  16 O :   -0.350464
  17 C :   -0.018717
  18 C :   -0.289599
  19 H :    0.118590
  20 H :    0.121029
  21 H :    0.112334
  22 H :    0.112150
  23 H :    0.101710
  24 H :    0.109033
  25 H :    0.112909
  26 H :    0.115930
  27 H :    0.145231
  28 H :    0.128306
  29 H :    0.180408
  30 H :    0.208358
  31 H :    0.101992
  32 H :    0.113274
  33 H :    0.142408
  34 H :    0.113181
  35 H :    0.108640
  36 H :    0.114263
  37 H :    0.107025
  38 H :    0.122075
  39 H :    0.108945
  40 H :    0.123463
Sum of atomic charges:   -0.0000000

LOEWDIN ATOMIC CHARGES
----------------------
   0 C :   -0.371702
   1 C :   -0.116257
   2 O :   -0.253017
   3 P :    0.578882
   4 S :   -0.291231
   5 O :   -0.231480
   6 C :   -0.104867
   7 C :   -0.375247
   8 S :    0.065518
   9 C :   -0.479643
  10 S :    0.057074
  11 P :    0.557798
  12 S :   -0.282105
  13 O :   -0.249434
  14 C :   -0.118722
  15 C :   -0.366286
  16 O :   -0.233625
  17 C :   -0.112357
  18 C :   -0.359871
  19 H :    0.123048
  20 H :    0.119109
  21 H :    0.130418
  22 H :    0.112382
  23 H :    0.117155
  24 H :    0.114794
  25 H :    0.124359
  26 H :    0.133341
  27 H :    0.128870
  28 H :    0.118122
  29 H :    0.132428
  30 H :    0.125475
  31 H :    0.116086
  32 H :    0.099724
  33 H :    0.125490
  34 H :    0.126409
  35 H :    0.125957
  36 H :    0.123355
  37 H :    0.104083
  38 H :    0.130246
  39 H :    0.129011
  40 H :    0.126710

  Mayer bond orders larger than 0.100000
B(  0-C ,  1-C ) :   1.1654 B(  0-C , 19-H ) :   0.9419 B(  0-C , 20-H ) :   0.9341
B(  0-C , 21-H ) :   0.9364 B(  1-C ,  2-O ) :   0.9138 B(  1-C , 22-H ) :   0.9177
B(  1-C , 23-H ) :   0.9346 B(  2-O ,  3-P ) :   1.0582 B(  3-P ,  4-S ) :   1.6273
B(  3-P ,  5-O ) :   1.1366 B(  3-P ,  8-S ) :   0.9335 B(  4-S ,  8-S ) :   0.1174
B(  4-S , 30-H ) :   0.1003 B(  5-O ,  6-C ) :   0.9023 B(  6-C ,  7-C ) :   1.1707
B(  6-C , 24-H ) :   0.9282 B(  6-C , 25-H ) :   0.9322 B(  7-C , 26-H ) :   0.9341
B(  7-C , 27-H ) :   0.9284 B(  7-C , 28-H ) :   0.9308 B(  8-S ,  9-C ) :   0.9915
B(  9-C , 10-S ) :   1.0086 B(  9-C , 29-H ) :   0.9036 B(  9-C , 30-H ) :   0.8488
B( 10-S , 11-P ) :   0.9338 B( 10-S , 12-S ) :   0.1150 B( 11-P , 12-S ) :   1.6758
B( 11-P , 13-O ) :   1.0700 B( 11-P , 16-O ) :   1.1443 B( 13-O , 14-C ) :   0.9066
B( 14-C , 15-C ) :   1.1758 B( 14-C , 31-H ) :   0.9357 B( 14-C , 32-H ) :   0.9027
B( 15-C , 33-H ) :   0.9191 B( 15-C , 34-H ) :   0.9425 B( 15-C , 35-H ) :   0.9330
B( 16-O , 17-C ) :   0.8941 B( 17-C , 18-C ) :   1.1648 B( 17-C , 36-H ) :   0.9359
B( 17-C , 37-H ) :   0.9156 B( 18-C , 38-H ) :   0.9465 B( 18-C , 39-H ) :   0.9394
B( 18-C , 40-H ) :   0.9406

Dispersion correction           -0.066659557
FINAL SINGLE POINT ENERGY     -2929.511533055946

DIPOLE MOMENT
-------------

Method             : SCF
Type of density    : Electron Density
Multiplicity       :   1
Irrep              :   0
Energy             : -2929.6305244307877729 Eh
Relativity type    :
Basis              : AO
                                X                 Y                 Z
Electronic contribution:      0.153498493       6.467965256     -14.774543322
Nuclear contribution   :      0.041772824      -7.896000010      16.087030732
                        -----------------------------------------
Total Dipole Moment    :      0.195271317      -1.428034754       1.312487410
                        -----------------------------------------
Magnitude (a.u.)       :      1.949368449
Magnitude (Debye)      :      4.954900824

Rotational constants in cm-1:             0.013566             0.004984             0.004515
Rotational constants in MHz :           406.712865           149.429338           135.358839

                             ****ORCA TERMINATED NORMALLY****
TOTAL RUN TIME: 0 days 0 hours 0 minutes 21 seconds 402 msec
