                         Program Version 6.0.0  -   RELEASE  -
|  1> ! pbe def2-sv(p) def2/J RI DEFGRID1 loosescf d4 GCP(DFT/SV(P)) printgap
|  2> %output
|  3>     printlevel normal
|  4> end
|  5> * xyz 0 1
|  6> C 2.7095197829 0.9561296805 -2.623891007
|  7> C 3.4220237707 -0.2619954755 -2.0734461914
|  8> O 3.3940981936 -0.3269198228 -0.6375684646
|  9> P 2.0924427581 -0.2313113784 0.2703186176
| 10> S 1.4984545563 1.6001790855 0.6675530188
| 11> O 2.5209053733 -1.0458866001 1.5597019379
| 12> C 3.0390041842 -0.399643039 2.7389348413
| 13> C 4.4562694361 0.082737865 2.5148634571
| 14> S 0.8243117393 -1.6811348178 -0.6250911345
| 15> C -0.2475244867 -2.0524925686 0.791114503
| 16> S -1.0944756744 -0.6073158441 1.4932758967
| 17> P -2.0979298602 0.0957269295 -0.2339675789
| 18> S -1.1750233737 0.9792702035 -1.7275654178
| 19> O -3.2620758927 0.9775465828 0.3943151927
| 20> C -3.1291048884 2.38961667 0.6186761149
| 21> C -2.1657937065 2.6911210154 1.7486794539
| 22> O -2.8366130675 -1.253572333 -0.6085553891
| 23> C -3.39020073 -1.4853574617 -1.9208472746
| 24> C -4.6181848423 -0.6347898811 -2.1667663056
| 25> H 3.1114306343 1.8649767749 -2.1818276779
| 26> H 2.835365092 0.9939987045 -3.7010811579
| 27> H 1.6430827162 0.9087717466 -2.3998652828
| 28> H 4.4878725236 -0.2396336909 -2.308096971
| 29> H 2.9741210027 -1.1802521931 -2.4649919943
| 30> H 2.3805807797 0.4361732458 2.9975634689
| 31> H 2.9859942003 -1.1692302211 3.5098108229
| 32> H 4.8429309931 0.5135408328 3.4329065136
| 33> H 5.0900909758 -0.7430510018 2.2032777367
| 34> H 4.4617377755 0.8421815959 1.7335261268
| 35> H 0.3495656776 -2.4726367533 1.597360871
| 36> H -0.983160229 -2.7677535049 0.4301460216
| 37> H -2.7904328472 2.8609015663 -0.3102689515
| 38> H -4.143082239 2.7155142478 0.8544695933
| 39> H -2.1778199645 3.7550719066 1.9618576758
| 40> H -2.4459936346 2.1384561871 2.6420484487
| 41> H -1.1516198901 2.4065772121 1.4647126442
| 42> H -2.6162987512 -1.2730603993 -2.6655815069
| 43> H -3.6271980576 -2.5499799906 -1.9210351103
| 44> H -5.0602234197 -0.9070088093 -3.1199883204
| 45> H -5.3444786786 -0.7841780125 -1.3722997294
| 46> H -4.3381646509 0.4174718433 -2.1938483003
| 47> *
| 48>
| 49>                          ****END OF INPUT****

CARTESIAN COORDINATES (ANGSTROEM)
---------------------------------
  C      2.709520    0.956130   -2.623891
  C      3.422024   -0.261995   -2.073446
  O      3.394098   -0.326920   -0.637568
  P      2.092443   -0.231311    0.270319
  S      1.498455    1.600179    0.667553
  O      2.520905   -1.045887    1.559702
  C      3.039004   -0.399643    2.738935
  C      4.456269    0.082738    2.514863
  S      0.824312   -1.681135   -0.625091
  C     -0.247524   -2.052493    0.791115
  S     -1.094476   -0.607316    1.493276
  P     -2.097930    0.095727   -0.233968
  S     -1.175023    0.979270   -1.727565
  O     -3.262076    0.977547    0.394315
  C     -3.129105    2.389617    0.618676
  C     -2.165794    2.691121    1.748679
  O     -2.836613   -1.253572   -0.608555
  C     -3.390201   -1.485357   -1.920847
  C     -4.618185   -0.634790   -2.166766
  H      3.111431    1.864977   -2.181828
  H      2.835365    0.993999   -3.701081
  H      1.643083    0.908772   -2.399865
  H      4.487873   -0.239634   -2.308097
  H      2.974121   -1.180252   -2.464992
  H      2.380581    0.436173    2.997563
  H      2.985994   -1.169230    3.509811
  H      4.842931    0.513541    3.432907
  H      5.090091   -0.743051    2.203278
  H      4.461738    0.842182    1.733526
  H      0.349566   -2.472637    1.597361
  H     -0.983160   -2.767754    0.430146
  H     -2.790433    2.860902   -0.310269
  H     -4.143082    2.715514    0.854470
  H     -2.177820    3.755072    1.961858
  H     -2.445994    2.138456    2.642048
  H     -1.151620    2.406577    1.464713
  H     -2.616299   -1.273060   -2.665582
  H     -3.627198   -2.549980   -1.921035
  H     -5.060223   -0.907009   -3.119988
  H     -5.344479   -0.784178   -1.372300
  H     -4.338165    0.417472   -2.193848

 Total Charge           Charge          ....    0
 Multiplicity           Mult            ....    1
 Number of Electrons    NEL             ....  202
 Basis Dimension        Dim             ....  334

ORBITAL ENERGIES
----------------

  NO   OCC          E(Eh)            E(eV)
   0   2.0000     -88.038795     -2395.6574
   1   2.0000     -88.037737     -2395.6286
   2   2.0000     -87.980326     -2394.0664
   3   2.0000     -87.976662     -2393.9667
   4   2.0000     -76.422574     -2079.5640
   5   2.0000     -76.422464     -2079.5610
   6   2.0000     -18.790315      -511.3105
   7   2.0000     -18.788550      -511.2624
   8   2.0000     -18.787970      -511.2467
   9   2.0000     -18.786596      -511.2093
  10   2.0000      -9.958724      -270.9907
  11   2.0000      -9.953426      -270.8465
  12   2.0000      -9.949985      -270.7529
  13   2.0000      -9.946989      -270.6713
  14   2.0000      -9.946450      -270.6567
  15   2.0000      -9.881942      -268.9013
  16   2.0000      -9.879239      -268.8278
  17   2.0000      -9.876357      -268.7493
  18   2.0000      -9.874826      -268.7077
  19   2.0000      -7.683921      -209.0901
  20   2.0000      -7.682852      -209.0610
  21   2.0000      -7.624903      -207.4841
  22   2.0000      -7.621341      -207.3872
  23   2.0000      -6.419995      -174.6969
  24   2.0000      -6.419580      -174.6856
  25   2.0000      -5.711979      -155.4308
  26   2.0000      -5.710970      -155.4034
  27   2.0000      -5.708480      -155.3356
  28   2.0000      -5.707454      -155.3077
  29   2.0000      -5.700621      -155.1218
  30   2.0000      -5.699445      -155.0898
  31   2.0000      -5.653790      -153.8474
  32   2.0000      -5.650279      -153.7519
  33   2.0000      -5.645452      -153.6206
  34   2.0000      -5.645217      -153.6142
  35   2.0000      -5.641969      -153.5258
  36   2.0000      -5.641504      -153.5131
  37   2.0000      -4.642622      -126.3322
  38   2.0000      -4.642272      -126.3226
  39   2.0000      -4.641805      -126.3099
  40   2.0000      -4.641696      -126.3070
  41   2.0000      -4.640361      -126.2706
  42   2.0000      -4.639661      -126.2516
  43   2.0000      -0.984223       -26.7821
  44   2.0000      -0.982412       -26.7328
  45   2.0000      -0.944686       -25.7062
  46   2.0000      -0.942662       -25.6511
  47   2.0000      -0.761678       -20.7263
  48   2.0000      -0.716147       -19.4874
  49   2.0000      -0.703866       -19.1532
  50   2.0000      -0.683302       -18.5936
  51   2.0000      -0.682648       -18.5758
  52   2.0000      -0.666550       -18.1377
  53   2.0000      -0.650408       -17.6985
  54   2.0000      -0.634703       -17.2712
  55   2.0000      -0.595965       -16.2170
  56   2.0000      -0.587809       -15.9951
  57   2.0000      -0.570691       -15.5293
  58   2.0000      -0.568787       -15.4775
  59   2.0000      -0.561823       -15.2880
  60   2.0000      -0.494691       -13.4612
  61   2.0000      -0.488386       -13.2897
  62   2.0000      -0.471169       -12.8212
  63   2.0000      -0.467346       -12.7171
  64   2.0000      -0.458148       -12.4668
  65   2.0000      -0.443078       -12.0568
  66   2.0000      -0.434764       -11.8305
  67   2.0000      -0.432553       -11.7704
  68   2.0000      -0.420908       -11.4535
  69   2.0000      -0.411157       -11.1881
  70   2.0000      -0.410389       -11.1673
  71   2.0000      -0.392114       -10.6700
  72   2.0000      -0.390899       -10.6369
  73   2.0000      -0.385546       -10.4913
  74   2.0000      -0.382465       -10.4074
  75   2.0000      -0.376310       -10.2399
  76   2.0000      -0.364276        -9.9124
  77   2.0000      -0.353458        -9.6181
  78   2.0000      -0.349727        -9.5166
  79   2.0000      -0.344422        -9.3722
  80   2.0000      -0.343471        -9.3463
  81   2.0000      -0.339625        -9.2417
  82   2.0000      -0.338014        -9.1978
  83   2.0000      -0.336363        -9.1529
  84   2.0000      -0.327244        -8.9048
  85   2.0000      -0.317546        -8.6409
  86   2.0000      -0.304180        -8.2772
  87   2.0000      -0.292816        -7.9679
  88   2.0000      -0.290910        -7.9161
  89   2.0000      -0.285363        -7.7651
  90   2.0000      -0.279711        -7.6113
  91   2.0000      -0.271923        -7.3994
  92   2.0000      -0.269017        -7.3203
  93   2.0000      -0.258481        -7.0336
  94   2.0000      -0.254456        -6.9241
  95   2.0000      -0.247375        -6.7314
  96   2.0000      -0.218150        -5.9362
  97   2.0000      -0.206624        -5.6225
  98   2.0000      -0.187779        -5.1097
  99   2.0000      -0.182934        -4.9779
 100   2.0000      -0.182080        -4.9546
 101   0.0000      -0.050211        -1.3663
 102   0.0000      -0.027555        -0.7498
 103   0.0000      -0.009725        -0.2646
 104   0.0000      -0.004593        -0.1250
 105   0.0000       0.023126         0.6293

MULLIKEN ATOMIC CHARGES
-----------------------
   0 C :   -0.331362
   1 C :   -0.012642
   2 O :   -0.373938
   3 P :    0.617331
   4 S :   -0.300587
   5 O :   -0.373394
   6 C :   -0.008896
   7 C :   -0.300380
   8 S :   -0.114839
   9 C :   -0.328631
  10 S :   -0.091162
  11 P :    0.620103
  12 S :   -0.306669
  13 O :   -0.371056
  14 C :   -0.001889
  15 C :   -0.345187
  16 O :   -0.375683
  17 C :   -0.005112
  18 C :   -0.303119
  19 H :    0.123883
  20 H :    0.107955
  21 H :    0.156754
  22 H :    0.107825
  23 H :    0.113089
  24 H :    0.112608
  25 H :    0.099198
  26 H :    0.109543
  27 H :    0.113914
  28 H :    0.124414
  29 H :    0.188498
  30 H :    0.187793
  31 H :    0.110204
  32 H :    0.102365
  33 H :    0.112303
  34 H :    0.116243
  35 H :    0.158379
  36 H :    0.111292
  37 H :    0.100680
  38 H :    0.110814
  39 H :    0.116615
  40 H :    0.122741
Sum of atomic charges:   -0.0000000

LOEWDIN ATOMIC CHARGES
----------------------
   0 C :   -0.373664
   1 C :   -0.114119
   2 O :   -0.246649
   3 P :    0.571870
   4 S :   -0.298910
   5 O :   -0.243584
   6 C :   -0.122283
   7 C :   -0.362968
   8 S :    0.074253
   9 C :   -0.469882
  10 S :    0.089605
  11 P :    0.571766
  12 S :   -0.302170
  13 O :   -0.243012
  14 C :   -0.120678
  15 C :   -0.374632
  16 O :   -0.243960
  17 C :   -0.119758
  18 C :   -0.363794
  19 H :    0.129045
  20 H :    0.128892
  21 H :    0.122909
  22 H :    0.120746
  23 H :    0.107909
  24 H :    0.109138
  25 H :    0.115175
  26 H :    0.129228
  27 H :    0.125263
  28 H :    0.124420
  29 H :    0.134442
  30 H :    0.134209
  31 H :    0.109529
  32 H :    0.117142
  33 H :    0.131749
  34 H :    0.123453
  35 H :    0.123170
  36 H :    0.110225
  37 H :    0.116132
  38 H :    0.129832
  39 H :    0.126562
  40 H :    0.123403

  Mayer bond orders larger than 0.100000
B(  0-C ,  1-C ) :   1.1638 B(  0-C , 19-H ) :   0.9414 B(  0-C , 20-H ) :   0.9341
B(  0-C , 21-H ) :   0.9230 B(  1-C ,  2-O ) :   0.9180 B(  1-C , 22-H ) :   0.9344
B(  1-C , 23-H ) :   0.9247 B(  2-O ,  3-P ) :   1.1046 B(  3-P ,  4-S ) :   1.6340
B(  3-P ,  5-O ) :   1.1050 B(  3-P ,  8-S ) :   0.9373 B(  4-S ,  8-S ) :   0.1165
B(  5-O ,  6-C ) :   0.9035 B(  6-C ,  7-C ) :   1.1660 B(  6-C , 24-H ) :   0.9083
B(  6-C , 25-H ) :   0.9330 B(  7-C , 26-H ) :   0.9398 B(  7-C , 27-H ) :   0.9469
B(  7-C , 28-H ) :   0.9353 B(  8-S ,  9-C ) :   1.0082 B(  9-C , 10-S ) :   1.0044
B(  9-C , 29-H ) :   0.9027 B(  9-C , 30-H ) :   0.9034 B( 10-S , 11-P ) :   0.9536
B( 10-S , 12-S ) :   0.1153 B( 11-P , 12-S ) :   1.6183 B( 11-P , 13-O ) :   1.1078
B( 11-P , 16-O ) :   1.1072 B( 13-O , 14-C ) :   0.9074 B( 14-C , 15-C ) :   1.1649
B( 14-C , 31-H ) :   0.9121 B( 14-C , 32-H ) :   0.9329 B( 15-C , 33-H ) :   0.9378
B( 15-C , 34-H ) :   0.9440 B( 15-C , 35-H ) :   0.9206 B( 16-O , 17-C ) :   0.9044
B( 17-C , 18-C ) :   1.1665 B( 17-C , 36-H ) :   0.9129 B( 17-C , 37-H ) :   0.9339
B( 18-C , 38-H ) :   0.9392 B( 18-C , 39-H ) :   0.9462 B( 18-C , 40-H ) :   0.9362

Dispersion correction           -0.068327655
FINAL SINGLE POINT ENERGY     -2929.511565512666

DIPOLE MOMENT
-------------

Method             : SCF
Type of density    : Electron Density
Multiplicity       :   1
Irrep              :   0
Energy             : -2929.6278839026058449 Eh
Relativity type    :
Basis              : AO
                                X                 Y                 Z
Electronic contribution:     -0.586007601      -6.233456863       1.793390561
Nuclear contribution   :      0.454997017       5.498599632      -1.715664535
                        -----------------------------------------
Total Dipole Moment    :     -0.131010583      -0.734857231       0.077726027
                        -----------------------------------------
Magnitude (a.u.)       :      0.750480018
Magnitude (Debye)      :      1.907568609

Rotational constants in cm-1:             0.012450             0.005478             0.005088
Rotational constants in MHz :           373.256542           164.226261           152.548835

                             ****ORCA TERMINATED NORMALLY****
TOTAL RUN TIME: 0 days 0 hours 0 minutes 21 seconds 462 msec
