                         Program Version 6.0.1  -  RELEASE   -
|  1> ! pbe def2-sv(p) def2/J RI DEFGRID1 loosescf d4 GCP(DFT/SV(P)) printgap
|  2> %output
|  3>     printlevel normal
|  4> end
|  5> * xyz 0 1
|  6> C 4.2407263867 -2.4055449684 0.8047283393
|  7> C 2.7573971609 -2.295238927 0.5134627779
|  8> O 2.5688568183 -1.2480882829 -0.4578577087
|  9> C 1.4185764008 -1.1738027513 -1.0850877622
| 10> O 0.4831703743 -1.929447226 -0.9038484366
| 11> C 1.3814674164 -0.0293884119 -2.0761214074
| 12> C 0.2932020331 0.97530362 -1.6956817626
| 13> H 0.2164117839 1.7396525652 -2.4755774304
| 14> C 0.5453650177 1.6807829702 -0.3754827367
| 15> O -0.3608908685 1.9870449301 0.3749248187
| 16> O 1.8118286876 1.9105186102 -0.1664096005
| 17> C 2.1948313738 2.5687172672 1.0600351379
| 18> C 2.0376995116 4.0754138735 0.9440646706
| 19> S -1.3759327232 0.237171022 -1.6289964148
| 20> P -1.6639120218 -0.2749079703 0.4213204366
| 21> S -0.2799887337 -0.6264554619 1.7643523799
| 22> O -2.7145687879 0.7579714681 1.0026677179
| 23> C -3.9120873494 1.1492813293 0.3096462148
| 24> O -2.6580059604 -1.5239701039 0.2283033704
| 25> C -2.2455196526 -2.841153575 -0.1331322932
| 26> H 4.7833543233 -2.6470432962 -0.1044560505
| 27> H 4.6120911254 -1.465002399 1.1991429055
| 28> H 4.4013773709 -3.188421707 1.5381405449
| 29> H 2.1814822519 -2.0331749259 1.4072200588
| 30> H 2.3492713692 -3.2233246636 0.1007926566
| 31> H 1.1447094212 -0.4379273471 -3.0592707391
| 32> H 2.3511102911 0.4663819595 -2.0874235593
| 33> H 1.5817954656 2.1678297501 1.8727506569
| 34> H 3.237482686 2.2828381689 1.1959631713
| 35> H 0.9893882964 4.3346770276 0.8139302931
| 36> H 2.4027200217 4.5407115303 1.8535354387
| 37> H 2.6067193853 4.4473763817 0.0966272346
| 38> H -3.6574591227 1.6036224742 -0.6480209574
| 39> H -4.3890830919 1.8745244575 0.9637309113
| 40> H -4.552863679 0.2824906111 0.1557029972
| 41> H -3.1123425839 -3.4739821527 0.040257615
| 42> H -1.406189001 -3.1556800584 0.4875013668
| 43> H -1.9449969293 -2.8657204807 -1.1796284897
| 44> *
| 45>
| 46>                          ****END OF INPUT****

CARTESIAN COORDINATES (ANGSTROEM)
---------------------------------
  C      4.240726   -2.405545    0.804728
  C      2.757397   -2.295239    0.513463
  O      2.568857   -1.248088   -0.457858
  C      1.418576   -1.173803   -1.085088
  O      0.483170   -1.929447   -0.903848
  C      1.381467   -0.029388   -2.076121
  C      0.293202    0.975304   -1.695682
  H      0.216412    1.739653   -2.475577
  C      0.545365    1.680783   -0.375483
  O     -0.360891    1.987045    0.374925
  O      1.811829    1.910519   -0.166410
  C      2.194831    2.568717    1.060035
  C      2.037700    4.075414    0.944065
  S     -1.375933    0.237171   -1.628996
  P     -1.663912   -0.274908    0.421320
  S     -0.279989   -0.626455    1.764352
  O     -2.714569    0.757971    1.002668
  C     -3.912087    1.149281    0.309646
  O     -2.658006   -1.523970    0.228303
  C     -2.245520   -2.841154   -0.133132
  H      4.783354   -2.647043   -0.104456
  H      4.612091   -1.465002    1.199143
  H      4.401377   -3.188422    1.538141
  H      2.181482   -2.033175    1.407220
  H      2.349271   -3.223325    0.100793
  H      1.144709   -0.437927   -3.059271
  H      2.351110    0.466382   -2.087424
  H      1.581795    2.167830    1.872751
  H      3.237483    2.282838    1.195963
  H      0.989388    4.334677    0.813930
  H      2.402720    4.540712    1.853535
  H      2.606719    4.447376    0.096627
  H     -3.657459    1.603622   -0.648021
  H     -4.389083    1.874524    0.963731
  H     -4.552864    0.282491    0.155703
  H     -3.112343   -3.473982    0.040258
  H     -1.406189   -3.155680    0.487501
  H     -1.944997   -2.865720   -1.179628

 Total Charge           Charge          ....    0
 Multiplicity           Mult            ....    1
 Number of Electrons    NEL             ....  174
 Basis Dimension        Dim             ....  316

ORBITAL ENERGIES
----------------

  NO   OCC          E(Eh)            E(eV)
   0   2.0000     -88.030059     -2395.4197
   1   2.0000     -87.964979     -2393.6488
   2   2.0000     -76.413695     -2079.3224
   3   2.0000     -18.816889      -512.0336
   4   2.0000     -18.801743      -511.6214
   5   2.0000     -18.772094      -510.8146
   6   2.0000     -18.769704      -510.7496
   7   2.0000     -18.746015      -510.1050
   8   2.0000     -18.733846      -509.7739
   9   2.0000     -10.021273      -272.6927
  10   2.0000     -10.007546      -272.3192
  11   2.0000      -9.953999      -270.8621
  12   2.0000      -9.952113      -270.8108
  13   2.0000      -9.940530      -270.4956
  14   2.0000      -9.932073      -270.2654
  15   2.0000      -9.922223      -269.9974
  16   2.0000      -9.912079      -269.7214
  17   2.0000      -9.890236      -269.1270
  18   2.0000      -9.886348      -269.0212
  19   2.0000      -7.674959      -208.8463
  20   2.0000      -7.610247      -207.0854
  21   2.0000      -6.409104      -174.4006
  22   2.0000      -5.703227      -155.1927
  23   2.0000      -5.699573      -155.0933
  24   2.0000      -5.691397      -154.8708
  25   2.0000      -5.639579      -153.4608
  26   2.0000      -5.630760      -153.2208
  27   2.0000      -5.629958      -153.1990
  28   2.0000      -4.631892      -126.0402
  29   2.0000      -4.631278      -126.0235
  30   2.0000      -4.629475      -125.9744
  31   2.0000      -1.025446       -27.9038
  32   2.0000      -1.008437       -27.4410
  33   2.0000      -0.965679       -26.2775
  34   2.0000      -0.927653       -25.2427
  35   2.0000      -0.919470       -25.0200
  36   2.0000      -0.911564       -24.8049
  37   2.0000      -0.764695       -20.8084
  38   2.0000      -0.710183       -19.3251
  39   2.0000      -0.707579       -19.2542
  40   2.0000      -0.683822       -18.6077
  41   2.0000      -0.653883       -17.7931
  42   2.0000      -0.623788       -16.9741
  43   2.0000      -0.616792       -16.7838
  44   2.0000      -0.603449       -16.4207
  45   2.0000      -0.589873       -16.0513
  46   2.0000      -0.564469       -15.3600
  47   2.0000      -0.510635       -13.8951
  48   2.0000      -0.505360       -13.7515
  49   2.0000      -0.496055       -13.4983
  50   2.0000      -0.482150       -13.1200
  51   2.0000      -0.458241       -12.4694
  52   2.0000      -0.453131       -12.3303
  53   2.0000      -0.447640       -12.1809
  54   2.0000      -0.434717       -11.8292
  55   2.0000      -0.425489       -11.5781
  56   2.0000      -0.417183       -11.3521
  57   2.0000      -0.414150       -11.2696
  58   2.0000      -0.407989       -11.1019
  59   2.0000      -0.403847       -10.9892
  60   2.0000      -0.398006       -10.8303
  61   2.0000      -0.394096       -10.7239
  62   2.0000      -0.382240       -10.4013
  63   2.0000      -0.378963       -10.3121
  64   2.0000      -0.373267       -10.1571
  65   2.0000      -0.366812        -9.9815
  66   2.0000      -0.356600        -9.7036
  67   2.0000      -0.353997        -9.6328
  68   2.0000      -0.348338        -9.4787
  69   2.0000      -0.342659        -9.3242
  70   2.0000      -0.331513        -9.0209
  71   2.0000      -0.329183        -8.9575
  72   2.0000      -0.312622        -8.5069
  73   2.0000      -0.306279        -8.3343
  74   2.0000      -0.302124        -8.2212
  75   2.0000      -0.295914        -8.0522
  76   2.0000      -0.283513        -7.7148
  77   2.0000      -0.279826        -7.6145
  78   2.0000      -0.266847        -7.2613
  79   2.0000      -0.262565        -7.1448
  80   2.0000      -0.252558        -6.8725
  81   2.0000      -0.244967        -6.6659
  82   2.0000      -0.234332        -6.3765
  83   2.0000      -0.228289        -6.2121
  84   2.0000      -0.197482        -5.3738
  85   2.0000      -0.182763        -4.9732
  86   2.0000      -0.176054        -4.7907
  87   0.0000      -0.043612        -1.1867
  88   0.0000      -0.034511        -0.9391
  89   0.0000      -0.024850        -0.6762
  90   0.0000       0.005603         0.1525
  91   0.0000       0.033943         0.9236

MULLIKEN ATOMIC CHARGES
-----------------------
   0 C :   -0.273276
   1 C :   -0.039480
   2 O :   -0.221080
   3 C :    0.084583
   4 O :   -0.199641
   5 C :   -0.004876
   6 C :   -0.314400
   7 H :    0.155330
   8 C :    0.190275
   9 O :   -0.182891
  10 O :   -0.217127
  11 C :   -0.010764
  12 C :   -0.311440
  13 S :   -0.096542
  14 P :    0.642150
  15 S :   -0.336898
  16 O :   -0.358124
  17 C :   -0.102063
  18 O :   -0.398899
  19 C :   -0.088880
  20 H :    0.110309
  21 H :    0.111768
  22 H :    0.111994
  23 H :    0.127701
  24 H :    0.103562
  25 H :    0.116023
  26 H :    0.111270
  27 H :    0.128624
  28 H :    0.104279
  29 H :    0.132521
  30 H :    0.117694
  31 H :    0.111474
  32 H :    0.113908
  33 H :    0.124273
  34 H :    0.116107
  35 H :    0.110503
  36 H :    0.116456
  37 H :    0.115576
Sum of atomic charges:    0.0000000

LOEWDIN ATOMIC CHARGES
----------------------
   0 C :   -0.350811
   1 C :   -0.111602
   2 O :   -0.048835
   3 C :    0.020890
   4 O :   -0.169154
   5 C :   -0.250060
   6 C :   -0.259492
   7 H :    0.152574
   8 C :    0.005007
   9 O :   -0.154376
  10 O :   -0.036079
  11 C :   -0.106404
  12 C :   -0.357228
  13 S :    0.104558
  14 P :    0.594016
  15 S :   -0.313844
  16 O :   -0.237011
  17 C :   -0.212999
  18 O :   -0.262952
  19 C :   -0.213132
  20 H :    0.124022
  21 H :    0.125041
  22 H :    0.130931
  23 H :    0.117443
  24 H :    0.115959
  25 H :    0.144224
  26 H :    0.138637
  27 H :    0.128092
  28 H :    0.119270
  29 H :    0.132432
  30 H :    0.133511
  31 H :    0.123592
  32 H :    0.105327
  33 H :    0.122850
  34 H :    0.111509
  35 H :    0.113611
  36 H :    0.110643
  37 H :    0.109840

  Mayer bond orders larger than 0.100000
B(  0-C ,  1-C ) :   1.1515 B(  0-C , 20-H ) :   0.9512 B(  0-C , 21-H ) :   0.9490
B(  0-C , 22-H ) :   0.9447 B(  1-C ,  2-O ) :   0.8986 B(  1-C , 23-H ) :   0.9214
B(  1-C , 24-H ) :   0.9245 B(  2-O ,  3-C ) :   1.2553 B(  3-C ,  4-O ) :   1.9846
B(  3-C ,  5-C ) :   1.0104 B(  5-C ,  6-C ) :   1.0329 B(  5-C , 25-H ) :   0.8858
B(  5-C , 26-H ) :   0.8813 B(  6-C ,  7-H ) :   0.8713 B(  6-C ,  8-C ) :   0.8946
B(  6-C , 13-S ) :   1.0388 B(  8-C ,  9-O ) :   1.9883 B(  8-C , 10-O ) :   1.2754
B( 10-O , 11-C ) :   0.8989 B( 11-C , 12-C ) :   1.1718 B( 11-C , 27-H ) :   0.9119
B( 11-C , 28-H ) :   0.9370 B( 12-C , 29-H ) :   0.9441 B( 12-C , 30-H ) :   0.9439
B( 12-C , 31-H ) :   0.9477 B( 13-S , 14-P ) :   0.9285 B( 13-S , 15-S ) :   0.1188
B( 14-P , 15-S ) :   1.5721 B( 14-P , 16-O ) :   1.1237 B( 14-P , 18-O ) :   1.0667
B( 16-O , 17-C ) :   0.9310 B( 17-C , 32-H ) :   0.9367 B( 17-C , 33-H ) :   0.9603
B( 17-C , 34-H ) :   0.9464 B( 18-O , 19-C ) :   0.9348 B( 19-C , 35-H ) :   0.9562
B( 19-C , 36-H ) :   0.9393 B( 19-C , 37-H ) :   0.9486

Dispersion correction           -0.055102690
FINAL SINGLE POINT ENERGY     -1979.002948849502

DIPOLE MOMENT
-------------

Method             : SCF
Type of density    : Electron Density
Multiplicity       :   1
Irrep              :   0
Energy             : -1979.1314307271636608 Eh
Relativity type    :
Basis              : AO
                                X                 Y                 Z
Electronic contribution:    -13.449546378      -0.960753387      -2.573156545
Nuclear contribution   :     14.463828092       1.428773290       1.657474550
                        -----------------------------------------
Total Dipole Moment    :      1.014281714       0.468019903      -0.915681995
                        -----------------------------------------
Magnitude (a.u.)       :      1.444397293
Magnitude (Debye)      :      3.671366151

Rotational constants in cm-1:             0.012021             0.009202             0.006922
Rotational constants in MHz :           360.383486           275.874667           207.525809

                             ****ORCA TERMINATED NORMALLY****
TOTAL RUN TIME: 0 days 0 hours 1 minutes 33 seconds 304 msec
