                         Program Version 6.0.1  -  RELEASE   -
|  1> ! pbe def2-sv(p) def2/J RI DEFGRID1 loosescf d4 GCP(DFT/SV(P)) printgap
|  2> %output
|  3>     printlevel normal
|  4> end
|  5> * xyz 0 1
|  6> C 4.8255528606 -3.4343134822 -1.7893614158
|  7> C 3.618311555 -3.7865688705 -0.9347552119
|  8> O 3.2291960634 -2.6726652494 -0.1076357145
|  9> C 2.4101431947 -1.7710708818 -0.6108122345
| 10> O 1.9257657468 -1.8185182777 -1.7194715262
| 11> C 2.1551178958 -0.653050853 0.3834122009
| 12> C 0.8232325045 0.0199698678 0.0918983095
| 13> H 0.7314897111 0.1891631174 -0.9893876805
| 14> C 0.6323185238 1.3545908849 0.7822182417
| 15> O -0.4224566151 1.6604210333 1.3019769411
| 16> O 1.6937664212 2.1084245344 0.726552877
| 17> C 1.594613662 3.464441239 1.2184955415
| 18> C 1.0806194826 4.3847849083 0.1240771153
| 19> S -0.5655832399 -1.0535803359 0.5924569721
| 20> P -2.1588238086 0.2082641806 -0.061406488
| 21> S -1.8207378564 1.6382642688 -1.3537653788
| 22> O -3.0938691347 -0.8618900751 -0.7823778541
| 23> C -3.5906981812 -2.0376677398 -0.1224557352
| 24> O -3.0843653378 0.5328812368 1.1982685058
| 25> C -3.0972984352 1.7152265873 1.9983671849
| 26> H 5.1384342194 -4.3110734175 -2.3466102327
| 27> H 4.5689494946 -2.6441973426 -2.4914279017
| 28> H 5.6446572346 -3.0981533673 -1.1597810537
| 29> H 3.8501517067 -4.5823323982 -0.2269774611
| 30> H 2.7679382197 -4.0685382751 -1.5619239628
| 31> H 2.9550135946 0.083457296 0.2750386499
| 32> H 2.1840918486 -1.062060602 1.3928858816
| 33> H 0.9270989302 3.4740702103 2.083588238
| 34> H 2.6120015744 3.7201052088 1.5132472724
| 35> H 1.0117585586 5.3973958063 0.5068146719
| 36> H 1.7523921778 4.3675166179 -0.72943831
| 37> H 0.0944269821 4.0629418304 -0.207366219
| 38> H -2.7621001236 -2.6021205932 0.3074810378
| 39> H -4.0840684493 -2.6142807028 -0.9007094351
| 40> H -4.2951636725 -1.754683347 0.6574476984
| 41> H -4.1132674065 1.795409052 2.3791175918
| 42> H -2.8448761485 2.5849309694 1.3922947109
| 43> H -2.3816394336 1.6153883658 2.8116656111
| 44> *
| 45>
| 46>                          ****END OF INPUT****

CARTESIAN COORDINATES (ANGSTROEM)
---------------------------------
  C      4.825553   -3.434313   -1.789361
  C      3.618312   -3.786569   -0.934755
  O      3.229196   -2.672665   -0.107636
  C      2.410143   -1.771071   -0.610812
  O      1.925766   -1.818518   -1.719472
  C      2.155118   -0.653051    0.383412
  C      0.823233    0.019970    0.091898
  H      0.731490    0.189163   -0.989388
  C      0.632319    1.354591    0.782218
  O     -0.422457    1.660421    1.301977
  O      1.693766    2.108425    0.726553
  C      1.594614    3.464441    1.218496
  C      1.080619    4.384785    0.124077
  S     -0.565583   -1.053580    0.592457
  P     -2.158824    0.208264   -0.061406
  S     -1.820738    1.638264   -1.353765
  O     -3.093869   -0.861890   -0.782378
  C     -3.590698   -2.037668   -0.122456
  O     -3.084365    0.532881    1.198269
  C     -3.097298    1.715227    1.998367
  H      5.138434   -4.311073   -2.346610
  H      4.568949   -2.644197   -2.491428
  H      5.644657   -3.098153   -1.159781
  H      3.850152   -4.582332   -0.226977
  H      2.767938   -4.068538   -1.561924
  H      2.955014    0.083457    0.275039
  H      2.184092   -1.062061    1.392886
  H      0.927099    3.474070    2.083588
  H      2.612002    3.720105    1.513247
  H      1.011759    5.397396    0.506815
  H      1.752392    4.367517   -0.729438
  H      0.094427    4.062942   -0.207366
  H     -2.762100   -2.602121    0.307481
  H     -4.084068   -2.614281   -0.900709
  H     -4.295164   -1.754683    0.657448
  H     -4.113267    1.795409    2.379118
  H     -2.844876    2.584931    1.392295
  H     -2.381639    1.615388    2.811666

 Total Charge           Charge          ....    0
 Multiplicity           Mult            ....    1
 Number of Electrons    NEL             ....  174
 Basis Dimension        Dim             ....  316

ORBITAL ENERGIES
----------------

  NO   OCC          E(Eh)            E(eV)
   0   2.0000     -88.028689     -2395.3824
   1   2.0000     -87.968821     -2393.7533
   2   2.0000     -76.415532     -2079.3723
   3   2.0000     -18.822367      -512.1826
   4   2.0000     -18.807522      -511.7787
   5   2.0000     -18.780798      -511.0515
   6   2.0000     -18.771392      -510.7956
   7   2.0000     -18.752074      -510.2699
   8   2.0000     -18.743822      -510.0453
   9   2.0000     -10.024494      -272.7803
  10   2.0000     -10.015083      -272.5243
  11   2.0000      -9.958190      -270.9761
  12   2.0000      -9.952023      -270.8083
  13   2.0000      -9.943274      -270.5702
  14   2.0000      -9.937124      -270.4029
  15   2.0000      -9.932710      -270.2828
  16   2.0000      -9.918085      -269.8848
  17   2.0000      -9.891100      -269.1505
  18   2.0000      -9.888557      -269.0813
  19   2.0000      -7.673756      -208.8135
  20   2.0000      -7.614191      -207.1927
  21   2.0000      -6.411597      -174.4684
  22   2.0000      -5.701642      -155.1496
  23   2.0000      -5.698718      -155.0700
  24   2.0000      -5.690296      -154.8408
  25   2.0000      -5.643493      -153.5672
  26   2.0000      -5.634920      -153.3340
  27   2.0000      -5.633773      -153.3028
  28   2.0000      -4.634423      -126.1091
  29   2.0000      -4.633496      -126.0838
  30   2.0000      -4.632063      -126.0448
  31   2.0000      -1.030550       -28.0427
  32   2.0000      -1.015448       -27.6317
  33   2.0000      -0.970176       -26.3998
  34   2.0000      -0.933854       -25.4114
  35   2.0000      -0.924671       -25.1616
  36   2.0000      -0.921007       -25.0619
  37   2.0000      -0.764021       -20.7901
  38   2.0000      -0.715717       -19.4756
  39   2.0000      -0.710390       -19.3307
  40   2.0000      -0.688713       -18.7408
  41   2.0000      -0.655460       -17.8360
  42   2.0000      -0.627872       -17.0853
  43   2.0000      -0.625338       -17.0163
  44   2.0000      -0.606269       -16.4974
  45   2.0000      -0.598986       -16.2992
  46   2.0000      -0.564688       -15.3659
  47   2.0000      -0.510294       -13.8858
  48   2.0000      -0.505041       -13.7429
  49   2.0000      -0.500439       -13.6176
  50   2.0000      -0.480816       -13.0837
  51   2.0000      -0.465361       -12.6631
  52   2.0000      -0.464284       -12.6338
  53   2.0000      -0.451733       -12.2923
  54   2.0000      -0.441726       -12.0200
  55   2.0000      -0.432819       -11.7776
  56   2.0000      -0.420810       -11.4508
  57   2.0000      -0.418063       -11.3761
  58   2.0000      -0.414059       -11.2671
  59   2.0000      -0.406679       -11.0663
  60   2.0000      -0.401857       -10.9351
  61   2.0000      -0.398354       -10.8398
  62   2.0000      -0.392508       -10.6807
  63   2.0000      -0.384448       -10.4614
  64   2.0000      -0.379150       -10.3172
  65   2.0000      -0.368296       -10.0218
  66   2.0000      -0.360295        -9.8041
  67   2.0000      -0.356455        -9.6996
  68   2.0000      -0.348704        -9.4887
  69   2.0000      -0.338802        -9.2193
  70   2.0000      -0.334378        -9.0989
  71   2.0000      -0.331533        -9.0215
  72   2.0000      -0.326856        -8.8942
  73   2.0000      -0.306689        -8.3454
  74   2.0000      -0.304594        -8.2884
  75   2.0000      -0.299465        -8.1489
  76   2.0000      -0.290260        -7.8984
  77   2.0000      -0.285437        -7.7671
  78   2.0000      -0.277637        -7.5549
  79   2.0000      -0.265417        -7.2224
  80   2.0000      -0.257180        -6.9982
  81   2.0000      -0.249692        -6.7945
  82   2.0000      -0.240406        -6.5418
  83   2.0000      -0.230215        -6.2645
  84   2.0000      -0.204752        -5.5716
  85   2.0000      -0.191321        -5.2061
  86   2.0000      -0.182355        -4.9621
  87   0.0000      -0.042994        -1.1699
  88   0.0000      -0.035615        -0.9691
  89   0.0000      -0.020953        -0.5702
  90   0.0000       0.006339         0.1725
  91   0.0000       0.035445         0.9645

MULLIKEN ATOMIC CHARGES
-----------------------
   0 C :   -0.306209
   1 C :   -0.012670
   2 O :   -0.229823
   3 C :    0.133867
   4 O :   -0.192841
   5 C :   -0.127671
   6 C :   -0.294650
   7 H :    0.171874
   8 C :    0.230117
   9 O :   -0.191848
  10 O :   -0.222968
  11 C :   -0.012634
  12 C :   -0.311272
  13 S :   -0.126017
  14 P :    0.645989
  15 S :   -0.332155
  16 O :   -0.366738
  17 C :   -0.109520
  18 O :   -0.399015
  19 C :   -0.078449
  20 H :    0.115689
  21 H :    0.128335
  22 H :    0.114034
  23 H :    0.104718
  24 H :    0.114617
  25 H :    0.139617
  26 H :    0.115694
  27 H :    0.110515
  28 H :    0.106376
  29 H :    0.113557
  30 H :    0.117371
  31 H :    0.143662
  32 H :    0.117850
  33 H :    0.128752
  34 H :    0.117235
  35 H :    0.114358
  36 H :    0.114687
  37 H :    0.115566
Sum of atomic charges:   -0.0000000

LOEWDIN ATOMIC CHARGES
----------------------
   0 C :   -0.355917
   1 C :   -0.110042
   2 O :   -0.059392
   3 C :    0.031260
   4 O :   -0.156437
   5 C :   -0.254285
   6 C :   -0.266752
   7 H :    0.153494
   8 C :    0.022818
   9 O :   -0.159411
  10 O :   -0.037922
  11 C :   -0.106158
  12 C :   -0.357619
  13 S :    0.082289
  14 P :    0.589291
  15 S :   -0.325021
  16 O :   -0.252965
  17 C :   -0.213350
  18 O :   -0.253804
  19 C :   -0.205636
  20 H :    0.132072
  21 H :    0.131156
  22 H :    0.124745
  23 H :    0.118813
  24 H :    0.122780
  25 H :    0.154951
  26 H :    0.138285
  27 H :    0.121024
  28 H :    0.119338
  29 H :    0.131453
  30 H :    0.127258
  31 H :    0.134139
  32 H :    0.103876
  33 H :    0.124572
  34 H :    0.112335
  35 H :    0.114856
  36 H :    0.111230
  37 H :    0.112677

  Mayer bond orders larger than 0.100000
B(  0-C ,  1-C ) :   1.1741 B(  0-C , 20-H ) :   0.9441 B(  0-C , 21-H ) :   0.9463
B(  0-C , 22-H ) :   0.9489 B(  1-C ,  2-O ) :   0.9129 B(  1-C , 23-H ) :   0.9371
B(  1-C , 24-H ) :   0.9142 B(  2-O ,  3-C ) :   1.2418 B(  3-C ,  4-O ) :   2.0442
B(  3-C ,  5-C ) :   0.9943 B(  5-C ,  6-C ) :   1.0910 B(  5-C , 25-H ) :   0.8706
B(  5-C , 26-H ) :   0.9016 B(  6-C ,  7-H ) :   0.8288 B(  6-C ,  8-C ) :   0.9036
B(  6-C , 13-S ) :   1.0329 B(  8-C ,  9-O ) :   1.9587 B(  8-C , 10-O ) :   1.2747
B( 10-O , 11-C ) :   0.8969 B( 11-C , 12-C ) :   1.1787 B( 11-C , 27-H ) :   0.9132
B( 11-C , 28-H ) :   0.9363 B( 12-C , 29-H ) :   0.9418 B( 12-C , 30-H ) :   0.9481
B( 12-C , 31-H ) :   0.9337 B( 13-S , 14-P ) :   0.9229 B( 13-S , 15-S ) :   0.1097
B( 14-P , 15-S ) :   1.6008 B( 14-P , 16-O ) :   1.1078 B( 14-P , 18-O ) :   1.0901
B( 16-O , 17-C ) :   0.9349 B( 17-C , 32-H ) :   0.9357 B( 17-C , 33-H ) :   0.9607
B( 17-C , 34-H ) :   0.9468 B( 18-O , 19-C ) :   0.9278 B( 19-C , 35-H ) :   0.9539
B( 19-C , 36-H ) :   0.9420 B( 19-C , 37-H ) :   0.9528

Dispersion correction           -0.049813831
FINAL SINGLE POINT ENERGY     -1979.011907419211

DIPOLE MOMENT
-------------

Method             : SCF
Type of density    : Electron Density
Multiplicity       :   1
Irrep              :   0
Energy             : -1979.1444876256318821 Eh
Relativity type    :
Basis              : AO
                                X                 Y                 Z
Electronic contribution:    -13.563162218      -0.540109077      -1.182111197
Nuclear contribution   :     14.908371513       0.300169178       2.624701826
                        -----------------------------------------
Total Dipole Moment    :      1.345209296      -0.239939899       1.442590629
                        -----------------------------------------
Magnitude (a.u.)       :      1.987014576
Magnitude (Debye)      :      5.050589676

Rotational constants in cm-1:             0.012171             0.006428             0.004833
Rotational constants in MHz :           364.875688           192.699491           144.894627

                             ****ORCA TERMINATED NORMALLY****
TOTAL RUN TIME: 0 days 0 hours 0 minutes 32 seconds 902 msec
