                         Program Version 6.0.0  -   RELEASE  -
|  1> ! pbe def2-sv(p) def2/J RI DEFGRID1 loosescf d4 GCP(DFT/SV(P)) printgap
|  2> %output
|  3>     printlevel normal
|  4> end
|  5> * xyz 0 1
|  6> C -1.9444652673 0.0582331848 -0.0030915486
|  7> C -0.6881701568 -0.788396806 0.0038990924
|  8> N 0.526356387 0.0227682244 0.0004706993
|  9> O 0.4320956385 1.2304728601 0.0014545236
| 10> O 1.5894534437 -0.5722077203 -0.0026413679
| 11> H -2.8151464347 -0.5888584194 2.5934e-05
| 12> H -1.9788046934 0.7013621111 0.8721496829
| 13> H -1.9766885541 0.6899191957 -0.8867228936
| 14> H -0.6294979624 -1.4397403952 -0.8720218892
| 15> H -0.6322900829 -1.4272441822 0.8892445818
| 16> *
| 17>
| 18>                          ****END OF INPUT****

CARTESIAN COORDINATES (ANGSTROEM)
---------------------------------
  C     -1.944465    0.058233   -0.003092
  C     -0.688170   -0.788397    0.003899
  N      0.526356    0.022768    0.000471
  O      0.432096    1.230473    0.001455
  O      1.589453   -0.572208   -0.002641
  H     -2.815146   -0.588858    0.000026
  H     -1.978805    0.701362    0.872150
  H     -1.976689    0.689919   -0.886723
  H     -0.629498   -1.439740   -0.872022
  H     -0.632290   -1.427244    0.889245

 Total Charge           Charge          ....    0
 Multiplicity           Mult            ....    1
 Number of Electrons    NEL             ....   40
 Basis Dimension        Dim             ....   80

ORBITAL ENERGIES
----------------

  NO   OCC          E(Eh)            E(eV)
   0   2.0000     -18.785093      -511.1684
   1   2.0000     -18.778303      -510.9836
   2   2.0000     -14.207591      -386.6082
   3   2.0000      -9.952639      -270.8251
   4   2.0000      -9.902412      -269.4583
   5   2.0000      -1.134375       -30.8679
   6   2.0000      -0.963419       -26.2160
   7   2.0000      -0.764704       -20.8087
   8   2.0000      -0.640125       -17.4187
   9   2.0000      -0.528324       -14.3764
  10   2.0000      -0.508322       -13.8321
  11   2.0000      -0.481955       -13.1147
  12   2.0000      -0.449279       -12.2255
  13   2.0000      -0.412051       -11.2125
  14   2.0000      -0.381710       -10.3869
  15   2.0000      -0.358574        -9.7573
  16   2.0000      -0.337587        -9.1862
  17   2.0000      -0.273380        -7.4390
  18   2.0000      -0.257524        -7.0076
  19   2.0000      -0.233919        -6.3653
  20   0.0000      -0.096825        -2.6347
  21   0.0000       0.028936         0.7874
  22   0.0000       0.073192         1.9917
  23   0.0000       0.077344         2.1046
  24   0.0000       0.093039         2.5317

MULLIKEN ATOMIC CHARGES
-----------------------
   0 C :   -0.280798
   1 C :   -0.115200
   2 N :    0.193952
   3 O :   -0.211625
   4 O :   -0.227929
   5 H :    0.114548
   6 H :    0.126201
   7 H :    0.126066
   8 H :    0.137241
   9 H :    0.137544
Sum of atomic charges:    0.0000000

LOEWDIN ATOMIC CHARGES
----------------------
   0 C :   -0.354660
   1 C :   -0.194807
   2 N :    0.237394
   3 O :   -0.177181
   4 O :   -0.195809
   5 H :    0.131389
   6 H :    0.132676
   7 H :    0.132617
   8 H :    0.144078
   9 H :    0.144302

  Mayer bond orders larger than 0.100000
B(  0-C ,  1-C ) :   1.1579 B(  0-C ,  5-H ) :   0.9332 B(  0-C ,  6-H ) :   0.9459
B(  0-C ,  7-H ) :   0.9462 B(  1-C ,  2-N ) :   0.8954 B(  1-C ,  8-H ) :   0.9160
B(  1-C ,  9-H ) :   0.9158 B(  2-N ,  3-O ) :   1.5712 B(  2-N ,  4-O ) :   1.5318
B(  3-O ,  4-O ) :   0.3166

Dispersion correction           -0.005794209
FINAL SINGLE POINT ENERGY      -283.756785443009

DIPOLE MOMENT
-------------

Method             : SCF
Type of density    : Electron Density
Multiplicity       :   1
Irrep              :   0
Energy             :  -283.7971345762655915 Eh
Relativity type    :
Basis              : AO
                                X                 Y                 Z
Electronic contribution:      6.342258211       1.295117916       0.000755925
Nuclear contribution   :     -7.502923072      -1.927026235       0.002494989
                        -----------------------------------------
Total Dipole Moment    :     -1.160664861      -0.631908319       0.003250914
                        -----------------------------------------
Magnitude (a.u.)       :      1.321537593
Magnitude (Debye)      :      3.359081612

Rotational constants in cm-1:             0.369954             0.142634             0.107027
Rotational constants in MHz :         11090.948230          4276.068556          3208.594420

                             ****ORCA TERMINATED NORMALLY****
TOTAL RUN TIME: 0 days 0 hours 0 minutes 5 seconds 421 msec
