                         Program Version 6.0.0  -   RELEASE  -
|  1> ! wb97x-v def2-tzvp def2/J RIJCOSX DEFGRID2 scfconv7 GCP(DFT/TZ) printgap
|  2> %output
|  3>     printlevel normal
|  4> end
|  5> * xyz 0 1
|  6> C 0.6018048102517485 1.7186565350241907 -0.03828183075065097
|  7> C 1.3926809380750669 0.43470676555339943 -0.2655852964957436
|  8> H 1.6047106082578757 0.3116917300797113 -1.3374005871823413
|  9> C 0.5787308501639944 -0.755298099237583 0.21587981806800927
| 10> H 0.44415511969937616 -0.6835796606479195 1.3054791498241338
| 11> C -0.7807296110762187 -0.7444775843476192 -0.4726395315547444
| 12> H -0.6222747752791188 -0.8576956431963297 -1.5552736705211776
| 13> C -1.4952620302278177 0.5904456745746198 -0.26718926779993224
| 14> H -2.3904453278335063 0.6428848295967593 -0.8972334984940906
| 15> O -0.6686551513852204 1.6593341363788947 -0.7179252013993158
| 16> O -1.838008390345473 0.71588691506799 1.0983031626761872
| 17> O -1.6342537785916478 -1.7833386955521067 0.010526292949847834
| 18> O 1.2052102127253868 -2.0023768004561906 -0.11789391011102461
| 19> O 2.6146386094060934 0.4581381065311099 0.48493694520756664
| 20> H 1.1296292274926634 2.577564073976359 -0.460192373616262
| 21> H 0.4583196425509958 1.8828746653004742 1.037651253480117
| 22> H -2.4716013883130823 1.4425487773766903 1.1735537357233838
| 23> H -1.2054564835455286 -2.6231835143956017 -0.20244777455513227
| 24> H 2.004035581695594 -2.0745695408695393 0.42051906193376276
| 25> H 3.2184279576770543 1.0699896222699987 0.04373773318239204
| 26> *
| 27>
| 28>                          ****END OF INPUT****

CARTESIAN COORDINATES (ANGSTROEM)
---------------------------------
  C      0.601805    1.718657   -0.038282
  C      1.392681    0.434707   -0.265585
  H      1.604711    0.311692   -1.337401
  C      0.578731   -0.755298    0.215880
  H      0.444155   -0.683580    1.305479
  C     -0.780730   -0.744478   -0.472640
  H     -0.622275   -0.857696   -1.555274
  C     -1.495262    0.590446   -0.267189
  H     -2.390445    0.642885   -0.897233
  O     -0.668655    1.659334   -0.717925
  O     -1.838008    0.715887    1.098303
  O     -1.634254   -1.783339    0.010526
  O      1.205210   -2.002377   -0.117894
  O      2.614639    0.458138    0.484937
  H      1.129629    2.577564   -0.460192
  H      0.458320    1.882875    1.037651
  H     -2.471601    1.442549    1.173554
  H     -1.205456   -2.623184   -0.202448
  H      2.004036   -2.074570    0.420519
  H      3.218428    1.069990    0.043738

 Total Charge           Charge          ....    0
 Multiplicity           Mult            ....    1
 Number of Electrons    NEL             ....   80
 Basis Dimension        Dim             ....  370

ORBITAL ENERGIES
----------------

  NO   OCC          E(Eh)            E(eV)
   0   2.0000     -21.690568      -590.2304
   1   2.0000     -21.688495      -590.1739
   2   2.0000     -21.684538      -590.0663
   3   2.0000     -21.679449      -589.9278
   4   2.0000     -21.670029      -589.6715
   5   2.0000     -12.152862      -330.6962
   6   2.0000     -12.107452      -329.4605
   7   2.0000     -12.104236      -329.3730
   8   2.0000     -12.101830      -329.3075
   9   2.0000     -12.100015      -329.2581
  10   2.0000      -1.716454       -46.7071
  11   2.0000      -1.692910       -46.0664
  12   2.0000      -1.681557       -45.7575
  13   2.0000      -1.673512       -45.5386
  14   2.0000      -1.670522       -45.4572
  15   2.0000      -1.332871       -36.2693
  16   2.0000      -1.304565       -35.4990
  17   2.0000      -1.195228       -32.5238
  18   2.0000      -1.191098       -32.4114
  19   2.0000      -1.122828       -30.5537
  20   2.0000      -1.083900       -29.4944
  21   2.0000      -1.056336       -28.7444
  22   2.0000      -1.040357       -28.3096
  23   2.0000      -1.033091       -28.1118
  24   2.0000      -1.012129       -27.5414
  25   2.0000      -0.997738       -27.1498
  26   2.0000      -0.988900       -26.9093
  27   2.0000      -0.970339       -26.4043
  28   2.0000      -0.964568       -26.2472
  29   2.0000      -0.947018       -25.7697
  30   2.0000      -0.934037       -25.4164
  31   2.0000      -0.920123       -25.0378
  32   2.0000      -0.917529       -24.9672
  33   2.0000      -0.894582       -24.3428
  34   2.0000      -0.880999       -23.9732
  35   2.0000      -0.847254       -23.0549
  36   2.0000      -0.829970       -22.5846
  37   2.0000      -0.814795       -22.1717
  38   2.0000      -0.799066       -21.7437
  39   2.0000      -0.777362       -21.1531
  40   0.0000      -0.236567        -6.4373
  41   0.0000      -0.172350        -4.6899
  42   0.0000      -0.159167        -4.3312
  43   0.0000      -0.152248        -4.1429
  44   0.0000      -0.116891        -3.1808

MULLIKEN ATOMIC CHARGES
-----------------------
   0 C :   -0.024523
   1 C :   -0.021759
   2 H :    0.079659
   3 C :    0.062991
   4 H :    0.107175
   5 C :    0.096998
   6 H :    0.081654
   7 C :    0.106249
   8 H :    0.099865
   9 O :   -0.292373
  10 O :   -0.408360
  11 O :   -0.436679
  12 O :   -0.465687
  13 O :   -0.443887
  14 H :    0.108488
  15 H :    0.103832
  16 H :    0.306922
  17 H :    0.313549
  18 H :    0.318415
  19 H :    0.307472
Sum of atomic charges:    0.0000000

LOEWDIN ATOMIC CHARGES
----------------------
   0 C :   -0.279888
   1 C :   -0.335359
   2 H :    0.137921
   3 C :   -0.309007
   4 H :    0.149048
   5 C :   -0.307834
   6 H :    0.145150
   7 C :   -0.404320
   8 H :    0.132222
   9 O :    0.158307
  10 O :    0.009142
  11 O :   -0.006650
  12 O :   -0.022977
  13 O :   -0.020260
  14 H :    0.124920
  15 H :    0.127501
  16 H :    0.176838
  17 H :    0.175606
  18 H :    0.176355
  19 H :    0.173286

  Mayer bond orders larger than 0.100000
B(  0-C ,  1-C ) :   0.9582 B(  0-C ,  9-O ) :   0.9844 B(  0-C , 14-H ) :   0.9587
B(  0-C , 15-H ) :   0.9670 B(  1-C ,  2-H ) :   0.9781 B(  1-C ,  3-C ) :   0.9503
B(  1-C , 13-O ) :   1.0956 B(  3-C ,  4-H ) :   0.9651 B(  3-C ,  5-C ) :   0.9648
B(  3-C , 12-O ) :   1.0678 B(  5-C ,  6-H ) :   0.9602 B(  5-C ,  7-C ) :   0.9589
B(  5-C , 11-O ) :   1.0772 B(  7-C ,  8-H ) :   0.9570 B(  7-C ,  9-O ) :   1.0472
B(  7-C , 10-O ) :   1.2502 B( 10-O , 16-H ) :   0.8943 B( 11-O , 17-H ) :   0.8873
B( 12-O , 18-H ) :   0.8909 B( 13-O , 19-H ) :   0.9006

FINAL SINGLE POINT ENERGY      -572.704143419190

DIPOLE MOMENT
-------------

Method             : SCF
Type of density    : Electron Density
Multiplicity       :   1
Irrep              :   0
Energy             :  -572.7196404956903280 Eh
Relativity type    :
Basis              : AO
                                X                 Y                 Z
Electronic contribution:     -1.367589447      -0.809225167       0.203385028
Nuclear contribution   :      1.991572586       1.481409006      -0.538824353
                        -----------------------------------------
Total Dipole Moment    :      0.623983139       0.672183839      -0.335439325
                        -----------------------------------------
Magnitude (a.u.)       :      0.976578523
Magnitude (Debye)      :      2.482265337

Rotational constants in cm-1:             0.056431             0.044233             0.028692
Rotational constants in MHz :          1691.746981          1326.066397           860.162252

                             ****ORCA TERMINATED NORMALLY****
TOTAL RUN TIME: 0 days 0 hours 4 minutes 6 seconds 575 msec
