                         Program Version 6.0.0  -   RELEASE  -
|  1> ! wb97x-v def2-tzvp def2/J RIJCOSX DEFGRID2 scfconv7 GCP(DFT/TZ) printgap
|  2> %output
|  3>     printlevel normal
|  4> end
|  5> %cpcm
|  6>     smd true
|  7>     smdsolvent "water"
|  8> end
|  9> * xyz 0 1
| 10> C 0.6018048102517485 1.7186565350241907 -0.03828183075065097
| 11> C 1.3926809380750669 0.43470676555339943 -0.2655852964957436
| 12> H 1.6047106082578757 0.3116917300797113 -1.3374005871823413
| 13> C 0.5787308501639944 -0.755298099237583 0.21587981806800927
| 14> H 0.44415511969937616 -0.6835796606479195 1.3054791498241338
| 15> C -0.7807296110762187 -0.7444775843476192 -0.4726395315547444
| 16> H -0.6222747752791188 -0.8576956431963297 -1.5552736705211776
| 17> C -1.4952620302278177 0.5904456745746198 -0.26718926779993224
| 18> H -2.3904453278335063 0.6428848295967593 -0.8972334984940906
| 19> O -0.6686551513852204 1.6593341363788947 -0.7179252013993158
| 20> O -1.838008390345473 0.71588691506799 1.0983031626761872
| 21> O -1.6342537785916478 -1.7833386955521067 0.010526292949847834
| 22> O 1.2052102127253868 -2.0023768004561906 -0.11789391011102461
| 23> O 2.6146386094060934 0.4581381065311099 0.48493694520756664
| 24> H 1.1296292274926634 2.577564073976359 -0.460192373616262
| 25> H 0.4583196425509958 1.8828746653004742 1.037651253480117
| 26> H -2.4716013883130823 1.4425487773766903 1.1735537357233838
| 27> H -1.2054564835455286 -2.6231835143956017 -0.20244777455513227
| 28> H 2.004035581695594 -2.0745695408695393 0.42051906193376276
| 29> H 3.2184279576770543 1.0699896222699987 0.04373773318239204
| 30> *
| 31>
| 32>                          ****END OF INPUT****

CARTESIAN COORDINATES (ANGSTROEM)
---------------------------------
  C      0.601805    1.718657   -0.038282
  C      1.392681    0.434707   -0.265585
  H      1.604711    0.311692   -1.337401
  C      0.578731   -0.755298    0.215880
  H      0.444155   -0.683580    1.305479
  C     -0.780730   -0.744478   -0.472640
  H     -0.622275   -0.857696   -1.555274
  C     -1.495262    0.590446   -0.267189
  H     -2.390445    0.642885   -0.897233
  O     -0.668655    1.659334   -0.717925
  O     -1.838008    0.715887    1.098303
  O     -1.634254   -1.783339    0.010526
  O      1.205210   -2.002377   -0.117894
  O      2.614639    0.458138    0.484937
  H      1.129629    2.577564   -0.460192
  H      0.458320    1.882875    1.037651
  H     -2.471601    1.442549    1.173554
  H     -1.205456   -2.623184   -0.202448
  H      2.004036   -2.074570    0.420519
  H      3.218428    1.069990    0.043738

 Total Charge           Charge          ....    0
 Multiplicity           Mult            ....    1
 Number of Electrons    NEL             ....   80
 Basis Dimension        Dim             ....  370

ORBITAL ENERGIES
----------------

  NO   OCC          E(Eh)            E(eV)
   0   2.0000     -21.691260      -590.2492
   1   2.0000     -21.686556      -590.1212
   2   2.0000     -21.681963      -589.9962
   3   2.0000     -21.681263      -589.9772
   4   2.0000     -21.680627      -589.9599
   5   2.0000     -12.151157      -330.6498
   6   2.0000     -12.103553      -329.3544
   7   2.0000     -12.100053      -329.2592
   8   2.0000     -12.098672      -329.2216
   9   2.0000     -12.091226      -329.0190
  10   2.0000      -1.718601       -46.7655
  11   2.0000      -1.688558       -45.9480
  12   2.0000      -1.684241       -45.8305
  13   2.0000      -1.677020       -45.6340
  14   2.0000      -1.675232       -45.5854
  15   2.0000      -1.330409       -36.2023
  16   2.0000      -1.301852       -35.4252
  17   2.0000      -1.193865       -32.4867
  18   2.0000      -1.189735       -32.3743
  19   2.0000      -1.124202       -30.5911
  20   2.0000      -1.083015       -29.4703
  21   2.0000      -1.056262       -28.7424
  22   2.0000      -1.037186       -28.2233
  23   2.0000      -1.035501       -28.1774
  24   2.0000      -1.014150       -27.5964
  25   2.0000      -1.003812       -27.3151
  26   2.0000      -0.990435       -26.9511
  27   2.0000      -0.974035       -26.5048
  28   2.0000      -0.964892       -26.2560
  29   2.0000      -0.950456       -25.8632
  30   2.0000      -0.933612       -25.4049
  31   2.0000      -0.922672       -25.1072
  32   2.0000      -0.922396       -25.0997
  33   2.0000      -0.895316       -24.3628
  34   2.0000      -0.883043       -24.0288
  35   2.0000      -0.843820       -22.9615
  36   2.0000      -0.829937       -22.5837
  37   2.0000      -0.810256       -22.0482
  38   2.0000      -0.797254       -21.6944
  39   2.0000      -0.771317       -20.9886
  40   0.0000      -0.233502        -6.3539
  41   0.0000      -0.170569        -4.6414
  42   0.0000      -0.158401        -4.3103
  43   0.0000      -0.149977        -4.0811
  44   0.0000      -0.112706        -3.0669

MULLIKEN ATOMIC CHARGES
-----------------------
   0 C :   -0.071529
   1 C :    0.009930
   2 H :    0.105023
   3 C :    0.083385
   4 H :    0.108451
   5 C :    0.114391
   6 H :    0.112206
   7 C :    0.137327
   8 H :    0.137655
   9 O :   -0.358716
  10 O :   -0.503467
  11 O :   -0.532018
  12 O :   -0.537988
  13 O :   -0.531457
  14 H :    0.150566
  15 H :    0.115065
  16 H :    0.368060
  17 H :    0.362012
  18 H :    0.363392
  19 H :    0.367711
Sum of atomic charges:    0.0000000

LOEWDIN ATOMIC CHARGES
----------------------
   0 C :   -0.274834
   1 C :   -0.326165
   2 H :    0.147268
   3 C :   -0.309591
   4 H :    0.149704
   5 C :   -0.306336
   6 H :    0.155417
   7 C :   -0.400520
   8 H :    0.142758
   9 O :    0.136120
  10 O :   -0.021499
  11 O :   -0.044322
  12 O :   -0.047365
  13 O :   -0.045983
  14 H :    0.136667
  15 H :    0.128785
  16 H :    0.199833
  17 H :    0.191992
  18 H :    0.191658
  19 H :    0.196414

  Mayer bond orders larger than 0.100000
B(  0-C ,  1-C ) :   0.9627 B(  0-C ,  9-O ) :   0.9449 B(  0-C , 14-H ) :   0.9579
B(  0-C , 15-H ) :   0.9689 B(  1-C ,  2-H ) :   0.9758 B(  1-C ,  3-C ) :   0.9624
B(  1-C , 13-O ) :   1.0748 B(  3-C ,  4-H ) :   0.9575 B(  3-C ,  5-C ) :   0.9713
B(  3-C , 12-O ) :   1.0464 B(  5-C ,  6-H ) :   0.9565 B(  5-C ,  7-C ) :   0.9524
B(  5-C , 11-O ) :   1.0273 B(  7-C ,  8-H ) :   0.9629 B(  7-C ,  9-O ) :   1.0280
B(  7-C , 10-O ) :   1.1773 B( 10-O , 16-H ) :   0.8561 B( 11-O , 17-H ) :   0.8583
B( 12-O , 18-H ) :   0.8609 B( 13-O , 19-H ) :   0.8629

FINAL SINGLE POINT ENERGY      -572.736400554253

DIPOLE MOMENT
-------------

Method             : SCF
Type of density    : Electron Density
Multiplicity       :   1
Irrep              :   0
Energy             :  -572.7518976307528646 Eh
Relativity type    :
Basis              : AO
                                X                 Y                 Z
Electronic contribution:     -1.104830390      -0.517098389      -0.043546028
Nuclear contribution   :      1.991572586       1.481409006      -0.538824353
                        -----------------------------------------
Total Dipole Moment    :      0.886742196       0.964310617      -0.582370382
                        -----------------------------------------
Magnitude (a.u.)       :      1.433653358
Magnitude (Debye)      :      3.644057237

Rotational constants in cm-1:             0.056431             0.044233             0.028692
Rotational constants in MHz :          1691.746981          1326.066397           860.162252

                             ****ORCA TERMINATED NORMALLY****
TOTAL RUN TIME: 0 days 0 hours 4 minutes 8 seconds 298 msec
