                         Program Version 6.0.0  -   RELEASE  -
|  1> ! pbe def2-sv(p) def2/J RI DEFGRID1 loosescf d4 GCP(DFT/SV(P)) printgap
|  2> %output
|  3>     printlevel normal
|  4> end
|  5> * xyz 0 1
|  6> C 4.1765771195 0.1978430065 -2.2593907721
|  7> C 4.5676388219 -0.0440918702 -0.8171012393
|  8> O 3.6454862255 0.5396102421 0.1224663459
|  9> P 2.0654853797 0.3636416974 0.1090753947
| 10> S 1.0998452297 1.5159258209 -1.1567959955
| 11> O 1.702740945 0.789038991 1.5849843766
| 12> C 2.3451947322 0.2716452384 2.778785044
| 13> C 1.5167814397 -0.8296202749 3.4124704225
| 14> S 1.9250890272 -1.7604410773 -0.0242461941
| 15> C 0.1420932443 -2.0794135632 0.0065849715
| 16> S -0.7392423186 -1.3392762946 -1.4146827918
| 17> P -1.9586256625 0.0328175575 -0.3781317132
| 18> S -2.7787612316 1.41461843 -1.4947831759
| 19> O -1.077048049 0.5077508893 0.8550160649
| 20> C -1.3024822725 1.804505411 1.4433315174
| 21> C -2.5977347933 1.8336317363 2.22437595
| 22> O -2.9629005867 -0.9287082299 0.4157364606
| 23> C -3.9820366946 -1.6855420564 -0.2620522559
| 24> C -5.2997195616 -0.9351495754 -0.2772267406
| 25> H 4.9446285719 -0.2016988962 -2.9137071521
| 26> H 3.2300647756 -0.2938684503 -2.4823977655
| 27> H 4.0587568628 1.2625554622 -2.4483432954
| 28> H 5.5165654561 0.438829856 -0.5767196417
| 29> H 4.631152476 -1.1155812661 -0.6085447167
| 30> H 3.3472897907 -0.0765098907 2.5236890844
| 31> H 2.4169208263 1.1398278695 3.4361597655
| 32> H 1.921394522 -1.0512006573 4.3951365249
| 33> H 0.4849682417 -0.5041230445 3.5197484508
| 34> H 1.5465369348 -1.7335841215 2.8095391415
| 35> H -0.297749707 -1.707406209 0.928430388
| 36> H 0.0493168171 -3.1597087392 -0.0774400731
| 37> H -0.4288287662 1.9625896229 2.076709024
| 38> H -1.3070477021 2.5530963651 0.6438555271
| 39> H -2.6111495582 1.0377916169 2.9642758804
| 40> H -2.6960242447 2.7946311486 2.7190707371
| 41> H -3.4362082725 1.6972029417 1.5423668611
| 42> H -3.6468075841 -1.9076020297 -1.280871973
| 43> H -4.0614422284 -2.6138232303 0.3070464741
| 44> H -5.6085871785 -0.7017623043 0.7377700275
| 45> H -5.1963996542 -0.0072608159 -0.8357218852
| 46> H -6.0567661328 -1.5510972085 -0.7515743579
| 47> *
| 48>
| 49>                          ****END OF INPUT****

CARTESIAN COORDINATES (ANGSTROEM)
---------------------------------
  C      4.176577    0.197843   -2.259391
  C      4.567639   -0.044092   -0.817101
  O      3.645486    0.539610    0.122466
  P      2.065485    0.363642    0.109075
  S      1.099845    1.515926   -1.156796
  O      1.702741    0.789039    1.584984
  C      2.345195    0.271645    2.778785
  C      1.516781   -0.829620    3.412470
  S      1.925089   -1.760441   -0.024246
  C      0.142093   -2.079414    0.006585
  S     -0.739242   -1.339276   -1.414683
  P     -1.958626    0.032818   -0.378132
  S     -2.778761    1.414618   -1.494783
  O     -1.077048    0.507751    0.855016
  C     -1.302482    1.804505    1.443332
  C     -2.597735    1.833632    2.224376
  O     -2.962901   -0.928708    0.415736
  C     -3.982037   -1.685542   -0.262052
  C     -5.299720   -0.935150   -0.277227
  H      4.944629   -0.201699   -2.913707
  H      3.230065   -0.293868   -2.482398
  H      4.058757    1.262555   -2.448343
  H      5.516565    0.438830   -0.576720
  H      4.631152   -1.115581   -0.608545
  H      3.347290   -0.076510    2.523689
  H      2.416921    1.139828    3.436160
  H      1.921395   -1.051201    4.395137
  H      0.484968   -0.504123    3.519748
  H      1.546537   -1.733584    2.809539
  H     -0.297750   -1.707406    0.928430
  H      0.049317   -3.159709   -0.077440
  H     -0.428829    1.962590    2.076709
  H     -1.307048    2.553096    0.643856
  H     -2.611150    1.037792    2.964276
  H     -2.696024    2.794631    2.719071
  H     -3.436208    1.697203    1.542367
  H     -3.646808   -1.907602   -1.280872
  H     -4.061442   -2.613823    0.307046
  H     -5.608587   -0.701762    0.737770
  H     -5.196400   -0.007261   -0.835722
  H     -6.056766   -1.551097   -0.751574

 Total Charge           Charge          ....    0
 Multiplicity           Mult            ....    1
 Number of Electrons    NEL             ....  202
 Basis Dimension        Dim             ....  334

ORBITAL ENERGIES
----------------

  NO   OCC          E(Eh)            E(eV)
   0   2.0000     -88.049613     -2395.9518
   1   2.0000     -88.038960     -2395.6619
   2   2.0000     -87.981280     -2394.0923
   3   2.0000     -87.975310     -2393.9299
   4   2.0000     -76.425951     -2079.6558
   5   2.0000     -76.420672     -2079.5122
   6   2.0000     -18.794271      -511.4181
   7   2.0000     -18.792031      -511.3572
   8   2.0000     -18.784563      -511.1539
   9   2.0000     -18.783289      -511.1193
  10   2.0000      -9.963683      -271.1256
  11   2.0000      -9.959491      -271.0115
  12   2.0000      -9.959437      -271.0101
  13   2.0000      -9.948822      -270.7212
  14   2.0000      -9.938754      -270.4472
  15   2.0000      -9.892230      -269.1813
  16   2.0000      -9.881324      -268.8845
  17   2.0000      -9.876473      -268.7525
  18   2.0000      -9.875939      -268.7379
  19   2.0000      -7.694299      -209.3725
  20   2.0000      -7.684123      -209.0956
  21   2.0000      -7.626384      -207.5245
  22   2.0000      -7.620150      -207.3548
  23   2.0000      -6.422790      -174.7730
  24   2.0000      -6.418088      -174.6450
  25   2.0000      -5.721971      -155.7027
  26   2.0000      -5.718720      -155.6143
  27   2.0000      -5.712507      -155.4452
  28   2.0000      -5.711627      -155.4213
  29   2.0000      -5.708520      -155.3367
  30   2.0000      -5.700660      -155.1228
  31   2.0000      -5.655422      -153.8919
  32   2.0000      -5.649573      -153.7327
  33   2.0000      -5.647152      -153.6668
  34   2.0000      -5.646281      -153.6431
  35   2.0000      -5.640409      -153.4833
  36   2.0000      -5.640204      -153.4778
  37   2.0000      -4.645799      -126.4186
  38   2.0000      -4.644933      -126.3950
  39   2.0000      -4.642583      -126.3311
  40   2.0000      -4.640473      -126.2737
  41   2.0000      -4.640098      -126.2635
  42   2.0000      -4.638517      -126.2205
  43   2.0000      -0.989073       -26.9140
  44   2.0000      -0.980168       -26.6717
  45   2.0000      -0.945110       -25.7178
  46   2.0000      -0.936915       -25.4948
  47   2.0000      -0.763278       -20.7699
  48   2.0000      -0.720055       -19.5937
  49   2.0000      -0.707953       -19.2644
  50   2.0000      -0.691705       -18.8223
  51   2.0000      -0.678892       -18.4736
  52   2.0000      -0.673252       -18.3201
  53   2.0000      -0.651946       -17.7403
  54   2.0000      -0.636378       -17.3167
  55   2.0000      -0.589711       -16.0468
  56   2.0000      -0.584685       -15.9101
  57   2.0000      -0.580552       -15.7976
  58   2.0000      -0.572487       -15.5782
  59   2.0000      -0.558667       -15.2021
  60   2.0000      -0.505800       -13.7635
  61   2.0000      -0.494245       -13.4491
  62   2.0000      -0.472820       -12.8661
  63   2.0000      -0.467373       -12.7179
  64   2.0000      -0.458283       -12.4705
  65   2.0000      -0.445806       -12.1310
  66   2.0000      -0.445273       -12.1165
  67   2.0000      -0.434331       -11.8188
  68   2.0000      -0.427385       -11.6298
  69   2.0000      -0.415007       -11.2929
  70   2.0000      -0.411826       -11.2064
  71   2.0000      -0.402058       -10.9405
  72   2.0000      -0.394752       -10.7418
  73   2.0000      -0.390390       -10.6230
  74   2.0000      -0.379444       -10.3252
  75   2.0000      -0.365962        -9.9583
  76   2.0000      -0.361080        -9.8255
  77   2.0000      -0.357042        -9.7156
  78   2.0000      -0.353296        -9.6137
  79   2.0000      -0.346914        -9.4400
  80   2.0000      -0.344444        -9.3728
  81   2.0000      -0.340895        -9.2762
  82   2.0000      -0.339579        -9.2404
  83   2.0000      -0.334339        -9.0978
  84   2.0000      -0.324908        -8.8412
  85   2.0000      -0.321432        -8.7466
  86   2.0000      -0.314817        -8.5666
  87   2.0000      -0.296871        -8.0783
  88   2.0000      -0.295407        -8.0384
  89   2.0000      -0.290190        -7.8965
  90   2.0000      -0.283227        -7.7070
  91   2.0000      -0.277648        -7.5552
  92   2.0000      -0.268354        -7.3023
  93   2.0000      -0.261463        -7.1148
  94   2.0000      -0.255118        -6.9421
  95   2.0000      -0.242506        -6.5989
  96   2.0000      -0.219275        -5.9668
  97   2.0000      -0.202942        -5.5223
  98   2.0000      -0.195809        -5.3282
  99   2.0000      -0.186674        -5.0797
 100   2.0000      -0.181615        -4.9420
 101   0.0000      -0.046586        -1.2677
 102   0.0000      -0.024238        -0.6595
 103   0.0000      -0.018062        -0.4915
 104   0.0000      -0.006618        -0.1801
 105   0.0000       0.023344         0.6352

MULLIKEN ATOMIC CHARGES
-----------------------
   0 C :   -0.310669
   1 C :   -0.012674
   2 O :   -0.381961
   3 P :    0.605967
   4 S :   -0.281136
   5 O :   -0.359035
   6 C :   -0.006464
   7 C :   -0.307984
   8 S :   -0.142885
   9 C :   -0.342128
  10 S :   -0.051982
  11 P :    0.602148
  12 S :   -0.306024
  13 O :   -0.380550
  14 C :   -0.014869
  15 C :   -0.298288
  16 O :   -0.377556
  17 C :   -0.010794
  18 C :   -0.290667
  19 H :    0.110322
  20 H :    0.130411
  21 H :    0.130557
  22 H :    0.109668
  23 H :    0.112522
  24 H :    0.105050
  25 H :    0.110432
  26 H :    0.111427
  27 H :    0.127091
  28 H :    0.123125
  29 H :    0.202817
  30 H :    0.183432
  31 H :    0.110324
  32 H :    0.121614
  33 H :    0.106447
  34 H :    0.108733
  35 H :    0.122732
  36 H :    0.096749
  37 H :    0.098857
  38 H :    0.110744
  39 H :    0.129690
  40 H :    0.104806
Sum of atomic charges:    0.0000000

LOEWDIN ATOMIC CHARGES
----------------------
   0 C :   -0.370738
   1 C :   -0.115403
   2 O :   -0.247700
   3 P :    0.562075
   4 S :   -0.284751
   5 O :   -0.230468
   6 C :   -0.112829
   7 C :   -0.364749
   8 S :    0.060344
   9 C :   -0.470791
  10 S :    0.095705
  11 P :    0.573781
  12 S :   -0.303564
  13 O :   -0.240755
  14 C :   -0.124442
  15 C :   -0.365805
  16 O :   -0.257473
  17 C :   -0.121125
  18 C :   -0.364449
  19 H :    0.129646
  20 H :    0.123044
  21 H :    0.131565
  22 H :    0.121615
  23 H :    0.106716
  24 H :    0.110604
  25 H :    0.121404
  26 H :    0.130767
  27 H :    0.128718
  28 H :    0.118225
  29 H :    0.131318
  30 H :    0.138389
  31 H :    0.114291
  32 H :    0.112338
  33 H :    0.120861
  34 H :    0.129207
  35 H :    0.121311
  36 H :    0.103487
  37 H :    0.114423
  38 H :    0.123706
  39 H :    0.124300
  40 H :    0.127201

  Mayer bond orders larger than 0.100000
B(  0-C ,  1-C ) :   1.1685 B(  0-C , 19-H ) :   0.9338 B(  0-C , 20-H ) :   0.9317
B(  0-C , 21-H ) :   0.9409 B(  1-C ,  2-O ) :   0.9120 B(  1-C , 22-H ) :   0.9329
B(  1-C , 23-H ) :   0.9265 B(  2-O ,  3-P ) :   1.0809 B(  3-P ,  4-S ) :   1.6685
B(  3-P ,  5-O ) :   1.1096 B(  3-P ,  8-S ) :   0.9316 B(  4-S ,  8-S ) :   0.1224
B(  5-O ,  6-C ) :   0.8944 B(  6-C ,  7-C ) :   1.1667 B(  6-C , 24-H ) :   0.9178
B(  6-C , 25-H ) :   0.9357 B(  7-C , 26-H ) :   0.9382 B(  7-C , 27-H ) :   0.9429
B(  7-C , 28-H ) :   0.9309 B(  8-S ,  9-C ) :   0.9859 B(  9-C , 10-S ) :   0.9873
B(  9-C , 29-H ) :   0.8815 B(  9-C , 30-H ) :   0.9115 B( 10-S , 11-P ) :   0.9802
B( 11-P , 12-S ) :   1.6445 B( 11-P , 13-O ) :   1.0956 B( 11-P , 16-O ) :   1.0616
B( 13-O , 14-C ) :   0.8858 B( 14-C , 15-C ) :   1.1597 B( 14-C , 31-H ) :   0.9229
B( 14-C , 32-H ) :   0.9133 B( 15-C , 33-H ) :   0.9467 B( 15-C , 34-H ) :   0.9398
B( 15-C , 35-H ) :   0.9316 B( 16-O , 17-C ) :   0.9167 B( 17-C , 18-C ) :   1.1665
B( 17-C , 36-H ) :   0.9117 B( 17-C , 37-H ) :   0.9368 B( 18-C , 38-H ) :   0.9465
B( 18-C , 39-H ) :   0.9303 B( 18-C , 40-H ) :   0.9400

Dispersion correction           -0.068537077
FINAL SINGLE POINT ENERGY     -2929.507221257765

DIPOLE MOMENT
-------------

Method             : SCF
Type of density    : Electron Density
Multiplicity       :   1
Irrep              :   0
Energy             : -2929.6264677332828796 Eh
Relativity type    :
Basis              : AO
                                X                 Y                 Z
Electronic contribution:      3.938745847       2.393145829     -14.360065291
Nuclear contribution   :     -3.063432420      -3.843442994      16.003287990
                        -----------------------------------------
Total Dipole Moment    :      0.875313427      -1.450297165       1.643222699
                        -----------------------------------------
Magnitude (a.u.)       :      2.360024640
Magnitude (Debye)      :      5.998705910

Rotational constants in cm-1:             0.012907             0.005388             0.005114
Rotational constants in MHz :           386.927443           161.540430           153.307721

                             ****ORCA TERMINATED NORMALLY****
TOTAL RUN TIME: 0 days 0 hours 0 minutes 21 seconds 841 msec
