                         Program Version 6.0.1  -  RELEASE   -
|  1> ! r2scan-3c def2/J RI DEFGRID2 scfconv6 printgap
|  2> %output
|  3>     printlevel normal
|  4> end
|  5> * xyz 0 1
|  6> C 5.0481621982 -2.6130336276 -0.778089944
|  7> C 3.6455020497 -3.0645852941 -1.1521561897
|  8> O 2.9087122106 -1.9882576013 -1.7662563641
|  9> C 2.2234633798 -1.171203448 -1.0016143639
| 10> O 2.126061983 -1.2647737098 0.206585868
| 11> C 1.5542395071 -0.0724118788 -1.8001360019
| 12> C 0.3711759349 0.4710984581 -1.0135777722
| 13> H -0.0187543484 1.3876601641 -1.4664259951
| 14> C 0.7435698315 0.7825564943 0.4258729167
| 15> O 0.0458391682 0.4417542095 1.3631562176
| 16> O 1.8066411968 1.5334715294 0.5016200842
| 17> C 2.2470866145 2.0013593762 1.7942430084
| 18> C 2.5769346265 3.4787736203 1.6858915495
| 19> S -0.9862599878 -0.749014099 -0.9715902667
| 20> P -2.3127453543 0.2828613832 0.3244475425
| 21> S -2.2158622498 2.2373771323 0.34046226
| 22> O -3.7141488698 -0.2361704457 -0.2821124904
| 23> C -4.1717317703 0.1827434894 -1.5702666379
| 24> O -2.4365474055 -0.3966551342 1.7468146141
| 25> C -2.3210767425 -1.8171263547 1.9405325301
| 26> H 5.0021448714 -1.8374666122 -0.0169085421
| 27> H 5.6039583175 -3.4579043229 -0.3850912143
| 28> H 5.5605253588 -2.2221393294 -1.6526045252
| 29> H 3.0966193894 -3.4051815759 -0.2697046381
| 30> H 3.6685833688 -3.8462650082 -1.9114098232
| 31> H 1.2409837982 -0.4589100632 -2.768899906
| 32> H 2.2831943786 0.7265100506 -1.952954431
| 33> H 1.4527612564 1.8133310785 2.5217787286
| 34> H 3.1271716149 1.4087486338 2.0565336829
| 35> H 2.9491615275 3.8310714672 2.6420613374
| 36> H 3.3340572089 3.6364563151 0.923968548
| 37> H 1.6856797215 4.0421510789 1.4214628606
| 38> H -4.087943569 1.2672249668 -1.6607221219
| 39> H -5.21308812 -0.1236554425 -1.6251628185
| 40> H -3.5837903516 -0.3035970049 -2.3486628639
| 41> H -2.6468194746 -1.990799317 2.9628009059
| 42> H -1.2789157372 -2.1137425439 1.816583591
| 43> H -2.9563906555 -2.3491838614 1.2336586094
| 44> *
| 45>
| 46>                          ****END OF INPUT****

CARTESIAN COORDINATES (ANGSTROEM)
---------------------------------
  C      5.048162   -2.613034   -0.778090
  C      3.645502   -3.064585   -1.152156
  O      2.908712   -1.988258   -1.766256
  C      2.223463   -1.171203   -1.001614
  O      2.126062   -1.264774    0.206586
  C      1.554240   -0.072412   -1.800136
  C      0.371176    0.471098   -1.013578
  H     -0.018754    1.387660   -1.466426
  C      0.743570    0.782556    0.425873
  O      0.045839    0.441754    1.363156
  O      1.806641    1.533472    0.501620
  C      2.247087    2.001359    1.794243
  C      2.576935    3.478774    1.685892
  S     -0.986260   -0.749014   -0.971590
  P     -2.312745    0.282861    0.324448
  S     -2.215862    2.237377    0.340462
  O     -3.714149   -0.236170   -0.282112
  C     -4.171732    0.182743   -1.570267
  O     -2.436547   -0.396655    1.746815
  C     -2.321077   -1.817126    1.940533
  H      5.002145   -1.837467   -0.016909
  H      5.603958   -3.457904   -0.385091
  H      5.560525   -2.222139   -1.652605
  H      3.096619   -3.405182   -0.269705
  H      3.668583   -3.846265   -1.911410
  H      1.240984   -0.458910   -2.768900
  H      2.283194    0.726510   -1.952954
  H      1.452761    1.813331    2.521779
  H      3.127172    1.408749    2.056534
  H      2.949162    3.831071    2.642061
  H      3.334057    3.636456    0.923969
  H      1.685680    4.042151    1.421463
  H     -4.087944    1.267225   -1.660722
  H     -5.213088   -0.123655   -1.625163
  H     -3.583790   -0.303597   -2.348663
  H     -2.646819   -1.990799    2.962801
  H     -1.278916   -2.113743    1.816584
  H     -2.956391   -2.349184    1.233659

 Total Charge           Charge          ....    0
 Multiplicity           Mult            ....    1
 Number of Electrons    NEL             ....  174
 Basis Dimension        Dim             ....  510

ORBITAL ENERGIES
----------------

  NO   OCC          E(Eh)            E(eV)
   0   2.0000     -88.566922     -2410.0285
   1   2.0000     -88.500380     -2408.2178
   2   2.0000     -76.901063     -2092.5843
   3   2.0000     -19.015514      -517.4384
   4   2.0000     -19.003017      -517.0984
   5   2.0000     -18.974049      -516.3101
   6   2.0000     -18.970656      -516.2178
   7   2.0000     -18.946725      -515.5666
   8   2.0000     -18.927027      -515.0306
   9   2.0000     -10.172110      -276.7972
  10   2.0000     -10.160226      -276.4738
  11   2.0000     -10.104903      -274.9684
  12   2.0000     -10.093728      -274.6643
  13   2.0000     -10.090973      -274.5893
  14   2.0000     -10.082044      -274.3464
  15   2.0000     -10.075626      -274.1717
  16   2.0000     -10.070744      -274.0389
  17   2.0000     -10.040711      -273.2216
  18   2.0000     -10.029833      -272.9256
  19   2.0000      -7.861307      -213.9171
  20   2.0000      -7.795438      -212.1247
  21   2.0000      -6.578496      -179.0100
  22   2.0000      -5.808195      -158.0490
  23   2.0000      -5.805239      -157.9686
  24   2.0000      -5.798339      -157.7808
  25   2.0000      -5.743352      -156.2846
  26   2.0000      -5.735939      -156.0828
  27   2.0000      -5.734899      -156.0545
  28   2.0000      -4.724094      -128.5491
  29   2.0000      -4.723847      -128.5424
  30   2.0000      -4.721948      -128.4907
  31   2.0000      -1.092920       -29.7399
  32   2.0000      -1.080282       -29.3960
  33   2.0000      -1.031478       -28.0680
  34   2.0000      -0.996119       -27.1058
  35   2.0000      -0.988924       -26.9100
  36   2.0000      -0.980363       -26.6770
  37   2.0000      -0.811685       -22.0871
  38   2.0000      -0.762261       -20.7422
  39   2.0000      -0.746797       -20.3214
  40   2.0000      -0.724638       -19.7184
  41   2.0000      -0.695240       -18.9184
  42   2.0000      -0.659558       -17.9475
  43   2.0000      -0.655561       -17.8387
  44   2.0000      -0.640316       -17.4239
  45   2.0000      -0.633748       -17.2452
  46   2.0000      -0.593155       -16.1406
  47   2.0000      -0.540215       -14.7000
  48   2.0000      -0.535591       -14.5742
  49   2.0000      -0.521682       -14.1957
  50   2.0000      -0.508786       -13.8448
  51   2.0000      -0.484472       -13.1832
  52   2.0000      -0.476450       -12.9649
  53   2.0000      -0.468351       -12.7445
  54   2.0000      -0.465159       -12.6576
  55   2.0000      -0.451499       -12.2859
  56   2.0000      -0.446647       -12.1539
  57   2.0000      -0.434923       -11.8349
  58   2.0000      -0.427370       -11.6293
  59   2.0000      -0.424003       -11.5377
  60   2.0000      -0.417312       -11.3556
  61   2.0000      -0.414862       -11.2890
  62   2.0000      -0.406088       -11.0502
  63   2.0000      -0.403258       -10.9732
  64   2.0000      -0.393589       -10.7101
  65   2.0000      -0.382875       -10.4186
  66   2.0000      -0.380645       -10.3579
  67   2.0000      -0.368283       -10.0215
  68   2.0000      -0.361382        -9.8337
  69   2.0000      -0.360750        -9.8165
  70   2.0000      -0.351498        -9.5648
  71   2.0000      -0.342652        -9.3240
  72   2.0000      -0.337638        -9.1876
  73   2.0000      -0.322806        -8.7840
  74   2.0000      -0.321134        -8.7385
  75   2.0000      -0.313417        -8.5285
  76   2.0000      -0.301274        -8.1981
  77   2.0000      -0.298622        -8.1259
  78   2.0000      -0.289908        -7.8888
  79   2.0000      -0.276337        -7.5195
  80   2.0000      -0.270238        -7.3535
  81   2.0000      -0.260573        -7.0905
  82   2.0000      -0.255116        -6.9421
  83   2.0000      -0.241767        -6.5788
  84   2.0000      -0.228077        -6.2063
  85   2.0000      -0.203090        -5.5264
  86   2.0000      -0.194081        -5.2812
  87   0.0000      -0.040106        -1.0913
  88   0.0000      -0.026591        -0.7236
  89   0.0000      -0.012539        -0.3412
  90   0.0000       0.012347         0.3360
  91   0.0000       0.034674         0.9435

MULLIKEN ATOMIC CHARGES
-----------------------
   0 C :   -0.463425
   1 C :   -0.144510
   2 O :   -0.158820
   3 C :    0.386834
   4 O :   -0.392334
   5 C :   -0.415915
   6 C :   -0.040076
   7 H :    0.237175
   8 C :    0.342777
   9 O :   -0.408415
  10 O :   -0.125874
  11 C :   -0.179377
  12 C :   -0.450936
  13 S :   -0.210409
  14 P :    0.804476
  15 S :   -0.470082
  16 O :   -0.367684
  17 C :   -0.302909
  18 O :   -0.296107
  19 C :   -0.300606
  20 H :    0.167834
  21 H :    0.151164
  22 H :    0.154602
  23 H :    0.173009
  24 H :    0.152552
  25 H :    0.188532
  26 H :    0.197430
  27 H :    0.195449
  28 H :    0.151869
  29 H :    0.147925
  30 H :    0.148846
  31 H :    0.164601
  32 H :    0.174855
  33 H :    0.147795
  34 H :    0.151701
  35 H :    0.152205
  36 H :    0.178812
  37 H :    0.157038
Sum of atomic charges:   -0.0000000

LOEWDIN ATOMIC CHARGES
----------------------
   0 C :   -0.387193
   1 C :    0.032521
   2 O :   -0.573800
   3 C :    0.367833
   4 O :   -0.423071
   5 C :   -0.206615
   6 C :   -0.199265
   7 H :    0.205097
   8 C :    0.352062
   9 O :   -0.459335
  10 O :   -0.570398
  11 C :    0.040009
  12 C :   -0.385312
  13 S :    0.208123
  14 P :    0.410086
  15 S :   -0.096034
  16 O :   -0.695120
  17 C :   -0.069607
  18 O :   -0.638593
  19 C :   -0.052561
  20 H :    0.163635
  21 H :    0.161331
  22 H :    0.158534
  23 H :    0.190521
  24 H :    0.180275
  25 H :    0.189966
  26 H :    0.200634
  27 H :    0.198921
  28 H :    0.177158
  29 H :    0.159939
  30 H :    0.156515
  31 H :    0.163364
  32 H :    0.175655
  33 H :    0.174417
  34 H :    0.165187
  35 H :    0.179527
  36 H :    0.177355
  37 H :    0.168239

  Mayer bond orders larger than 0.100000
B(  0-C ,  1-C ) :   0.9417 B(  0-C , 20-H ) :   0.9709 B(  0-C , 21-H ) :   0.9637
B(  0-C , 22-H ) :   0.9731 B(  1-C ,  2-O ) :   0.7959 B(  1-C , 23-H ) :   0.9659
B(  1-C , 24-H ) :   0.9616 B(  2-O ,  3-C ) :   1.1365 B(  3-C ,  4-O ) :   1.7667
B(  3-C ,  5-C ) :   0.9701 B(  4-O ,  8-C ) :   0.1378 B(  5-C ,  6-C ) :   0.8826
B(  5-C , 10-O ) :   0.1224 B(  5-C , 25-H ) :   0.9713 B(  5-C , 26-H ) :   0.9272
B(  6-C ,  7-H ) :   0.9082 B(  6-C ,  8-C ) :   0.8973 B(  6-C , 13-S ) :   0.9417
B(  8-C ,  9-O ) :   1.7462 B(  8-C , 10-O ) :   1.1794 B(  9-O , 14-P ) :   0.1141
B( 10-O , 11-C ) :   0.7577 B( 11-C , 12-C ) :   0.9478 B( 11-C , 27-H ) :   0.9709
B( 11-C , 28-H ) :   0.9499 B( 12-C , 29-H ) :   0.9668 B( 12-C , 30-H ) :   0.9724
B( 12-C , 31-H ) :   0.9711 B( 13-S , 14-P ) :   0.9694 B( 14-P , 15-S ) :   1.7752
B( 14-P , 16-O ) :   1.0024 B( 14-P , 18-O ) :   1.2049 B( 16-O , 17-C ) :   0.8410
B( 17-C , 32-H ) :   0.9589 B( 17-C , 33-H ) :   0.9698 B( 17-C , 34-H ) :   0.9576
B( 18-O , 19-C ) :   0.7961 B( 19-C , 35-H ) :   0.9656 B( 19-C , 36-H ) :   0.9563
B( 19-C , 37-H ) :   0.9652

Dispersion correction           -0.016926103
FINAL SINGLE POINT ENERGY     -1981.444577726844

DIPOLE MOMENT
-------------

Method             : SCF
Type of density    : Electron Density
Multiplicity       :   1
Irrep              :   0
Energy             : -1981.4656230037594469 Eh
Relativity type    :
Basis              : AO
                                X                 Y                 Z
Electronic contribution:    -18.334023212       2.905555272      -0.254991460
Nuclear contribution   :     20.200903507      -4.072764397      -0.695454091
                        -----------------------------------------
Total Dipole Moment    :      1.866880295      -1.167209124      -0.950445552
                        -----------------------------------------
Magnitude (a.u.)       :      2.398117162
Magnitude (Debye)      :      6.095529406

Rotational constants in cm-1:             0.013591             0.006541             0.005324
Rotational constants in MHz :           407.439182           196.080458           159.609527

                             ****ORCA TERMINATED NORMALLY****
TOTAL RUN TIME: 0 days 0 hours 1 minutes 20 seconds 47 msec
