                         Program Version 6.0.1  -  RELEASE   -
|  1> ! r2scan-3c def2/J RI DEFGRID2 scfconv6 printgap
|  2> %output
|  3>     printlevel normal
|  4> end
|  5> %cpcm
|  6>     smd true
|  7>     smdsolvent "water"
|  8> end
|  9> * xyz 0 1
| 10> C 5.0481621982 -2.6130336276 -0.778089944
| 11> C 3.6455020497 -3.0645852941 -1.1521561897
| 12> O 2.9087122106 -1.9882576013 -1.7662563641
| 13> C 2.2234633798 -1.171203448 -1.0016143639
| 14> O 2.126061983 -1.2647737098 0.206585868
| 15> C 1.5542395071 -0.0724118788 -1.8001360019
| 16> C 0.3711759349 0.4710984581 -1.0135777722
| 17> H -0.0187543484 1.3876601641 -1.4664259951
| 18> C 0.7435698315 0.7825564943 0.4258729167
| 19> O 0.0458391682 0.4417542095 1.3631562176
| 20> O 1.8066411968 1.5334715294 0.5016200842
| 21> C 2.2470866145 2.0013593762 1.7942430084
| 22> C 2.5769346265 3.4787736203 1.6858915495
| 23> S -0.9862599878 -0.749014099 -0.9715902667
| 24> P -2.3127453543 0.2828613832 0.3244475425
| 25> S -2.2158622498 2.2373771323 0.34046226
| 26> O -3.7141488698 -0.2361704457 -0.2821124904
| 27> C -4.1717317703 0.1827434894 -1.5702666379
| 28> O -2.4365474055 -0.3966551342 1.7468146141
| 29> C -2.3210767425 -1.8171263547 1.9405325301
| 30> H 5.0021448714 -1.8374666122 -0.0169085421
| 31> H 5.6039583175 -3.4579043229 -0.3850912143
| 32> H 5.5605253588 -2.2221393294 -1.6526045252
| 33> H 3.0966193894 -3.4051815759 -0.2697046381
| 34> H 3.6685833688 -3.8462650082 -1.9114098232
| 35> H 1.2409837982 -0.4589100632 -2.768899906
| 36> H 2.2831943786 0.7265100506 -1.952954431
| 37> H 1.4527612564 1.8133310785 2.5217787286
| 38> H 3.1271716149 1.4087486338 2.0565336829
| 39> H 2.9491615275 3.8310714672 2.6420613374
| 40> H 3.3340572089 3.6364563151 0.923968548
| 41> H 1.6856797215 4.0421510789 1.4214628606
| 42> H -4.087943569 1.2672249668 -1.6607221219
| 43> H -5.21308812 -0.1236554425 -1.6251628185
| 44> H -3.5837903516 -0.3035970049 -2.3486628639
| 45> H -2.6468194746 -1.990799317 2.9628009059
| 46> H -1.2789157372 -2.1137425439 1.816583591
| 47> H -2.9563906555 -2.3491838614 1.2336586094
| 48> *
| 49>
| 50>                          ****END OF INPUT****

CARTESIAN COORDINATES (ANGSTROEM)
---------------------------------
  C      5.048162   -2.613034   -0.778090
  C      3.645502   -3.064585   -1.152156
  O      2.908712   -1.988258   -1.766256
  C      2.223463   -1.171203   -1.001614
  O      2.126062   -1.264774    0.206586
  C      1.554240   -0.072412   -1.800136
  C      0.371176    0.471098   -1.013578
  H     -0.018754    1.387660   -1.466426
  C      0.743570    0.782556    0.425873
  O      0.045839    0.441754    1.363156
  O      1.806641    1.533472    0.501620
  C      2.247087    2.001359    1.794243
  C      2.576935    3.478774    1.685892
  S     -0.986260   -0.749014   -0.971590
  P     -2.312745    0.282861    0.324448
  S     -2.215862    2.237377    0.340462
  O     -3.714149   -0.236170   -0.282112
  C     -4.171732    0.182743   -1.570267
  O     -2.436547   -0.396655    1.746815
  C     -2.321077   -1.817126    1.940533
  H      5.002145   -1.837467   -0.016909
  H      5.603958   -3.457904   -0.385091
  H      5.560525   -2.222139   -1.652605
  H      3.096619   -3.405182   -0.269705
  H      3.668583   -3.846265   -1.911410
  H      1.240984   -0.458910   -2.768900
  H      2.283194    0.726510   -1.952954
  H      1.452761    1.813331    2.521779
  H      3.127172    1.408749    2.056534
  H      2.949162    3.831071    2.642061
  H      3.334057    3.636456    0.923969
  H      1.685680    4.042151    1.421463
  H     -4.087944    1.267225   -1.660722
  H     -5.213088   -0.123655   -1.625163
  H     -3.583790   -0.303597   -2.348663
  H     -2.646819   -1.990799    2.962801
  H     -1.278916   -2.113743    1.816584
  H     -2.956391   -2.349184    1.233659

 Total Charge           Charge          ....    0
 Multiplicity           Mult            ....    1
 Number of Electrons    NEL             ....  174
 Basis Dimension        Dim             ....  510

ORBITAL ENERGIES
----------------

  NO   OCC          E(Eh)            E(eV)
   0   2.0000     -88.577022     -2410.3033
   1   2.0000     -88.522085     -2408.8084
   2   2.0000     -76.918561     -2093.0604
   3   2.0000     -19.011408      -517.3267
   4   2.0000     -19.011033      -517.3165
   5   2.0000     -18.992475      -516.8115
   6   2.0000     -18.985331      -516.6171
   7   2.0000     -18.952618      -515.7270
   8   2.0000     -18.945811      -515.5417
   9   2.0000     -10.174615      -276.8654
  10   2.0000     -10.174049      -276.8499
  11   2.0000     -10.096408      -274.7372
  12   2.0000     -10.087324      -274.4901
  13   2.0000     -10.086882      -274.4780
  14   2.0000     -10.083882      -274.3964
  15   2.0000     -10.077011      -274.2094
  16   2.0000     -10.061437      -273.7856
  17   2.0000     -10.019966      -272.6571
  18   2.0000     -10.019877      -272.6547
  19   2.0000      -7.871327      -214.1897
  20   2.0000      -7.817488      -212.7247
  21   2.0000      -6.596174      -179.4910
  22   2.0000      -5.818220      -158.3218
  23   2.0000      -5.815273      -158.2416
  24   2.0000      -5.808353      -158.0533
  25   2.0000      -5.765267      -156.8809
  26   2.0000      -5.758000      -156.6831
  27   2.0000      -5.757002      -156.6560
  28   2.0000      -4.741782      -129.0304
  29   2.0000      -4.741405      -129.0202
  30   2.0000      -4.739739      -128.9748
  31   2.0000      -1.093296       -29.7501
  32   2.0000      -1.087864       -29.6023
  33   2.0000      -1.048295       -28.5256
  34   2.0000      -1.004457       -27.3327
  35   2.0000      -1.000115       -27.2145
  36   2.0000      -0.997075       -27.1318
  37   2.0000      -0.812928       -22.1209
  38   2.0000      -0.751545       -20.4506
  39   2.0000      -0.746344       -20.3091
  40   2.0000      -0.728551       -19.8249
  41   2.0000      -0.696594       -18.9553
  42   2.0000      -0.663913       -18.0660
  43   2.0000      -0.659136       -17.9360
  44   2.0000      -0.652019       -17.7423
  45   2.0000      -0.624225       -16.9860
  46   2.0000      -0.591377       -16.0922
  47   2.0000      -0.539408       -14.6780
  48   2.0000      -0.531937       -14.4747
  49   2.0000      -0.526614       -14.3299
  50   2.0000      -0.509504       -13.8643
  51   2.0000      -0.487756       -13.2725
  52   2.0000      -0.486493       -13.2381
  53   2.0000      -0.470031       -12.7902
  54   2.0000      -0.467164       -12.7122
  55   2.0000      -0.460750       -12.5377
  56   2.0000      -0.446090       -12.1387
  57   2.0000      -0.443260       -12.0617
  58   2.0000      -0.431883       -11.7521
  59   2.0000      -0.429616       -11.6905
  60   2.0000      -0.422756       -11.5038
  61   2.0000      -0.409252       -11.1363
  62   2.0000      -0.408154       -11.1064
  63   2.0000      -0.401766       -10.9326
  64   2.0000      -0.393092       -10.6966
  65   2.0000      -0.379987       -10.3400
  66   2.0000      -0.369546       -10.0559
  67   2.0000      -0.365149        -9.9362
  68   2.0000      -0.361596        -9.8395
  69   2.0000      -0.358077        -9.7438
  70   2.0000      -0.346762        -9.4359
  71   2.0000      -0.341715        -9.2985
  72   2.0000      -0.338162        -9.2019
  73   2.0000      -0.327860        -8.9215
  74   2.0000      -0.317515        -8.6400
  75   2.0000      -0.310580        -8.4513
  76   2.0000      -0.309948        -8.4341
  77   2.0000      -0.308597        -8.3973
  78   2.0000      -0.290063        -7.8930
  79   2.0000      -0.287509        -7.8235
  80   2.0000      -0.279565        -7.6073
  81   2.0000      -0.273558        -7.4439
  82   2.0000      -0.263434        -7.1684
  83   2.0000      -0.257260        -7.0004
  84   2.0000      -0.240988        -6.5576
  85   2.0000      -0.224556        -6.1105
  86   2.0000      -0.217189        -5.9100
  87   0.0000      -0.048774        -1.3272
  88   0.0000      -0.032174        -0.8755
  89   0.0000      -0.023515        -0.6399
  90   0.0000       0.003405         0.0927
  91   0.0000       0.020325         0.5531

MULLIKEN ATOMIC CHARGES
-----------------------
   0 C :   -0.492099
   1 C :   -0.146617
   2 O :   -0.169038
   3 C :    0.416805
   4 O :   -0.458150
   5 C :   -0.442382
   6 C :   -0.021939
   7 H :    0.265146
   8 C :    0.327736
   9 O :   -0.463516
  10 O :   -0.138659
  11 C :   -0.164981
  12 C :   -0.489936
  13 S :   -0.203943
  14 P :    0.804001
  15 S :   -0.517445
  16 O :   -0.402633
  17 C :   -0.308762
  18 O :   -0.348585
  19 C :   -0.304137
  20 H :    0.169177
  21 H :    0.172232
  22 H :    0.167097
  23 H :    0.176476
  24 H :    0.177497
  25 H :    0.220198
  26 H :    0.238646
  27 H :    0.190431
  28 H :    0.178316
  29 H :    0.170992
  30 H :    0.167152
  31 H :    0.166519
  32 H :    0.174848
  33 H :    0.175966
  34 H :    0.171235
  35 H :    0.181079
  36 H :    0.180497
  37 H :    0.180777
Sum of atomic charges:   -0.0000000

LOEWDIN ATOMIC CHARGES
----------------------
   0 C :   -0.390078
   1 C :    0.038106
   2 O :   -0.571846
   3 C :    0.377426
   4 O :   -0.470944
   5 C :   -0.195260
   6 C :   -0.190247
   7 H :    0.215557
   8 C :    0.352266
   9 O :   -0.510158
  10 O :   -0.569301
  11 C :    0.044292
  12 C :   -0.387396
  13 S :    0.219775
  14 P :    0.405338
  15 S :   -0.135503
  16 O :   -0.711967
  17 C :   -0.063882
  18 O :   -0.672629
  19 C :   -0.045994
  20 H :    0.162745
  21 H :    0.168934
  22 H :    0.162888
  23 H :    0.191738
  24 H :    0.191104
  25 H :    0.203101
  26 H :    0.216682
  27 H :    0.196520
  28 H :    0.188226
  29 H :    0.168947
  30 H :    0.162901
  31 H :    0.162467
  32 H :    0.175960
  33 H :    0.186403
  34 H :    0.173825
  35 H :    0.191502
  36 H :    0.179478
  37 H :    0.179022

  Mayer bond orders larger than 0.100000
B(  0-C ,  1-C ) :   0.9398 B(  0-C , 20-H ) :   0.9681 B(  0-C , 21-H ) :   0.9590
B(  0-C , 22-H ) :   0.9696 B(  1-C ,  2-O ) :   0.7797 B(  1-C , 23-H ) :   0.9618
B(  1-C , 24-H ) :   0.9524 B(  2-O ,  3-C ) :   1.1546 B(  3-C ,  4-O ) :   1.7139
B(  3-C ,  5-C ) :   0.9549 B(  4-O ,  8-C ) :   0.1354 B(  5-C ,  6-C ) :   0.8745
B(  5-C , 10-O ) :   0.1085 B(  5-C , 25-H ) :   0.9676 B(  5-C , 26-H ) :   0.9208
B(  6-C ,  7-H ) :   0.8903 B(  6-C ,  8-C ) :   0.8955 B(  6-C , 13-S ) :   0.9236
B(  8-C ,  9-O ) :   1.7088 B(  8-C , 10-O ) :   1.1866 B(  9-O , 14-P ) :   0.1150
B( 10-O , 11-C ) :   0.7453 B( 11-C , 12-C ) :   0.9460 B( 11-C , 27-H ) :   0.9659
B( 11-C , 28-H ) :   0.9368 B( 12-C , 29-H ) :   0.9606 B( 12-C , 30-H ) :   0.9683
B( 12-C , 31-H ) :   0.9707 B( 13-S , 14-P ) :   0.9988 B( 14-P , 15-S ) :   1.7736
B( 14-P , 16-O ) :   1.0005 B( 14-P , 18-O ) :   1.1907 B( 16-O , 17-C ) :   0.8333
B( 17-C , 32-H ) :   0.9554 B( 17-C , 33-H ) :   0.9594 B( 17-C , 34-H ) :   0.9506
B( 18-O , 19-C ) :   0.7904 B( 19-C , 35-H ) :   0.9543 B( 19-C , 36-H ) :   0.9494
B( 19-C , 37-H ) :   0.9544

Dispersion correction           -0.016926103
FINAL SINGLE POINT ENERGY     -1981.461215583856

DIPOLE MOMENT
-------------

Method             : SCF
Type of density    : Electron Density
Multiplicity       :   1
Irrep              :   0
Energy             : -1981.4822608607719303 Eh
Relativity type    :
Basis              : AO
                                X                 Y                 Z
Electronic contribution:    -17.753048560       2.579534571      -1.135085331
Nuclear contribution   :     20.200903507      -4.072764397      -0.695454091
                        -----------------------------------------
Total Dipole Moment    :      2.447854947      -1.493229826      -1.830539422
                        -----------------------------------------
Magnitude (a.u.)       :      3.401852984
Magnitude (Debye)      :      8.646823112

Rotational constants in cm-1:             0.013591             0.006541             0.005324
Rotational constants in MHz :           407.439182           196.080458           159.609527

                             ****ORCA TERMINATED NORMALLY****
TOTAL RUN TIME: 0 days 0 hours 1 minutes 49 seconds 438 msec
