                         Program Version 6.0.0  -   RELEASE  -
|  1> ! pbe def2-sv(p) def2/J RI DEFGRID1 loosescf d4 GCP(DFT/SV(P)) printgap
|  2> %output
|  3>     printlevel normal
|  4> end
|  5> * xyz 0 1
|  6> C 3.0403806071 0.8724845652 -2.2092998589
|  7> C 2.1888649125 -0.3783010991 -2.2547460164
|  8> O 1.3240896927 -0.4983558007 -1.105077283
|  9> P 1.8108591604 -0.517123413 0.3988251633
| 10> S 2.3767093859 1.1348025427 1.3047607306
| 11> O 2.9466753976 -1.628621513 0.3299969507
| 12> C 3.8202654662 -1.9063889683 1.4419026253
| 13> C 5.1351573838 -2.4244615698 0.8942459223
| 14> S 0.2181647544 -1.5147826479 1.3410759903
| 15> C -0.6971124426 -0.1100725464 2.0569856541
| 16> S -2.3566437051 0.0813756592 1.3711204726
| 17> P -1.8366273481 0.7584342333 -0.5777680169
| 18> S -0.4291567561 2.1124262854 -0.6804509521
| 19> O -3.2413317908 1.2054139445 -1.1781797696
| 20> C -3.7768444407 2.5303586153 -1.0121196118
| 21> C -4.1501325978 2.8283782006 0.4254357354
| 22> O -1.5196636738 -0.5241514639 -1.439828889
| 23> C -2.4898992173 -1.5724038138 -1.7158117359
| 24> C -2.1879797502 -2.8153283634 -0.9033946245
| 25> H 3.7362619689 0.8238368521 -1.3722866094
| 26> H 3.6000549949 0.9661057836 -3.1345044986
| 27> H 2.4092179526 1.7501914386 -2.0782241486
| 28> H 2.8083997354 -1.2764371614 -2.3075049106
| 29> H 1.4886550708 -0.3531359015 -3.0918622863
| 30> H 3.9600171572 -0.9832566536 2.0148713866
| 31> H 3.3290179409 -2.6510465008 2.072583614
| 32> H 4.9630397856 -3.3119381634 0.2921355993
| 33> H 5.6115539887 -1.6661971775 0.2786921811
| 34> H 5.7899072118 -2.6732524491 1.7228090695
| 35> H -0.113839984 0.8011464842 1.8956488529
| 36> H -0.8319520218 -0.3051641313 3.1176384458
| 37> H -3.0352311608 3.2490430255 -1.3743541423
| 38> H -4.6507756402 2.5371097854 -1.6651593666
| 39> H -4.6798091543 3.7747181998 0.4667275539
| 40> H -4.7839911012 2.0404817735 0.8242225622
| 41> H -3.2526482526 2.9015780621 1.0373835885
| 42> H -3.4918333864 -1.192678074 -1.5099006607
| 43> H -2.3816790258 -1.7630094188 -2.7847921042
| 44> H -1.1553810349 -3.1195590691 -1.0536361989
| 45> H -2.3435064839 -2.634946347 0.157437749
| 46> H -2.84757043 -3.6139662525 -1.227740494
| 47> *
| 48>
| 49>                          ****END OF INPUT****

CARTESIAN COORDINATES (ANGSTROEM)
---------------------------------
  C      3.040381    0.872485   -2.209300
  C      2.188865   -0.378301   -2.254746
  O      1.324090   -0.498356   -1.105077
  P      1.810859   -0.517123    0.398825
  S      2.376709    1.134803    1.304761
  O      2.946675   -1.628622    0.329997
  C      3.820265   -1.906389    1.441903
  C      5.135157   -2.424462    0.894246
  S      0.218165   -1.514783    1.341076
  C     -0.697112   -0.110073    2.056986
  S     -2.356644    0.081376    1.371120
  P     -1.836627    0.758434   -0.577768
  S     -0.429157    2.112426   -0.680451
  O     -3.241332    1.205414   -1.178180
  C     -3.776844    2.530359   -1.012120
  C     -4.150133    2.828378    0.425436
  O     -1.519664   -0.524151   -1.439829
  C     -2.489899   -1.572404   -1.715812
  C     -2.187980   -2.815328   -0.903395
  H      3.736262    0.823837   -1.372287
  H      3.600055    0.966106   -3.134504
  H      2.409218    1.750191   -2.078224
  H      2.808400   -1.276437   -2.307505
  H      1.488655   -0.353136   -3.091862
  H      3.960017   -0.983257    2.014871
  H      3.329018   -2.651047    2.072584
  H      4.963040   -3.311938    0.292136
  H      5.611554   -1.666197    0.278692
  H      5.789907   -2.673252    1.722809
  H     -0.113840    0.801146    1.895649
  H     -0.831952   -0.305164    3.117638
  H     -3.035231    3.249043   -1.374354
  H     -4.650776    2.537110   -1.665159
  H     -4.679809    3.774718    0.466728
  H     -4.783991    2.040482    0.824223
  H     -3.252648    2.901578    1.037384
  H     -3.491833   -1.192678   -1.509901
  H     -2.381679   -1.763009   -2.784792
  H     -1.155381   -3.119559   -1.053636
  H     -2.343506   -2.634946    0.157438
  H     -2.847570   -3.613966   -1.227740

 Total Charge           Charge          ....    0
 Multiplicity           Mult            ....    1
 Number of Electrons    NEL             ....  202
 Basis Dimension        Dim             ....  334

ORBITAL ENERGIES
----------------

  NO   OCC          E(Eh)            E(eV)
   0   2.0000     -88.040803     -2395.7121
   1   2.0000     -88.037064     -2395.6103
   2   2.0000     -87.978921     -2394.0282
   3   2.0000     -87.977221     -2393.9819
   4   2.0000     -76.421675     -2079.5395
   5   2.0000     -76.420239     -2079.5004
   6   2.0000     -18.791370      -511.3392
   7   2.0000     -18.790658      -511.3198
   8   2.0000     -18.784636      -511.1559
   9   2.0000     -18.778916      -511.0003
  10   2.0000      -9.952085      -270.8100
  11   2.0000      -9.951569      -270.7960
  12   2.0000      -9.951304      -270.7887
  13   2.0000      -9.948400      -270.7097
  14   2.0000      -9.946235      -270.6508
  15   2.0000      -9.886887      -269.0359
  16   2.0000      -9.882346      -268.9123
  17   2.0000      -9.879326      -268.8301
  18   2.0000      -9.872922      -268.6559
  19   2.0000      -7.685818      -209.1417
  20   2.0000      -7.682388      -209.0484
  21   2.0000      -7.623955      -207.4584
  22   2.0000      -7.622193      -207.4104
  23   2.0000      -6.419046      -174.6711
  24   2.0000      -6.417471      -174.6283
  25   2.0000      -5.713634      -155.4759
  26   2.0000      -5.710230      -155.3833
  27   2.0000      -5.710214      -155.3828
  28   2.0000      -5.706868      -155.2918
  29   2.0000      -5.702955      -155.1853
  30   2.0000      -5.699324      -155.0865
  31   2.0000      -5.652971      -153.8252
  32   2.0000      -5.651087      -153.7739
  33   2.0000      -5.644434      -153.5929
  34   2.0000      -5.644114      -153.5841
  35   2.0000      -5.643011      -153.5541
  36   2.0000      -5.642175      -153.5314
  37   2.0000      -4.641970      -126.3144
  38   2.0000      -4.640734      -126.2808
  39   2.0000      -4.640331      -126.2698
  40   2.0000      -4.639276      -126.2411
  41   2.0000      -4.639022      -126.2342
  42   2.0000      -4.637901      -126.2037
  43   2.0000      -0.984145       -26.7800
  44   2.0000      -0.981512       -26.7083
  45   2.0000      -0.939676       -25.5699
  46   2.0000      -0.936396       -25.4806
  47   2.0000      -0.759165       -20.6579
  48   2.0000      -0.717667       -19.5287
  49   2.0000      -0.706747       -19.2316
  50   2.0000      -0.686483       -18.6802
  51   2.0000      -0.684560       -18.6278
  52   2.0000      -0.671005       -18.2590
  53   2.0000      -0.646783       -17.5999
  54   2.0000      -0.628523       -17.1030
  55   2.0000      -0.593733       -16.1563
  56   2.0000      -0.585373       -15.9288
  57   2.0000      -0.572233       -15.5713
  58   2.0000      -0.567047       -15.4301
  59   2.0000      -0.557358       -15.1665
  60   2.0000      -0.500594       -13.6218
  61   2.0000      -0.497894       -13.5484
  62   2.0000      -0.469375       -12.7723
  63   2.0000      -0.466091       -12.6830
  64   2.0000      -0.446551       -12.1513
  65   2.0000      -0.444114       -12.0850
  66   2.0000      -0.439863       -11.9693
  67   2.0000      -0.434351       -11.8193
  68   2.0000      -0.426403       -11.6030
  69   2.0000      -0.413162       -11.2427
  70   2.0000      -0.405049       -11.0220
  71   2.0000      -0.402368       -10.9490
  72   2.0000      -0.388953       -10.5840
  73   2.0000      -0.379884       -10.3372
  74   2.0000      -0.373195       -10.1552
  75   2.0000      -0.365931        -9.9575
  76   2.0000      -0.364495        -9.9184
  77   2.0000      -0.354165        -9.6373
  78   2.0000      -0.351793        -9.5728
  79   2.0000      -0.347941        -9.4679
  80   2.0000      -0.341021        -9.2797
  81   2.0000      -0.337853        -9.1935
  82   2.0000      -0.335684        -9.1344
  83   2.0000      -0.333615        -9.0781
  84   2.0000      -0.328210        -8.9310
  85   2.0000      -0.313036        -8.5181
  86   2.0000      -0.311153        -8.4669
  87   2.0000      -0.298470        -8.1218
  88   2.0000      -0.295781        -8.0486
  89   2.0000      -0.290385        -7.9018
  90   2.0000      -0.278103        -7.5676
  91   2.0000      -0.269081        -7.3221
  92   2.0000      -0.264214        -7.1896
  93   2.0000      -0.258922        -7.0456
  94   2.0000      -0.254482        -6.9248
  95   2.0000      -0.231667        -6.3040
  96   2.0000      -0.219605        -5.9757
  97   2.0000      -0.210688        -5.7331
  98   2.0000      -0.196802        -5.3552
  99   2.0000      -0.187878        -5.1124
 100   2.0000      -0.180369        -4.9081
 101   0.0000      -0.037356        -1.0165
 102   0.0000      -0.028842        -0.7848
 103   0.0000      -0.006355        -0.1729
 104   0.0000       0.013067         0.3556
 105   0.0000       0.019648         0.5347

MULLIKEN ATOMIC CHARGES
-----------------------
   0 C :   -0.322831
   1 C :    0.009112
   2 O :   -0.351348
   3 P :    0.626620
   4 S :   -0.315075
   5 O :   -0.389942
   6 C :   -0.005866
   7 C :   -0.285237
   8 S :   -0.102588
   9 C :   -0.352266
  10 S :   -0.111303
  11 P :    0.600748
  12 S :   -0.289664
  13 O :   -0.385240
  14 C :    0.001261
  15 C :   -0.318597
  16 O :   -0.348667
  17 C :   -0.019550
  18 C :   -0.279930
  19 H :    0.122174
  20 H :    0.104951
  21 H :    0.137429
  22 H :    0.102140
  23 H :    0.104722
  24 H :    0.105045
  25 H :    0.099469
  26 H :    0.114429
  27 H :    0.118039
  28 H :    0.111843
  29 H :    0.207288
  30 H :    0.180837
  31 H :    0.111126
  32 H :    0.102736
  33 H :    0.113309
  34 H :    0.115891
  35 H :    0.131013
  36 H :    0.107335
  37 H :    0.106647
  38 H :    0.119638
  39 H :    0.120631
  40 H :    0.103674
Sum of atomic charges:    0.0000000

LOEWDIN ATOMIC CHARGES
----------------------
   0 C :   -0.369846
   1 C :   -0.107418
   2 O :   -0.230185
   3 P :    0.568265
   4 S :   -0.306528
   5 O :   -0.252386
   6 C :   -0.122624
   7 C :   -0.351551
   8 S :    0.081106
   9 C :   -0.480318
  10 S :    0.072218
  11 P :    0.564404
  12 S :   -0.290571
  13 O :   -0.251142
  14 C :   -0.117174
  15 C :   -0.371473
  16 O :   -0.233476
  17 C :   -0.110681
  18 C :   -0.363327
  19 H :    0.118708
  20 H :    0.126613
  21 H :    0.131779
  22 H :    0.109322
  23 H :    0.120406
  24 H :    0.105958
  25 H :    0.110645
  26 H :    0.125301
  27 H :    0.126846
  28 H :    0.130831
  29 H :    0.126066
  30 H :    0.137349
  31 H :    0.111908
  32 H :    0.117491
  33 H :    0.131289
  34 H :    0.122436
  35 H :    0.123000
  36 H :    0.109875
  37 H :    0.120062
  38 H :    0.125589
  39 H :    0.115019
  40 H :    0.126214

  Mayer bond orders larger than 0.100000
B(  0-C ,  1-C ) :   1.1674 B(  0-C , 19-H ) :   0.9343 B(  0-C , 20-H ) :   0.9357
B(  0-C , 21-H ) :   0.9401 B(  1-C ,  2-O ) :   0.9057 B(  1-C , 22-H ) :   0.9318
B(  1-C , 23-H ) :   0.9320 B(  2-O ,  3-P ) :   1.1439 B(  3-P ,  4-S ) :   1.6098
B(  3-P ,  5-O ) :   1.0772 B(  3-P ,  8-S ) :   0.9679 B(  4-S ,  8-S ) :   0.1201
B(  5-O ,  6-C ) :   0.9063 B(  6-C ,  7-C ) :   1.1596 B(  6-C , 24-H ) :   0.9009
B(  6-C , 25-H ) :   0.9314 B(  7-C , 26-H ) :   0.9508 B(  7-C , 27-H ) :   0.9513
B(  7-C , 28-H ) :   0.9422 B(  8-S ,  9-C ) :   0.9974 B(  9-C , 10-S ) :   1.0049
B(  9-C , 29-H ) :   0.8471 B(  9-C , 30-H ) :   0.9114 B( 10-S , 11-P ) :   0.9345
B( 10-S , 12-S ) :   0.1065 B( 11-P , 12-S ) :   1.6541 B( 11-P , 13-O ) :   1.0768
B( 11-P , 16-O ) :   1.1396 B( 13-O , 14-C ) :   0.9077 B( 14-C , 15-C ) :   1.1671
B( 14-C , 31-H ) :   0.9157 B( 14-C , 32-H ) :   0.9344 B( 15-C , 33-H ) :   0.9372
B( 15-C , 34-H ) :   0.9438 B( 15-C , 35-H ) :   0.9346 B( 16-O , 17-C ) :   0.8951
B( 17-C , 18-C ) :   1.1681 B( 17-C , 36-H ) :   0.9179 B( 17-C , 37-H ) :   0.9355
B( 18-C , 38-H ) :   0.9432 B( 18-C , 39-H ) :   0.9329 B( 18-C , 40-H ) :   0.9372

Dispersion correction           -0.067648435
FINAL SINGLE POINT ENERGY     -2929.515055870970

DIPOLE MOMENT
-------------

Method             : SCF
Type of density    : Electron Density
Multiplicity       :   1
Irrep              :   0
Energy             : -2929.6327904610907353 Eh
Relativity type    :
Basis              : AO
                                X                 Y                 Z
Electronic contribution:     -4.424831515       5.472432282       6.783388645
Nuclear contribution   :      3.893977322      -6.575632641      -7.229461176
                        -----------------------------------------
Total Dipole Moment    :     -0.530854192      -1.103200359      -0.446072531
                        -----------------------------------------
Magnitude (a.u.)       :      1.303011093
Magnitude (Debye)      :      3.311990990

Rotational constants in cm-1:             0.013217             0.005243             0.005038
Rotational constants in MHz :           396.223962           157.170131           151.036812

                             ****ORCA TERMINATED NORMALLY****
TOTAL RUN TIME: 0 days 0 hours 0 minutes 21 seconds 397 msec
