                         Program Version 6.0.0  -   RELEASE  -
|  1> ! r2scan-3c def2/J RI DEFGRID2 scfconv6 printgap
|  2> %output
|  3>     printlevel normal
|  4> end
|  5> * xyz 0 1
|  6> C -3.0652789961 -0.3928264648 -6.44561e-05
|  7> C -1.6074526625 -0.0423741252 0.0001478052
|  8> C -1.1781055836 1.2755838998 4.85988e-05
|  9> C 0.1740117745 1.5711828477 -9.42371e-05
| 10> C 1.1318564337 0.5685114897 -0.0001128621
| 11> C 0.710450696 -0.7655186407 -3.99739e-05
| 12> C -0.6466714341 -1.0464986965 9.92972e-05
| 13> C 1.712176662 -1.8800322645 -3.87948e-05
| 14> C 2.590695969 0.9103999083 6.96805e-05
| 15> H -3.3129153323 -0.9810108329 -0.8824997482
| 16> H -3.3114319676 -0.9888446472 0.8774683904
| 17> H -3.679278535 0.5039253213 0.0043323054
| 18> H -1.9018711592 2.0782785956 9.22336e-05
| 19> H 0.4901242372 2.6051769912 -1.5219e-05
| 20> H -0.9707019884 -2.0785342515 9.10515e-05
| 21> H 2.3516013399 -1.8188587129 0.8795560291
| 22> H 1.2131201647 -2.8453190368 -0.0003455151
| 23> H 2.3520350379 -1.8185494111 -0.8792958264
| 24> H 2.7316584388 1.9880325787 -0.0008037304
| 25> H 3.0809919377 0.4962998877 0.880189997
| 26> H 3.081647667 0.4947660003 -0.8789494077
| 27> *
| 28>
| 29>                          ****END OF INPUT****

CARTESIAN COORDINATES (ANGSTROEM)
---------------------------------
  C     -3.065279   -0.392826   -0.000064
  C     -1.607453   -0.042374    0.000148
  C     -1.178106    1.275584    0.000049
  C      0.174012    1.571183   -0.000094
  C      1.131856    0.568511   -0.000113
  C      0.710451   -0.765519   -0.000040
  C     -0.646671   -1.046499    0.000099
  C      1.712177   -1.880032   -0.000039
  C      2.590696    0.910400    0.000070
  H     -3.312915   -0.981011   -0.882500
  H     -3.311432   -0.988845    0.877468
  H     -3.679279    0.503925    0.004332
  H     -1.901871    2.078279    0.000092
  H      0.490124    2.605177   -0.000015
  H     -0.970702   -2.078534    0.000091
  H      2.351601   -1.818859    0.879556
  H      1.213120   -2.845319   -0.000346
  H      2.352035   -1.818549   -0.879296
  H      2.731658    1.988033   -0.000804
  H      3.080992    0.496300    0.880190
  H      3.081648    0.494766   -0.878949

 Total Charge           Charge          ....    0
 Multiplicity           Mult            ....    1
 Number of Electrons    NEL             ....   66
 Basis Dimension        Dim             ....  231

ORBITAL ENERGIES
----------------

  NO   OCC          E(Eh)            E(eV)
   0   2.0000     -10.034381      -273.0494
   1   2.0000     -10.033056      -273.0133
   2   2.0000     -10.031853      -272.9806
   3   2.0000     -10.024857      -272.7902
   4   2.0000     -10.024031      -272.7677
   5   2.0000     -10.023055      -272.7412
   6   2.0000     -10.022512      -272.7264
   7   2.0000     -10.020848      -272.6811
   8   2.0000     -10.020482      -272.6712
   9   2.0000      -0.827103       -22.5066
  10   2.0000      -0.756929       -20.5971
  11   2.0000      -0.728990       -19.8368
  12   2.0000      -0.685646       -18.6574
  13   2.0000      -0.653839       -17.7919
  14   2.0000      -0.615812       -16.7571
  15   2.0000      -0.561994       -15.2926
  16   2.0000      -0.525251       -14.2928
  17   2.0000      -0.451518       -12.2864
  18   2.0000      -0.446457       -12.1487
  19   2.0000      -0.407141       -11.0789
  20   2.0000      -0.406267       -11.0551
  21   2.0000      -0.385668       -10.4946
  22   2.0000      -0.374523       -10.1913
  23   2.0000      -0.369413       -10.0523
  24   2.0000      -0.368898       -10.0382
  25   2.0000      -0.359250        -9.7757
  26   2.0000      -0.353999        -9.6328
  27   2.0000      -0.335336        -9.1250
  28   2.0000      -0.310128        -8.4390
  29   2.0000      -0.297695        -8.1007
  30   2.0000      -0.295806        -8.0493
  31   2.0000      -0.222128        -6.0444
  32   2.0000      -0.207756        -5.6533
  33   0.0000      -0.022387        -0.6092
  34   0.0000      -0.016386        -0.4459
  35   0.0000       0.081737         2.2242
  36   0.0000       0.095380         2.5954
  37   0.0000       0.098235         2.6731

MULLIKEN ATOMIC CHARGES
-----------------------
   0 C :   -0.551927
   1 C :    0.222907
   2 C :   -0.242258
   3 C :   -0.235860
   4 C :    0.185837
   5 C :    0.198909
   6 C :   -0.281926
   7 C :   -0.574072
   8 C :   -0.560607
   9 H :    0.159775
  10 H :    0.159505
  11 H :    0.149605
  12 H :    0.143447
  13 H :    0.142896
  14 H :    0.142917
  15 H :    0.160528
  16 H :    0.150136
  17 H :    0.160535
  18 H :    0.149933
  19 H :    0.159933
  20 H :    0.159787
Sum of atomic charges:   -0.0000000

LOEWDIN ATOMIC CHARGES
----------------------
   0 C :   -0.391387
   1 C :   -0.101466
   2 C :   -0.172874
   3 C :   -0.159849
   4 C :   -0.102223
   5 C :   -0.089294
   6 C :   -0.161646
   7 C :   -0.387252
   8 C :   -0.387719
   9 H :    0.163187
  10 H :    0.163138
  11 H :    0.158106
  12 H :    0.166361
  13 H :    0.166156
  14 H :    0.168076
  15 H :    0.163150
  16 H :    0.158968
  17 H :    0.163137
  18 H :    0.159123
  19 H :    0.162165
  20 H :    0.162145

  Mayer bond orders larger than 0.100000
B(  0-C ,  1-C ) :   0.7775 B(  0-C ,  9-H ) :   0.9781 B(  0-C , 10-H ) :   0.9783
B(  0-C , 11-H ) :   0.9968 B(  1-C ,  2-C ) :   1.4296 B(  1-C ,  4-C ) :   0.1026
B(  1-C ,  6-C ) :   1.4284 B(  2-C ,  3-C ) :   1.4553 B(  2-C , 12-H ) :   0.9380
B(  3-C ,  4-C ) :   1.4313 B(  3-C , 13-H ) :   0.9275 B(  4-C ,  5-C ) :   1.4512
B(  4-C ,  8-C ) :   0.7917 B(  5-C ,  6-C ) :   1.4496 B(  5-C ,  7-C ) :   0.7687
B(  6-C , 14-H ) :   0.9277 B(  7-C , 15-H ) :   0.9809 B(  7-C , 16-H ) :   0.9897
B(  7-C , 17-H ) :   0.9810 B(  8-C , 18-H ) :   0.9894 B(  8-C , 19-H ) :   0.9805
B(  8-C , 20-H ) :   0.9805

Dispersion correction           -0.006949341
FINAL SINGLE POINT ENERGY      -350.086519519417

DIPOLE MOMENT
-------------

Method             : SCF
Type of density    : Electron Density
Multiplicity       :   1
Irrep              :   0
Energy             :  -350.0873105973968791 Eh
Relativity type    :
Basis              : AO
                                X                 Y                 Z
Electronic contribution:     -1.867056639       2.080147611       0.000038202
Nuclear contribution   :      1.993586068      -2.218425004      -0.000168345
                        -----------------------------------------
Total Dipole Moment    :      0.126529429      -0.138277393      -0.000130143
                        -----------------------------------------
Magnitude (a.u.)       :      0.187430922
Magnitude (Debye)      :      0.476411543

Rotational constants in cm-1:             0.099572             0.043470             0.030777
Rotational constants in MHz :          2985.093152          1303.202228           922.664260

                             ****ORCA TERMINATED NORMALLY****
TOTAL RUN TIME: 0 days 0 hours 0 minutes 40 seconds 942 msec
