                         Program Version 6.0.0  -   RELEASE  -
|  1> ! r2scan-3c def2/J RI DEFGRID2 scfconv6 printgap
|  2> %output
|  3>     printlevel normal
|  4> end
|  5> %cpcm
|  6>     smd true
|  7>     smdsolvent "water"
|  8> end
|  9> * xyz 0 1
| 10> C -3.0652789961 -0.3928264648 -6.44561e-05
| 11> C -1.6074526625 -0.0423741252 0.0001478052
| 12> C -1.1781055836 1.2755838998 4.85988e-05
| 13> C 0.1740117745 1.5711828477 -9.42371e-05
| 14> C 1.1318564337 0.5685114897 -0.0001128621
| 15> C 0.710450696 -0.7655186407 -3.99739e-05
| 16> C -0.6466714341 -1.0464986965 9.92972e-05
| 17> C 1.712176662 -1.8800322645 -3.87948e-05
| 18> C 2.590695969 0.9103999083 6.96805e-05
| 19> H -3.3129153323 -0.9810108329 -0.8824997482
| 20> H -3.3114319676 -0.9888446472 0.8774683904
| 21> H -3.679278535 0.5039253213 0.0043323054
| 22> H -1.9018711592 2.0782785956 9.22336e-05
| 23> H 0.4901242372 2.6051769912 -1.5219e-05
| 24> H -0.9707019884 -2.0785342515 9.10515e-05
| 25> H 2.3516013399 -1.8188587129 0.8795560291
| 26> H 1.2131201647 -2.8453190368 -0.0003455151
| 27> H 2.3520350379 -1.8185494111 -0.8792958264
| 28> H 2.7316584388 1.9880325787 -0.0008037304
| 29> H 3.0809919377 0.4962998877 0.880189997
| 30> H 3.081647667 0.4947660003 -0.8789494077
| 31> *
| 32>
| 33>                          ****END OF INPUT****

CARTESIAN COORDINATES (ANGSTROEM)
---------------------------------
  C     -3.065279   -0.392826   -0.000064
  C     -1.607453   -0.042374    0.000148
  C     -1.178106    1.275584    0.000049
  C      0.174012    1.571183   -0.000094
  C      1.131856    0.568511   -0.000113
  C      0.710451   -0.765519   -0.000040
  C     -0.646671   -1.046499    0.000099
  C      1.712177   -1.880032   -0.000039
  C      2.590696    0.910400    0.000070
  H     -3.312915   -0.981011   -0.882500
  H     -3.311432   -0.988845    0.877468
  H     -3.679279    0.503925    0.004332
  H     -1.901871    2.078279    0.000092
  H      0.490124    2.605177   -0.000015
  H     -0.970702   -2.078534    0.000091
  H      2.351601   -1.818859    0.879556
  H      1.213120   -2.845319   -0.000346
  H      2.352035   -1.818549   -0.879296
  H      2.731658    1.988033   -0.000804
  H      3.080992    0.496300    0.880190
  H      3.081648    0.494766   -0.878949

 Total Charge           Charge          ....    0
 Multiplicity           Mult            ....    1
 Number of Electrons    NEL             ....   66
 Basis Dimension        Dim             ....  231

ORBITAL ENERGIES
----------------

  NO   OCC          E(Eh)            E(eV)
   0   2.0000     -10.035988      -273.0931
   1   2.0000     -10.034514      -273.0530
   2   2.0000     -10.033120      -273.0151
   3   2.0000     -10.023182      -272.7446
   4   2.0000     -10.020825      -272.6805
   5   2.0000     -10.020404      -272.6691
   6   2.0000     -10.016417      -272.5606
   7   2.0000     -10.016204      -272.5548
   8   2.0000     -10.015981      -272.5487
   9   2.0000      -0.828973       -22.5575
  10   2.0000      -0.755522       -20.5588
  11   2.0000      -0.728076       -19.8120
  12   2.0000      -0.681462       -18.5435
  13   2.0000      -0.650222       -17.6934
  14   2.0000      -0.612617       -16.6702
  15   2.0000      -0.560903       -15.2629
  16   2.0000      -0.523522       -14.2457
  17   2.0000      -0.448953       -12.2166
  18   2.0000      -0.444329       -12.0908
  19   2.0000      -0.403585       -10.9821
  20   2.0000      -0.402102       -10.9417
  21   2.0000      -0.381049       -10.3689
  22   2.0000      -0.370788       -10.0897
  23   2.0000      -0.362355        -9.8602
  24   2.0000      -0.361867        -9.8469
  25   2.0000      -0.356680        -9.7058
  26   2.0000      -0.346127        -9.4186
  27   2.0000      -0.329930        -8.9779
  28   2.0000      -0.311853        -8.4859
  29   2.0000      -0.295174        -8.0321
  30   2.0000      -0.293181        -7.9779
  31   2.0000      -0.226340        -6.1590
  32   2.0000      -0.210383        -5.7248
  33   0.0000      -0.025690        -0.6991
  34   0.0000      -0.018908        -0.5145
  35   0.0000       0.088730         2.4145
  36   0.0000       0.102623         2.7925
  37   0.0000       0.105172         2.8619

MULLIKEN ATOMIC CHARGES
-----------------------
   0 C :   -0.570926
   1 C :    0.185138
   2 C :   -0.270680
   3 C :   -0.274558
   4 C :    0.164152
   5 C :    0.159468
   6 C :   -0.293286
   7 C :   -0.603776
   8 C :   -0.589791
   9 H :    0.174871
  10 H :    0.174640
  11 H :    0.169122
  12 H :    0.173422
  13 H :    0.172977
  14 H :    0.172858
  15 H :    0.180010
  16 H :    0.169180
  17 H :    0.180036
  18 H :    0.168654
  19 H :    0.179307
  20 H :    0.179184
Sum of atomic charges:   -0.0000000

LOEWDIN ATOMIC CHARGES
----------------------
   0 C :   -0.396816
   1 C :   -0.112886
   2 C :   -0.189521
   3 C :   -0.174802
   4 C :   -0.110889
   5 C :   -0.097055
   6 C :   -0.173026
   7 C :   -0.393029
   8 C :   -0.393840
   9 H :    0.168830
  10 H :    0.168784
  11 H :    0.163887
  12 H :    0.176398
  13 H :    0.176665
  14 H :    0.179052
  15 H :    0.170369
  16 H :    0.164635
  17 H :    0.170363
  18 H :    0.164487
  19 H :    0.169205
  20 H :    0.169190

  Mayer bond orders larger than 0.100000
B(  0-C ,  1-C ) :   0.7990 B(  0-C ,  9-H ) :   0.9707 B(  0-C , 10-H ) :   0.9709
B(  0-C , 11-H ) :   0.9916 B(  1-C ,  2-C ) :   1.3886 B(  1-C ,  6-C ) :   1.3859
B(  2-C ,  3-C ) :   1.4075 B(  2-C , 12-H ) :   0.9565 B(  3-C ,  4-C ) :   1.4016
B(  3-C , 13-H ) :   0.9513 B(  4-C ,  5-C ) :   1.3857 B(  4-C ,  8-C ) :   0.8093
B(  5-C ,  6-C ) :   1.4343 B(  5-C ,  7-C ) :   0.7914 B(  6-C , 14-H ) :   0.9462
B(  7-C , 15-H ) :   0.9736 B(  7-C , 16-H ) :   0.9835 B(  7-C , 17-H ) :   0.9737
B(  8-C , 18-H ) :   0.9837 B(  8-C , 19-H ) :   0.9734 B(  8-C , 20-H ) :   0.9733

Dispersion correction           -0.006949341
FINAL SINGLE POINT ENERGY      -350.087680095624

DIPOLE MOMENT
-------------

Method             : SCF
Type of density    : Electron Density
Multiplicity       :   1
Irrep              :   0
Energy             :  -350.0884711736043755 Eh
Relativity type    :
Basis              : AO
                                X                 Y                 Z
Electronic contribution:     -1.784563860       1.997622411      -0.000034147
Nuclear contribution   :      1.993586068      -2.218425004      -0.000168345
                        -----------------------------------------
Total Dipole Moment    :      0.209022208      -0.220802593      -0.000202492
                        -----------------------------------------
Magnitude (a.u.)       :      0.304046229
Magnitude (Debye)      :      0.772824097

Rotational constants in cm-1:             0.099572             0.043470             0.030777
Rotational constants in MHz :          2985.093152          1303.202228           922.664260

                             ****ORCA TERMINATED NORMALLY****
TOTAL RUN TIME: 0 days 0 hours 0 minutes 48 seconds 483 msec
