                         Program Version 6.0.0  -   RELEASE  -
|  1> ! pbe def2-sv(p) def2/J RI DEFGRID1 loosescf d4 GCP(DFT/SV(P)) printgap
|  2> %output
|  3>     printlevel normal
|  4> end
|  5> * xyz 0 1
|  6> C 3.2586441294 0.1481638688 3.234800385
|  7> C 1.8859533159 -0.254746035 2.7408896479
|  8> O 1.6014387633 0.3400254861 1.4553662483
|  9> P 2.3089452777 -0.1631399518 0.1344038895
| 10> S 2.8570643347 -2.0500582178 0.1425113032
| 11> O 3.4411790235 0.9352314086 -0.0456082568
| 12> C 4.3306637028 0.9630291435 -1.1793265604
| 13> C 5.5914054373 0.1659750386 -0.9042855897
| 14> S 0.9018128575 0.3601306663 -1.3597505145
| 15> C -0.1204621894 -1.1268372825 -1.1809842305
| 16> S -1.1962866299 -1.0622047406 0.2660682136
| 17> P -2.5602228506 0.3757617519 -0.5369097926
| 18> S -2.9312034731 0.1416782024 -2.4456028474
| 19> O -1.9590467093 1.8048028358 -0.2406135153
| 20> C -2.0918155673 2.5486654206 0.994563019
| 21> C -1.3936360902 1.8710737846 2.1541430314
| 22> O -3.817112153 0.3217772392 0.4313892409
| 23> C -4.9158053975 -0.584936939 0.2196215412
| 24> C -4.5121780558 -2.0333927413 0.3996022551
| 25> H 3.4163342349 -0.2506746499 4.2318054408
| 26> H 4.0195615245 -0.253739504 2.5665978054
| 27> H 3.348266448 1.2308794704 3.2566830133
| 28> H 1.0909662367 0.1158975416 3.3887056722
| 29> H 1.809643931 -1.3424140179 2.6452975254
| 30> H 3.8057489743 0.5802229129 -2.0595599601
| 31> H 4.5537575417 2.0219179978 -1.3232795321
| 32> H 6.2619686721 0.2543120626 -1.7529522505
| 33> H 6.0863654446 0.5451692349 -0.0145736785
| 34> H 5.3501068728 -0.8837250109 -0.7519431503
| 35> H 0.5266626932 -1.9976507054 -1.0667875278
| 36> H -0.7323922336 -1.1990327859 -2.0810084178
| 37> H -1.6334870714 3.5094033482 0.754514587
| 38> H -3.1555210318 2.6825449778 1.2003993018
| 39> H -0.3493586889 1.6930481282 1.9089116517
| 40> H -1.452576083 2.5131642873 3.0275552469
| 41> H -1.8718309916 0.918852556 2.3769938197
| 42> H -5.6513457385 -0.2759041527 0.9637829068
| 43> H -5.3097948957 -0.4185361372 -0.7875342517
| 44> H -4.0181515957 -2.1756445336 1.3573405989
| 45> H -5.3979870671 -2.6587665558 0.3537132834
| 46> H -3.8298210357 -2.3318038209 -0.3947213002
| 47> *
| 48>
| 49>                          ****END OF INPUT****

CARTESIAN COORDINATES (ANGSTROEM)
---------------------------------
  C      3.258644    0.148164    3.234800
  C      1.885953   -0.254746    2.740890
  O      1.601439    0.340025    1.455366
  P      2.308945   -0.163140    0.134404
  S      2.857064   -2.050058    0.142511
  O      3.441179    0.935231   -0.045608
  C      4.330664    0.963029   -1.179327
  C      5.591405    0.165975   -0.904286
  S      0.901813    0.360131   -1.359751
  C     -0.120462   -1.126837   -1.180984
  S     -1.196287   -1.062205    0.266068
  P     -2.560223    0.375762   -0.536910
  S     -2.931203    0.141678   -2.445603
  O     -1.959047    1.804803   -0.240614
  C     -2.091816    2.548665    0.994563
  C     -1.393636    1.871074    2.154143
  O     -3.817112    0.321777    0.431389
  C     -4.915805   -0.584937    0.219622
  C     -4.512178   -2.033393    0.399602
  H      3.416334   -0.250675    4.231805
  H      4.019562   -0.253740    2.566598
  H      3.348266    1.230879    3.256683
  H      1.090966    0.115898    3.388706
  H      1.809644   -1.342414    2.645298
  H      3.805749    0.580223   -2.059560
  H      4.553758    2.021918   -1.323280
  H      6.261969    0.254312   -1.752952
  H      6.086365    0.545169   -0.014574
  H      5.350107   -0.883725   -0.751943
  H      0.526663   -1.997651   -1.066788
  H     -0.732392   -1.199033   -2.081008
  H     -1.633487    3.509403    0.754515
  H     -3.155521    2.682545    1.200399
  H     -0.349359    1.693048    1.908912
  H     -1.452576    2.513164    3.027555
  H     -1.871831    0.918853    2.376994
  H     -5.651346   -0.275904    0.963783
  H     -5.309795   -0.418536   -0.787534
  H     -4.018152   -2.175645    1.357341
  H     -5.397987   -2.658767    0.353713
  H     -3.829821   -2.331804   -0.394721

 Total Charge           Charge          ....    0
 Multiplicity           Mult            ....    1
 Number of Electrons    NEL             ....  202
 Basis Dimension        Dim             ....  334

ORBITAL ENERGIES
----------------

  NO   OCC          E(Eh)            E(eV)
   0   2.0000     -88.039892     -2395.6873
   1   2.0000     -88.038676     -2395.6542
   2   2.0000     -87.991174     -2394.3616
   3   2.0000     -87.984171     -2394.1710
   4   2.0000     -76.428820     -2079.7339
   5   2.0000     -76.426706     -2079.6764
   6   2.0000     -18.799894      -511.5711
   7   2.0000     -18.797052      -511.4938
   8   2.0000     -18.794813      -511.4329
   9   2.0000     -18.787804      -511.2421
  10   2.0000      -9.957905      -270.9684
  11   2.0000      -9.956843      -270.9395
  12   2.0000      -9.954208      -270.8678
  13   2.0000      -9.953505      -270.8486
  14   2.0000      -9.947910      -270.6964
  15   2.0000      -9.886139      -269.0155
  16   2.0000      -9.885641      -269.0020
  17   2.0000      -9.883502      -268.9438
  18   2.0000      -9.883078      -268.9322
  19   2.0000      -7.685173      -209.1242
  20   2.0000      -7.683548      -209.0800
  21   2.0000      -7.636036      -207.7871
  22   2.0000      -7.629442      -207.6077
  23   2.0000      -6.426588      -174.8764
  24   2.0000      -6.424037      -174.8069
  25   2.0000      -5.712965      -155.4577
  26   2.0000      -5.711257      -155.4112
  27   2.0000      -5.709772      -155.3708
  28   2.0000      -5.708290      -155.3305
  29   2.0000      -5.702113      -155.1624
  30   2.0000      -5.700492      -155.1183
  31   2.0000      -5.664769      -154.1462
  32   2.0000      -5.658388      -153.9726
  33   2.0000      -5.656657      -153.9255
  34   2.0000      -5.656393      -153.9183
  35   2.0000      -5.650152      -153.7485
  36   2.0000      -5.649443      -153.7292
  37   2.0000      -4.649066      -126.5075
  38   2.0000      -4.648370      -126.4886
  39   2.0000      -4.647239      -126.4578
  40   2.0000      -4.647064      -126.4530
  41   2.0000      -4.645432      -126.4086
  42   2.0000      -4.644289      -126.3775
  43   2.0000      -0.991371       -26.9766
  44   2.0000      -0.989952       -26.9380
  45   2.0000      -0.950321       -25.8595
  46   2.0000      -0.944862       -25.7110
  47   2.0000      -0.762638       -20.7524
  48   2.0000      -0.721964       -19.6456
  49   2.0000      -0.709752       -19.3133
  50   2.0000      -0.691786       -18.8245
  51   2.0000      -0.689071       -18.7506
  52   2.0000      -0.676261       -18.4020
  53   2.0000      -0.651977       -17.7412
  54   2.0000      -0.636250       -17.3133
  55   2.0000      -0.601351       -16.3636
  56   2.0000      -0.596145       -16.2219
  57   2.0000      -0.579331       -15.7644
  58   2.0000      -0.571984       -15.5645
  59   2.0000      -0.557471       -15.1695
  60   2.0000      -0.502401       -13.6710
  61   2.0000      -0.496285       -13.5046
  62   2.0000      -0.479354       -13.0439
  63   2.0000      -0.471524       -12.8308
  64   2.0000      -0.459100       -12.4928
  65   2.0000      -0.449199       -12.2233
  66   2.0000      -0.442259       -12.0345
  67   2.0000      -0.438342       -11.9279
  68   2.0000      -0.425582       -11.5807
  69   2.0000      -0.421196       -11.4613
  70   2.0000      -0.406496       -11.0613
  71   2.0000      -0.399315       -10.8659
  72   2.0000      -0.397203       -10.8084
  73   2.0000      -0.393134       -10.6977
  74   2.0000      -0.376565       -10.2468
  75   2.0000      -0.373469       -10.1626
  76   2.0000      -0.369624       -10.0580
  77   2.0000      -0.357939        -9.7400
  78   2.0000      -0.354692        -9.6517
  79   2.0000      -0.352998        -9.6056
  80   2.0000      -0.349248        -9.5035
  81   2.0000      -0.346463        -9.4277
  82   2.0000      -0.339975        -9.2512
  83   2.0000      -0.338223        -9.2035
  84   2.0000      -0.336108        -9.1460
  85   2.0000      -0.325153        -8.8479
  86   2.0000      -0.311033        -8.4636
  87   2.0000      -0.300197        -8.1688
  88   2.0000      -0.297612        -8.0984
  89   2.0000      -0.295434        -8.0392
  90   2.0000      -0.289112        -7.8671
  91   2.0000      -0.278823        -7.5872
  92   2.0000      -0.273210        -7.4344
  93   2.0000      -0.266815        -7.2604
  94   2.0000      -0.255148        -6.9429
  95   2.0000      -0.232822        -6.3354
  96   2.0000      -0.219550        -5.9743
  97   2.0000      -0.212340        -5.7781
  98   2.0000      -0.204006        -5.5513
  99   2.0000      -0.202625        -5.5137
 100   2.0000      -0.196078        -5.3356
 101   0.0000      -0.044416        -1.2086
 102   0.0000      -0.023792        -0.6474
 103   0.0000      -0.004350        -0.1184
 104   0.0000      -0.002750        -0.0748
 105   0.0000       0.018116         0.4930

MULLIKEN ATOMIC CHARGES
-----------------------
   0 C :   -0.305080
   1 C :   -0.006631
   2 O :   -0.355707
   3 P :    0.609739
   4 S :   -0.336219
   5 O :   -0.370810
   6 C :   -0.013635
   7 C :   -0.297330
   8 S :   -0.060335
   9 C :   -0.384973
  10 S :   -0.091464
  11 P :    0.619280
  12 S :   -0.319529
  13 O :   -0.356479
  14 C :    0.013436
  15 C :   -0.355390
  16 O :   -0.387095
  17 C :   -0.001505
  18 C :   -0.316994
  19 H :    0.112633
  20 H :    0.124080
  21 H :    0.115875
  22 H :    0.107245
  23 H :    0.115202
  24 H :    0.107135
  25 H :    0.110144
  26 H :    0.109655
  27 H :    0.114339
  28 H :    0.131575
  29 H :    0.192126
  30 H :    0.196554
  31 H :    0.109277
  32 H :    0.106249
  33 H :    0.157184
  34 H :    0.107184
  35 H :    0.117469
  36 H :    0.104824
  37 H :    0.115482
  38 H :    0.116552
  39 H :    0.114793
  40 H :    0.131142
Sum of atomic charges:    0.0000000

LOEWDIN ATOMIC CHARGES
----------------------
   0 C :   -0.363467
   1 C :   -0.118033
   2 O :   -0.231993
   3 P :    0.572263
   4 S :   -0.317775
   5 O :   -0.243641
   6 C :   -0.115283
   7 C :   -0.364178
   8 S :    0.091279
   9 C :   -0.493411
  10 S :    0.078159
  11 P :    0.577215
  12 S :   -0.312409
  13 O :   -0.236980
  14 C :   -0.105455
  15 C :   -0.376722
  16 O :   -0.246522
  17 C :   -0.115714
  18 C :   -0.370643
  19 H :    0.130819
  20 H :    0.122957
  21 H :    0.126190
  22 H :    0.117044
  23 H :    0.110540
  24 H :    0.108923
  25 H :    0.120313
  26 H :    0.129844
  27 H :    0.125392
  28 H :    0.124876
  29 H :    0.126778
  30 H :    0.127632
  31 H :    0.122660
  32 H :    0.112448
  33 H :    0.131472
  34 H :    0.128134
  35 H :    0.116036
  36 H :    0.118479
  37 H :    0.114225
  38 H :    0.123374
  39 H :    0.132223
  40 H :    0.122952

  Mayer bond orders larger than 0.100000
B(  0-C ,  1-C ) :   1.1643 B(  0-C , 19-H ) :   0.9392 B(  0-C , 20-H ) :   0.9352
B(  0-C , 21-H ) :   0.9468 B(  1-C ,  2-O ) :   0.8941 B(  1-C , 22-H ) :   0.9307
B(  1-C , 23-H ) :   0.9133 B(  2-O ,  3-P ) :   1.1217 B(  3-P ,  4-S ) :   1.5893
B(  3-P ,  5-O ) :   1.1157 B(  3-P ,  8-S ) :   0.9753 B(  4-S ,  8-S ) :   0.1112
B(  5-O ,  6-C ) :   0.9036 B(  6-C ,  7-C ) :   1.1673 B(  6-C , 24-H ) :   0.9164
B(  6-C , 25-H ) :   0.9357 B(  7-C , 26-H ) :   0.9391 B(  7-C , 27-H ) :   0.9467
B(  7-C , 28-H ) :   0.9318 B(  8-S ,  9-C ) :   1.0045 B(  9-C , 10-S ) :   1.0088
B(  9-C , 29-H ) :   0.8659 B(  9-C , 30-H ) :   0.8650 B( 10-S , 11-P ) :   0.9390
B( 10-S , 12-S ) :   0.1127 B( 11-P , 12-S ) :   1.6293 B( 11-P , 13-O ) :   1.1400
B( 11-P , 16-O ) :   1.0791 B( 13-O , 14-C ) :   0.9004 B( 14-C , 15-C ) :   1.1708
B( 14-C , 31-H ) :   0.9336 B( 14-C , 32-H ) :   0.9281 B( 15-C , 33-H ) :   0.9196
B( 15-C , 34-H ) :   0.9351 B( 15-C , 35-H ) :   0.9400 B( 16-O , 17-C ) :   0.9013
B( 17-C , 18-C ) :   1.1671 B( 17-C , 36-H ) :   0.9341 B( 17-C , 37-H ) :   0.9177
B( 18-C , 38-H ) :   0.9445 B( 18-C , 39-H ) :   0.9366 B( 18-C , 40-H ) :   0.9331

Dispersion correction           -0.065187671
FINAL SINGLE POINT ENERGY     -2929.521236635214

DIPOLE MOMENT
-------------

Method             : SCF
Type of density    : Electron Density
Multiplicity       :   1
Irrep              :   0
Energy             : -2929.6417487183903177 Eh
Relativity type    :
Basis              : AO
                                X                 Y                 Z
Electronic contribution:     -6.624690141      -1.478287610     -15.737262785
Nuclear contribution   :      6.666858924       2.072674285      17.181075079
                        -----------------------------------------
Total Dipole Moment    :      0.042168783       0.594386675       1.443812294
                        -----------------------------------------
Magnitude (a.u.)       :      1.561943554
Magnitude (Debye)      :      3.970145001

Rotational constants in cm-1:             0.013865             0.004511             0.004276
Rotational constants in MHz :           415.663896           135.227620           128.184854

                             ****ORCA TERMINATED NORMALLY****
TOTAL RUN TIME: 0 days 0 hours 0 minutes 21 seconds 106 msec
