                         Program Version 6.0.0  -   RELEASE  -
|  1> ! pbe def2-sv(p) def2/J RI DEFGRID1 loosescf d4 GCP(DFT/SV(P)) printgap
|  2> %output
|  3>     printlevel normal
|  4> end
|  5> * xyz 0 1
|  6> C 1.330241783 0.2181076914 2.9561644082
|  7> C 2.8152827816 -0.0310176391 2.7893985761
|  8> O 3.2778323051 0.2932185193 1.4660997772
|  9> P 2.8558901566 -0.5432174099 0.1772254895
| 10> S 2.7641608483 -2.4797993197 0.4146374189
| 11> O 3.9816451734 -0.1274050823 -0.8433111037
| 12> C 4.2351609996 1.2479743812 -1.2333629954
| 13> C 3.9021227253 1.4337799953 -2.7000729583
| 14> S 1.0875992162 0.4272595747 -0.5593384852
| 15> C 0.025611937 -1.0214871831 -0.7887449921
| 16> S -1.2927870482 -1.1232934865 0.4394092626
| 17> P -2.5323966413 0.3659570839 -0.4627005101
| 18> S -2.6031896391 0.3343955715 -2.4178930189
| 19> O -1.9792952183 1.7637157773 0.0053657428
| 20> C -1.8014240416 2.1442293339 1.3917260956
| 21> C -2.9726642764 2.9757452713 1.8732096197
| 22> O -3.8876055643 0.2403335004 0.3554844688
| 23> C -4.6061471902 -0.9860608375 0.5872834792
| 24> C -4.9230479347 -1.7313296766 -0.6920000844
| 25> H 1.0606609425 0.0868702193 3.9990649486
| 26> H 1.0810985798 1.2291299956 2.6436770518
| 27> H 0.7617037905 -0.4930520493 2.3575389513
| 28> H 3.0558802368 -1.0791161504 2.9919021781
| 29> H 3.4076970977 0.6179667702 3.4360520044
| 30> H 3.6444903055 1.9155810353 -0.6024850399
| 31> H 5.2975813392 1.4072683294 -1.0432510684
| 32> H 2.8364352518 1.2984103467 -2.8699710388
| 33> H 4.1840869671 2.4365174149 -3.0049609291
| 34> H 4.4472756125 0.7095614989 -3.2989390864
| 35> H 0.6298695459 -1.9257402341 -0.688397295
| 36> H -0.4296035692 -0.9479722872 -1.7776617719
| 37> H -1.6803842564 1.2413832107 1.9970931696
| 38> H -0.8748955281 2.7215836438 1.3953165672
| 39> H -2.7863544405 3.2950489808 2.8937980959
| 40> H -3.0936461959 3.8496322236 1.2391163835
| 41> H -3.8882750682 2.3915230073 1.8400380243
| 42> H -4.0095250181 -1.6085922973 1.2597750487
| 43> H -5.5165671832 -0.6590417667 1.0926508211
| 44> H -5.4525441069 -1.0842341079 -1.387472095
| 45> H -4.0039935493 -2.0680155524 -1.1699636632
| 46> H -5.53904817 -2.5951911877 -0.4638749063
| 47> *
| 48>
| 49>                          ****END OF INPUT****

CARTESIAN COORDINATES (ANGSTROEM)
---------------------------------
  C      1.330242    0.218108    2.956164
  C      2.815283   -0.031018    2.789399
  O      3.277832    0.293219    1.466100
  P      2.855890   -0.543217    0.177225
  S      2.764161   -2.479799    0.414637
  O      3.981645   -0.127405   -0.843311
  C      4.235161    1.247974   -1.233363
  C      3.902123    1.433780   -2.700073
  S      1.087599    0.427260   -0.559338
  C      0.025612   -1.021487   -0.788745
  S     -1.292787   -1.123293    0.439409
  P     -2.532397    0.365957   -0.462701
  S     -2.603190    0.334396   -2.417893
  O     -1.979295    1.763716    0.005366
  C     -1.801424    2.144229    1.391726
  C     -2.972664    2.975745    1.873210
  O     -3.887606    0.240334    0.355484
  C     -4.606147   -0.986061    0.587283
  C     -4.923048   -1.731330   -0.692000
  H      1.060661    0.086870    3.999065
  H      1.081099    1.229130    2.643677
  H      0.761704   -0.493052    2.357539
  H      3.055880   -1.079116    2.991902
  H      3.407697    0.617967    3.436052
  H      3.644490    1.915581   -0.602485
  H      5.297581    1.407268   -1.043251
  H      2.836435    1.298410   -2.869971
  H      4.184087    2.436517   -3.004961
  H      4.447276    0.709561   -3.298939
  H      0.629870   -1.925740   -0.688397
  H     -0.429604   -0.947972   -1.777662
  H     -1.680384    1.241383    1.997093
  H     -0.874896    2.721584    1.395317
  H     -2.786354    3.295049    2.893798
  H     -3.093646    3.849632    1.239116
  H     -3.888275    2.391523    1.840038
  H     -4.009525   -1.608592    1.259775
  H     -5.516567   -0.659042    1.092651
  H     -5.452544   -1.084234   -1.387472
  H     -4.003994   -2.068016   -1.169964
  H     -5.539048   -2.595191   -0.463875

 Total Charge           Charge          ....    0
 Multiplicity           Mult            ....    1
 Number of Electrons    NEL             ....  202
 Basis Dimension        Dim             ....  334

ORBITAL ENERGIES
----------------

  NO   OCC          E(Eh)            E(eV)
   0   2.0000     -88.047048     -2395.8820
   1   2.0000     -88.043108     -2395.7748
   2   2.0000     -87.992574     -2394.3997
   3   2.0000     -87.984252     -2394.1732
   4   2.0000     -76.428473     -2079.7245
   5   2.0000     -76.428393     -2079.7223
   6   2.0000     -18.799923      -511.5719
   7   2.0000     -18.793769      -511.4045
   8   2.0000     -18.793110      -511.3865
   9   2.0000     -18.791713      -511.3485
  10   2.0000      -9.963355      -271.1167
  11   2.0000      -9.959589      -271.0142
  12   2.0000      -9.957362      -270.9536
  13   2.0000      -9.955683      -270.9079
  14   2.0000      -9.950377      -270.7635
  15   2.0000      -9.888812      -269.0883
  16   2.0000      -9.886867      -269.0353
  17   2.0000      -9.885793      -269.0061
  18   2.0000      -9.885661      -269.0025
  19   2.0000      -7.691463      -209.2953
  20   2.0000      -7.687729      -209.1937
  21   2.0000      -7.637745      -207.8336
  22   2.0000      -7.629545      -207.6105
  23   2.0000      -6.426213      -174.8662
  24   2.0000      -6.425816      -174.8554
  25   2.0000      -5.718983      -155.6214
  26   2.0000      -5.716002      -155.5403
  27   2.0000      -5.715491      -155.5264
  28   2.0000      -5.712324      -155.4402
  29   2.0000      -5.708891      -155.3468
  30   2.0000      -5.704787      -155.2351
  31   2.0000      -5.666675      -154.1981
  32   2.0000      -5.658655      -153.9798
  33   2.0000      -5.658302      -153.9702
  34   2.0000      -5.657910      -153.9595
  35   2.0000      -5.650111      -153.7473
  36   2.0000      -5.649528      -153.7315
  37   2.0000      -4.648900      -126.5030
  38   2.0000      -4.648733      -126.4985
  39   2.0000      -4.647807      -126.4733
  40   2.0000      -4.647758      -126.4719
  41   2.0000      -4.646759      -126.4447
  42   2.0000      -4.645744      -126.4171
  43   2.0000      -0.992727       -27.0135
  44   2.0000      -0.989414       -26.9233
  45   2.0000      -0.949547       -25.8385
  46   2.0000      -0.945806       -25.7367
  47   2.0000      -0.763591       -20.7784
  48   2.0000      -0.724071       -19.7030
  49   2.0000      -0.714861       -19.4524
  50   2.0000      -0.694768       -18.9056
  51   2.0000      -0.690974       -18.8024
  52   2.0000      -0.679910       -18.5013
  53   2.0000      -0.652731       -17.7617
  54   2.0000      -0.640425       -17.4269
  55   2.0000      -0.598196       -16.2777
  56   2.0000      -0.592367       -16.1191
  57   2.0000      -0.578180       -15.7331
  58   2.0000      -0.576944       -15.6994
  59   2.0000      -0.563281       -15.3276
  60   2.0000      -0.509473       -13.8635
  61   2.0000      -0.501454       -13.6453
  62   2.0000      -0.478311       -13.0155
  63   2.0000      -0.474659       -12.9161
  64   2.0000      -0.462151       -12.5758
  65   2.0000      -0.450736       -12.2652
  66   2.0000      -0.443893       -12.0789
  67   2.0000      -0.440897       -11.9974
  68   2.0000      -0.435421       -11.8484
  69   2.0000      -0.423865       -11.5340
  70   2.0000      -0.414095       -11.2681
  71   2.0000      -0.401298       -10.9199
  72   2.0000      -0.396064       -10.7774
  73   2.0000      -0.389555       -10.6003
  74   2.0000      -0.379236       -10.3195
  75   2.0000      -0.371233       -10.1018
  76   2.0000      -0.363533        -9.8922
  77   2.0000      -0.359545        -9.7837
  78   2.0000      -0.356415        -9.6986
  79   2.0000      -0.353670        -9.6238
  80   2.0000      -0.349911        -9.5216
  81   2.0000      -0.349077        -9.4989
  82   2.0000      -0.343838        -9.3563
  83   2.0000      -0.342075        -9.3083
  84   2.0000      -0.340982        -9.2786
  85   2.0000      -0.324355        -8.8262
  86   2.0000      -0.311911        -8.4875
  87   2.0000      -0.303295        -8.2531
  88   2.0000      -0.301145        -8.1946
  89   2.0000      -0.298283        -8.1167
  90   2.0000      -0.291426        -7.9301
  91   2.0000      -0.281866        -7.6700
  92   2.0000      -0.274171        -7.4606
  93   2.0000      -0.266773        -7.2592
  94   2.0000      -0.259105        -7.0506
  95   2.0000      -0.234692        -6.3863
  96   2.0000      -0.220982        -6.0132
  97   2.0000      -0.213407        -5.8071
  98   2.0000      -0.208933        -5.6854
  99   2.0000      -0.202129        -5.5002
 100   2.0000      -0.198388        -5.3984
 101   0.0000      -0.044604        -1.2137
 102   0.0000      -0.033954        -0.9239
 103   0.0000      -0.018011        -0.4901
 104   0.0000       0.000457         0.0124
 105   0.0000       0.012981         0.3532

MULLIKEN ATOMIC CHARGES
-----------------------
   0 C :   -0.338954
   1 C :    0.008190
   2 O :   -0.380249
   3 P :    0.595856
   4 S :   -0.303130
   5 O :   -0.355861
   6 C :   -0.018264
   7 C :   -0.284324
   8 S :   -0.103376
   9 C :   -0.355969
  10 S :   -0.109731
  11 P :    0.591827
  12 S :   -0.303371
  13 O :   -0.347321
  14 C :   -0.025912
  15 C :   -0.283948
  16 O :   -0.380832
  17 C :   -0.012050
  18 C :   -0.310644
  19 H :    0.110548
  20 H :    0.118366
  21 H :    0.136027
  22 H :    0.112496
  23 H :    0.103748
  24 H :    0.107823
  25 H :    0.113946
  26 H :    0.125681
  27 H :    0.109648
  28 H :    0.121587
  29 H :    0.193887
  30 H :    0.196717
  31 H :    0.107088
  32 H :    0.116613
  33 H :    0.108325
  34 H :    0.120625
  35 H :    0.119969
  36 H :    0.114622
  37 H :    0.110117
  38 H :    0.128614
  39 H :    0.128464
  40 H :    0.113154
Sum of atomic charges:    0.0000000

LOEWDIN ATOMIC CHARGES
----------------------
   0 C :   -0.373918
   1 C :   -0.114900
   2 O :   -0.251552
   3 P :    0.570126
   4 S :   -0.294375
   5 O :   -0.239271
   6 C :   -0.111800
   7 C :   -0.358152
   8 S :    0.071975
   9 C :   -0.489699
  10 S :    0.074651
  11 P :    0.566488
  12 S :   -0.302321
  13 O :   -0.231499
  14 C :   -0.117155
  15 C :   -0.358461
  16 O :   -0.244741
  17 C :   -0.114544
  18 C :   -0.369084
  19 H :    0.129989
  20 H :    0.121673
  21 H :    0.114293
  22 H :    0.112474
  23 H :    0.118303
  24 H :    0.107446
  25 H :    0.122754
  26 H :    0.124869
  27 H :    0.129752
  28 H :    0.130263
  29 H :    0.125636
  30 H :    0.127072
  31 H :    0.104372
  32 H :    0.119574
  33 H :    0.128766
  34 H :    0.129379
  35 H :    0.126054
  36 H :    0.108836
  37 H :    0.121432
  38 H :    0.131389
  39 H :    0.122790
  40 H :    0.131117

  Mayer bond orders larger than 0.100000
B(  0-C ,  1-C ) :   1.1621 B(  0-C , 19-H ) :   0.9369 B(  0-C , 20-H ) :   0.9396
B(  0-C , 21-H ) :   0.9269 B(  1-C ,  2-O ) :   0.9132 B(  1-C , 22-H ) :   0.9182
B(  1-C , 23-H ) :   0.9338 B(  2-O ,  3-P ) :   1.0885 B(  3-P ,  4-S ) :   1.6298
B(  3-P ,  5-O ) :   1.1488 B(  3-P ,  8-S ) :   0.9357 B(  4-S ,  8-S ) :   0.1146
B(  4-S , 29-H ) :   0.1152 B(  5-O ,  6-C ) :   0.8857 B(  6-C ,  7-C ) :   1.1634
B(  6-C , 24-H ) :   0.9189 B(  6-C , 25-H ) :   0.9338 B(  7-C , 26-H ) :   0.9401
B(  7-C , 27-H ) :   0.9397 B(  7-C , 28-H ) :   0.9460 B(  8-S ,  9-C ) :   1.0122
B(  9-C , 10-S ) :   1.0092 B(  9-C , 29-H ) :   0.8506 B(  9-C , 30-H ) :   0.8610
B( 10-S , 11-P ) :   0.9413 B( 10-S , 12-S ) :   0.1095 B( 11-P , 12-S ) :   1.6496
B( 11-P , 13-O ) :   1.1416 B( 11-P , 16-O ) :   1.0831 B( 13-O , 14-C ) :   0.8923
B( 14-C , 15-C ) :   1.1601 B( 14-C , 31-H ) :   0.9109 B( 14-C , 32-H ) :   0.9305
B( 15-C , 33-H ) :   0.9405 B( 15-C , 34-H ) :   0.9466 B( 15-C , 35-H ) :   0.9423
B( 16-O , 17-C ) :   0.9096 B( 17-C , 18-C ) :   1.1676 B( 17-C , 36-H ) :   0.9264
B( 17-C , 37-H ) :   0.9329 B( 18-C , 38-H ) :   0.9429 B( 18-C , 39-H ) :   0.9320
B( 18-C , 40-H ) :   0.9346

Dispersion correction           -0.063269294
FINAL SINGLE POINT ENERGY     -2929.516700729014

DIPOLE MOMENT
-------------

Method             : SCF
Type of density    : Electron Density
Multiplicity       :   1
Irrep              :   0
Energy             : -2929.6381252713977119 Eh
Relativity type    :
Basis              : AO
                                X                 Y                 Z
Electronic contribution:      6.409034799      -9.391553556      -8.922318015
Nuclear contribution   :     -6.710556677      10.348286661      10.499989398
                        -----------------------------------------
Total Dipole Moment    :     -0.301521878       0.956733105       1.577671383
                        -----------------------------------------
Magnitude (a.u.)       :      1.869572323
Magnitude (Debye)      :      4.752075190

Rotational constants in cm-1:             0.012002             0.004354             0.004232
Rotational constants in MHz :           359.804938           130.515210           126.885720

                             ****ORCA TERMINATED NORMALLY****
TOTAL RUN TIME: 0 days 0 hours 0 minutes 20 seconds 810 msec
