                         Program Version 6.0.0  -   RELEASE  -
|  1> ! pbe def2-sv(p) def2/J RI DEFGRID1 loosescf d4 GCP(DFT/SV(P)) printgap
|  2> %output
|  3>     printlevel normal
|  4> end
|  5> * xyz 0 1
|  6> C 2.0493611777 1.0743436712 -2.6242337693
|  7> C 3.0781981627 0.017582416 -2.2740239071
|  8> O 2.7411245434 -0.6960902326 -1.0722878974
|  9> P 2.7629287982 0.0172954558 0.349041045
| 10> S 4.1009599934 1.4227424414 0.6045687553
| 11> O 2.9692240819 -1.3087518814 1.2010981199
| 12> C 3.47399214 -1.2638150602 2.549480879
| 13> C 2.4776054252 -0.652339499 3.5149250577
| 14> S 0.7405316197 0.551433067 0.6930070127
| 15> C 0.0321487467 -1.0914867534 0.2993935928
| 16> S -1.6776027537 -1.1646939784 0.8305473971
| 17> P -2.4390627971 0.1133733718 -0.7038035782
| 18> S -1.6153766368 -0.1899615842 -2.4558104976
| 19> O -2.2256030405 1.6236519358 -0.3128987333
| 20> C -2.9172916537 2.3685526179 0.7180913096
| 21> C -2.5570109046 1.9027047063 2.1137323959
| 22> O -4.0126170327 -0.041197462 -0.5644335358
| 23> C -4.7172950883 -1.2920216459 -0.4479523955
| 24> C -4.4156134079 -2.2416744444 -1.5880147255
| 25> H 2.0180891183 1.8366944565 -1.8451786742
| 26> H 2.3233013042 1.5449878801 -3.5629065956
| 27> H 1.0586199768 0.6352702325 -2.7277988122
| 28> H 4.0632671747 0.4759139281 -2.1399126111
| 29> H 3.1298142643 -0.7602473076 -3.0369142521
| 30> H 3.6786163896 -2.3089762773 2.7859990865
| 31> H 4.4078476545 -0.6930901018 2.5504711419
| 32> H 2.3200108021 0.3976079063 3.2693492181
| 33> H 1.5244303498 -1.1733635994 3.4668092462
| 34> H 2.8712830519 -0.721180938 4.5239840312
| 35> H 0.5815716533 -1.8603482085 0.8368112632
| 36> H 0.0760169916 -1.2488213961 -0.7802924758
| 37> H -2.5845201466 3.3929114086 0.5432403139
| 38> H -3.9908589638 2.2892334873 0.5378126556
| 39> H -1.4754041041 1.8663712998 2.2265189755
| 40> H -2.9670900032 2.6030202215 2.8346763149
| 41> H -2.9662097149 0.9142760899 2.3094273937
| 42> H -4.4529141187 -1.7441293007 0.5117826446
| 43> H -5.7673919295 -0.994405292 -0.4437135855
| 44> H -4.6179381849 -1.7646776173 -2.544262737
| 45> H -3.3669675215 -2.5349184029 -1.5657976885
| 46> H -5.0328402568 -3.1289693909 -1.4913168376
| 47> *
| 48>
| 49>                          ****END OF INPUT****

CARTESIAN COORDINATES (ANGSTROEM)
---------------------------------
  C      2.049361    1.074344   -2.624234
  C      3.078198    0.017582   -2.274024
  O      2.741125   -0.696090   -1.072288
  P      2.762929    0.017295    0.349041
  S      4.100960    1.422742    0.604569
  O      2.969224   -1.308752    1.201098
  C      3.473992   -1.263815    2.549481
  C      2.477605   -0.652339    3.514925
  S      0.740532    0.551433    0.693007
  C      0.032149   -1.091487    0.299394
  S     -1.677603   -1.164694    0.830547
  P     -2.439063    0.113373   -0.703804
  S     -1.615377   -0.189962   -2.455810
  O     -2.225603    1.623652   -0.312899
  C     -2.917292    2.368553    0.718091
  C     -2.557011    1.902705    2.113732
  O     -4.012617   -0.041197   -0.564434
  C     -4.717295   -1.292022   -0.447952
  C     -4.415613   -2.241674   -1.588015
  H      2.018089    1.836694   -1.845179
  H      2.323301    1.544988   -3.562907
  H      1.058620    0.635270   -2.727799
  H      4.063267    0.475914   -2.139913
  H      3.129814   -0.760247   -3.036914
  H      3.678616   -2.308976    2.785999
  H      4.407848   -0.693090    2.550471
  H      2.320011    0.397608    3.269349
  H      1.524430   -1.173364    3.466809
  H      2.871283   -0.721181    4.523984
  H      0.581572   -1.860348    0.836811
  H      0.076017   -1.248821   -0.780292
  H     -2.584520    3.392911    0.543240
  H     -3.990859    2.289233    0.537813
  H     -1.475404    1.866371    2.226519
  H     -2.967090    2.603020    2.834676
  H     -2.966210    0.914276    2.309427
  H     -4.452914   -1.744129    0.511783
  H     -5.767392   -0.994405   -0.443714
  H     -4.617938   -1.764678   -2.544263
  H     -3.366968   -2.534918   -1.565798
  H     -5.032840   -3.128969   -1.491317

 Total Charge           Charge          ....    0
 Multiplicity           Mult            ....    1
 Number of Electrons    NEL             ....  202
 Basis Dimension        Dim             ....  334

ORBITAL ENERGIES
----------------

  NO   OCC          E(Eh)            E(eV)
   0   2.0000     -88.054348     -2396.0806
   1   2.0000     -88.040158     -2395.6945
   2   2.0000     -87.987486     -2394.2612
   3   2.0000     -87.986586     -2394.2367
   4   2.0000     -76.432772     -2079.8415
   5   2.0000     -76.423975     -2079.6021
   6   2.0000     -18.804818      -511.7051
   7   2.0000     -18.794532      -511.4252
   8   2.0000     -18.788970      -511.2739
   9   2.0000     -18.784455      -511.1510
  10   2.0000      -9.967658      -271.2338
  11   2.0000      -9.958678      -270.9894
  12   2.0000      -9.954834      -270.8848
  13   2.0000      -9.952733      -270.8276
  14   2.0000      -9.943424      -270.5743
  15   2.0000      -9.889391      -269.1040
  16   2.0000      -9.889255      -269.1003
  17   2.0000      -9.885196      -268.9899
  18   2.0000      -9.867823      -268.5171
  19   2.0000      -7.699054      -209.5019
  20   2.0000      -7.684767      -209.1131
  21   2.0000      -7.632606      -207.6938
  22   2.0000      -7.631472      -207.6629
  23   2.0000      -6.429920      -174.9670
  24   2.0000      -6.421406      -174.7353
  25   2.0000      -5.726652      -155.8301
  26   2.0000      -5.723659      -155.7487
  27   2.0000      -5.716283      -155.5480
  28   2.0000      -5.712947      -155.4572
  29   2.0000      -5.709280      -155.3574
  30   2.0000      -5.701540      -155.1468
  31   2.0000      -5.661533      -154.0581
  32   2.0000      -5.660490      -154.0298
  33   2.0000      -5.653147      -153.8299
  34   2.0000      -5.652870      -153.8224
  35   2.0000      -5.652131      -153.8023
  36   2.0000      -5.651482      -153.7846
  37   2.0000      -4.652954      -126.6133
  38   2.0000      -4.651824      -126.5826
  39   2.0000      -4.649859      -126.5291
  40   2.0000      -4.643689      -126.3612
  41   2.0000      -4.643605      -126.3589
  42   2.0000      -4.641761      -126.3087
  43   2.0000      -0.995908       -27.1000
  44   2.0000      -0.984679       -26.7945
  45   2.0000      -0.951106       -25.8809
  46   2.0000      -0.941269       -25.6132
  47   2.0000      -0.767709       -20.8904
  48   2.0000      -0.723925       -19.6990
  49   2.0000      -0.711466       -19.3600
  50   2.0000      -0.697134       -18.9700
  51   2.0000      -0.682336       -18.5673
  52   2.0000      -0.674182       -18.3454
  53   2.0000      -0.655719       -17.8430
  54   2.0000      -0.639520       -17.4022
  55   2.0000      -0.596925       -16.2432
  56   2.0000      -0.593766       -16.1572
  57   2.0000      -0.587150       -15.9772
  58   2.0000      -0.565150       -15.3785
  59   2.0000      -0.562769       -15.3137
  60   2.0000      -0.504992       -13.7415
  61   2.0000      -0.490977       -13.3602
  62   2.0000      -0.477185       -12.9849
  63   2.0000      -0.461835       -12.5672
  64   2.0000      -0.459542       -12.5048
  65   2.0000      -0.449466       -12.2306
  66   2.0000      -0.442663       -12.0455
  67   2.0000      -0.439178       -11.9506
  68   2.0000      -0.434630       -11.8269
  69   2.0000      -0.418001       -11.3744
  70   2.0000      -0.417061       -11.3488
  71   2.0000      -0.411657       -11.2018
  72   2.0000      -0.394427       -10.7329
  73   2.0000      -0.391267       -10.6469
  74   2.0000      -0.385138       -10.4801
  75   2.0000      -0.373740       -10.1700
  76   2.0000      -0.361389        -9.8339
  77   2.0000      -0.358752        -9.7621
  78   2.0000      -0.353659        -9.6236
  79   2.0000      -0.350030        -9.5248
  80   2.0000      -0.346773        -9.4362
  81   2.0000      -0.345970        -9.4143
  82   2.0000      -0.342329        -9.3153
  83   2.0000      -0.333170        -9.0660
  84   2.0000      -0.328064        -8.9271
  85   2.0000      -0.326970        -8.8973
  86   2.0000      -0.317039        -8.6271
  87   2.0000      -0.305027        -8.3002
  88   2.0000      -0.298486        -8.1222
  89   2.0000      -0.295010        -8.0276
  90   2.0000      -0.283853        -7.7240
  91   2.0000      -0.283041        -7.7019
  92   2.0000      -0.269373        -7.3300
  93   2.0000      -0.262759        -7.1500
  94   2.0000      -0.255707        -6.9581
  95   2.0000      -0.235983        -6.4214
  96   2.0000      -0.219057        -5.9608
  97   2.0000      -0.206873        -5.6293
  98   2.0000      -0.205505        -5.5921
  99   2.0000      -0.205279        -5.5859
 100   2.0000      -0.197829        -5.3832
 101   0.0000      -0.046637        -1.2690
 102   0.0000      -0.029532        -0.8036
 103   0.0000      -0.021005        -0.5716
 104   0.0000      -0.002874        -0.0782
 105   0.0000       0.010373         0.2823

MULLIKEN ATOMIC CHARGES
-----------------------
   0 C :   -0.331828
   1 C :   -0.001579
   2 O :   -0.371637
   3 P :    0.585995
   4 S :   -0.313424
   5 O :   -0.371690
   6 C :   -0.002337
   7 C :   -0.313809
   8 S :   -0.077198
   9 C :   -0.355326
  10 S :   -0.114939
  11 P :    0.611400
  12 S :   -0.299521
  13 O :   -0.347356
  14 C :    0.001168
  15 C :   -0.326130
  16 O :   -0.382437
  17 C :   -0.015908
  18 C :   -0.308516
  19 H :    0.121716
  20 H :    0.106251
  21 H :    0.142146
  22 H :    0.109024
  23 H :    0.104774
  24 H :    0.106093
  25 H :    0.113874
  26 H :    0.128515
  27 H :    0.111990
  28 H :    0.112836
  29 H :    0.186719
  30 H :    0.199036
  31 H :    0.114173
  32 H :    0.109518
  33 H :    0.136656
  34 H :    0.113916
  35 H :    0.119246
  36 H :    0.115351
  37 H :    0.112367
  38 H :    0.129393
  39 H :    0.127807
  40 H :    0.113676
Sum of atomic charges:   -0.0000000

LOEWDIN ATOMIC CHARGES
----------------------
   0 C :   -0.374905
   1 C :   -0.117740
   2 O :   -0.240794
   3 P :    0.570595
   4 S :   -0.316877
   5 O :   -0.242307
   6 C :   -0.118007
   7 C :   -0.368591
   8 S :    0.081320
   9 C :   -0.481271
  10 S :    0.081965
  11 P :    0.570633
  12 S :   -0.291739
  13 O :   -0.229595
  14 C :   -0.108943
  15 C :   -0.371820
  16 O :   -0.243656
  17 C :   -0.114145
  18 C :   -0.368614
  19 H :    0.119763
  20 H :    0.129019
  21 H :    0.120966
  22 H :    0.108889
  23 H :    0.118895
  24 H :    0.118699
  25 H :    0.111998
  26 H :    0.122100
  27 H :    0.122119
  28 H :    0.130768
  29 H :    0.130993
  30 H :    0.122332
  31 H :    0.124757
  32 H :    0.113645
  33 H :    0.125716
  34 H :    0.131470
  35 H :    0.115339
  36 H :    0.108348
  37 H :    0.122739
  38 H :    0.132148
  39 H :    0.122349
  40 H :    0.131440

  Mayer bond orders larger than 0.100000
B(  0-C ,  1-C ) :   1.1626 B(  0-C , 19-H ) :   0.9360 B(  0-C , 20-H ) :   0.9367
B(  0-C , 21-H ) :   0.9244 B(  1-C ,  2-O ) :   0.9045 B(  1-C , 22-H ) :   0.9188
B(  1-C , 23-H ) :   0.9336 B(  2-O ,  3-P ) :   1.0974 B(  3-P ,  4-S ) :   1.6357
B(  3-P ,  5-O ) :   1.0868 B(  3-P ,  8-S ) :   0.9787 B(  5-O ,  6-C ) :   0.9104
B(  6-C ,  7-C ) :   1.1621 B(  6-C , 24-H ) :   0.9352 B(  6-C , 25-H ) :   0.9160
B(  7-C , 26-H ) :   0.9355 B(  7-C , 27-H ) :   0.9463 B(  7-C , 28-H ) :   0.9380
B(  8-S ,  9-C ) :   0.9604 B(  9-C , 10-S ) :   1.0221 B(  9-C , 29-H ) :   0.8896
B(  9-C , 30-H ) :   0.8586 B( 10-S , 11-P ) :   0.9199 B( 10-S , 12-S ) :   0.1125
B( 11-P , 12-S ) :   1.6394 B( 11-P , 13-O ) :   1.1474 B( 11-P , 16-O ) :   1.0873
B( 13-O , 14-C ) :   0.8957 B( 14-C , 15-C ) :   1.1685 B( 14-C , 31-H ) :   0.9343
B( 14-C , 32-H ) :   0.9276 B( 15-C , 33-H ) :   0.9367 B( 15-C , 34-H ) :   0.9355
B( 15-C , 35-H ) :   0.9406 B( 16-O , 17-C ) :   0.9091 B( 17-C , 18-C ) :   1.1670
B( 17-C , 36-H ) :   0.9261 B( 17-C , 37-H ) :   0.9329 B( 18-C , 38-H ) :   0.9430
B( 18-C , 39-H ) :   0.9315 B( 18-C , 40-H ) :   0.9348

Dispersion correction           -0.064937290
FINAL SINGLE POINT ENERGY     -2929.514639994760

DIPOLE MOMENT
-------------

Method             : SCF
Type of density    : Electron Density
Multiplicity       :   1
Irrep              :   0
Energy             : -2929.6355102339598488 Eh
Relativity type    :
Basis              : AO
                                X                 Y                 Z
Electronic contribution:      7.409433248       2.193849449      -5.111503962
Nuclear contribution   :     -8.944366030      -2.933730446       6.187200572
                        -----------------------------------------
Total Dipole Moment    :     -1.534932782      -0.739880997       1.075696610
                        -----------------------------------------
Magnitude (a.u.)       :      2.015084547
Magnitude (Debye)      :      5.121937871

Rotational constants in cm-1:             0.012676             0.004622             0.004251
Rotational constants in MHz :           380.022235           138.574946           127.454901

                             ****ORCA TERMINATED NORMALLY****
TOTAL RUN TIME: 0 days 0 hours 0 minutes 21 seconds 44 msec
