                         Program Version 6.0.0  -   RELEASE  -
|  1> ! r2scan-3c def2/J RI DEFGRID2 scfconv6 printgap
|  2> %output
|  3>     printlevel normal
|  4> end
|  5> * xyz 0 1
|  6> C -0.7257267485 -1.2525928668 0.2414285525
|  7> C -1.4476560197 0.0022463636 -0.2416782298
|  8> C -0.721836857 1.2546639718 0.2418582887
|  9> C 0.7255566315 1.2525855575 -0.2418594795
| 10> C 1.4476392713 -0.0020539236 0.2416334228
| 11> C 0.7220343808 -1.2548091271 -0.2414186694
| 12> H -1.2415293434 -2.1429311093 -0.1244531937
| 13> H -0.7421684849 -1.2806981279 1.3335778463
| 14> H -1.4800128698 0.0025767014 -1.333715339
| 15> H -2.4766267016 0.0036165774 0.1240639132
| 16> H -1.2351483921 2.14667974 -0.1231219696
| 17> H -0.7375786384 1.2820787772 1.3339613939
| 18> H 0.7413204179 1.2801944235 -1.3338973213
| 19> H 1.2415198298 2.1430599676 0.1232808854
| 20> H 2.476560093 -0.0035958414 -0.1239922017
| 21> H 1.4798143298 -0.0016453915 1.3335692745
| 22> H 0.7386926024 -1.2832723309 -1.3335205663
| 23> H 1.2350301425 -2.1465397665 0.1246776518
| 24> *
| 25>
| 26>                          ****END OF INPUT****

CARTESIAN COORDINATES (ANGSTROEM)
---------------------------------
  C     -0.725727   -1.252593    0.241429
  C     -1.447656    0.002246   -0.241678
  C     -0.721837    1.254664    0.241858
  C      0.725557    1.252586   -0.241859
  C      1.447639   -0.002054    0.241633
  C      0.722034   -1.254809   -0.241419
  H     -1.241529   -2.142931   -0.124453
  H     -0.742168   -1.280698    1.333578
  H     -1.480013    0.002577   -1.333715
  H     -2.476627    0.003617    0.124064
  H     -1.235148    2.146680   -0.123122
  H     -0.737579    1.282079    1.333961
  H      0.741320    1.280194   -1.333897
  H      1.241520    2.143060    0.123281
  H      2.476560   -0.003596   -0.123992
  H      1.479814   -0.001645    1.333569
  H      0.738693   -1.283272   -1.333521
  H      1.235030   -2.146540    0.124678

 Total Charge           Charge          ....    0
 Multiplicity           Mult            ....    1
 Number of Electrons    NEL             ....   48
 Basis Dimension        Dim             ....  174

ORBITAL ENERGIES
----------------

  NO   OCC          E(Eh)            E(eV)
   0   2.0000     -10.018390      -272.6142
   1   2.0000     -10.018332      -272.6127
   2   2.0000     -10.018328      -272.6126
   3   2.0000     -10.018203      -272.6092
   4   2.0000     -10.018196      -272.6090
   5   2.0000     -10.018118      -272.6068
   6   2.0000      -0.794679       -21.6243
   7   2.0000      -0.703100       -19.1323
   8   2.0000      -0.703095       -19.1322
   9   2.0000      -0.567808       -15.4508
  10   2.0000      -0.567792       -15.4504
  11   2.0000      -0.516013       -14.0414
  12   2.0000      -0.445401       -12.1200
  13   2.0000      -0.404443       -11.0054
  14   2.0000      -0.402892       -10.9633
  15   2.0000      -0.402871       -10.9627
  16   2.0000      -0.342659        -9.3242
  17   2.0000      -0.342651        -9.3240
  18   2.0000      -0.337310        -9.1787
  19   2.0000      -0.307632        -8.3711
  20   2.0000      -0.307612        -8.3706
  21   2.0000      -0.285063        -7.7570
  22   2.0000      -0.261677        -7.1206
  23   2.0000      -0.261657        -7.1200
  24   0.0000       0.091824         2.4986
  25   0.0000       0.116831         3.1791
  26   0.0000       0.124848         3.3973
  27   0.0000       0.124851         3.3974
  28   0.0000       0.129540         3.5250

MULLIKEN ATOMIC CHARGES
-----------------------
   0 C :   -0.281720
   1 C :   -0.282018
   2 C :   -0.281723
   3 C :   -0.281628
   4 C :   -0.282085
   5 C :   -0.281737
   6 H :    0.143423
   7 H :    0.138356
   8 H :    0.138439
   9 H :    0.143432
  10 H :    0.143457
  11 H :    0.138340
  12 H :    0.138341
  13 H :    0.143442
  14 H :    0.143442
  15 H :    0.138456
  16 H :    0.138360
  17 H :    0.143422
Sum of atomic charges:   -0.0000000

LOEWDIN ATOMIC CHARGES
----------------------
   0 C :   -0.307259
   1 C :   -0.307275
   2 C :   -0.307255
   3 C :   -0.307246
   4 C :   -0.307260
   5 C :   -0.307252
   6 H :    0.153690
   7 H :    0.153577
   8 H :    0.153578
   9 H :    0.153697
  10 H :    0.153676
  11 H :    0.153571
  12 H :    0.153566
  13 H :    0.153682
  14 H :    0.153688
  15 H :    0.153571
  16 H :    0.153572
  17 H :    0.153682

  Mayer bond orders larger than 0.100000
B(  0-C ,  1-C ) :   0.9265 B(  0-C ,  5-C ) :   0.9266 B(  0-C ,  6-H ) :   0.9416
B(  0-C ,  7-H ) :   0.9889 B(  1-C ,  2-C ) :   0.9265 B(  1-C ,  8-H ) :   0.9890
B(  1-C ,  9-H ) :   0.9416 B(  2-C ,  3-C ) :   0.9265 B(  2-C , 10-H ) :   0.9416
B(  2-C , 11-H ) :   0.9890 B(  3-C ,  4-C ) :   0.9264 B(  3-C , 12-H ) :   0.9890
B(  3-C , 13-H ) :   0.9416 B(  4-C ,  5-C ) :   0.9265 B(  4-C , 14-H ) :   0.9416
B(  4-C , 15-H ) :   0.9890 B(  5-C , 16-H ) :   0.9889 B(  5-C , 17-H ) :   0.9416

Dispersion correction           -0.004802091
FINAL SINGLE POINT ENERGY      -235.792339025429

DIPOLE MOMENT
-------------

Method             : SCF
Type of density    : Electron Density
Multiplicity       :   1
Irrep              :   0
Energy             :  -235.7950076371037085 Eh
Relativity type    :
Basis              : AO
                                X                 Y                 Z
Electronic contribution:      0.000173067       0.000425874      -0.000403965
Nuclear contribution   :     -0.000119161      -0.000446923       0.000403761
                        -----------------------------------------
Total Dipole Moment    :      0.000053906      -0.000021048      -0.000000204
                        -----------------------------------------
Magnitude (a.u.)       :      0.000057870
Magnitude (Debye)      :      0.000147094

Rotational constants in cm-1:             0.145653             0.145649             0.083718
Rotational constants in MHz :          4366.555874          4366.455544          2509.806522

                             ****ORCA TERMINATED NORMALLY****
TOTAL RUN TIME: 0 days 0 hours 0 minutes 16 seconds 594 msec
