                         Program Version 6.0.0  -   RELEASE  -
|  1> ! r2scan-3c def2/J RI DEFGRID2 scfconv6 printgap
|  2> %output
|  3>     printlevel normal
|  4> end
|  5> %cpcm
|  6>     smd true
|  7>     smdsolvent "water"
|  8> end
|  9> * xyz 0 1
| 10> C -0.7257267485 -1.2525928668 0.2414285525
| 11> C -1.4476560197 0.0022463636 -0.2416782298
| 12> C -0.721836857 1.2546639718 0.2418582887
| 13> C 0.7255566315 1.2525855575 -0.2418594795
| 14> C 1.4476392713 -0.0020539236 0.2416334228
| 15> C 0.7220343808 -1.2548091271 -0.2414186694
| 16> H -1.2415293434 -2.1429311093 -0.1244531937
| 17> H -0.7421684849 -1.2806981279 1.3335778463
| 18> H -1.4800128698 0.0025767014 -1.333715339
| 19> H -2.4766267016 0.0036165774 0.1240639132
| 20> H -1.2351483921 2.14667974 -0.1231219696
| 21> H -0.7375786384 1.2820787772 1.3339613939
| 22> H 0.7413204179 1.2801944235 -1.3338973213
| 23> H 1.2415198298 2.1430599676 0.1232808854
| 24> H 2.476560093 -0.0035958414 -0.1239922017
| 25> H 1.4798143298 -0.0016453915 1.3335692745
| 26> H 0.7386926024 -1.2832723309 -1.3335205663
| 27> H 1.2350301425 -2.1465397665 0.1246776518
| 28> *
| 29>
| 30>                          ****END OF INPUT****

CARTESIAN COORDINATES (ANGSTROEM)
---------------------------------
  C     -0.725727   -1.252593    0.241429
  C     -1.447656    0.002246   -0.241678
  C     -0.721837    1.254664    0.241858
  C      0.725557    1.252586   -0.241859
  C      1.447639   -0.002054    0.241633
  C      0.722034   -1.254809   -0.241419
  H     -1.241529   -2.142931   -0.124453
  H     -0.742168   -1.280698    1.333578
  H     -1.480013    0.002577   -1.333715
  H     -2.476627    0.003617    0.124064
  H     -1.235148    2.146680   -0.123122
  H     -0.737579    1.282079    1.333961
  H      0.741320    1.280194   -1.333897
  H      1.241520    2.143060    0.123281
  H      2.476560   -0.003596   -0.123992
  H      1.479814   -0.001645    1.333569
  H      0.738693   -1.283272   -1.333521
  H      1.235030   -2.146540    0.124678

 Total Charge           Charge          ....    0
 Multiplicity           Mult            ....    1
 Number of Electrons    NEL             ....   48
 Basis Dimension        Dim             ....  174

ORBITAL ENERGIES
----------------

  NO   OCC          E(Eh)            E(eV)
   0   2.0000     -10.011637      -272.4305
   1   2.0000     -10.011580      -272.4289
   2   2.0000     -10.011575      -272.4288
   3   2.0000     -10.011450      -272.4254
   4   2.0000     -10.011444      -272.4253
   5   2.0000     -10.011365      -272.4231
   6   2.0000      -0.788075       -21.4446
   7   2.0000      -0.696700       -18.9582
   8   2.0000      -0.696687       -18.9578
   9   2.0000      -0.561557       -15.2807
  10   2.0000      -0.561537       -15.2802
  11   2.0000      -0.509238       -13.8571
  12   2.0000      -0.439157       -11.9501
  13   2.0000      -0.397905       -10.8276
  14   2.0000      -0.396040       -10.7768
  15   2.0000      -0.396007       -10.7759
  16   2.0000      -0.336260        -9.1501
  17   2.0000      -0.336253        -9.1499
  18   2.0000      -0.331134        -9.0106
  19   2.0000      -0.300696        -8.1823
  20   2.0000      -0.300670        -8.1817
  21   2.0000      -0.277641        -7.5550
  22   2.0000      -0.255243        -6.9455
  23   2.0000      -0.255219        -6.9449
  24   0.0000       0.098564         2.6821
  25   0.0000       0.123363         3.3569
  26   0.0000       0.131043         3.5659
  27   0.0000       0.131049         3.5660
  28   0.0000       0.134123         3.6497

MULLIKEN ATOMIC CHARGES
-----------------------
   0 C :   -0.296109
   1 C :   -0.296557
   2 C :   -0.296101
   3 C :   -0.296020
   4 C :   -0.296617
   5 C :   -0.296105
   6 H :    0.149478
   7 H :    0.146766
   8 H :    0.146855
   9 H :    0.149392
  10 H :    0.149506
  11 H :    0.146753
  12 H :    0.146750
  13 H :    0.149497
  14 H :    0.149402
  15 H :    0.146873
  16 H :    0.146765
  17 H :    0.149472
Sum of atomic charges:    0.0000000

LOEWDIN ATOMIC CHARGES
----------------------
   0 C :   -0.310647
   1 C :   -0.310677
   2 C :   -0.310641
   3 C :   -0.310632
   4 C :   -0.310662
   5 C :   -0.310637
   6 H :    0.154842
   7 H :    0.155829
   8 H :    0.155821
   9 H :    0.154824
  10 H :    0.154825
  11 H :    0.155823
  12 H :    0.155815
  13 H :    0.154834
  14 H :    0.154814
  15 H :    0.155817
  16 H :    0.155820
  17 H :    0.154833

  Mayer bond orders larger than 0.100000
B(  0-C ,  1-C ) :   0.9250 B(  0-C ,  5-C ) :   0.9248 B(  0-C ,  6-H ) :   0.9411
B(  0-C ,  7-H ) :   0.9876 B(  1-C ,  2-C ) :   0.9249 B(  1-C ,  8-H ) :   0.9877
B(  1-C ,  9-H ) :   0.9410 B(  2-C ,  3-C ) :   0.9246 B(  2-C , 10-H ) :   0.9410
B(  2-C , 11-H ) :   0.9877 B(  3-C ,  4-C ) :   0.9249 B(  3-C , 12-H ) :   0.9876
B(  3-C , 13-H ) :   0.9410 B(  4-C ,  5-C ) :   0.9250 B(  4-C , 14-H ) :   0.9410
B(  4-C , 15-H ) :   0.9877 B(  5-C , 16-H ) :   0.9876 B(  5-C , 17-H ) :   0.9411

Dispersion correction           -0.004802091
FINAL SINGLE POINT ENERGY      -235.790563813938

DIPOLE MOMENT
-------------

Method             : SCF
Type of density    : Electron Density
Multiplicity       :   1
Irrep              :   0
Energy             :  -235.7932324256129561 Eh
Relativity type    :
Basis              : AO
                                X                 Y                 Z
Electronic contribution:      0.000191422       0.000426960      -0.000363695
Nuclear contribution   :     -0.000119161      -0.000446923       0.000403761
                        -----------------------------------------
Total Dipole Moment    :      0.000072261      -0.000019963       0.000040065
                        -----------------------------------------
Magnitude (a.u.)       :      0.000085002
Magnitude (Debye)      :      0.000216059

Rotational constants in cm-1:             0.145653             0.145649             0.083718
Rotational constants in MHz :          4366.555874          4366.455544          2509.806522

                             ****ORCA TERMINATED NORMALLY****
TOTAL RUN TIME: 0 days 0 hours 0 minutes 19 seconds 507 msec
