                         Program Version 6.0.0  -   RELEASE  -
|  1> ! pbe def2-sv(p) def2/J RI DEFGRID1 loosescf d4 GCP(DFT/SV(P)) printgap
|  2> %output
|  3>     printlevel normal
|  4> end
|  5> * xyz 0 1
|  6> C 5.33449623 -0.3416126166 -2.2035967404
|  7> C 3.9369578029 -0.7999955431 -1.8398038409
|  8> O 3.4868320638 -0.0054433671 -0.7234820282
|  9> P 1.9505425531 0.0667797596 -0.3293979767
| 10> S 0.7707690151 0.5890119156 -1.8014385848
| 11> O 1.9191899011 1.0983982135 0.8533916297
| 12> C 2.7541936613 1.0097413018 2.0372501043
| 13> C 4.0105690027 1.8382960706 1.8703146277
| 14> S 1.6660952119 -1.8584906922 0.5389962832
| 15> C -0.0063147804 -1.6755511235 1.2082244324
| 16> S -1.3357236052 -1.8823680707 -0.0295906023
| 17> P -2.2104129069 0.0371350683 0.0443357178
| 18> S -1.3323995272 1.3957310575 1.160357689
| 19> O -3.7299928197 -0.219934464 0.4554615113
| 20> C -4.187350609 -0.2312037602 1.8166013446
| 21> C -3.655624993 -1.4197948561 2.5923087943
| 22> O -2.384672409 0.2965743308 -1.5025566189
| 23> C -2.5657981627 1.6087308766 -2.0676305469
| 24> C -3.8550448803 2.2573276497 -1.609804614
| 25> H 6.0018829823 -0.4748181435 -1.3572180246
| 26> H 5.6943116917 -0.9304392053 -3.0408073213
| 27> H 5.3217666707 0.7082056291 -2.4831123548
| 28> H 3.9255659087 -1.849833093 -1.5352343185
| 29> H 3.2379405843 -0.6597201301 -2.6710310216
| 30> H 2.1212127883 1.3987106292 2.8374475699
| 31> H 2.9942845697 -0.0405658624 2.2239580712
| 32> H 3.7494257471 2.8675139968 1.6395490046
| 33> H 4.5774918303 1.810539885 2.7956161291
| 34> H 4.6187775587 1.4411010816 1.0622902194
| 35> H -0.1080230384 -0.686859875 1.6654037198
| 36> H -0.110135438 -2.4716640396 1.9404462155
| 37> H -3.8797482974 0.7061984233 2.2915896558
| 38> H -5.2739230298 -0.2632391282 1.7260760688
| 39> H -4.1403452908 -1.4602154666 3.5624571208
| 40> H -3.8515148901 -2.3416684638 2.0506384877
| 41> H -2.5812956931 -1.3167233368 2.7380733966
| 42> H -1.6972853506 2.2203826877 -1.8011333346
| 43> H -2.5572044318 1.4267376966 -3.1432678837
| 44> H -4.6963213313 1.5993812334 -1.8118144779
| 45> H -3.8112680396 2.4572145984 -0.5394732419
| 46> H -3.9906373314 3.1954730741 -2.138776002
| 47> *
| 48>
| 49>                          ****END OF INPUT****

CARTESIAN COORDINATES (ANGSTROEM)
---------------------------------
  C      5.334496   -0.341613   -2.203597
  C      3.936958   -0.799996   -1.839804
  O      3.486832   -0.005443   -0.723482
  P      1.950543    0.066780   -0.329398
  S      0.770769    0.589012   -1.801439
  O      1.919190    1.098398    0.853392
  C      2.754194    1.009741    2.037250
  C      4.010569    1.838296    1.870315
  S      1.666095   -1.858491    0.538996
  C     -0.006315   -1.675551    1.208224
  S     -1.335724   -1.882368   -0.029591
  P     -2.210413    0.037135    0.044336
  S     -1.332400    1.395731    1.160358
  O     -3.729993   -0.219934    0.455462
  C     -4.187351   -0.231204    1.816601
  C     -3.655625   -1.419795    2.592309
  O     -2.384672    0.296574   -1.502557
  C     -2.565798    1.608731   -2.067631
  C     -3.855045    2.257328   -1.609805
  H      6.001883   -0.474818   -1.357218
  H      5.694312   -0.930439   -3.040807
  H      5.321767    0.708206   -2.483112
  H      3.925566   -1.849833   -1.535234
  H      3.237941   -0.659720   -2.671031
  H      2.121213    1.398711    2.837448
  H      2.994285   -0.040566    2.223958
  H      3.749426    2.867514    1.639549
  H      4.577492    1.810540    2.795616
  H      4.618778    1.441101    1.062290
  H     -0.108023   -0.686860    1.665404
  H     -0.110135   -2.471664    1.940446
  H     -3.879748    0.706198    2.291590
  H     -5.273923   -0.263239    1.726076
  H     -4.140345   -1.460215    3.562457
  H     -3.851515   -2.341668    2.050638
  H     -2.581296   -1.316723    2.738073
  H     -1.697285    2.220383   -1.801133
  H     -2.557204    1.426738   -3.143268
  H     -4.696321    1.599381   -1.811814
  H     -3.811268    2.457215   -0.539473
  H     -3.990637    3.195473   -2.138776

 Total Charge           Charge          ....    0
 Multiplicity           Mult            ....    1
 Number of Electrons    NEL             ....  202
 Basis Dimension        Dim             ....  334

ORBITAL ENERGIES
----------------

  NO   OCC          E(Eh)            E(eV)
   0   2.0000     -88.040208     -2395.6959
   1   2.0000     -88.035124     -2395.5575
   2   2.0000     -87.984445     -2394.1785
   3   2.0000     -87.974486     -2393.9075
   4   2.0000     -76.420553     -2079.5090
   5   2.0000     -76.419971     -2079.4931
   6   2.0000     -18.791265      -511.3363
   7   2.0000     -18.789663      -511.2927
   8   2.0000     -18.780483      -511.0429
   9   2.0000     -18.780150      -511.0339
  10   2.0000      -9.955549      -270.9042
  11   2.0000      -9.953573      -270.8505
  12   2.0000      -9.952925      -270.8329
  13   2.0000      -9.947353      -270.6812
  14   2.0000      -9.942500      -270.5492
  15   2.0000      -9.889104      -269.0962
  16   2.0000      -9.884466      -268.9700
  17   2.0000      -9.883472      -268.9429
  18   2.0000      -9.876391      -268.7503
  19   2.0000      -7.685404      -209.1305
  20   2.0000      -7.680552      -208.9984
  21   2.0000      -7.629280      -207.6033
  22   2.0000      -7.619531      -207.3380
  23   2.0000      -6.418229      -174.6489
  24   2.0000      -6.417331      -174.6245
  25   2.0000      -5.713039      -155.4597
  26   2.0000      -5.709801      -155.3716
  27   2.0000      -5.708438      -155.3345
  28   2.0000      -5.705270      -155.2483
  29   2.0000      -5.702718      -155.1788
  30   2.0000      -5.697215      -155.0291
  31   2.0000      -5.658002      -153.9621
  32   2.0000      -5.650465      -153.7570
  33   2.0000      -5.649064      -153.7188
  34   2.0000      -5.648552      -153.7049
  35   2.0000      -5.640082      -153.4744
  36   2.0000      -5.639638      -153.4623
  37   2.0000      -4.641267      -126.2953
  38   2.0000      -4.640158      -126.2651
  39   2.0000      -4.639506      -126.2474
  40   2.0000      -4.638969      -126.2328
  41   2.0000      -4.638298      -126.2145
  42   2.0000      -4.638056      -126.2079
  43   2.0000      -0.986792       -26.8520
  44   2.0000      -0.977935       -26.6110
  45   2.0000      -0.944667       -25.7057
  46   2.0000      -0.935443       -25.4547
  47   2.0000      -0.757432       -20.6108
  48   2.0000      -0.718218       -19.5437
  49   2.0000      -0.706835       -19.2340
  50   2.0000      -0.691871       -18.8268
  51   2.0000      -0.681981       -18.5577
  52   2.0000      -0.670314       -18.2402
  53   2.0000      -0.646208       -17.5842
  54   2.0000      -0.631439       -17.1823
  55   2.0000      -0.597585       -16.2611
  56   2.0000      -0.585011       -15.9189
  57   2.0000      -0.569530       -15.4977
  58   2.0000      -0.566693       -15.4205
  59   2.0000      -0.559906       -15.2358
  60   2.0000      -0.507069       -13.7980
  61   2.0000      -0.485395       -13.2083
  62   2.0000      -0.481361       -13.0985
  63   2.0000      -0.464632       -12.6433
  64   2.0000      -0.448944       -12.2164
  65   2.0000      -0.443670       -12.0729
  66   2.0000      -0.438856       -11.9419
  67   2.0000      -0.433567       -11.7980
  68   2.0000      -0.430594       -11.7171
  69   2.0000      -0.412866       -11.2346
  70   2.0000      -0.405384       -11.0311
  71   2.0000      -0.391221       -10.6457
  72   2.0000      -0.385447       -10.4885
  73   2.0000      -0.383874       -10.4457
  74   2.0000      -0.381864       -10.3910
  75   2.0000      -0.376616       -10.2482
  76   2.0000      -0.361624        -9.8403
  77   2.0000      -0.355149        -9.6641
  78   2.0000      -0.352295        -9.5864
  79   2.0000      -0.349102        -9.4995
  80   2.0000      -0.344619        -9.3775
  81   2.0000      -0.343048        -9.3348
  82   2.0000      -0.339703        -9.2438
  83   2.0000      -0.332955        -9.0602
  84   2.0000      -0.330702        -8.9988
  85   2.0000      -0.315697        -8.5906
  86   2.0000      -0.307643        -8.3714
  87   2.0000      -0.298171        -8.1136
  88   2.0000      -0.290671        -7.9096
  89   2.0000      -0.289069        -7.8660
  90   2.0000      -0.277312        -7.5460
  91   2.0000      -0.271903        -7.3989
  92   2.0000      -0.265129        -7.2145
  93   2.0000      -0.259660        -7.0657
  94   2.0000      -0.255256        -6.9459
  95   2.0000      -0.235505        -6.4084
  96   2.0000      -0.216046        -5.8789
  97   2.0000      -0.206590        -5.6216
  98   2.0000      -0.201719        -5.4890
  99   2.0000      -0.185784        -5.0554
 100   2.0000      -0.183447        -4.9918
 101   0.0000      -0.035822        -0.9748
 102   0.0000      -0.027231        -0.7410
 103   0.0000      -0.011224        -0.3054
 104   0.0000       0.006442         0.1753
 105   0.0000       0.028306         0.7702

MULLIKEN ATOMIC CHARGES
-----------------------
   0 C :   -0.283962
   1 C :   -0.013911
   2 O :   -0.385129
   3 P :    0.601771
   4 S :   -0.303002
   5 O :   -0.344019
   6 C :   -0.015062
   7 C :   -0.290417
   8 S :   -0.109373
   9 C :   -0.370812
  10 S :   -0.064886
  11 P :    0.616380
  12 S :   -0.320505
  13 O :   -0.371894
  14 C :    0.001709
  15 C :   -0.316705
  16 O :   -0.362588
  17 C :   -0.001711
  18 C :   -0.306351
  19 H :    0.115615
  20 H :    0.113506
  21 H :    0.123357
  22 H :    0.105328
  23 H :    0.108434
  24 H :    0.110611
  25 H :    0.098383
  26 H :    0.121518
  27 H :    0.108011
  28 H :    0.123300
  29 H :    0.196228
  30 H :    0.183326
  31 H :    0.105480
  32 H :    0.102907
  33 H :    0.110376
  34 H :    0.120821
  35 H :    0.118064
  36 H :    0.122481
  37 H :    0.105300
  38 H :    0.115498
  39 H :    0.122311
  40 H :    0.109609
Sum of atomic charges:   -0.0000000

LOEWDIN ATOMIC CHARGES
----------------------
   0 C :   -0.350953
   1 C :   -0.120635
   2 O :   -0.250799
   3 P :    0.562199
   4 S :   -0.301535
   5 O :   -0.224331
   6 C :   -0.115612
   7 C :   -0.359887
   8 S :    0.060807
   9 C :   -0.484019
  10 S :    0.090097
  11 P :    0.574558
  12 S :   -0.304976
  13 O :   -0.249337
  14 C :   -0.120095
  15 C :   -0.368499
  16 O :   -0.232198
  17 C :   -0.114365
  18 C :   -0.366468
  19 H :    0.125253
  20 H :    0.131663
  21 H :    0.130089
  22 H :    0.109394
  23 H :    0.110677
  24 H :    0.120891
  25 H :    0.102165
  26 H :    0.129608
  27 H :    0.128893
  28 H :    0.125811
  29 H :    0.119545
  30 H :    0.135137
  31 H :    0.106857
  32 H :    0.117830
  33 H :    0.129289
  34 H :    0.125849
  35 H :    0.117709
  36 H :    0.112699
  37 H :    0.120135
  38 H :    0.125642
  39 H :    0.121448
  40 H :    0.129465

  Mayer bond orders larger than 0.100000
B(  0-C ,  1-C ) :   1.1601 B(  0-C , 19-H ) :   0.9508 B(  0-C , 20-H ) :   0.9417
B(  0-C , 21-H ) :   0.9508 B(  1-C ,  2-O ) :   0.9060 B(  1-C , 22-H ) :   0.9291
B(  1-C , 23-H ) :   0.9075 B(  2-O ,  3-P ) :   1.0712 B(  3-P ,  4-S ) :   1.6780
B(  3-P ,  5-O ) :   1.1430 B(  3-P ,  8-S ) :   0.9506 B(  4-S ,  8-S ) :   0.1116
B(  5-O ,  6-C ) :   0.8931 B(  6-C ,  7-C ) :   1.1684 B(  6-C , 24-H ) :   0.9329
B(  6-C , 25-H ) :   0.9082 B(  7-C , 26-H ) :   0.9471 B(  7-C , 27-H ) :   0.9395
B(  7-C , 28-H ) :   0.9405 B(  8-S ,  9-C ) :   0.9954 B(  9-C , 10-S ) :   1.0087
B(  9-C , 29-H ) :   0.8479 B(  9-C , 30-H ) :   0.9090 B( 10-S , 11-P ) :   0.9573
B( 10-S , 12-S ) :   0.1165 B( 11-P , 12-S ) :   1.5762 B( 11-P , 13-O ) :   1.0866
B( 11-P , 16-O ) :   1.1493 B( 12-S , 29-H ) :   0.1115 B( 13-O , 14-C ) :   0.9248
B( 14-C , 15-C ) :   1.1639 B( 14-C , 31-H ) :   0.9136 B( 14-C , 32-H ) :   0.9342
B( 15-C , 33-H ) :   0.9381 B( 15-C , 34-H ) :   0.9426 B( 15-C , 35-H ) :   0.9388
B( 16-O , 17-C ) :   0.9015 B( 17-C , 18-C ) :   1.1628 B( 17-C , 36-H ) :   0.9167
B( 17-C , 37-H ) :   0.9361 B( 18-C , 38-H ) :   0.9449 B( 18-C , 39-H ) :   0.9359
B( 18-C , 40-H ) :   0.9385

Dispersion correction           -0.066228677
FINAL SINGLE POINT ENERGY     -2929.515891120094

DIPOLE MOMENT
-------------

Method             : SCF
Type of density    : Electron Density
Multiplicity       :   1
Irrep              :   0
Energy             : -2929.6342040744075348 Eh
Relativity type    :
Basis              : AO
                                X                 Y                 Z
Electronic contribution:     -4.935970458      -7.156657124      -5.072120982
Nuclear contribution   :      5.430518069       6.857466447       5.884918986
                        -----------------------------------------
Total Dipole Moment    :      0.494547612      -0.299190677       0.812798003
                        -----------------------------------------
Magnitude (a.u.)       :      0.997363021
Magnitude (Debye)      :      2.535095332

Rotational constants in cm-1:             0.012861             0.004941             0.004641
Rotational constants in MHz :           385.548222           148.140423           139.127930

                             ****ORCA TERMINATED NORMALLY****
TOTAL RUN TIME: 0 days 0 hours 0 minutes 20 seconds 653 msec
