                         Program Version 6.0.0  -   RELEASE  -
|  1> ! pbe def2-sv(p) def2/J RI DEFGRID1 loosescf d4 GCP(DFT/SV(P)) printgap
|  2> %output
|  3>     printlevel normal
|  4> end
|  5> * xyz 0 1
|  6> C 2.6427930659 -2.6994991993 0.9692098048
|  7> C 2.6602384448 -1.3376806345 1.6347181845
|  8> O 1.823680734 -0.393151676 0.9459211608
|  9> P 2.2350902802 0.2365155835 -0.4625641005
| 10> S 4.1201077112 0.741818995 -0.6081590527
| 11> O 1.145533891 1.3854840555 -0.5706383932
| 12> C 1.4878517872 2.7802348489 -0.4380873459
| 13> C 1.8477033284 3.1395457509 0.9878649394
| 14> S 1.5752798038 -1.0908060443 -1.9751130951
| 15> C -0.2290884201 -0.929899578 -1.8730475294
| 16> S -0.8998526066 -1.4391847393 -0.2654900277
| 17> P -2.2914798306 0.1445487665 0.0494242788
| 18> S -2.0553607591 1.7738517052 -1.0056203664
| 19> O -2.2704150259 0.3205241925 1.6310858338
| 20> C -1.1768299996 0.980831344 2.2956398199
| 21> C -1.4092935855 0.8734269989 3.7887332279
| 22> O -3.7221441423 -0.4710390646 -0.1784602952
| 23> C -4.1691581056 -1.701278289 0.4507786379
| 24> C -4.2970455829 -2.7963096709 -0.588853224
| 25> H 3.1275889098 -2.6469916632 -0.0049924726
| 26> H 3.1783694952 -3.4092915582 1.5913091135
| 27> H 1.6180262654 -3.0381649274 0.8332576691
| 28> H 3.6778650135 -0.9352623847 1.6700280582
| 29> H 2.2409402 -1.3774946257 2.6410860753
| 30> H 2.3228779076 2.9986517717 -1.1100547862
| 31> H 0.5891690301 3.2983965151 -0.7788627851
| 32> H 2.7301989005 2.5801031204 1.2955674133
| 33> H 2.0660884704 4.2013772943 1.0415645688
| 34> H 1.0274068668 2.9049035969 1.6601167942
| 35> H -0.6072878449 -1.5948001201 -2.6458719767
| 36> H -0.5229835443 0.1061475495 -2.0579687197
| 37> H -0.2395257574 0.500296712 1.9988794566
| 38> H -1.1623863751 2.0235491487 1.9629340605
| 39> H -2.3579123372 1.3337967184 4.0498679979
| 40> H -1.4296105434 -0.1700742531 4.08889284
| 41> H -0.6069061025 1.3825218105 4.3128053735
| 42> H -3.4652280074 -1.9786117737 1.2379281346
| 43> H -5.1358599053 -1.4551156039 0.8921449517
| 44> H -4.9317183348 -2.461232781 -1.4045019363
| 45> H -3.3204356837 -3.060826996 -0.9864359665
| 46> H -4.7404051811 -3.6728873893 -0.1273732765
| 47> *
| 48>
| 49>                          ****END OF INPUT****

CARTESIAN COORDINATES (ANGSTROEM)
---------------------------------
  C      2.642793   -2.699499    0.969210
  C      2.660238   -1.337681    1.634718
  O      1.823681   -0.393152    0.945921
  P      2.235090    0.236516   -0.462564
  S      4.120108    0.741819   -0.608159
  O      1.145534    1.385484   -0.570638
  C      1.487852    2.780235   -0.438087
  C      1.847703    3.139546    0.987865
  S      1.575280   -1.090806   -1.975113
  C     -0.229088   -0.929900   -1.873048
  S     -0.899853   -1.439185   -0.265490
  P     -2.291480    0.144549    0.049424
  S     -2.055361    1.773852   -1.005620
  O     -2.270415    0.320524    1.631086
  C     -1.176830    0.980831    2.295640
  C     -1.409294    0.873427    3.788733
  O     -3.722144   -0.471039   -0.178460
  C     -4.169158   -1.701278    0.450779
  C     -4.297046   -2.796310   -0.588853
  H      3.127589   -2.646992   -0.004992
  H      3.178369   -3.409292    1.591309
  H      1.618026   -3.038165    0.833258
  H      3.677865   -0.935262    1.670028
  H      2.240940   -1.377495    2.641086
  H      2.322878    2.998652   -1.110055
  H      0.589169    3.298397   -0.778863
  H      2.730199    2.580103    1.295567
  H      2.066088    4.201377    1.041565
  H      1.027407    2.904904    1.660117
  H     -0.607288   -1.594800   -2.645872
  H     -0.522984    0.106148   -2.057969
  H     -0.239526    0.500297    1.998879
  H     -1.162386    2.023549    1.962934
  H     -2.357912    1.333797    4.049868
  H     -1.429611   -0.170074    4.088893
  H     -0.606906    1.382522    4.312805
  H     -3.465228   -1.978612    1.237928
  H     -5.135860   -1.455116    0.892145
  H     -4.931718   -2.461233   -1.404502
  H     -3.320436   -3.060827   -0.986436
  H     -4.740405   -3.672887   -0.127373

 Total Charge           Charge          ....    0
 Multiplicity           Mult            ....    1
 Number of Electrons    NEL             ....  202
 Basis Dimension        Dim             ....  334

ORBITAL ENERGIES
----------------

  NO   OCC          E(Eh)            E(eV)
   0   2.0000     -88.046851     -2395.8766
   1   2.0000     -88.044405     -2395.8101
   2   2.0000     -87.989857     -2394.3257
   3   2.0000     -87.989799     -2394.3242
   4   2.0000     -76.428783     -2079.7329
   5   2.0000     -76.427211     -2079.6901
   6   2.0000     -18.796732      -511.4851
   7   2.0000     -18.794440      -511.4227
   8   2.0000     -18.791727      -511.3489
   9   2.0000     -18.789466      -511.2874
  10   2.0000      -9.961632      -271.0698
  11   2.0000      -9.956214      -270.9224
  12   2.0000      -9.953205      -270.8405
  13   2.0000      -9.952667      -270.8258
  14   2.0000      -9.948123      -270.7022
  15   2.0000      -9.891732      -269.1677
  16   2.0000      -9.890438      -269.1325
  17   2.0000      -9.884460      -268.9698
  18   2.0000      -9.881896      -268.9001
  19   2.0000      -7.691417      -209.2941
  20   2.0000      -7.689622      -209.2452
  21   2.0000      -7.634995      -207.7588
  22   2.0000      -7.634960      -207.7578
  23   2.0000      -6.426628      -174.8774
  24   2.0000      -6.424948      -174.8317
  25   2.0000      -5.719223      -155.6280
  26   2.0000      -5.717971      -155.5939
  27   2.0000      -5.715966      -155.5393
  28   2.0000      -5.713747      -155.4790
  29   2.0000      -5.708460      -155.3351
  30   2.0000      -5.706502      -155.2818
  31   2.0000      -5.664035      -154.1262
  32   2.0000      -5.663942      -154.1237
  33   2.0000      -5.655730      -153.9002
  34   2.0000      -5.655550      -153.8953
  35   2.0000      -5.655007      -153.8806
  36   2.0000      -5.654915      -153.8781
  37   2.0000      -4.649336      -126.5149
  38   2.0000      -4.648337      -126.4877
  39   2.0000      -4.647246      -126.4580
  40   2.0000      -4.646983      -126.4508
  41   2.0000      -4.646891      -126.4483
  42   2.0000      -4.645471      -126.4097
  43   2.0000      -0.991808       -26.9885
  44   2.0000      -0.985979       -26.8299
  45   2.0000      -0.948059       -25.7980
  46   2.0000      -0.944776       -25.7087
  47   2.0000      -0.763333       -20.7713
  48   2.0000      -0.724870       -19.7247
  49   2.0000      -0.711687       -19.3660
  50   2.0000      -0.694707       -18.9039
  51   2.0000      -0.686058       -18.6686
  52   2.0000      -0.678240       -18.4559
  53   2.0000      -0.655441       -17.8354
  54   2.0000      -0.639679       -17.4066
  55   2.0000      -0.600416       -16.3382
  56   2.0000      -0.589601       -16.0439
  57   2.0000      -0.576112       -15.6768
  58   2.0000      -0.569461       -15.4958
  59   2.0000      -0.565052       -15.3759
  60   2.0000      -0.514232       -13.9930
  61   2.0000      -0.492967       -13.4143
  62   2.0000      -0.483019       -13.1436
  63   2.0000      -0.472339       -12.8530
  64   2.0000      -0.458115       -12.4659
  65   2.0000      -0.450367       -12.2551
  66   2.0000      -0.442998       -12.0546
  67   2.0000      -0.440004       -11.9731
  68   2.0000      -0.430879       -11.7248
  69   2.0000      -0.418483       -11.3875
  70   2.0000      -0.412289       -11.2190
  71   2.0000      -0.400750       -10.9050
  72   2.0000      -0.394571       -10.7368
  73   2.0000      -0.390829       -10.6350
  74   2.0000      -0.386763       -10.5244
  75   2.0000      -0.368986       -10.0406
  76   2.0000      -0.367733       -10.0065
  77   2.0000      -0.357727        -9.7343
  78   2.0000      -0.356171        -9.6919
  79   2.0000      -0.354544        -9.6476
  80   2.0000      -0.350812        -9.5461
  81   2.0000      -0.347006        -9.4425
  82   2.0000      -0.344755        -9.3813
  83   2.0000      -0.342469        -9.3191
  84   2.0000      -0.328630        -8.9425
  85   2.0000      -0.323010        -8.7895
  86   2.0000      -0.316390        -8.6094
  87   2.0000      -0.305685        -8.3181
  88   2.0000      -0.301401        -8.2015
  89   2.0000      -0.295323        -8.0361
  90   2.0000      -0.285366        -7.7652
  91   2.0000      -0.278280        -7.5724
  92   2.0000      -0.271758        -7.3949
  93   2.0000      -0.264669        -7.2020
  94   2.0000      -0.262839        -7.1522
  95   2.0000      -0.230438        -6.2705
  96   2.0000      -0.222109        -6.0439
  97   2.0000      -0.214103        -5.8260
  98   2.0000      -0.208717        -5.6795
  99   2.0000      -0.203281        -5.5315
 100   2.0000      -0.201412        -5.4807
 101   0.0000      -0.043354        -1.1797
 102   0.0000      -0.031599        -0.8598
 103   0.0000      -0.024295        -0.6611
 104   0.0000       0.001291         0.0351
 105   0.0000       0.012439         0.3385

MULLIKEN ATOMIC CHARGES
-----------------------
   0 C :   -0.315652
   1 C :   -0.003851
   2 O :   -0.364373
   3 P :    0.624251
   4 S :   -0.319173
   5 O :   -0.374048
   6 C :    0.000245
   7 C :   -0.321924
   8 S :   -0.090255
   9 C :   -0.337516
  10 S :   -0.124807
  11 P :    0.603160
  12 S :   -0.299509
  13 O :   -0.381208
  14 C :   -0.061996
  15 C :   -0.279088
  16 O :   -0.355839
  17 C :   -0.012428
  18 C :   -0.285588
  19 H :    0.126595
  20 H :    0.111635
  21 H :    0.119709
  22 H :    0.110353
  23 H :    0.100234
  24 H :    0.111792
  25 H :    0.114045
  26 H :    0.121578
  27 H :    0.112489
  28 H :    0.116284
  29 H :    0.180918
  30 H :    0.204534
  31 H :    0.138458
  32 H :    0.120159
  33 H :    0.118686
  34 H :    0.111496
  35 H :    0.113108
  36 H :    0.104355
  37 H :    0.114319
  38 H :    0.121917
  39 H :    0.116807
  40 H :    0.110129
Sum of atomic charges:   -0.0000000

LOEWDIN ATOMIC CHARGES
----------------------
   0 C :   -0.369091
   1 C :   -0.121178
   2 O :   -0.240995
   3 P :    0.570599
   4 S :   -0.314698
   5 O :   -0.239421
   6 C :   -0.115836
   7 C :   -0.367392
   8 S :    0.091543
   9 C :   -0.479683
  10 S :    0.067344
  11 P :    0.567763
  12 S :   -0.287782
  13 O :   -0.249119
  14 C :   -0.128964
  15 C :   -0.350284
  16 O :   -0.238749
  17 C :   -0.112160
  18 C :   -0.359233
  19 H :    0.121005
  20 H :    0.129881
  21 H :    0.121540
  22 H :    0.109217
  23 H :    0.115603
  24 H :    0.111610
  25 H :    0.117709
  26 H :    0.120655
  27 H :    0.131894
  28 H :    0.120950
  29 H :    0.135899
  30 H :    0.124716
  31 H :    0.111499
  32 H :    0.111096
  33 H :    0.127860
  34 H :    0.124558
  35 H :    0.131204
  36 H :    0.106925
  37 H :    0.123312
  38 H :    0.130101
  39 H :    0.120144
  40 H :    0.129956

  Mayer bond orders larger than 0.100000
B(  0-C ,  1-C ) :   1.1645 B(  0-C , 19-H ) :   0.9376 B(  0-C , 20-H ) :   0.9384
B(  0-C , 21-H ) :   0.9424 B(  1-C ,  2-O ) :   0.9134 B(  1-C , 22-H ) :   0.9140
B(  1-C , 23-H ) :   0.9332 B(  2-O ,  3-P ) :   1.0667 B(  3-P ,  4-S ) :   1.6327
B(  3-P ,  5-O ) :   1.1130 B(  3-P ,  8-S ) :   0.9709 B(  5-O ,  6-C ) :   0.8972
B(  6-C ,  7-C ) :   1.1650 B(  6-C , 24-H ) :   0.9205 B(  6-C , 25-H ) :   0.9223
B(  7-C , 26-H ) :   0.9309 B(  7-C , 27-H ) :   0.9377 B(  7-C , 28-H ) :   0.9390
B(  8-S ,  9-C ) :   0.9967 B(  9-C , 10-S ) :   0.9980 B(  9-C , 29-H ) :   0.9096
B(  9-C , 30-H ) :   0.8492 B( 10-S , 11-P ) :   0.9454 B( 10-S , 12-S ) :   0.1180
B( 11-P , 12-S ) :   1.6454 B( 11-P , 13-O ) :   1.0933 B( 11-P , 16-O ) :   1.1438
B( 12-S , 30-H ) :   0.1094 B( 13-O , 14-C ) :   0.8971 B( 14-C , 15-C ) :   1.1566
B( 14-C , 31-H ) :   0.9028 B( 14-C , 32-H ) :   0.9102 B( 15-C , 33-H ) :   0.9499
B( 15-C , 34-H ) :   0.9510 B( 15-C , 35-H ) :   0.9425 B( 16-O , 17-C ) :   0.8878
B( 17-C , 18-C ) :   1.1637 B( 17-C , 36-H ) :   0.9181 B( 17-C , 37-H ) :   0.9338
B( 18-C , 38-H ) :   0.9461 B( 18-C , 39-H ) :   0.9398 B( 18-C , 40-H ) :   0.9400

Dispersion correction           -0.065747013
FINAL SINGLE POINT ENERGY     -2929.520719160508

DIPOLE MOMENT
-------------

Method             : SCF
Type of density    : Electron Density
Multiplicity       :   1
Irrep              :   0
Energy             : -2929.6414005357150927 Eh
Relativity type    :
Basis              : AO
                                X                 Y                 Z
Electronic contribution:      4.809637651       3.600242028     -18.065484661
Nuclear contribution   :     -5.648074470      -4.522176348      19.421632262
                        -----------------------------------------
Total Dipole Moment    :     -0.838436818      -0.921934320       1.356147601
                        -----------------------------------------
Magnitude (a.u.)       :      1.841758807
Magnitude (Debye)      :      4.681378853

Rotational constants in cm-1:             0.011214             0.005567             0.005127
Rotational constants in MHz :           336.197715           166.888567           153.691448

                             ****ORCA TERMINATED NORMALLY****
TOTAL RUN TIME: 0 days 0 hours 0 minutes 21 seconds 941 msec
