                         Program Version 6.0.1  -  RELEASE   -
|  1> ! pbe def2-sv(p) def2/J RI DEFGRID1 loosescf d4 GCP(DFT/SV(P)) printgap
|  2> %output
|  3>     printlevel normal
|  4> end
|  5> * xyz 0 1
|  6> C 5.0149499737 0.17897 -0.2797496327
|  7> C 4.6838688183 -1.0109369313 -1.1657423411
|  8> O 3.3613403776 -1.4990386699 -0.8611061225
|  9> C 2.3898187331 -1.3041468104 -1.730416002
| 10> O 2.5183733239 -0.7857293141 -2.815924185
| 11> C 1.065909739 -1.8309347915 -1.2001121869
| 12> C 0.1365033295 -0.6371496029 -0.9544927134
| 13> H -0.0206796443 -0.0896026013 -1.88792435
| 14> C 0.8201928819 0.2853660878 0.0369081017
| 15> O 1.7341981867 1.0058447991 -0.2928495911
| 16> O 0.3731400332 0.1372781528 1.2654330016
| 17> C 1.0424198921 0.8520224418 2.3237495586
| 18> C 2.1358578838 -0.0151501795 2.9238074244
| 19> S -1.4644500314 -1.2460527811 -0.3361824449
| 20> P -2.2716252093 0.5999835264 0.3349039291
| 21> S -1.4890980929 2.2228648109 -0.440168353
| 22> O -3.8332394832 0.4110753061 0.0420112229
| 23> C -4.3454179081 0.3882309718 -1.2949157925
| 24> O -2.2805052801 0.6073232684 1.9121741721
| 25> C -2.8484498809 -0.4795052116 2.6754049624
| 26> H 5.0590851956 -0.1247484866 0.7623999385
| 27> H 5.975208879 0.5899825139 -0.5725294445
| 28> H 4.2494679615 0.94450418 -0.3927674125
| 29> H 5.3557367139 -1.8497348807 -0.975960577
| 30> H 4.7119031671 -0.7331629974 -2.222786863
| 31> H 1.2329842059 -2.3809039675 -0.2744095525
| 32> H 0.6155736496 -2.4828952533 -1.9489948071
| 33> H 1.4486232572 1.7784050579 1.9079318143
| 34> H 0.2574618141 1.0795840823 3.045529734
| 35> H 2.6248013502 0.5307854208 3.7235240159
| 36> H 1.7125581096 -0.9335029473 3.3201883416
| 37> H 2.8710702802 -0.2628084098 2.1612804573
| 38> H -3.9582755695 1.2371935284 -1.8606033183
| 39> H -5.4254433291 0.4597674025 -1.1954627928
| 40> H -4.0648423257 -0.5448131676 -1.783349864
| 41> H -2.6270433251 -0.2440951096 3.7129725397
| 42> H -2.3830853147 -1.4202280995 2.3817852144
| 43> H -3.9225913088 -0.524810865 2.5092683383
| 44> *
| 45>
| 46>                          ****END OF INPUT****

CARTESIAN COORDINATES (ANGSTROEM)
---------------------------------
  C      5.014950    0.178970   -0.279750
  C      4.683869   -1.010937   -1.165742
  O      3.361340   -1.499039   -0.861106
  C      2.389819   -1.304147   -1.730416
  O      2.518373   -0.785729   -2.815924
  C      1.065910   -1.830935   -1.200112
  C      0.136503   -0.637150   -0.954493
  H     -0.020680   -0.089603   -1.887924
  C      0.820193    0.285366    0.036908
  O      1.734198    1.005845   -0.292850
  O      0.373140    0.137278    1.265433
  C      1.042420    0.852022    2.323750
  C      2.135858   -0.015150    2.923807
  S     -1.464450   -1.246053   -0.336182
  P     -2.271625    0.599984    0.334904
  S     -1.489098    2.222865   -0.440168
  O     -3.833239    0.411075    0.042011
  C     -4.345418    0.388231   -1.294916
  O     -2.280505    0.607323    1.912174
  C     -2.848450   -0.479505    2.675405
  H      5.059085   -0.124748    0.762400
  H      5.975209    0.589983   -0.572529
  H      4.249468    0.944504   -0.392767
  H      5.355737   -1.849735   -0.975961
  H      4.711903   -0.733163   -2.222787
  H      1.232984   -2.380904   -0.274410
  H      0.615574   -2.482895   -1.948995
  H      1.448623    1.778405    1.907932
  H      0.257462    1.079584    3.045530
  H      2.624801    0.530785    3.723524
  H      1.712558   -0.933503    3.320188
  H      2.871070   -0.262808    2.161280
  H     -3.958276    1.237194   -1.860603
  H     -5.425443    0.459767   -1.195463
  H     -4.064842   -0.544813   -1.783350
  H     -2.627043   -0.244095    3.712973
  H     -2.383085   -1.420228    2.381785
  H     -3.922591   -0.524811    2.509268

 Total Charge           Charge          ....    0
 Multiplicity           Mult            ....    1
 Number of Electrons    NEL             ....  174
 Basis Dimension        Dim             ....  316

ORBITAL ENERGIES
----------------

  NO   OCC          E(Eh)            E(eV)
   0   2.0000     -88.043598     -2395.7881
   1   2.0000     -87.985579     -2394.2093
   2   2.0000     -76.429264     -2079.7460
   3   2.0000     -18.810978      -511.8727
   4   2.0000     -18.801075      -511.6033
   5   2.0000     -18.799575      -511.5624
   6   2.0000     -18.796209      -511.4709
   7   2.0000     -18.738840      -509.9097
   8   2.0000     -18.732143      -509.7275
   9   2.0000     -10.017903      -272.6010
  10   2.0000     -10.009267      -272.3660
  11   2.0000      -9.955585      -270.9052
  12   2.0000      -9.948952      -270.7247
  13   2.0000      -9.947938      -270.6972
  14   2.0000      -9.947558      -270.6868
  15   2.0000      -9.941908      -270.5331
  16   2.0000      -9.916915      -269.8530
  17   2.0000      -9.890555      -269.1357
  18   2.0000      -9.879177      -268.8261
  19   2.0000      -7.688505      -209.2148
  20   2.0000      -7.630634      -207.6401
  21   2.0000      -6.426343      -174.8697
  22   2.0000      -5.716230      -155.5465
  23   2.0000      -5.713033      -155.4595
  24   2.0000      -5.705650      -155.2586
  25   2.0000      -5.659832      -154.0119
  26   2.0000      -5.650954      -153.7703
  27   2.0000      -5.650811      -153.7664
  28   2.0000      -4.649070      -126.5076
  29   2.0000      -4.648265      -126.4857
  30   2.0000      -4.646599      -126.4404
  31   2.0000      -1.018598       -27.7175
  32   2.0000      -1.006377       -27.3849
  33   2.0000      -0.992004       -26.9938
  34   2.0000      -0.947493       -25.7826
  35   2.0000      -0.921159       -25.0660
  36   2.0000      -0.911464       -24.8022
  37   2.0000      -0.770348       -20.9622
  38   2.0000      -0.713838       -19.4245
  39   2.0000      -0.704277       -19.1644
  40   2.0000      -0.695080       -18.9141
  41   2.0000      -0.661790       -18.0082
  42   2.0000      -0.641457       -17.4549
  43   2.0000      -0.624035       -16.9808
  44   2.0000      -0.616761       -16.7829
  45   2.0000      -0.593936       -16.1618
  46   2.0000      -0.565558       -15.3896
  47   2.0000      -0.520121       -14.1532
  48   2.0000      -0.504198       -13.7199
  49   2.0000      -0.498381       -13.5616
  50   2.0000      -0.480988       -13.0883
  51   2.0000      -0.476961       -12.9788
  52   2.0000      -0.462998       -12.5988
  53   2.0000      -0.448640       -12.2081
  54   2.0000      -0.441550       -12.0152
  55   2.0000      -0.435762       -11.8577
  56   2.0000      -0.429068       -11.6755
  57   2.0000      -0.420089       -11.4312
  58   2.0000      -0.411967       -11.2102
  59   2.0000      -0.409295       -11.1375
  60   2.0000      -0.406499       -11.0614
  61   2.0000      -0.399722       -10.8770
  62   2.0000      -0.393423       -10.7056
  63   2.0000      -0.383675       -10.4403
  64   2.0000      -0.377045       -10.2599
  65   2.0000      -0.366706        -9.9786
  66   2.0000      -0.355503        -9.6737
  67   2.0000      -0.353297        -9.6137
  68   2.0000      -0.349268        -9.5041
  69   2.0000      -0.336204        -9.1486
  70   2.0000      -0.333982        -9.0881
  71   2.0000      -0.330647        -8.9974
  72   2.0000      -0.322268        -8.7693
  73   2.0000      -0.319969        -8.7068
  74   2.0000      -0.309391        -8.4189
  75   2.0000      -0.303992        -8.2720
  76   2.0000      -0.299051        -8.1376
  77   2.0000      -0.288977        -7.8635
  78   2.0000      -0.277301        -7.5458
  79   2.0000      -0.265634        -7.2283
  80   2.0000      -0.263036        -7.1576
  81   2.0000      -0.254282        -6.9194
  82   2.0000      -0.238788        -6.4978
  83   2.0000      -0.221874        -6.0375
  84   2.0000      -0.215660        -5.8684
  85   2.0000      -0.203904        -5.5485
  86   2.0000      -0.202596        -5.5129
  87   0.0000      -0.042937        -1.1684
  88   0.0000      -0.031631        -0.8607
  89   0.0000      -0.021747        -0.5918
  90   0.0000       0.009761         0.2656
  91   0.0000       0.014537         0.3956

MULLIKEN ATOMIC CHARGES
-----------------------
   0 C :   -0.317735
   1 C :   -0.026349
   2 O :   -0.236594
   3 C :    0.101697
   4 O :   -0.190313
   5 C :   -0.068424
   6 C :   -0.261337
   7 H :    0.161500
   8 C :    0.169023
   9 O :   -0.182472
  10 O :   -0.225352
  11 C :   -0.014225
  12 C :   -0.315321
  13 S :   -0.105496
  14 P :    0.609518
  15 S :   -0.295527
  16 O :   -0.388713
  17 C :   -0.101617
  18 O :   -0.361381
  19 C :   -0.109395
  20 H :    0.117749
  21 H :    0.108812
  22 H :    0.149283
  23 H :    0.101333
  24 H :    0.116818
  25 H :    0.105724
  26 H :    0.127556
  27 H :    0.118746
  28 H :    0.107753
  29 H :    0.114739
  30 H :    0.110704
  31 H :    0.133446
  32 H :    0.121785
  33 H :    0.126494
  34 H :    0.116450
  35 H :    0.130634
  36 H :    0.122223
  37 H :    0.128264
Sum of atomic charges:   -0.0000000

LOEWDIN ATOMIC CHARGES
----------------------
   0 C :   -0.359122
   1 C :   -0.110676
   2 O :   -0.060011
   3 C :    0.028532
   4 O :   -0.159786
   5 C :   -0.240903
   6 C :   -0.258441
   7 H :    0.149205
   8 C :    0.003660
   9 O :   -0.144778
  10 O :   -0.056606
  11 C :   -0.108937
  12 C :   -0.356566
  13 S :    0.084867
  14 P :    0.571862
  15 S :   -0.289262
  16 O :   -0.260070
  17 C :   -0.215659
  18 O :   -0.235804
  19 C :   -0.210426
  20 H :    0.120046
  21 H :    0.128748
  22 H :    0.137781
  23 H :    0.115685
  24 H :    0.122634
  25 H :    0.132009
  26 H :    0.144730
  27 H :    0.124472
  28 H :    0.118204
  29 H :    0.131553
  30 H :    0.123613
  31 H :    0.128723
  32 H :    0.113891
  33 H :    0.123204
  34 H :    0.109612
  35 H :    0.125036
  36 H :    0.110757
  37 H :    0.118219

  Mayer bond orders larger than 0.100000
B(  0-C ,  1-C ) :   1.1775 B(  0-C , 20-H ) :   0.9424 B(  0-C , 21-H ) :   0.9416
B(  0-C , 22-H ) :   0.9332 B(  1-C ,  2-O ) :   0.9101 B(  1-C , 23-H ) :   0.9369
B(  1-C , 24-H ) :   0.9049 B(  2-O ,  3-C ) :   1.2172 B(  3-C ,  4-O ) :   2.0677
B(  3-C ,  5-C ) :   1.0009 B(  5-C ,  6-C ) :   1.0579 B(  5-C , 25-H ) :   0.8985
B(  5-C , 26-H ) :   0.8916 B(  6-C ,  7-H ) :   0.8650 B(  6-C ,  8-C ) :   0.9145
B(  6-C , 13-S ) :   0.9989 B(  8-C ,  9-O ) :   2.0004 B(  8-C , 10-O ) :   1.2364
B( 10-O , 11-C ) :   0.8987 B( 11-C , 12-C ) :   1.1725 B( 11-C , 27-H ) :   0.9117
B( 11-C , 28-H ) :   0.9312 B( 12-C , 29-H ) :   0.9448 B( 12-C , 30-H ) :   0.9473
B( 12-C , 31-H ) :   0.9362 B( 13-S , 14-P ) :   0.9582 B( 13-S , 15-S ) :   0.1145
B( 14-P , 15-S ) :   1.6444 B( 14-P , 16-O ) :   1.0724 B( 14-P , 18-O ) :   1.1211
B( 16-O , 17-C ) :   0.9298 B( 17-C , 32-H ) :   0.9362 B( 17-C , 33-H ) :   0.9584
B( 17-C , 34-H ) :   0.9466 B( 18-O , 19-C ) :   0.9151 B( 19-C , 35-H ) :   0.9590
B( 19-C , 36-H ) :   0.9370 B( 19-C , 37-H ) :   0.9481

Dispersion correction           -0.053090567
FINAL SINGLE POINT ENERGY     -1979.018067614325

DIPOLE MOMENT
-------------

Method             : SCF
Type of density    : Electron Density
Multiplicity       :   1
Irrep              :   0
Energy             : -1979.1485401268355417 Eh
Relativity type    :
Basis              : AO
                                X                 Y                 Z
Electronic contribution:    -15.444265399       3.864885590      -8.069192989
Nuclear contribution   :     15.007644195      -5.229921048       9.478573605
                        -----------------------------------------
Total Dipole Moment    :     -0.436621204      -1.365035458       1.409380616
                        -----------------------------------------
Magnitude (a.u.)       :      2.010053132
Magnitude (Debye)      :      5.109149032

Rotational constants in cm-1:             0.017180             0.006287             0.005598
Rotational constants in MHz :           515.053691           188.491755           167.837220

                             ****ORCA TERMINATED NORMALLY****
TOTAL RUN TIME: 0 days 0 hours 0 minutes 39 seconds 18 msec
