                         Program Version 6.0.1  -  RELEASE   -
|  1> ! pbe def2-sv(p) def2/J RI DEFGRID1 loosescf d4 GCP(DFT/SV(P)) printgap
|  2> %output
|  3>     printlevel normal
|  4> end
|  5> * xyz 0 1
|  6> C 4.2132558777 -2.5107569339 0.8494809822
|  7> C 2.7311060593 -2.2312701423 0.696493575
|  8> O 2.5646900415 -1.240956234 -0.3365638155
|  9> C 1.4188443972 -1.1649533249 -0.9640539674
| 10> O 0.4595488436 -1.8847754639 -0.7436372298
| 11> C 1.4027118187 -0.0757396388 -2.0126386665
| 12> C 0.2833320286 0.9238955292 -1.7272068809
| 13> H 0.2038462436 1.6305128161 -2.5599933941
| 14> C 0.4710621913 1.737488064 -0.4549139299
| 15> O -0.4682292738 2.2086062608 0.1513473408
| 16> O 1.7310803046 1.8748408003 -0.1365388035
| 17> C 2.0560501207 2.6253099768 1.0520384834
| 18> C 2.0079754396 4.1213562843 0.7906011354
| 19> S -1.3780351502 0.1670823945 -1.6665756264
| 20> P -1.580633749 -0.5000960826 0.3496920449
| 21> S -0.2523386663 -0.3284989641 1.7806813676
| 22> O -2.9924005119 0.1666211796 0.7451140272
| 23> C -3.1916790946 1.5354509061 1.0923619739
| 24> O -2.0698011568 -1.9996994894 0.2597886702
| 25> C -3.0148950366 -2.4702591726 -0.716493301
| 26> H 4.6185278677 -2.9039887833 -0.0782555978
| 27> H 4.73758051 -1.5953077638 1.1045904033
| 28> H 4.3576350154 -3.2385375728 1.6407866379
| 29> H 2.2936298352 -1.8277006702 1.6154222635
| 30> H 2.1678214152 -3.1258344109 0.4123659634
| 31> H 1.2127128335 -0.5399054898 -2.9815469437
| 32> H 2.3644916062 0.4351784112 -2.0137274363
| 33> H 1.3564903076 2.335203928 1.8416328856
| 34> H 3.0629721053 2.2933480287 1.3031875496
| 35> H 2.6692631784 4.379213472 -0.0319940721
| 36> H 0.9938808421 4.4276710182 0.5448120132
| 37> H 2.3260328554 4.6469367397 1.6846950933
| 38> H -3.0963965957 2.1644122602 0.2079158898
| 39> H -2.4575869583 1.8479004979 1.835471388
| 40> H -4.1981407565 1.586147391 1.5005096156
| 41> H -2.559378229 -2.4475386445 -1.7062422782
| 42> H -3.9139797171 -1.8561602371 -0.6982061383
| 43> H -3.2373715039 -3.4923339268 -0.4211084072
| 44> *
| 45>
| 46>                          ****END OF INPUT****

CARTESIAN COORDINATES (ANGSTROEM)
---------------------------------
  C      4.213256   -2.510757    0.849481
  C      2.731106   -2.231270    0.696494
  O      2.564690   -1.240956   -0.336564
  C      1.418844   -1.164953   -0.964054
  O      0.459549   -1.884775   -0.743637
  C      1.402712   -0.075740   -2.012639
  C      0.283332    0.923896   -1.727207
  H      0.203846    1.630513   -2.559993
  C      0.471062    1.737488   -0.454914
  O     -0.468229    2.208606    0.151347
  O      1.731080    1.874841   -0.136539
  C      2.056050    2.625310    1.052038
  C      2.007975    4.121356    0.790601
  S     -1.378035    0.167082   -1.666576
  P     -1.580634   -0.500096    0.349692
  S     -0.252339   -0.328499    1.780681
  O     -2.992401    0.166621    0.745114
  C     -3.191679    1.535451    1.092362
  O     -2.069801   -1.999699    0.259789
  C     -3.014895   -2.470259   -0.716493
  H      4.618528   -2.903989   -0.078256
  H      4.737581   -1.595308    1.104590
  H      4.357635   -3.238538    1.640787
  H      2.293630   -1.827701    1.615422
  H      2.167821   -3.125834    0.412366
  H      1.212713   -0.539905   -2.981547
  H      2.364492    0.435178   -2.013727
  H      1.356490    2.335204    1.841633
  H      3.062972    2.293348    1.303188
  H      2.669263    4.379213   -0.031994
  H      0.993881    4.427671    0.544812
  H      2.326033    4.646937    1.684695
  H     -3.096397    2.164412    0.207916
  H     -2.457587    1.847900    1.835471
  H     -4.198141    1.586147    1.500510
  H     -2.559378   -2.447539   -1.706242
  H     -3.913980   -1.856160   -0.698206
  H     -3.237372   -3.492334   -0.421108

 Total Charge           Charge          ....    0
 Multiplicity           Mult            ....    1
 Number of Electrons    NEL             ....  174
 Basis Dimension        Dim             ....  316

ORBITAL ENERGIES
----------------

  NO   OCC          E(Eh)            E(eV)
   0   2.0000     -88.030365     -2395.4280
   1   2.0000     -87.968367     -2393.7410
   2   2.0000     -76.415201     -2079.3633
   3   2.0000     -18.813338      -511.9369
   4   2.0000     -18.801932      -511.6266
   5   2.0000     -18.773133      -510.8429
   6   2.0000     -18.770154      -510.7619
   7   2.0000     -18.741967      -509.9948
   8   2.0000     -18.732372      -509.7338
   9   2.0000     -10.019430      -272.6425
  10   2.0000     -10.007317      -272.3129
  11   2.0000      -9.953388      -270.8455
  12   2.0000      -9.950021      -270.7538
  13   2.0000      -9.938934      -270.4521
  14   2.0000      -9.935235      -270.3515
  15   2.0000      -9.922401      -270.0023
  16   2.0000      -9.910575      -269.6804
  17   2.0000      -9.889090      -269.0958
  18   2.0000      -9.885303      -268.9928
  19   2.0000      -7.675249      -208.8541
  20   2.0000      -7.613585      -207.1762
  21   2.0000      -6.410638      -174.4423
  22   2.0000      -5.703580      -155.2023
  23   2.0000      -5.699989      -155.1046
  24   2.0000      -5.691516      -154.8740
  25   2.0000      -5.642947      -153.5524
  26   2.0000      -5.634136      -153.3126
  27   2.0000      -5.633212      -153.2875
  28   2.0000      -4.633338      -126.0795
  29   2.0000      -4.632798      -126.0648
  30   2.0000      -4.631082      -126.0182
  31   2.0000      -1.021401       -27.7937
  32   2.0000      -1.008615       -27.4458
  33   2.0000      -0.966900       -26.3107
  34   2.0000      -0.923971       -25.1425
  35   2.0000      -0.920144       -25.0384
  36   2.0000      -0.910486       -24.7756
  37   2.0000      -0.763406       -20.7733
  38   2.0000      -0.709372       -19.3030
  39   2.0000      -0.705987       -19.2109
  40   2.0000      -0.685058       -18.6414
  41   2.0000      -0.654033       -17.7971
  42   2.0000      -0.623051       -16.9541
  43   2.0000      -0.616366       -16.7722
  44   2.0000      -0.606490       -16.5034
  45   2.0000      -0.589903       -16.0521
  46   2.0000      -0.564878       -15.3711
  47   2.0000      -0.508674       -13.8417
  48   2.0000      -0.503967       -13.7136
  49   2.0000      -0.496432       -13.5086
  50   2.0000      -0.479891       -13.0585
  51   2.0000      -0.458879       -12.4867
  52   2.0000      -0.451898       -12.2968
  53   2.0000      -0.445430       -12.1208
  54   2.0000      -0.433696       -11.8015
  55   2.0000      -0.425667       -11.5830
  56   2.0000      -0.417456       -11.3596
  57   2.0000      -0.413318       -11.2469
  58   2.0000      -0.407769       -11.0960
  59   2.0000      -0.403831       -10.9888
  60   2.0000      -0.398487       -10.8434
  61   2.0000      -0.391416       -10.6510
  62   2.0000      -0.383896       -10.4463
  63   2.0000      -0.376952       -10.2574
  64   2.0000      -0.373379       -10.1602
  65   2.0000      -0.367519       -10.0007
  66   2.0000      -0.356456        -9.6997
  67   2.0000      -0.353798        -9.6273
  68   2.0000      -0.347793        -9.4639
  69   2.0000      -0.340141        -9.2557
  70   2.0000      -0.332050        -9.0356
  71   2.0000      -0.327421        -8.9096
  72   2.0000      -0.314628        -8.5615
  73   2.0000      -0.304602        -8.2886
  74   2.0000      -0.301233        -8.1970
  75   2.0000      -0.293690        -7.9917
  76   2.0000      -0.282326        -7.6825
  77   2.0000      -0.280673        -7.6375
  78   2.0000      -0.269500        -7.3335
  79   2.0000      -0.258246        -7.0272
  80   2.0000      -0.251218        -6.8360
  81   2.0000      -0.245220        -6.6728
  82   2.0000      -0.234704        -6.3866
  83   2.0000      -0.225178        -6.1274
  84   2.0000      -0.195416        -5.3175
  85   2.0000      -0.188108        -5.1187
  86   2.0000      -0.178096        -4.8462
  87   0.0000      -0.044190        -1.2025
  88   0.0000      -0.034951        -0.9511
  89   0.0000      -0.025806        -0.7022
  90   0.0000       0.005259         0.1431
  91   0.0000       0.036560         0.9948

MULLIKEN ATOMIC CHARGES
-----------------------
   0 C :   -0.275936
   1 C :   -0.036192
   2 O :   -0.214847
   3 C :    0.088061
   4 O :   -0.208246
   5 C :    0.016184
   6 C :   -0.331893
   7 H :    0.154501
   8 C :    0.187968
   9 O :   -0.183860
  10 O :   -0.217449
  11 C :   -0.010184
  12 C :   -0.310570
  13 S :   -0.094844
  14 P :    0.631376
  15 S :   -0.333573
  16 O :   -0.391966
  17 C :   -0.086745
  18 O :   -0.354190
  19 C :   -0.107283
  20 H :    0.110020
  21 H :    0.110946
  22 H :    0.112557
  23 H :    0.122970
  24 H :    0.111518
  25 H :    0.112973
  26 H :    0.108359
  27 H :    0.125286
  28 H :    0.102923
  29 H :    0.110772
  30 H :    0.130110
  31 H :    0.116018
  32 H :    0.110843
  33 H :    0.115100
  34 H :    0.110654
  35 H :    0.125191
  36 H :    0.116305
  37 H :    0.127143
Sum of atomic charges:    0.0000000

LOEWDIN ATOMIC CHARGES
----------------------
   0 C :   -0.351339
   1 C :   -0.111053
   2 O :   -0.043141
   3 C :    0.021673
   4 O :   -0.176477
   5 C :   -0.251216
   6 C :   -0.258963
   7 H :    0.153270
   8 C :   -0.000403
   9 O :   -0.161216
  10 O :   -0.037068
  11 C :   -0.107372
  12 C :   -0.358246
  13 S :    0.104115
  14 P :    0.595018
  15 S :   -0.305258
  16 O :   -0.263881
  17 C :   -0.212944
  18 O :   -0.231976
  19 C :   -0.212301
  20 H :    0.123939
  21 H :    0.124552
  22 H :    0.130989
  23 H :    0.118023
  24 H :    0.119765
  25 H :    0.144555
  26 H :    0.138270
  27 H :    0.124293
  28 H :    0.119058
  29 H :    0.123301
  30 H :    0.131076
  31 H :    0.132637
  32 H :    0.107823
  33 H :    0.110030
  34 H :    0.113674
  35 H :    0.111461
  36 H :    0.110683
  37 H :    0.124648

  Mayer bond orders larger than 0.100000
B(  0-C ,  1-C ) :   1.1513 B(  0-C , 20-H ) :   0.9516 B(  0-C , 21-H ) :   0.9488
B(  0-C , 22-H ) :   0.9450 B(  1-C ,  2-O ) :   0.8965 B(  1-C , 23-H ) :   0.9242
B(  1-C , 24-H ) :   0.9208 B(  2-O ,  3-C ) :   1.2680 B(  3-C ,  4-O ) :   1.9663
B(  3-C ,  5-C ) :   1.0060 B(  5-C ,  6-C ) :   1.0299 B(  5-C , 25-H ) :   0.8800
B(  5-C , 26-H ) :   0.8805 B(  6-C ,  7-H ) :   0.8707 B(  6-C ,  8-C ) :   0.8870
B(  6-C , 13-S ) :   1.0490 B(  8-C ,  9-O ) :   2.0106 B(  8-C , 10-O ) :   1.2730
B( 10-O , 11-C ) :   0.9015 B( 11-C , 12-C ) :   1.1700 B( 11-C , 27-H ) :   0.9115
B( 11-C , 28-H ) :   0.9379 B( 12-C , 29-H ) :   0.9475 B( 12-C , 30-H ) :   0.9435
B( 12-C , 31-H ) :   0.9440 B( 13-S , 14-P ) :   0.9185 B( 13-S , 15-S ) :   0.1198
B( 14-P , 15-S ) :   1.5688 B( 14-P , 16-O ) :   1.0738 B( 14-P , 18-O ) :   1.1338
B( 16-O , 17-C ) :   0.9378 B( 17-C , 32-H ) :   0.9477 B( 17-C , 33-H ) :   0.9407
B( 17-C , 34-H ) :   0.9561 B( 18-O , 19-C ) :   0.9277 B( 19-C , 35-H ) :   0.9402
B( 19-C , 36-H ) :   0.9443 B( 19-C , 37-H ) :   0.9602

Dispersion correction           -0.055716213
FINAL SINGLE POINT ENERGY     -1979.003043577905

DIPOLE MOMENT
-------------

Method             : SCF
Type of density    : Electron Density
Multiplicity       :   1
Irrep              :   0
Energy             : -1979.1312466587028212 Eh
Relativity type    :
Basis              : AO
                                X                 Y                 Z
Electronic contribution:    -12.645992741      -4.317660493      -3.480597936
Nuclear contribution   :     13.552339689       4.865981770       2.685792909
                        -----------------------------------------
Total Dipole Moment    :      0.906346948       0.548321277      -0.794805027
                        -----------------------------------------
Magnitude (a.u.)       :      1.324324750
Magnitude (Debye)      :      3.366166002

Rotational constants in cm-1:             0.011783             0.009472             0.007033
Rotational constants in MHz :           353.240919           283.971903           210.842910

                             ****ORCA TERMINATED NORMALLY****
TOTAL RUN TIME: 0 days 0 hours 0 minutes 41 seconds 725 msec
