                         Program Version 6.0.0  -   RELEASE  -
|  1> ! pbe def2-sv(p) def2/J RI DEFGRID1 loosescf d4 GCP(DFT/SV(P)) printgap
|  2> %output
|  3>     printlevel normal
|  4> end
|  5> * xyz 0 1
|  6> C 4.4181709385 -0.6470383702 -2.1459746909
|  7> C 4.5532775933 0.0577929833 -0.8120331936
|  8> O 3.505275898 -0.3053693696 0.1037617901
|  9> P 1.9907100504 0.1394932604 -0.1068074521
| 10> S 1.8238023053 1.9420943481 -0.8710204397
| 11> O 1.3981234237 -0.1564459205 1.3263966778
| 12> C 1.9328627068 0.3528665647 2.5660151044
| 13> C 1.5423708452 1.7993327378 2.7918758445
| 14> S 1.1154949942 -1.4232816097 -1.2202591004
| 15> C -0.0412471398 -0.4700805311 -2.2479257694
| 16> S -1.79502574 -0.7320724495 -1.8580206714
| 17> P -1.8222028638 -0.3492094885 0.249076543
| 18> S -1.1907355348 -1.7714395443 1.4338681713
| 19> O -3.3425247708 0.0707170967 0.4472862756
| 20> C -4.444048042 -0.8242650144 0.1900497131
| 21> C -4.8231384453 -1.6095268614 1.4301158839
| 22> O -1.0685242065 1.022722171 0.4493194049
| 23> C -1.5790862662 2.2730177756 -0.0908212509
| 24> C -2.3282508368 3.0467178924 0.9727468522
| 25> H 4.3203730744 -1.7196376717 -1.9983497569
| 26> H 3.5370078934 -0.2834543965 -2.6725453501
| 27> H 5.2976578017 -0.4434103391 -2.7482267004
| 28> H 4.5323094957 1.1441196225 -0.947068931
| 29> H 5.4664717408 -0.2347652063 -0.2920632978
| 30> H 1.4885517657 -0.3022215041 3.3183815709
| 31> H 3.0182199428 0.2258459849 2.5583773244
| 32> H 1.8836889935 2.1144842923 3.7728173173
| 33> H 1.9908354947 2.4391800087 2.0339698134
| 34> H 0.4608517971 1.8979559958 2.7360846596
| 35> H 0.06918529 -0.8128288592 -3.2740134331
| 36> H 0.208541192 0.5913735508 -2.1594564618
| 37> H -5.2562420872 -0.1661244724 -0.1251571779
| 38> H -4.1776522218 -1.4920296042 -0.6338148556
| 39> H -3.999622245 -2.24946948 1.7389142225
| 40> H -5.0608789794 -0.9316840263 2.2452244192
| 41> H -5.6891048919 -2.2254910052 1.2103327511
| 42> H -0.6899379405 2.8131766628 -0.4243878306
| 43> H -2.2220475733 2.0531744938 -0.9466255201
| 44> H -3.1871665587 2.4776507702 1.3182986736
| 45> H -1.6770156346 3.2508119962 1.8184467845
| 46> H -2.6649068721 3.9874641029 0.5484843243
| 47> *
| 48>
| 49>                          ****END OF INPUT****

CARTESIAN COORDINATES (ANGSTROEM)
---------------------------------
  C      4.418171   -0.647038   -2.145975
  C      4.553278    0.057793   -0.812033
  O      3.505276   -0.305369    0.103762
  P      1.990710    0.139493   -0.106807
  S      1.823802    1.942094   -0.871020
  O      1.398123   -0.156446    1.326397
  C      1.932863    0.352867    2.566015
  C      1.542371    1.799333    2.791876
  S      1.115495   -1.423282   -1.220259
  C     -0.041247   -0.470081   -2.247926
  S     -1.795026   -0.732072   -1.858021
  P     -1.822203   -0.349209    0.249077
  S     -1.190736   -1.771440    1.433868
  O     -3.342525    0.070717    0.447286
  C     -4.444048   -0.824265    0.190050
  C     -4.823138   -1.609527    1.430116
  O     -1.068524    1.022722    0.449319
  C     -1.579086    2.273018   -0.090821
  C     -2.328251    3.046718    0.972747
  H      4.320373   -1.719638   -1.998350
  H      3.537008   -0.283454   -2.672545
  H      5.297658   -0.443410   -2.748227
  H      4.532309    1.144120   -0.947069
  H      5.466472   -0.234765   -0.292063
  H      1.488552   -0.302222    3.318382
  H      3.018220    0.225846    2.558377
  H      1.883689    2.114484    3.772817
  H      1.990835    2.439180    2.033970
  H      0.460852    1.897956    2.736085
  H      0.069185   -0.812829   -3.274013
  H      0.208541    0.591374   -2.159456
  H     -5.256242   -0.166124   -0.125157
  H     -4.177652   -1.492030   -0.633815
  H     -3.999622   -2.249469    1.738914
  H     -5.060879   -0.931684    2.245224
  H     -5.689105   -2.225491    1.210333
  H     -0.689938    2.813177   -0.424388
  H     -2.222048    2.053174   -0.946626
  H     -3.187167    2.477651    1.318299
  H     -1.677016    3.250812    1.818447
  H     -2.664907    3.987464    0.548484

 Total Charge           Charge          ....    0
 Multiplicity           Mult            ....    1
 Number of Electrons    NEL             ....  202
 Basis Dimension        Dim             ....  334

ORBITAL ENERGIES
----------------

  NO   OCC          E(Eh)            E(eV)
   0   2.0000     -88.042239     -2395.7511
   1   2.0000     -88.035982     -2395.5809
   2   2.0000     -87.990479     -2394.3427
   3   2.0000     -87.974853     -2393.9175
   4   2.0000     -76.425971     -2079.6564
   5   2.0000     -76.421246     -2079.5278
   6   2.0000     -18.792990      -511.3833
   7   2.0000     -18.789704      -511.2938
   8   2.0000     -18.789480      -511.2878
   9   2.0000     -18.781671      -511.0752
  10   2.0000      -9.956310      -270.9250
  11   2.0000      -9.954834      -270.8848
  12   2.0000      -9.951683      -270.7991
  13   2.0000      -9.947113      -270.6747
  14   2.0000      -9.945366      -270.6272
  15   2.0000      -9.883600      -268.9464
  16   2.0000      -9.881366      -268.8856
  17   2.0000      -9.878752      -268.8145
  18   2.0000      -9.876172      -268.7443
  19   2.0000      -7.687179      -209.1788
  20   2.0000      -7.681213      -209.0164
  21   2.0000      -7.635231      -207.7652
  22   2.0000      -7.620058      -207.3523
  23   2.0000      -6.423349      -174.7882
  24   2.0000      -6.418458      -174.6551
  25   2.0000      -5.715060      -155.5147
  26   2.0000      -5.711803      -155.4261
  27   2.0000      -5.709090      -155.3522
  28   2.0000      -5.705631      -155.2581
  29   2.0000      -5.703981      -155.2132
  30   2.0000      -5.698287      -155.0583
  31   2.0000      -5.663819      -154.1203
  32   2.0000      -5.656250      -153.9144
  33   2.0000      -5.655272      -153.8878
  34   2.0000      -5.649217      -153.7230
  35   2.0000      -5.640494      -153.4856
  36   2.0000      -5.640129      -153.4757
  37   2.0000      -4.646044      -126.4253
  38   2.0000      -4.644753      -126.3902
  39   2.0000      -4.644078      -126.3718
  40   2.0000      -4.641600      -126.3044
  41   2.0000      -4.640467      -126.2735
  42   2.0000      -4.638211      -126.2121
  43   2.0000      -0.986263       -26.8376
  44   2.0000      -0.984265       -26.7832
  45   2.0000      -0.942070       -25.6350
  46   2.0000      -0.939184       -25.5565
  47   2.0000      -0.759227       -20.6596
  48   2.0000      -0.716958       -19.5094
  49   2.0000      -0.706082       -19.2135
  50   2.0000      -0.687543       -18.7090
  51   2.0000      -0.685137       -18.6435
  52   2.0000      -0.671164       -18.2633
  53   2.0000      -0.647507       -17.6196
  54   2.0000      -0.637207       -17.3393
  55   2.0000      -0.595936       -16.2162
  56   2.0000      -0.580900       -15.8071
  57   2.0000      -0.574044       -15.6205
  58   2.0000      -0.568787       -15.4775
  59   2.0000      -0.562233       -15.2991
  60   2.0000      -0.502518       -13.6742
  61   2.0000      -0.495122       -13.4730
  62   2.0000      -0.477055       -12.9813
  63   2.0000      -0.466288       -12.6883
  64   2.0000      -0.452102       -12.3023
  65   2.0000      -0.448176       -12.1955
  66   2.0000      -0.433570       -11.7980
  67   2.0000      -0.430824       -11.7233
  68   2.0000      -0.421882       -11.4800
  69   2.0000      -0.415410       -11.3039
  70   2.0000      -0.404009       -10.9936
  71   2.0000      -0.401974       -10.9383
  72   2.0000      -0.394571       -10.7368
  73   2.0000      -0.384248       -10.4559
  74   2.0000      -0.381633       -10.3848
  75   2.0000      -0.369309       -10.0494
  76   2.0000      -0.356928        -9.7125
  77   2.0000      -0.353103        -9.6084
  78   2.0000      -0.350886        -9.5481
  79   2.0000      -0.345988        -9.4148
  80   2.0000      -0.344433        -9.3725
  81   2.0000      -0.340386        -9.2624
  82   2.0000      -0.338136        -9.2011
  83   2.0000      -0.333907        -9.0861
  84   2.0000      -0.330387        -8.9903
  85   2.0000      -0.316960        -8.6249
  86   2.0000      -0.310379        -8.4458
  87   2.0000      -0.298001        -8.1090
  88   2.0000      -0.295079        -8.0295
  89   2.0000      -0.292265        -7.9529
  90   2.0000      -0.280014        -7.6196
  91   2.0000      -0.271767        -7.3952
  92   2.0000      -0.268732        -7.3126
  93   2.0000      -0.261903        -7.1267
  94   2.0000      -0.254611        -6.9283
  95   2.0000      -0.237096        -6.4517
  96   2.0000      -0.220799        -6.0082
  97   2.0000      -0.208604        -5.6764
  98   2.0000      -0.201463        -5.4821
  99   2.0000      -0.189051        -5.1443
 100   2.0000      -0.182133        -4.9561
 101   0.0000      -0.043271        -1.1775
 102   0.0000      -0.031806        -0.8655
 103   0.0000      -0.014058        -0.3825
 104   0.0000       0.009386         0.2554
 105   0.0000       0.012978         0.3531

MULLIKEN ATOMIC CHARGES
-----------------------
   0 C :   -0.308655
   1 C :   -0.004152
   2 O :   -0.379886
   3 P :    0.644224
   4 S :   -0.341989
   5 O :   -0.341624
   6 C :    0.000517
   7 C :   -0.323806
   8 S :   -0.067226
   9 C :   -0.348429
  10 S :   -0.125440
  11 P :    0.590233
  12 S :   -0.282733
  13 O :   -0.381702
  14 C :   -0.018527
  15 C :   -0.288389
  16 O :   -0.357427
  17 C :   -0.021299
  18 C :   -0.294194
  19 H :    0.119731
  20 H :    0.117911
  21 H :    0.111757
  22 H :    0.110646
  23 H :    0.103944
  24 H :    0.109583
  25 H :    0.102518
  26 H :    0.104882
  27 H :    0.121234
  28 H :    0.135171
  29 H :    0.180344
  30 H :    0.197060
  31 H :    0.106067
  32 H :    0.111501
  33 H :    0.130789
  34 H :    0.112512
  35 H :    0.105501
  36 H :    0.121638
  37 H :    0.097605
  38 H :    0.118697
  39 H :    0.124093
  40 H :    0.107320
Sum of atomic charges:   -0.0000000

LOEWDIN ATOMIC CHARGES
----------------------
   0 C :   -0.368522
   1 C :   -0.120639
   2 O :   -0.245707
   3 P :    0.575312
   4 S :   -0.302049
   5 O :   -0.222325
   6 C :   -0.107865
   7 C :   -0.367778
   8 S :    0.110983
   9 C :   -0.482096
  10 S :    0.043869
  11 P :    0.559143
  12 S :   -0.293460
  13 O :   -0.249313
  14 C :   -0.115022
  15 C :   -0.364171
  16 O :   -0.231264
  17 C :   -0.124612
  18 C :   -0.357898
  19 H :    0.125584
  20 H :    0.118510
  21 H :    0.130221
  22 H :    0.108838
  23 H :    0.117929
  24 H :    0.121488
  25 H :    0.109046
  26 H :    0.126911
  27 H :    0.119534
  28 H :    0.128600
  29 H :    0.137568
  30 H :    0.119410
  31 H :    0.118031
  32 H :    0.107692
  33 H :    0.124926
  34 H :    0.126011
  35 H :    0.127891
  36 H :    0.110737
  37 H :    0.104520
  38 H :    0.124343
  39 H :    0.126194
  40 H :    0.129430

  Mayer bond orders larger than 0.100000
B(  0-C ,  1-C ) :   1.1668 B(  0-C , 19-H ) :   0.9444 B(  0-C , 20-H ) :   0.9377
B(  0-C , 21-H ) :   0.9380 B(  1-C ,  2-O ) :   0.9118 B(  1-C , 22-H ) :   0.9135
B(  1-C , 23-H ) :   0.9332 B(  2-O ,  3-P ) :   1.0888 B(  3-P ,  4-S ) :   1.5593
B(  3-P ,  5-O ) :   1.1596 B(  3-P ,  8-S ) :   0.9748 B(  4-S ,  8-S ) :   0.1212
B(  4-S , 30-H ) :   0.1114 B(  5-O ,  6-C ) :   0.9056 B(  6-C ,  7-C ) :   1.1645
B(  6-C , 24-H ) :   0.9306 B(  6-C , 25-H ) :   0.9271 B(  7-C , 26-H ) :   0.9376
B(  7-C , 27-H ) :   0.9368 B(  7-C , 28-H ) :   0.9366 B(  8-S ,  9-C ) :   1.0136
B(  9-C , 10-S ) :   0.9900 B(  9-C , 29-H ) :   0.9126 B(  9-C , 30-H ) :   0.8522
B( 10-S , 11-P ) :   0.9465 B( 10-S , 12-S ) :   0.1124 B( 11-P , 12-S ) :   1.6986
B( 11-P , 13-O ) :   1.0584 B( 11-P , 16-O ) :   1.1157 B( 13-O , 14-C ) :   0.9057
B( 14-C , 15-C ) :   1.1682 B( 14-C , 31-H ) :   0.9363 B( 14-C , 32-H ) :   0.9169
B( 15-C , 33-H ) :   0.9279 B( 15-C , 34-H ) :   0.9474 B( 15-C , 35-H ) :   0.9382
B( 16-O , 17-C ) :   0.8815 B( 17-C , 18-C ) :   1.1682 B( 17-C , 36-H ) :   0.9077
B( 17-C , 37-H ) :   0.9121 B( 18-C , 38-H ) :   0.9417 B( 18-C , 39-H ) :   0.9455
B( 18-C , 40-H ) :   0.9396

Dispersion correction           -0.068811345
FINAL SINGLE POINT ENERGY     -2929.512452640428

DIPOLE MOMENT
-------------

Method             : SCF
Type of density    : Electron Density
Multiplicity       :   1
Irrep              :   0
Energy             : -2929.6308156989489362 Eh
Relativity type    :
Basis              : AO
                                X                 Y                 Z
Electronic contribution:      2.359904324     -11.032089027      -6.904757692
Nuclear contribution   :     -2.347455042      11.638078584       6.620182342
                        -----------------------------------------
Total Dipole Moment    :      0.012449283       0.605989557      -0.284575351
                        -----------------------------------------
Magnitude (a.u.)       :      0.669597983
Magnitude (Debye)      :      1.701982814

Rotational constants in cm-1:             0.012741             0.005640             0.005222
Rotational constants in MHz :           381.974803           169.072121           156.555664

                             ****ORCA TERMINATED NORMALLY****
TOTAL RUN TIME: 0 days 0 hours 0 minutes 22 seconds 156 msec
