                         Program Version 6.0.1  -  RELEASE   -
|  1> ! pbe def2-sv(p) def2/J RI DEFGRID1 loosescf d4 GCP(DFT/SV(P)) printgap
|  2> %output
|  3>     printlevel normal
|  4> end
|  5> * xyz 0 1
|  6> C 4.6995689528 -3.3045299597 -2.1055419741
|  7> C 3.7029915523 -3.6878656503 -1.0229288136
|  8> O 3.3503023343 -2.5459322242 -0.2183208951
|  9> C 2.3745303483 -1.7620849618 -0.6335407557
| 10> O 1.7213372999 -1.9437728188 -1.6361203439
| 11> C 2.1794942486 -0.5925138697 0.3137846967
| 12> C 0.8089909861 0.0310936595 0.1108343803
| 13> H 0.6258568187 0.1640120617 -0.9640799143
| 14> C 0.6228895797 1.3804958649 0.7707628584
| 15> O -0.4277888546 1.6944825886 1.297056819
| 16> O 1.6762937905 2.140562064 0.6814005465
| 17> C 1.5801765567 3.5052170809 1.150035415
| 18> C 1.0311572596 4.4023312628 0.0534051217
| 19> S -0.5103861577 -1.0710623581 0.7427389254
| 20> P -2.1775885398 0.1223514934 0.2047914561
| 21> S -1.9844146601 1.4057970768 -1.2737389575
| 22> O -3.2262621959 -1.0387258827 -0.1529390405
| 23> C -3.0480163863 -1.8531939987 -1.3129859929
| 24> O -2.961633034 0.5713073671 1.5054061145
| 25> C -3.1331441628 1.9186164418 1.9520324226
| 26> H 4.9993143123 -4.1947779951 -2.6484356895
| 27> H 4.2442031141 -2.6041904406 -2.8020165728
| 28> H 5.5769643821 -2.8435697691 -1.6605758707
| 29> H 4.135934368 -4.3951345226 -0.3156105103
| 30> H 2.7904608528 -4.0987510886 -1.4638328703
| 31> H 2.9479094787 0.1529816539 0.0965530981
| 32> H 2.3109833578 -0.9425125591 1.3371741251
| 33> H 0.9368013211 3.5273961378 2.0330003237
| 34> H 2.6034436572 3.7724836022 1.4122165742
| 35> H 1.6748881991 4.3660261984 -0.820847724
| 36> H 0.0338463368 4.0760690969 -0.2368503361
| 37> H 0.9759327817 5.4229832273 0.4165850235
| 38> H -3.9334253454 -2.4809612908 -1.3682475828
| 39> H -2.1500823859 -2.4658704461 -1.2161565172
| 40> H -2.9687935631 -1.2255666698 -2.2030263143
| 41> H -4.1588448208 1.9888298253 2.3076441664
| 42> H -2.9663636821 2.6172185677 1.1306105458
| 43> H -2.4266860059 2.1200808239 2.7546960938
| 44> *
| 45>
| 46>                          ****END OF INPUT****

CARTESIAN COORDINATES (ANGSTROEM)
---------------------------------
  C      4.699569   -3.304530   -2.105542
  C      3.702992   -3.687866   -1.022929
  O      3.350302   -2.545932   -0.218321
  C      2.374530   -1.762085   -0.633541
  O      1.721337   -1.943773   -1.636120
  C      2.179494   -0.592514    0.313785
  C      0.808991    0.031094    0.110834
  H      0.625857    0.164012   -0.964080
  C      0.622890    1.380496    0.770763
  O     -0.427789    1.694483    1.297057
  O      1.676294    2.140562    0.681401
  C      1.580177    3.505217    1.150035
  C      1.031157    4.402331    0.053405
  S     -0.510386   -1.071062    0.742739
  P     -2.177589    0.122351    0.204791
  S     -1.984415    1.405797   -1.273739
  O     -3.226262   -1.038726   -0.152939
  C     -3.048016   -1.853194   -1.312986
  O     -2.961633    0.571307    1.505406
  C     -3.133144    1.918616    1.952032
  H      4.999314   -4.194778   -2.648436
  H      4.244203   -2.604190   -2.802017
  H      5.576964   -2.843570   -1.660576
  H      4.135934   -4.395135   -0.315611
  H      2.790461   -4.098751   -1.463833
  H      2.947909    0.152982    0.096553
  H      2.310983   -0.942513    1.337174
  H      0.936801    3.527396    2.033000
  H      2.603444    3.772484    1.412217
  H      1.674888    4.366026   -0.820848
  H      0.033846    4.076069   -0.236850
  H      0.975933    5.422983    0.416585
  H     -3.933425   -2.480961   -1.368248
  H     -2.150082   -2.465870   -1.216157
  H     -2.968794   -1.225567   -2.203026
  H     -4.158845    1.988830    2.307644
  H     -2.966364    2.617219    1.130611
  H     -2.426686    2.120081    2.754696

 Total Charge           Charge          ....    0
 Multiplicity           Mult            ....    1
 Number of Electrons    NEL             ....  174
 Basis Dimension        Dim             ....  316

ORBITAL ENERGIES
----------------

  NO   OCC          E(Eh)            E(eV)
   0   2.0000     -88.030815     -2395.4403
   1   2.0000     -87.971044     -2393.8138
   2   2.0000     -76.415197     -2079.3632
   3   2.0000     -18.825320      -512.2630
   4   2.0000     -18.808795      -511.8133
   5   2.0000     -18.776389      -510.9315
   6   2.0000     -18.768895      -510.7276
   7   2.0000     -18.755297      -510.3576
   8   2.0000     -18.746921      -510.1297
   9   2.0000     -10.027519      -272.8627
  10   2.0000     -10.017425      -272.5880
  11   2.0000      -9.961098      -271.0553
  12   2.0000      -9.953566      -270.8503
  13   2.0000      -9.944615      -270.6067
  14   2.0000      -9.930132      -270.2126
  15   2.0000      -9.925322      -270.0817
  16   2.0000      -9.919841      -269.9326
  17   2.0000      -9.892375      -269.1852
  18   2.0000      -9.892259      -269.1821
  19   2.0000      -7.675877      -208.8712
  20   2.0000      -7.616152      -207.2460
  21   2.0000      -6.410979      -174.4516
  22   2.0000      -5.703772      -155.2075
  23   2.0000      -5.700693      -155.1237
  24   2.0000      -5.692560      -154.9024
  25   2.0000      -5.645162      -153.6127
  26   2.0000      -5.637050      -153.3919
  27   2.0000      -5.635909      -153.3609
  28   2.0000      -4.633289      -126.0782
  29   2.0000      -4.633179      -126.0752
  30   2.0000      -4.631587      -126.0319
  31   2.0000      -1.033728       -28.1292
  32   2.0000      -1.017243       -27.6806
  33   2.0000      -0.968788       -26.3621
  34   2.0000      -0.936193       -25.4751
  35   2.0000      -0.923713       -25.1355
  36   2.0000      -0.922848       -25.1120
  37   2.0000      -0.765603       -20.8331
  38   2.0000      -0.717898       -19.5350
  39   2.0000      -0.712389       -19.3851
  40   2.0000      -0.687280       -18.7018
  41   2.0000      -0.654729       -17.8161
  42   2.0000      -0.628327       -17.0976
  43   2.0000      -0.618771       -16.8376
  44   2.0000      -0.606441       -16.5021
  45   2.0000      -0.601024       -16.3547
  46   2.0000      -0.566883       -15.4257
  47   2.0000      -0.512149       -13.9363
  48   2.0000      -0.504757       -13.7351
  49   2.0000      -0.499899       -13.6029
  50   2.0000      -0.482600       -13.1322
  51   2.0000      -0.465818       -12.6755
  52   2.0000      -0.457601       -12.4520
  53   2.0000      -0.454108       -12.3569
  54   2.0000      -0.442378       -12.0377
  55   2.0000      -0.434561       -11.8250
  56   2.0000      -0.423115       -11.5135
  57   2.0000      -0.414376       -11.2757
  58   2.0000      -0.412764       -11.2319
  59   2.0000      -0.406597       -11.0641
  60   2.0000      -0.398312       -10.8386
  61   2.0000      -0.396174       -10.7804
  62   2.0000      -0.391466       -10.6523
  63   2.0000      -0.381629       -10.3847
  64   2.0000      -0.378499       -10.2995
  65   2.0000      -0.371909       -10.1202
  66   2.0000      -0.362574        -9.8661
  67   2.0000      -0.358618        -9.7585
  68   2.0000      -0.351398        -9.5620
  69   2.0000      -0.341599        -9.2954
  70   2.0000      -0.338856        -9.2207
  71   2.0000      -0.333969        -9.0878
  72   2.0000      -0.329353        -8.9621
  73   2.0000      -0.309677        -8.4267
  74   2.0000      -0.303815        -8.2672
  75   2.0000      -0.300327        -8.1723
  76   2.0000      -0.290811        -7.9134
  77   2.0000      -0.281666        -7.6645
  78   2.0000      -0.274883        -7.4800
  79   2.0000      -0.267499        -7.2790
  80   2.0000      -0.257076        -6.9954
  81   2.0000      -0.243645        -6.6299
  82   2.0000      -0.239191        -6.5087
  83   2.0000      -0.232869        -6.3367
  84   2.0000      -0.211472        -5.7544
  85   2.0000      -0.193098        -5.2545
  86   2.0000      -0.184842        -5.0298
  87   0.0000      -0.045168        -1.2291
  88   0.0000      -0.034376        -0.9354
  89   0.0000      -0.023838        -0.6487
  90   0.0000       0.013106         0.3566
  91   0.0000       0.033384         0.9084

MULLIKEN ATOMIC CHARGES
-----------------------
   0 C :   -0.306525
   1 C :   -0.012471
   2 O :   -0.230603
   3 C :    0.135567
   4 O :   -0.194209
   5 C :   -0.127473
   6 C :   -0.312086
   7 H :    0.167237
   8 C :    0.243957
   9 O :   -0.193544
  10 O :   -0.221827
  11 C :   -0.014434
  12 C :   -0.309955
  13 S :   -0.096335
  14 P :    0.629451
  15 S :   -0.356498
  16 O :   -0.373240
  17 C :   -0.101787
  18 O :   -0.366837
  19 C :   -0.084713
  20 H :    0.116051
  21 H :    0.128189
  22 H :    0.114400
  23 H :    0.105649
  24 H :    0.113424
  25 H :    0.138987
  26 H :    0.119024
  27 H :    0.113384
  28 H :    0.107809
  29 H :    0.117813
  30 H :    0.141161
  31 H :    0.115597
  32 H :    0.118649
  33 H :    0.114692
  34 H :    0.113023
  35 H :    0.117670
  36 H :    0.115355
  37 H :    0.115448
Sum of atomic charges:   -0.0000000

LOEWDIN ATOMIC CHARGES
----------------------
   0 C :   -0.356166
   1 C :   -0.109887
   2 O :   -0.060037
   3 C :    0.031689
   4 O :   -0.157420
   5 C :   -0.255256
   6 C :   -0.268726
   7 H :    0.151329
   8 C :    0.026413
   9 O :   -0.157610
  10 O :   -0.036727
  11 C :   -0.106061
  12 C :   -0.356733
  13 S :    0.101788
  14 P :    0.590263
  15 S :   -0.343615
  16 O :   -0.258457
  17 C :   -0.222296
  18 O :   -0.237331
  19 C :   -0.207234
  20 H :    0.132229
  21 H :    0.131021
  22 H :    0.124945
  23 H :    0.119272
  24 H :    0.122205
  25 H :    0.154558
  26 H :    0.140711
  27 H :    0.122166
  28 H :    0.120157
  29 H :    0.127384
  30 H :    0.134849
  31 H :    0.132421
  32 H :    0.118868
  33 H :    0.105647
  34 H :    0.108322
  35 H :    0.116468
  36 H :    0.108301
  37 H :    0.112548

  Mayer bond orders larger than 0.100000
B(  0-C ,  1-C ) :   1.1742 B(  0-C , 20-H ) :   0.9440 B(  0-C , 21-H ) :   0.9460
B(  0-C , 22-H ) :   0.9489 B(  1-C ,  2-O ) :   0.9127 B(  1-C , 23-H ) :   0.9370
B(  1-C , 24-H ) :   0.9147 B(  2-O ,  3-C ) :   1.2421 B(  3-C ,  4-O ) :   2.0416
B(  3-C ,  5-C ) :   0.9950 B(  5-C ,  6-C ) :   1.0886 B(  5-C , 25-H ) :   0.8709
B(  5-C , 26-H ) :   0.9004 B(  6-C ,  7-H ) :   0.8272 B(  6-C ,  8-C ) :   0.9065
B(  6-C , 13-S ) :   1.0246 B(  8-C ,  9-O ) :   1.9489 B(  8-C , 10-O ) :   1.2788
B(  9-O , 14-P ) :   0.1013 B( 10-O , 11-C ) :   0.8960 B( 11-C , 12-C ) :   1.1782
B( 11-C , 27-H ) :   0.9139 B( 11-C , 28-H ) :   0.9361 B( 12-C , 29-H ) :   0.9480
B( 12-C , 30-H ) :   0.9363 B( 12-C , 31-H ) :   0.9420 B( 13-S , 14-P ) :   0.9355
B( 13-S , 15-S ) :   0.1159 B( 14-P , 15-S ) :   1.5637 B( 14-P , 16-O ) :   1.0892
B( 14-P , 18-O ) :   1.1412 B( 16-O , 17-C ) :   0.9447 B( 17-C , 32-H ) :   0.9593
B( 17-C , 33-H ) :   0.9401 B( 17-C , 34-H ) :   0.9372 B( 18-O , 19-C ) :   0.9276
B( 19-C , 35-H ) :   0.9544 B( 19-C , 36-H ) :   0.9347 B( 19-C , 37-H ) :   0.9540

Dispersion correction           -0.050023964
FINAL SINGLE POINT ENERGY     -1979.017803030583

DIPOLE MOMENT
-------------

Method             : SCF
Type of density    : Electron Density
Multiplicity       :   1
Irrep              :   0
Energy             : -1979.1496959477281052 Eh
Relativity type    :
Basis              : AO
                                X                 Y                 Z
Electronic contribution:    -14.489320834      -2.441989789       4.670575284
Nuclear contribution   :     16.329180402       2.638304627      -4.096570752
                        -----------------------------------------
Total Dipole Moment    :      1.839859568       0.196314838       0.574004532
                        -----------------------------------------
Magnitude (a.u.)       :      1.937292944
Magnitude (Debye)      :      4.924207329

Rotational constants in cm-1:             0.012343             0.006463             0.004885
Rotational constants in MHz :           370.028491           193.741892           146.456511

                             ****ORCA TERMINATED NORMALLY****
TOTAL RUN TIME: 0 days 0 hours 0 minutes 40 seconds 893 msec
