                         Program Version 6.0.1  -  RELEASE   -
|  1> ! pbe def2-sv(p) def2/J RI DEFGRID1 loosescf d4 GCP(DFT/SV(P)) printgap
|  2> %output
|  3>     printlevel normal
|  4> end
|  5> * xyz 0 1
|  6> C 3.0406017873 -1.6769502557 1.6901652247
|  7> C 2.8908805388 -2.30572519 0.3147260947
|  8> O 2.6765970339 -1.2891092293 -0.6846798531
|  9> C 1.4595346593 -1.0031175494 -1.0698549027
| 10> O 0.4563091721 -1.5626987533 -0.6556109899
| 11> C 1.4300843448 0.0865868882 -2.1152245073
| 12> C 0.2947531459 1.0680093022 -1.8463425956
| 13> H 0.2427031208 1.8117536139 -2.6465757816
| 14> C 0.4104872275 1.8109185647 -0.5257478863
| 15> O -0.5399895792 2.3469480107 0.0081345652
| 16> O 1.6347984509 1.8213463252 -0.0690970171
| 17> C 1.8936895773 2.4914079707 1.1832225437
| 18> C 3.3909853687 2.6879281847 1.3041879553
| 19> S -1.3605565171 0.2760205046 -1.8903633094
| 20> P -1.6527955893 -0.3278998669 0.1119103786
| 21> S -0.5016605948 -0.2184238982 1.7094140618
| 22> O -2.9641630772 0.5782476713 0.2737879761
| 23> C -3.7216441227 0.6150766774 1.4851292921
| 24> O -2.363091854 -1.7564560552 -0.0152714624
| 25> C -1.7706700726 -3.0201965149 0.2805527596
| 26> H 3.8577489485 -0.9616487157 1.6886812326
| 27> H 2.1219182162 -1.1659855497 1.974293812
| 28> H 3.2465672639 -2.4537896015 2.4187966648
| 29> H 2.0490059996 -3.0028420438 0.2953139848
| 30> H 3.8089692173 -2.806724783 0.0057875763
| 31> H 1.2582850215 -0.3820114421 -3.0862046208
| 32> H 2.3898903609 0.6016263912 -2.1185406047
| 33> H 1.3469185659 3.4389421224 1.1867024294
| 34> H 1.4957437529 1.8597177296 1.9843608292
| 35> H 3.7527761375 3.3245524035 0.5024779033
| 36> H 3.6110426284 3.1525839037 2.2591552171
| 37> H 3.8944374025 1.7278025242 1.2486826288
| 38> H -3.0534863306 0.7052872503 2.3447192142
| 39> H -4.3211176101 -0.2907660435 1.5749984426
| 40> H -4.3569961826 1.4935618307 1.4073873355
| 41> H -1.2539434053 -3.3962946662 -0.5999219334
| 42> H -2.5941680519 -3.6739834318 0.5584460109
| 43> H -1.0650843451 -2.9167653358 1.1063844267
| 44> *
| 45>
| 46>                          ****END OF INPUT****

CARTESIAN COORDINATES (ANGSTROEM)
---------------------------------
  C      3.040602   -1.676950    1.690165
  C      2.890881   -2.305725    0.314726
  O      2.676597   -1.289109   -0.684680
  C      1.459535   -1.003118   -1.069855
  O      0.456309   -1.562699   -0.655611
  C      1.430084    0.086587   -2.115225
  C      0.294753    1.068009   -1.846343
  H      0.242703    1.811754   -2.646576
  C      0.410487    1.810919   -0.525748
  O     -0.539990    2.346948    0.008135
  O      1.634798    1.821346   -0.069097
  C      1.893690    2.491408    1.183223
  C      3.390985    2.687928    1.304188
  S     -1.360557    0.276021   -1.890363
  P     -1.652796   -0.327900    0.111910
  S     -0.501661   -0.218424    1.709414
  O     -2.964163    0.578248    0.273788
  C     -3.721644    0.615077    1.485129
  O     -2.363092   -1.756456   -0.015271
  C     -1.770670   -3.020197    0.280553
  H      3.857749   -0.961649    1.688681
  H      2.121918   -1.165986    1.974294
  H      3.246567   -2.453790    2.418797
  H      2.049006   -3.002842    0.295314
  H      3.808969   -2.806725    0.005788
  H      1.258285   -0.382011   -3.086205
  H      2.389890    0.601626   -2.118541
  H      1.346919    3.438942    1.186702
  H      1.495744    1.859718    1.984361
  H      3.752776    3.324552    0.502478
  H      3.611043    3.152584    2.259155
  H      3.894437    1.727803    1.248683
  H     -3.053486    0.705287    2.344719
  H     -4.321118   -0.290766    1.574998
  H     -4.356996    1.493562    1.407387
  H     -1.253943   -3.396295   -0.599922
  H     -2.594168   -3.673983    0.558446
  H     -1.065084   -2.916765    1.106384

 Total Charge           Charge          ....    0
 Multiplicity           Mult            ....    1
 Number of Electrons    NEL             ....  174
 Basis Dimension        Dim             ....  316

ORBITAL ENERGIES
----------------

  NO   OCC          E(Eh)            E(eV)
   0   2.0000     -88.025701     -2395.3011
   1   2.0000     -87.969929     -2393.7835
   2   2.0000     -76.414442     -2079.3427
   3   2.0000     -18.812966      -511.9268
   4   2.0000     -18.810408      -511.8572
   5   2.0000     -18.774956      -510.8925
   6   2.0000     -18.763791      -510.5887
   7   2.0000     -18.751212      -510.2464
   8   2.0000     -18.732954      -509.7496
   9   2.0000     -10.020473      -272.6709
  10   2.0000     -10.013235      -272.4740
  11   2.0000      -9.952304      -270.8160
  12   2.0000      -9.949559      -270.7413
  13   2.0000      -9.945751      -270.6377
  14   2.0000      -9.926997      -270.1273
  15   2.0000      -9.922591      -270.0074
  16   2.0000      -9.914548      -269.7886
  17   2.0000      -9.890109      -269.1235
  18   2.0000      -9.885350      -268.9940
  19   2.0000      -7.671117      -208.7417
  20   2.0000      -7.614864      -207.2110
  21   2.0000      -6.409851      -174.4209
  22   2.0000      -5.699616      -155.0944
  23   2.0000      -5.696212      -155.0018
  24   2.0000      -5.686750      -154.7443
  25   2.0000      -5.643932      -153.5792
  26   2.0000      -5.635703      -153.3553
  27   2.0000      -5.634523      -153.3232
  28   2.0000      -4.632428      -126.0548
  29   2.0000      -4.632075      -126.0452
  30   2.0000      -4.630372      -125.9988
  31   2.0000      -1.021880       -27.8068
  32   2.0000      -1.016242       -27.6533
  33   2.0000      -0.962729       -26.1972
  34   2.0000      -0.926871       -25.2214
  35   2.0000      -0.918724       -24.9998
  36   2.0000      -0.914280       -24.8788
  37   2.0000      -0.763036       -20.7633
  38   2.0000      -0.715352       -19.4657
  39   2.0000      -0.707932       -19.2638
  40   2.0000      -0.685745       -18.6601
  41   2.0000      -0.650021       -17.6880
  42   2.0000      -0.617260       -16.7965
  43   2.0000      -0.616646       -16.7798
  44   2.0000      -0.609012       -16.5721
  45   2.0000      -0.595653       -16.2085
  46   2.0000      -0.562491       -15.3062
  47   2.0000      -0.512607       -13.9487
  48   2.0000      -0.506724       -13.7887
  49   2.0000      -0.495283       -13.4773
  50   2.0000      -0.484154       -13.1745
  51   2.0000      -0.459826       -12.5125
  52   2.0000      -0.455125       -12.3846
  53   2.0000      -0.449689       -12.2367
  54   2.0000      -0.439685       -11.9644
  55   2.0000      -0.426968       -11.6184
  56   2.0000      -0.417119       -11.3504
  57   2.0000      -0.408183       -11.1072
  58   2.0000      -0.406898       -11.0723
  59   2.0000      -0.401080       -10.9140
  60   2.0000      -0.396530       -10.7901
  61   2.0000      -0.390656       -10.6303
  62   2.0000      -0.381915       -10.3924
  63   2.0000      -0.379011       -10.3134
  64   2.0000      -0.374633       -10.1943
  65   2.0000      -0.366499        -9.9729
  66   2.0000      -0.361415        -9.8346
  67   2.0000      -0.357093        -9.7170
  68   2.0000      -0.348181        -9.4745
  69   2.0000      -0.342908        -9.3310
  70   2.0000      -0.338328        -9.2064
  71   2.0000      -0.329462        -8.9651
  72   2.0000      -0.319211        -8.6862
  73   2.0000      -0.304836        -8.2950
  74   2.0000      -0.298916        -8.1339
  75   2.0000      -0.293830        -7.9955
  76   2.0000      -0.285202        -7.7607
  77   2.0000      -0.272560        -7.4167
  78   2.0000      -0.269175        -7.3246
  79   2.0000      -0.261748        -7.1225
  80   2.0000      -0.253720        -6.9041
  81   2.0000      -0.245001        -6.6668
  82   2.0000      -0.241242        -6.5645
  83   2.0000      -0.222163        -6.0454
  84   2.0000      -0.190994        -5.1972
  85   2.0000      -0.190002        -5.1702
  86   2.0000      -0.179081        -4.8730
  87   0.0000      -0.046206        -1.2573
  88   0.0000      -0.037390        -1.0174
  89   0.0000      -0.031625        -0.8606
  90   0.0000       0.011387         0.3098
  91   0.0000       0.028278         0.7695

MULLIKEN ATOMIC CHARGES
-----------------------
   0 C :   -0.325267
   1 C :   -0.021176
   2 O :   -0.213614
   3 C :    0.115178
   4 O :   -0.213396
   5 C :   -0.002597
   6 C :   -0.331272
   7 H :    0.154422
   8 C :    0.172190
   9 O :   -0.176920
  10 O :   -0.224073
  11 C :   -0.028730
  12 C :   -0.287117
  13 S :   -0.054819
  14 P :    0.657530
  15 S :   -0.353399
  16 O :   -0.372762
  17 C :   -0.093284
  18 O :   -0.392903
  19 C :   -0.086794
  20 H :    0.118707
  21 H :    0.149362
  22 H :    0.109720
  23 H :    0.112729
  24 H :    0.104323
  25 H :    0.120666
  26 H :    0.109957
  27 H :    0.110496
  28 H :    0.124923
  29 H :    0.111343
  30 H :    0.113397
  31 H :    0.122239
  32 H :    0.112785
  33 H :    0.103345
  34 H :    0.119559
  35 H :    0.112449
  36 H :    0.111442
  37 H :    0.111365
Sum of atomic charges:   -0.0000000

LOEWDIN ATOMIC CHARGES
----------------------
   0 C :   -0.361737
   1 C :   -0.108328
   2 O :   -0.039817
   3 C :    0.041244
   4 O :   -0.173582
   5 C :   -0.254118
   6 C :   -0.260107
   7 H :    0.153947
   8 C :   -0.010611
   9 O :   -0.155971
  10 O :   -0.044675
  11 C :   -0.107363
  12 C :   -0.351965
  13 S :    0.129485
  14 P :    0.603486
  15 S :   -0.308414
  16 O :   -0.253673
  17 C :   -0.215263
  18 O :   -0.256798
  19 C :   -0.213252
  20 H :    0.121808
  21 H :    0.126247
  22 H :    0.130661
  23 H :    0.120642
  24 H :    0.118214
  25 H :    0.148161
  26 H :    0.139302
  27 H :    0.119815
  28 H :    0.118445
  29 H :    0.124755
  30 H :    0.132100
  31 H :    0.125440
  32 H :    0.106336
  33 H :    0.107473
  34 H :    0.119553
  35 H :    0.110426
  36 H :    0.113728
  37 H :    0.104405

  Mayer bond orders larger than 0.100000
B(  0-C ,  1-C ) :   1.1797 B(  0-C , 20-H ) :   0.9412 B(  0-C , 21-H ) :   0.9241
B(  0-C , 22-H ) :   0.9397 B(  1-C ,  2-O ) :   0.9041 B(  1-C , 23-H ) :   0.9095
B(  1-C , 24-H ) :   0.9360 B(  2-O ,  3-C ) :   1.2727 B(  3-C ,  4-O ) :   1.9059
B(  3-C ,  5-C ) :   1.0116 B(  5-C ,  6-C ) :   1.0201 B(  5-C , 25-H ) :   0.8752
B(  5-C , 26-H ) :   0.8825 B(  6-C ,  7-H ) :   0.8703 B(  6-C ,  8-C ) :   0.8942
B(  6-C , 13-S ) :   1.0425 B(  8-C ,  9-O ) :   2.0584 B(  8-C , 10-O ) :   1.2616
B( 10-O , 11-C ) :   0.8883 B( 11-C , 12-C ) :   1.1535 B( 11-C , 27-H ) :   0.9246
B( 11-C , 28-H ) :   0.9187 B( 12-C , 29-H ) :   0.9500 B( 12-C , 30-H ) :   0.9432
B( 12-C , 31-H ) :   0.9432 B( 13-S , 14-P ) :   0.9317 B( 13-S , 15-S ) :   0.1205
B( 14-P , 15-S ) :   1.5060 B( 14-P , 16-O ) :   1.1019 B( 14-P , 18-O ) :   1.0945
B( 16-O , 17-C ) :   0.9418 B( 17-C , 32-H ) :   0.9313 B( 17-C , 33-H ) :   0.9514
B( 17-C , 34-H ) :   0.9604 B( 18-O , 19-C ) :   0.9357 B( 19-C , 35-H ) :   0.9514
B( 19-C , 36-H ) :   0.9550 B( 19-C , 37-H ) :   0.9322

Dispersion correction           -0.056518118
FINAL SINGLE POINT ENERGY     -1978.999619697852

DIPOLE MOMENT
-------------

Method             : SCF
Type of density    : Electron Density
Multiplicity       :   1
Irrep              :   0
Energy             : -1979.1276280245956514 Eh
Relativity type    :
Basis              : AO
                                X                 Y                 Z
Electronic contribution:    -15.408556134       2.004423296     -11.341680839
Nuclear contribution   :     16.929698892      -2.460156502      11.244833533
                        -----------------------------------------
Total Dipole Moment    :      1.521142758      -0.455733206      -0.096847305
                        -----------------------------------------
Magnitude (a.u.)       :      1.590895171
Magnitude (Debye)      :      4.043734164

Rotational constants in cm-1:             0.013031             0.009044             0.007765
Rotational constants in MHz :           390.665499           271.139409           232.775624

                             ****ORCA TERMINATED NORMALLY****
TOTAL RUN TIME: 0 days 0 hours 1 minutes 32 seconds 329 msec
