                         Program Version 6.0.1  -  RELEASE   -
|  1> ! r2scan-3c def2/J RI DEFGRID2 scfconv6 printgap
|  2> %output
|  3>     printlevel normal
|  4> end
|  5> * xyz 0 1
|  6> C 5.4471717824 -1.1784690917 -0.8476438958
|  7> C 4.6357187741 -2.1407945683 -1.7000361157
|  8> O 3.3639675985 -2.3997765253 -1.0752318676
|  9> C 2.3132133672 -1.7092238431 -1.4651713911
| 10> O 2.3013670928 -0.9175203317 -2.3833991034
| 11> C 1.0823172384 -2.0732791809 -0.6526053058
| 12> C 0.3094973205 -0.7977382584 -0.3504009108
| 13> H 0.0476858863 -0.2900985502 -1.2908794168
| 14> C 1.1654578578 0.1852835408 0.4249652086
| 15> O 2.3755120361 0.1604304355 0.3924637909
| 16> O 0.4471613694 1.0624472614 1.0912955481
| 17> C 1.1412629876 2.1157475883 1.797444312
| 18> C 0.357097514 2.4890567169 3.0394303809
| 19> S -1.2432599556 -1.1548959871 0.5230225602
| 20> P -2.2471015861 0.6872611748 0.1430256029
| 21> S -1.5700955616 1.7850228266 -1.3313345119
| 22> O -3.762326546 0.2023268221 -0.0457473733
| 23> C -4.1666711986 -0.5412926018 -1.1995690673
| 24> O -2.375236486 1.4626141797 1.5100874324
| 25> C -2.9629225489 0.8410963526 2.6723553203
| 26> H 5.6317414607 -1.6108044097 0.1314417719
| 27> H 6.3928239945 -0.9688072684 -1.336168278
| 28> H 4.89518173 -0.2498056981 -0.7172994292
| 29> H 5.1189454997 -3.1157364384 -1.7741047495
| 30> H 4.4557754358 -1.7257719728 -2.6958735903
| 31> H 1.3939434011 -2.5766636471 0.2614810439
| 32> H 0.4594497651 -2.7461759411 -1.2435191094
| 33> H 2.1447256016 1.7516243927 2.0372248669
| 34> H 1.2219232312 2.9606687636 1.1074845703
| 35> H 0.2488706018 1.6271897067 3.691620174
| 36> H 0.8907906793 3.2725841642 3.5671354407
| 37> H -0.6263595254 2.8525424487 2.7573772919
| 38> H -3.8141824999 -0.0491820242 -2.1075137398
| 39> H -5.2532371598 -0.5547796383 -1.1736263039
| 40> H -3.7683426432 -1.5543901295 -1.1454897107
| 41> H -4.0236009002 0.6694878775 2.5020802325
| 42> H -2.8115263918 1.547338932 3.4844002379
| 43> H -2.4613482868 -0.1036619021 2.8821297191
| 44> *
| 45>
| 46>                          ****END OF INPUT****

CARTESIAN COORDINATES (ANGSTROEM)
---------------------------------
  C      5.447172   -1.178469   -0.847644
  C      4.635719   -2.140795   -1.700036
  O      3.363968   -2.399777   -1.075232
  C      2.313213   -1.709224   -1.465171
  O      2.301367   -0.917520   -2.383399
  C      1.082317   -2.073279   -0.652605
  C      0.309497   -0.797738   -0.350401
  H      0.047686   -0.290099   -1.290879
  C      1.165458    0.185284    0.424965
  O      2.375512    0.160430    0.392464
  O      0.447161    1.062447    1.091296
  C      1.141263    2.115748    1.797444
  C      0.357098    2.489057    3.039430
  S     -1.243260   -1.154896    0.523023
  P     -2.247102    0.687261    0.143026
  S     -1.570096    1.785023   -1.331335
  O     -3.762327    0.202327   -0.045747
  C     -4.166671   -0.541293   -1.199569
  O     -2.375236    1.462614    1.510087
  C     -2.962923    0.841096    2.672355
  H      5.631741   -1.610804    0.131442
  H      6.392824   -0.968807   -1.336168
  H      4.895182   -0.249806   -0.717299
  H      5.118945   -3.115736   -1.774105
  H      4.455775   -1.725772   -2.695874
  H      1.393943   -2.576664    0.261481
  H      0.459450   -2.746176   -1.243519
  H      2.144726    1.751624    2.037225
  H      1.221923    2.960669    1.107485
  H      0.248871    1.627190    3.691620
  H      0.890791    3.272584    3.567135
  H     -0.626360    2.852542    2.757377
  H     -3.814182   -0.049182   -2.107514
  H     -5.253237   -0.554780   -1.173626
  H     -3.768343   -1.554390   -1.145490
  H     -4.023601    0.669488    2.502080
  H     -2.811526    1.547339    3.484400
  H     -2.461348   -0.103662    2.882130

 Total Charge           Charge          ....    0
 Multiplicity           Mult            ....    1
 Number of Electrons    NEL             ....  174
 Basis Dimension        Dim             ....  510

ORBITAL ENERGIES
----------------

  NO   OCC          E(Eh)            E(eV)
   0   2.0000     -88.579318     -2410.3658
   1   2.0000     -88.520893     -2408.7760
   2   2.0000     -76.916766     -2093.0116
   3   2.0000     -19.005856      -517.1756
   4   2.0000     -18.999379      -516.9994
   5   2.0000     -18.994405      -516.8640
   6   2.0000     -18.993039      -516.8269
   7   2.0000     -18.941213      -515.4166
   8   2.0000     -18.922777      -514.9149
   9   2.0000     -10.164890      -276.6007
  10   2.0000     -10.153904      -276.3018
  11   2.0000     -10.102923      -274.9145
  12   2.0000     -10.094555      -274.6868
  13   2.0000     -10.093810      -274.6665
  14   2.0000     -10.093315      -274.6531
  15   2.0000     -10.084688      -274.4183
  16   2.0000     -10.058353      -273.7017
  17   2.0000     -10.033095      -273.0144
  18   2.0000     -10.019209      -272.6365
  19   2.0000      -7.873584      -214.2511
  20   2.0000      -7.815411      -212.6682
  21   2.0000      -6.595106      -179.4619
  22   2.0000      -5.820358      -158.3800
  23   2.0000      -5.817499      -158.3022
  24   2.0000      -5.810757      -158.1187
  25   2.0000      -5.763337      -156.8284
  26   2.0000      -5.755690      -156.6203
  27   2.0000      -5.755185      -156.6065
  28   2.0000      -4.740854      -129.0052
  29   2.0000      -4.740145      -128.9859
  30   2.0000      -4.738533      -128.9420
  31   2.0000      -1.084681       -29.5157
  32   2.0000      -1.069197       -29.0943
  33   2.0000      -1.055864       -28.7315
  34   2.0000      -1.012940       -27.5635
  35   2.0000      -0.990720       -26.9588
  36   2.0000      -0.972992       -26.4765
  37   2.0000      -0.811122       -22.0718
  38   2.0000      -0.753160       -20.4945
  39   2.0000      -0.744645       -20.2628
  40   2.0000      -0.732172       -19.9234
  41   2.0000      -0.698252       -19.0004
  42   2.0000      -0.680281       -18.5114
  43   2.0000      -0.660350       -17.9690
  44   2.0000      -0.649805       -17.6821
  45   2.0000      -0.623355       -16.9624
  46   2.0000      -0.591716       -16.1014
  47   2.0000      -0.546709       -14.8767
  48   2.0000      -0.534961       -14.5570
  49   2.0000      -0.521395       -14.1879
  50   2.0000      -0.499011       -13.5788
  51   2.0000      -0.493166       -13.4197
  52   2.0000      -0.485799       -13.2193
  53   2.0000      -0.464246       -12.6328
  54   2.0000      -0.459105       -12.4929
  55   2.0000      -0.456206       -12.4140
  56   2.0000      -0.449501       -12.2315
  57   2.0000      -0.444354       -12.0915
  58   2.0000      -0.436452       -11.8765
  59   2.0000      -0.431223       -11.7342
  60   2.0000      -0.423471       -11.5232
  61   2.0000      -0.423139       -11.5142
  62   2.0000      -0.398987       -10.8570
  63   2.0000      -0.398164       -10.8346
  64   2.0000      -0.394065       -10.7231
  65   2.0000      -0.380314       -10.3489
  66   2.0000      -0.371199       -10.1008
  67   2.0000      -0.365931        -9.9575
  68   2.0000      -0.360960        -9.8222
  69   2.0000      -0.357373        -9.7246
  70   2.0000      -0.347376        -9.4526
  71   2.0000      -0.339016        -9.2251
  72   2.0000      -0.333865        -9.0849
  73   2.0000      -0.330816        -9.0020
  74   2.0000      -0.330150        -8.9838
  75   2.0000      -0.318124        -8.6566
  76   2.0000      -0.311977        -8.4893
  77   2.0000      -0.300600        -8.1798
  78   2.0000      -0.291113        -7.9216
  79   2.0000      -0.282532        -7.6881
  80   2.0000      -0.278981        -7.5915
  81   2.0000      -0.266592        -7.2543
  82   2.0000      -0.263837        -7.1794
  83   2.0000      -0.235486        -6.4079
  84   2.0000      -0.229364        -6.2413
  85   2.0000      -0.220635        -6.0038
  86   2.0000      -0.215009        -5.8507
  87   0.0000      -0.047748        -1.2993
  88   0.0000      -0.027892        -0.7590
  89   0.0000      -0.007772        -0.2115
  90   0.0000       0.004530         0.1233
  91   0.0000       0.016537         0.4500

MULLIKEN ATOMIC CHARGES
-----------------------
   0 C :   -0.458012
   1 C :   -0.153190
   2 O :   -0.149493
   3 C :    0.345209
   4 O :   -0.404390
   5 C :   -0.427419
   6 C :    0.054066
   7 H :    0.260697
   8 C :    0.243315
   9 O :   -0.398008
  10 O :   -0.116554
  11 C :   -0.139647
  12 C :   -0.473328
  13 S :   -0.225012
  14 P :    0.765981
  15 S :   -0.440008
  16 O :   -0.340739
  17 C :   -0.295483
  18 O :   -0.317422
  19 C :   -0.288044
  20 H :    0.147137
  21 H :    0.143024
  22 H :    0.181483
  23 H :    0.144349
  24 H :    0.176601
  25 H :    0.189747
  26 H :    0.185554
  27 H :    0.177876
  28 H :    0.159259
  29 H :    0.151649
  30 H :    0.147706
  31 H :    0.170029
  32 H :    0.176132
  33 H :    0.152085
  34 H :    0.158133
  35 H :    0.170648
  36 H :    0.158289
  37 H :    0.167779
Sum of atomic charges:    0.0000000

LOEWDIN ATOMIC CHARGES
----------------------
   0 C :   -0.387428
   1 C :    0.030976
   2 O :   -0.579605
   3 C :    0.360941
   4 O :   -0.432585
   5 C :   -0.204305
   6 C :   -0.205462
   7 H :    0.225506
   8 C :    0.365724
   9 O :   -0.419107
  10 O :   -0.610538
  11 C :    0.043001
  12 C :   -0.386678
  13 S :    0.189674
  14 P :    0.397463
  15 S :   -0.080109
  16 O :   -0.686740
  17 C :   -0.059228
  18 O :   -0.656792
  19 C :   -0.054234
  20 H :    0.156859
  21 H :    0.156420
  22 H :    0.172532
  23 H :    0.175794
  24 H :    0.191693
  25 H :    0.190702
  26 H :    0.188675
  27 H :    0.193656
  28 H :    0.183397
  29 H :    0.158371
  30 H :    0.159737
  31 H :    0.169008
  32 H :    0.177368
  33 H :    0.177321
  34 H :    0.168973
  35 H :    0.176033
  36 H :    0.179623
  37 H :    0.173367

  Mayer bond orders larger than 0.100000
B(  0-C ,  1-C ) :   0.9461 B(  0-C , 20-H ) :   0.9711 B(  0-C , 21-H ) :   0.9686
B(  0-C , 22-H ) :   0.9650 B(  1-C ,  2-O ) :   0.7959 B(  1-C , 23-H ) :   0.9617
B(  1-C , 24-H ) :   0.9693 B(  2-O ,  3-C ) :   1.0970 B(  3-C ,  4-O ) :   1.8752
B(  3-C ,  5-C ) :   0.8789 B(  5-C ,  6-C ) :   0.8907 B(  5-C , 25-H ) :   1.0047
B(  5-C , 26-H ) :   0.9437 B(  6-C ,  7-H ) :   0.8764 B(  6-C ,  8-C ) :   0.9678
B(  6-C , 13-S ) :   0.8024 B(  8-C ,  9-O ) :   1.7903 B(  8-C , 10-O ) :   1.1938
B( 10-O , 11-C ) :   0.7743 B( 11-C , 12-C ) :   0.9394 B( 11-C , 27-H ) :   0.9683
B( 11-C , 28-H ) :   0.9409 B( 12-C , 29-H ) :   0.9745 B( 12-C , 30-H ) :   0.9637
B( 12-C , 31-H ) :   0.9620 B( 13-S , 14-P ) :   0.9857 B( 14-P , 15-S ) :   1.8188
B( 14-P , 16-O ) :   1.0349 B( 14-P , 18-O ) :   1.1437 B( 16-O , 17-C ) :   0.8296
B( 17-C , 32-H ) :   0.9586 B( 17-C , 33-H ) :   0.9674 B( 17-C , 34-H ) :   0.9563
B( 18-O , 19-C ) :   0.7906 B( 19-C , 35-H ) :   0.9583 B( 19-C , 36-H ) :   0.9650
B( 19-C , 37-H ) :   0.9573

Dispersion correction           -0.017340828
FINAL SINGLE POINT ENERGY     -1981.454126293025

DIPOLE MOMENT
-------------

Method             : SCF
Type of density    : Electron Density
Multiplicity       :   1
Irrep              :   0
Energy             : -1981.4743063152891409 Eh
Relativity type    :
Basis              : AO
                                X                 Y                 Z
Electronic contribution:    -12.212628149       0.642548130      -6.756773829
Nuclear contribution   :     11.640168555      -1.449668351       8.273326943
                        -----------------------------------------
Total Dipole Moment    :     -0.572459595      -0.807120221       1.516553113
                        -----------------------------------------
Magnitude (a.u.)       :      1.810824780
Magnitude (Debye)      :      4.602750804

Rotational constants in cm-1:             0.016178             0.005938             0.005103
Rotational constants in MHz :           485.004085           178.002685           152.976545

                             ****ORCA TERMINATED NORMALLY****
TOTAL RUN TIME: 0 days 0 hours 1 minutes 34 seconds 831 msec
