                         Program Version 6.0.1  -  RELEASE   -
|  1> ! r2scan-3c def2/J RI DEFGRID2 scfconv6 printgap
|  2> %output
|  3>     printlevel normal
|  4> end
|  5> %cpcm
|  6>     smd true
|  7>     smdsolvent "water"
|  8> end
|  9> * xyz 0 1
| 10> C 5.4471717824 -1.1784690917 -0.8476438958
| 11> C 4.6357187741 -2.1407945683 -1.7000361157
| 12> O 3.3639675985 -2.3997765253 -1.0752318676
| 13> C 2.3132133672 -1.7092238431 -1.4651713911
| 14> O 2.3013670928 -0.9175203317 -2.3833991034
| 15> C 1.0823172384 -2.0732791809 -0.6526053058
| 16> C 0.3094973205 -0.7977382584 -0.3504009108
| 17> H 0.0476858863 -0.2900985502 -1.2908794168
| 18> C 1.1654578578 0.1852835408 0.4249652086
| 19> O 2.3755120361 0.1604304355 0.3924637909
| 20> O 0.4471613694 1.0624472614 1.0912955481
| 21> C 1.1412629876 2.1157475883 1.797444312
| 22> C 0.357097514 2.4890567169 3.0394303809
| 23> S -1.2432599556 -1.1548959871 0.5230225602
| 24> P -2.2471015861 0.6872611748 0.1430256029
| 25> S -1.5700955616 1.7850228266 -1.3313345119
| 26> O -3.762326546 0.2023268221 -0.0457473733
| 27> C -4.1666711986 -0.5412926018 -1.1995690673
| 28> O -2.375236486 1.4626141797 1.5100874324
| 29> C -2.9629225489 0.8410963526 2.6723553203
| 30> H 5.6317414607 -1.6108044097 0.1314417719
| 31> H 6.3928239945 -0.9688072684 -1.336168278
| 32> H 4.89518173 -0.2498056981 -0.7172994292
| 33> H 5.1189454997 -3.1157364384 -1.7741047495
| 34> H 4.4557754358 -1.7257719728 -2.6958735903
| 35> H 1.3939434011 -2.5766636471 0.2614810439
| 36> H 0.4594497651 -2.7461759411 -1.2435191094
| 37> H 2.1447256016 1.7516243927 2.0372248669
| 38> H 1.2219232312 2.9606687636 1.1074845703
| 39> H 0.2488706018 1.6271897067 3.691620174
| 40> H 0.8907906793 3.2725841642 3.5671354407
| 41> H -0.6263595254 2.8525424487 2.7573772919
| 42> H -3.8141824999 -0.0491820242 -2.1075137398
| 43> H -5.2532371598 -0.5547796383 -1.1736263039
| 44> H -3.7683426432 -1.5543901295 -1.1454897107
| 45> H -4.0236009002 0.6694878775 2.5020802325
| 46> H -2.8115263918 1.547338932 3.4844002379
| 47> H -2.4613482868 -0.1036619021 2.8821297191
| 48> *
| 49>
| 50>                          ****END OF INPUT****

CARTESIAN COORDINATES (ANGSTROEM)
---------------------------------
  C      5.447172   -1.178469   -0.847644
  C      4.635719   -2.140795   -1.700036
  O      3.363968   -2.399777   -1.075232
  C      2.313213   -1.709224   -1.465171
  O      2.301367   -0.917520   -2.383399
  C      1.082317   -2.073279   -0.652605
  C      0.309497   -0.797738   -0.350401
  H      0.047686   -0.290099   -1.290879
  C      1.165458    0.185284    0.424965
  O      2.375512    0.160430    0.392464
  O      0.447161    1.062447    1.091296
  C      1.141263    2.115748    1.797444
  C      0.357098    2.489057    3.039430
  S     -1.243260   -1.154896    0.523023
  P     -2.247102    0.687261    0.143026
  S     -1.570096    1.785023   -1.331335
  O     -3.762327    0.202327   -0.045747
  C     -4.166671   -0.541293   -1.199569
  O     -2.375236    1.462614    1.510087
  C     -2.962923    0.841096    2.672355
  H      5.631741   -1.610804    0.131442
  H      6.392824   -0.968807   -1.336168
  H      4.895182   -0.249806   -0.717299
  H      5.118945   -3.115736   -1.774105
  H      4.455775   -1.725772   -2.695874
  H      1.393943   -2.576664    0.261481
  H      0.459450   -2.746176   -1.243519
  H      2.144726    1.751624    2.037225
  H      1.221923    2.960669    1.107485
  H      0.248871    1.627190    3.691620
  H      0.890791    3.272584    3.567135
  H     -0.626360    2.852542    2.757377
  H     -3.814182   -0.049182   -2.107514
  H     -5.253237   -0.554780   -1.173626
  H     -3.768343   -1.554390   -1.145490
  H     -4.023601    0.669488    2.502080
  H     -2.811526    1.547339    3.484400
  H     -2.461348   -0.103662    2.882130

 Total Charge           Charge          ....    0
 Multiplicity           Mult            ....    1
 Number of Electrons    NEL             ....  174
 Basis Dimension        Dim             ....  510

ORBITAL ENERGIES
----------------

  NO   OCC          E(Eh)            E(eV)
   0   2.0000     -88.581989     -2410.4385
   1   2.0000     -88.531149     -2409.0550
   2   2.0000     -76.921813     -2093.1490
   3   2.0000     -19.011342      -517.3249
   4   2.0000     -19.006410      -517.1907
   5   2.0000     -18.999167      -516.9936
   6   2.0000     -18.995066      -516.8820
   7   2.0000     -18.954942      -515.7902
   8   2.0000     -18.945174      -515.5244
   9   2.0000     -10.175651      -276.8935
  10   2.0000     -10.171386      -276.7775
  11   2.0000     -10.097572      -274.7689
  12   2.0000     -10.087271      -274.4886
  13   2.0000     -10.085745      -274.4471
  14   2.0000     -10.084465      -274.4123
  15   2.0000     -10.081825      -274.3404
  16   2.0000     -10.057143      -273.6688
  17   2.0000     -10.019136      -272.6346
  18   2.0000     -10.018668      -272.6218
  19   2.0000      -7.876153      -214.3210
  20   2.0000      -7.826077      -212.9584
  21   2.0000      -6.600201      -179.6006
  22   2.0000      -5.823003      -158.4520
  23   2.0000      -5.820148      -158.3743
  24   2.0000      -5.813177      -158.1846
  25   2.0000      -5.773852      -157.1145
  26   2.0000      -5.766411      -156.9120
  27   2.0000      -5.765867      -156.8972
  28   2.0000      -4.745887      -129.1421
  29   2.0000      -4.745195      -129.1233
  30   2.0000      -4.743788      -129.0850
  31   2.0000      -1.092092       -29.7173
  32   2.0000      -1.083876       -29.4938
  33   2.0000      -1.055761       -28.7287
  34   2.0000      -1.012191       -27.5431
  35   2.0000      -1.002743       -27.2860
  36   2.0000      -0.993502       -27.0346
  37   2.0000      -0.814381       -22.1604
  38   2.0000      -0.753643       -20.5077
  39   2.0000      -0.741176       -20.1684
  40   2.0000      -0.732033       -19.9196
  41   2.0000      -0.697195       -18.9717
  42   2.0000      -0.671419       -18.2702
  43   2.0000      -0.661133       -17.9903
  44   2.0000      -0.650606       -17.7039
  45   2.0000      -0.624305       -16.9882
  46   2.0000      -0.590186       -16.0598
  47   2.0000      -0.543745       -14.7960
  48   2.0000      -0.534293       -14.5388
  49   2.0000      -0.526071       -14.3151
  50   2.0000      -0.497696       -13.5430
  51   2.0000      -0.494454       -13.4548
  52   2.0000      -0.489630       -13.3235
  53   2.0000      -0.465940       -12.6789
  54   2.0000      -0.463947       -12.6246
  55   2.0000      -0.460307       -12.5256
  56   2.0000      -0.453647       -12.3444
  57   2.0000      -0.450650       -12.2628
  58   2.0000      -0.442792       -12.0490
  59   2.0000      -0.427988       -11.6462
  60   2.0000      -0.421113       -11.4591
  61   2.0000      -0.412169       -11.2157
  62   2.0000      -0.403315       -10.9748
  63   2.0000      -0.399316       -10.8659
  64   2.0000      -0.394189       -10.7264
  65   2.0000      -0.378270       -10.2932
  66   2.0000      -0.370058       -10.0698
  67   2.0000      -0.366904        -9.9840
  68   2.0000      -0.359956        -9.7949
  69   2.0000      -0.356268        -9.6945
  70   2.0000      -0.345086        -9.3903
  71   2.0000      -0.341171        -9.2837
  72   2.0000      -0.337814        -9.1924
  73   2.0000      -0.331714        -9.0264
  74   2.0000      -0.326688        -8.8896
  75   2.0000      -0.317074        -8.6280
  76   2.0000      -0.310477        -8.4485
  77   2.0000      -0.305626        -8.3165
  78   2.0000      -0.288729        -7.8567
  79   2.0000      -0.286191        -7.7877
  80   2.0000      -0.280924        -7.6443
  81   2.0000      -0.278880        -7.5887
  82   2.0000      -0.275659        -7.5011
  83   2.0000      -0.257568        -7.0088
  84   2.0000      -0.237858        -6.4725
  85   2.0000      -0.231766        -6.3067
  86   2.0000      -0.225176        -6.1273
  87   0.0000      -0.053489        -1.4555
  88   0.0000      -0.036166        -0.9841
  89   0.0000      -0.021380        -0.5818
  90   0.0000       0.002064         0.0562
  91   0.0000       0.013133         0.3574

MULLIKEN ATOMIC CHARGES
-----------------------
   0 C :   -0.498755
   1 C :   -0.140684
   2 O :   -0.175372
   3 C :    0.364580
   4 O :   -0.482895
   5 C :   -0.437409
   6 C :    0.053975
   7 H :    0.261596
   8 C :    0.266249
   9 O :   -0.457854
  10 O :   -0.123113
  11 C :   -0.146018
  12 C :   -0.504375
  13 S :   -0.207397
  14 P :    0.791838
  15 S :   -0.506985
  16 O :   -0.365733
  17 C :   -0.305441
  18 O :   -0.352289
  19 C :   -0.295270
  20 H :    0.168332
  21 H :    0.170933
  22 H :    0.168828
  23 H :    0.174391
  24 H :    0.178709
  25 H :    0.216405
  26 H :    0.224830
  27 H :    0.182496
  28 H :    0.179830
  29 H :    0.170882
  30 H :    0.170008
  31 H :    0.171465
  32 H :    0.176694
  33 H :    0.179992
  34 H :    0.175296
  35 H :    0.185329
  36 H :    0.186798
  37 H :    0.180135
Sum of atomic charges:    0.0000000

LOEWDIN ATOMIC CHARGES
----------------------
   0 C :   -0.391267
   1 C :    0.037150
   2 O :   -0.584079
   3 C :    0.367916
   4 O :   -0.490088
   5 C :   -0.197299
   6 C :   -0.204681
   7 H :    0.223849
   8 C :    0.370523
   9 O :   -0.461555
  10 O :   -0.610991
  11 C :    0.046257
  12 C :   -0.386523
  13 S :    0.210312
  14 P :    0.401098
  15 S :   -0.130177
  16 O :   -0.694809
  17 C :   -0.054462
  18 O :   -0.673894
  19 C :   -0.044729
  20 H :    0.162274
  21 H :    0.167590
  22 H :    0.164811
  23 H :    0.189230
  24 H :    0.192552
  25 H :    0.201627
  26 H :    0.204573
  27 H :    0.196538
  28 H :    0.188976
  29 H :    0.164597
  30 H :    0.168425
  31 H :    0.168776
  32 H :    0.177528
  33 H :    0.189084
  34 H :    0.176298
  35 H :    0.182989
  36 H :    0.191934
  37 H :    0.179644

  Mayer bond orders larger than 0.100000
B(  0-C ,  1-C ) :   0.9294 B(  0-C , 20-H ) :   0.9696 B(  0-C , 21-H ) :   0.9614
B(  0-C , 22-H ) :   0.9679 B(  1-C ,  2-O ) :   0.7820 B(  1-C , 23-H ) :   0.9512
B(  1-C , 24-H ) :   0.9646 B(  2-O ,  3-C ) :   1.1082 B(  3-C ,  4-O ) :   1.8119
B(  3-C ,  5-C ) :   0.8910 B(  5-C ,  6-C ) :   0.8657 B(  5-C , 25-H ) :   0.9950
B(  5-C , 26-H ) :   0.9304 B(  6-C ,  7-H ) :   0.8842 B(  6-C ,  8-C ) :   0.9610
B(  6-C , 13-S ) :   0.8006 B(  8-C ,  9-O ) :   1.7442 B(  8-C , 10-O ) :   1.2148
B( 10-O , 11-C ) :   0.7612 B( 11-C , 12-C ) :   0.9358 B( 11-C , 27-H ) :   0.9603
B( 11-C , 28-H ) :   0.9345 B( 12-C , 29-H ) :   0.9713 B( 12-C , 30-H ) :   0.9582
B( 12-C , 31-H ) :   0.9589 B( 13-S , 14-P ) :   1.0005 B( 14-P , 15-S ) :   1.7804
B( 14-P , 16-O ) :   1.0448 B( 14-P , 18-O ) :   1.1519 B( 16-O , 17-C ) :   0.8218
B( 17-C , 32-H ) :   0.9554 B( 17-C , 33-H ) :   0.9572 B( 17-C , 34-H ) :   0.9498
B( 18-O , 19-C ) :   0.7810 B( 19-C , 35-H ) :   0.9503 B( 19-C , 36-H ) :   0.9542
B( 19-C , 37-H ) :   0.9481

Dispersion correction           -0.017340828
FINAL SINGLE POINT ENERGY     -1981.468576895536

DIPOLE MOMENT
-------------

Method             : SCF
Type of density    : Electron Density
Multiplicity       :   1
Irrep              :   0
Energy             : -1981.4887569177997193 Eh
Relativity type    :
Basis              : AO
                                X                 Y                 Z
Electronic contribution:    -12.484692055      -0.038302181      -6.115190539
Nuclear contribution   :     11.640168555      -1.449668351       8.273326943
                        -----------------------------------------
Total Dipole Moment    :     -0.844523500      -1.487970532       2.158136403
                        -----------------------------------------
Magnitude (a.u.)       :      2.754056823
Magnitude (Debye)      :      7.000256123

Rotational constants in cm-1:             0.016178             0.005938             0.005103
Rotational constants in MHz :           485.004085           178.002685           152.976545

                             ****ORCA TERMINATED NORMALLY****
TOTAL RUN TIME: 0 days 0 hours 1 minutes 58 seconds 675 msec
