                         Program Version 6.0.0  -   RELEASE  -
|  1> ! pbe def2-sv(p) def2/J RI DEFGRID1 loosescf d4 GCP(DFT/SV(P)) printgap
|  2> %output
|  3>     printlevel normal
|  4> end
|  5> * xyz 0 1
|  6> C 3.5409826275 -0.8959763814 -2.980894009
|  7> C 2.2388225032 -0.5889176818 -2.2721178598
|  8> O 2.4691768163 0.3211286663 -1.1702247301
|  9> P 2.5342359963 -0.1372535529 0.3343532411
| 10> S 2.9657400978 1.4050474316 1.4564916491
| 11> O 3.5526134082 -1.3549808791 0.2705204626
| 12> C 3.6990222506 -2.3700538139 1.283172911
| 13> C 3.9716461848 -1.7935187753 2.6561078866
| 14> S 0.6848728395 -1.0831992787 0.7838487429
| 15> C -0.1648835558 0.4446926572 1.314616756
| 16> S -1.9379652663 0.1910840615 1.4224434011
| 17> P -2.4505915699 0.6150797873 -0.6174320413
| 18> S -0.9687185121 0.9152636323 -1.8580197611
| 19> O -3.3608513087 1.8993206817 -0.5942179748
| 20> C -4.5244654807 2.0464028995 0.2601214823
| 21> C -4.240781118 3.0581341522 1.3524676104
| 22> O -3.5188856673 -0.5075278902 -0.9710912603
| 23> C -3.3444786214 -1.9259252106 -0.7922435104
| 24> C -2.1385086244 -2.4636461869 -1.5333950512
| 25> H 3.3382904757 -1.5362998475 -3.8333903065
| 26> H 4.0013750749 0.0260902451 -3.3247028251
| 27> H 4.2268401262 -1.3990601415 -2.3040304359
| 28> H 1.7682538577 -1.4991689895 -1.8899142878
| 29> H 1.5339633669 -0.0645655804 -2.9210593486
| 30> H 2.7889854006 -2.9764174387 1.2912862159
| 31> H 4.54052152 -2.9667655123 0.9269563187
| 32> H 4.1556228904 -2.6016773925 3.3565906844
| 33> H 4.8374136885 -1.1361270456 2.6270085526
| 34> H 3.115099392 -1.2143858315 2.9982670261
| 35> H 0.0511231944 1.2278308274 0.5854460863
| 36> H 0.1920951779 0.7218708013 2.3042067755
| 37> H -5.3184117005 2.3903720989 -0.4044245842
| 38> H -4.7894853572 1.0730760338 0.6779507422
| 39> H -5.1482203978 3.2275749151 1.9231397951
| 40> H -3.4649156338 2.6917437465 2.0202901346
| 41> H -3.9127545381 3.9965938702 0.9138812509
| 42> H -3.2627588692 -2.1300239104 0.2790831562
| 43> H -4.2734945302 -2.3456804208 -1.18186658
| 44> H -2.1219786715 -3.5458582528 -1.4565891101
| 45> H -2.1783713933 -2.1754158836 -2.5811168575
| 46> H -1.2223648899 -2.0663072051 -1.0985728813
| 47> *
| 48>
| 49>                          ****END OF INPUT****

CARTESIAN COORDINATES (ANGSTROEM)
---------------------------------
  C      3.540983   -0.895976   -2.980894
  C      2.238823   -0.588918   -2.272118
  O      2.469177    0.321129   -1.170225
  P      2.534236   -0.137254    0.334353
  S      2.965740    1.405047    1.456492
  O      3.552613   -1.354981    0.270520
  C      3.699022   -2.370054    1.283173
  C      3.971646   -1.793519    2.656108
  S      0.684873   -1.083199    0.783849
  C     -0.164884    0.444693    1.314617
  S     -1.937965    0.191084    1.422443
  P     -2.450592    0.615080   -0.617432
  S     -0.968719    0.915264   -1.858020
  O     -3.360851    1.899321   -0.594218
  C     -4.524465    2.046403    0.260121
  C     -4.240781    3.058134    1.352468
  O     -3.518886   -0.507528   -0.971091
  C     -3.344479   -1.925925   -0.792244
  C     -2.138509   -2.463646   -1.533395
  H      3.338290   -1.536300   -3.833390
  H      4.001375    0.026090   -3.324703
  H      4.226840   -1.399060   -2.304030
  H      1.768254   -1.499169   -1.889914
  H      1.533963   -0.064566   -2.921059
  H      2.788985   -2.976417    1.291286
  H      4.540522   -2.966766    0.926956
  H      4.155623   -2.601677    3.356591
  H      4.837414   -1.136127    2.627009
  H      3.115099   -1.214386    2.998267
  H      0.051123    1.227831    0.585446
  H      0.192095    0.721871    2.304207
  H     -5.318412    2.390372   -0.404425
  H     -4.789485    1.073076    0.677951
  H     -5.148220    3.227575    1.923140
  H     -3.464916    2.691744    2.020290
  H     -3.912755    3.996594    0.913881
  H     -3.262759   -2.130024    0.279083
  H     -4.273495   -2.345680   -1.181867
  H     -2.121979   -3.545858   -1.456589
  H     -2.178371   -2.175416   -2.581117
  H     -1.222365   -2.066307   -1.098573

 Total Charge           Charge          ....    0
 Multiplicity           Mult            ....    1
 Number of Electrons    NEL             ....  202
 Basis Dimension        Dim             ....  334

ORBITAL ENERGIES
----------------

  NO   OCC          E(Eh)            E(eV)
   0   2.0000     -88.053152     -2396.0481
   1   2.0000     -88.041314     -2395.7260
   2   2.0000     -87.987342     -2394.2573
   3   2.0000     -87.978212     -2394.0089
   4   2.0000     -76.429385     -2079.7493
   5   2.0000     -76.423046     -2079.5768
   6   2.0000     -18.796401      -511.4761
   7   2.0000     -18.794673      -511.4290
   8   2.0000     -18.791370      -511.3392
   9   2.0000     -18.783975      -511.1380
  10   2.0000      -9.959865      -271.0217
  11   2.0000      -9.959716      -271.0177
  12   2.0000      -9.959695      -271.0171
  13   2.0000      -9.954438      -270.8740
  14   2.0000      -9.946642      -270.6619
  15   2.0000      -9.888085      -269.0685
  16   2.0000      -9.884097      -268.9600
  17   2.0000      -9.883655      -268.9479
  18   2.0000      -9.880493      -268.8619
  19   2.0000      -7.697673      -209.4643
  20   2.0000      -7.685847      -209.1425
  21   2.0000      -7.632326      -207.6862
  22   2.0000      -7.623604      -207.4488
  23   2.0000      -6.426735      -174.8803
  24   2.0000      -6.420216      -174.7030
  25   2.0000      -5.725367      -155.7951
  26   2.0000      -5.722097      -155.7062
  27   2.0000      -5.714991      -155.5128
  28   2.0000      -5.713569      -155.4741
  29   2.0000      -5.710479      -155.3900
  30   2.0000      -5.702971      -155.1857
  31   2.0000      -5.661495      -154.0571
  32   2.0000      -5.652834      -153.8214
  33   2.0000      -5.652744      -153.8190
  34   2.0000      -5.652321      -153.8075
  35   2.0000      -5.644080      -153.5832
  36   2.0000      -5.643639      -153.5712
  37   2.0000      -4.649384      -126.5162
  38   2.0000      -4.648772      -126.4995
  39   2.0000      -4.646901      -126.4486
  40   2.0000      -4.643070      -126.3444
  41   2.0000      -4.642301      -126.3234
  42   2.0000      -4.640183      -126.2658
  43   2.0000      -0.990925       -26.9644
  44   2.0000      -0.986274       -26.8379
  45   2.0000      -0.946630       -25.7591
  46   2.0000      -0.941859       -25.6293
  47   2.0000      -0.764972       -20.8160
  48   2.0000      -0.722834       -19.6693
  49   2.0000      -0.712647       -19.3921
  50   2.0000      -0.692132       -18.8339
  51   2.0000      -0.689811       -18.7707
  52   2.0000      -0.678378       -18.4596
  53   2.0000      -0.651059       -17.7162
  54   2.0000      -0.636728       -17.3262
  55   2.0000      -0.592626       -16.1262
  56   2.0000      -0.588514       -16.0143
  57   2.0000      -0.578510       -15.7421
  58   2.0000      -0.569229       -15.4895
  59   2.0000      -0.566726       -15.4214
  60   2.0000      -0.509021       -13.8512
  61   2.0000      -0.500099       -13.6084
  62   2.0000      -0.474682       -12.9168
  63   2.0000      -0.471492       -12.8299
  64   2.0000      -0.456714       -12.4278
  65   2.0000      -0.452073       -12.3015
  66   2.0000      -0.443103       -12.0574
  67   2.0000      -0.434264       -11.8169
  68   2.0000      -0.431623       -11.7451
  69   2.0000      -0.418918       -11.3993
  70   2.0000      -0.415254       -11.2996
  71   2.0000      -0.407788       -11.0965
  72   2.0000      -0.400383       -10.8950
  73   2.0000      -0.387463       -10.5434
  74   2.0000      -0.381524       -10.3818
  75   2.0000      -0.361727        -9.8431
  76   2.0000      -0.358871        -9.7654
  77   2.0000      -0.354808        -9.6548
  78   2.0000      -0.353883        -9.6296
  79   2.0000      -0.349823        -9.5192
  80   2.0000      -0.348101        -9.4723
  81   2.0000      -0.347073        -9.4443
  82   2.0000      -0.344347        -9.3702
  83   2.0000      -0.338969        -9.2238
  84   2.0000      -0.336740        -9.1631
  85   2.0000      -0.319610        -8.6970
  86   2.0000      -0.313409        -8.5283
  87   2.0000      -0.299950        -8.1620
  88   2.0000      -0.297918        -8.1067
  89   2.0000      -0.295421        -8.0388
  90   2.0000      -0.283934        -7.7262
  91   2.0000      -0.280195        -7.6245
  92   2.0000      -0.274822        -7.4783
  93   2.0000      -0.265422        -7.2225
  94   2.0000      -0.260566        -7.0904
  95   2.0000      -0.234247        -6.3742
  96   2.0000      -0.225918        -6.1475
  97   2.0000      -0.205405        -5.5893
  98   2.0000      -0.201518        -5.4836
  99   2.0000      -0.196687        -5.3521
 100   2.0000      -0.192780        -5.2458
 101   0.0000      -0.047272        -1.2863
 102   0.0000      -0.034149        -0.9292
 103   0.0000      -0.015523        -0.4224
 104   0.0000       0.007703         0.2096
 105   0.0000       0.010701         0.2912

MULLIKEN ATOMIC CHARGES
-----------------------
   0 C :   -0.280636
   1 C :   -0.017965
   2 O :   -0.343988
   3 P :    0.592209
   4 S :   -0.314228
   5 O :   -0.380729
   6 C :   -0.008758
   7 C :   -0.309277
   8 S :   -0.123129
   9 C :   -0.329667
  10 S :   -0.122615
  11 P :    0.592496
  12 S :   -0.296280
  13 O :   -0.349749
  14 C :   -0.014374
  15 C :   -0.286165
  16 O :   -0.376270
  17 C :   -0.002120
  18 C :   -0.336258
  19 H :    0.106801
  20 H :    0.120392
  21 H :    0.115327
  22 H :    0.096709
  23 H :    0.123521
  24 H :    0.111228
  25 H :    0.108635
  26 H :    0.110634
  27 H :    0.127762
  28 H :    0.125606
  29 H :    0.204572
  30 H :    0.188401
  31 H :    0.114497
  32 H :    0.100564
  33 H :    0.109770
  34 H :    0.120383
  35 H :    0.124395
  36 H :    0.108234
  37 H :    0.107507
  38 H :    0.108954
  39 H :    0.123515
  40 H :    0.150098
Sum of atomic charges:   -0.0000000

LOEWDIN ATOMIC CHARGES
----------------------
   0 C :   -0.357830
   1 C :   -0.116619
   2 O :   -0.227799
   3 P :    0.568334
   4 S :   -0.309138
   5 O :   -0.245289
   6 C :   -0.114825
   7 C :   -0.369145
   8 S :    0.053258
   9 C :   -0.478780
  10 S :    0.072889
  11 P :    0.566092
  12 S :   -0.282704
  13 O :   -0.234654
  14 C :   -0.112997
  15 C :   -0.359278
  16 O :   -0.244751
  17 C :   -0.115440
  18 C :   -0.374612
  19 H :    0.128082
  20 H :    0.129200
  21 H :    0.124280
  22 H :    0.101968
  23 H :    0.117856
  24 H :    0.107494
  25 H :    0.120765
  26 H :    0.129819
  27 H :    0.131238
  28 H :    0.121279
  29 H :    0.126543
  30 H :    0.133412
  31 H :    0.123468
  32 H :    0.105539
  33 H :    0.129622
  34 H :    0.121295
  35 H :    0.131317
  36 H :    0.106219
  37 H :    0.120363
  38 H :    0.129412
  39 H :    0.129369
  40 H :    0.114748

  Mayer bond orders larger than 0.100000
B(  0-C ,  1-C ) :   1.1611 B(  0-C , 19-H ) :   0.9411 B(  0-C , 20-H ) :   0.9471
B(  0-C , 21-H ) :   0.9437 B(  1-C ,  2-O ) :   0.8905 B(  1-C , 22-H ) :   0.9161
B(  1-C , 23-H ) :   0.9266 B(  2-O ,  3-P ) :   1.1492 B(  3-P ,  4-S ) :   1.6365
B(  3-P ,  5-O ) :   1.0776 B(  3-P ,  8-S ) :   0.9548 B(  4-S ,  8-S ) :   0.1121
B(  5-O ,  6-C ) :   0.9123 B(  6-C ,  7-C ) :   1.1673 B(  6-C , 24-H ) :   0.9261
B(  6-C , 25-H ) :   0.9331 B(  7-C , 26-H ) :   0.9349 B(  7-C , 27-H ) :   0.9430
B(  7-C , 28-H ) :   0.9320 B(  8-S ,  9-C ) :   0.9706 B(  9-C , 10-S ) :   1.0104
B(  9-C , 29-H ) :   0.8634 B(  9-C , 30-H ) :   0.8945 B( 10-S , 11-P ) :   0.9137
B( 10-S , 12-S ) :   0.1147 B( 11-P , 12-S ) :   1.6609 B( 11-P , 13-O ) :   1.1450
B( 11-P , 16-O ) :   1.0971 B( 13-O , 14-C ) :   0.8902 B( 14-C , 15-C ) :   1.1639
B( 14-C , 31-H ) :   0.9343 B( 14-C , 32-H ) :   0.9187 B( 15-C , 33-H ) :   0.9401
B( 15-C , 34-H ) :   0.9396 B( 15-C , 35-H ) :   0.9460 B( 16-O , 17-C ) :   0.9105
B( 17-C , 18-C ) :   1.1670 B( 17-C , 36-H ) :   0.9223 B( 17-C , 37-H ) :   0.9337
B( 18-C , 38-H ) :   0.9352 B( 18-C , 39-H ) :   0.9427 B( 18-C , 40-H ) :   0.9198

Dispersion correction           -0.063807520
FINAL SINGLE POINT ENERGY     -2929.512967010653

DIPOLE MOMENT
-------------

Method             : SCF
Type of density    : Electron Density
Multiplicity       :   1
Irrep              :   0
Energy             : -2929.6336642176152054 Eh
Relativity type    :
Basis              : AO
                                X                 Y                 Z
Electronic contribution:      0.044518667      10.232283206       1.168380784
Nuclear contribution   :     -1.181469421     -12.004934830      -0.859889086
                        -----------------------------------------
Total Dipole Moment    :     -1.136950754      -1.772651623       0.308491699
                        -----------------------------------------
Magnitude (a.u.)       :      2.128407368
Magnitude (Debye)      :      5.409981591

Rotational constants in cm-1:             0.012386             0.004549             0.004237
Rotational constants in MHz :           371.308804           136.362634           127.007109

                             ****ORCA TERMINATED NORMALLY****
TOTAL RUN TIME: 0 days 0 hours 0 minutes 20 seconds 832 msec
