                         Program Version 6.0.0  -   RELEASE  -
|  1> ! pbe def2-sv(p) def2/J RI DEFGRID1 loosescf d4 GCP(DFT/SV(P)) printgap
|  2> %output
|  3>     printlevel normal
|  4> end
|  5> * xyz 0 1
|  6> C 5.2342603592 -2.1630505383 -1.6435287808
|  7> C 4.1783427365 -1.082450048 -1.7609090988
|  8> O 3.1832414874 -1.3208640357 -0.7442184474
|  9> P 2.2340629783 -0.1650725319 -0.2052978722
| 10> S 3.1623730441 1.5029315246 0.2529937256
| 11> O 1.4903339789 -0.9137824914 0.9681105533
| 12> C 1.8899663005 -0.8190492797 2.3553448911
| 13> C 0.650861517 -0.6717725242 3.2147372576
| 14> S 0.7394388864 -0.0421821253 -1.6864774617
| 15> C 0.1009887456 1.5912107542 -1.2141391195
| 16> S -0.6116163169 1.6241330989 0.4495808856
| 17> P -2.1564156341 0.2281398563 0.0783846363
| 18> S -3.0187280962 0.3041450356 -1.6842857855
| 19> O -3.1325417041 0.3865404577 1.3208553505
| 20> C -4.2437076538 1.2999536331 1.3222397368
| 21> C -3.7949195075 2.747040063 1.3329999757
| 22> O -1.4067136219 -1.1161966867 0.4463265014
| 23> C -1.7815004469 -2.3888778562 -0.1124423064
| 24> C -3.107955017 -2.8696547229 0.4376296654
| 25> H 4.7766220194 -3.1413707087 -1.7579857916
| 26> H 5.9777743284 -2.0195823167 -2.4205778941
| 27> H 5.7162319951 -2.1106362794 -0.671348469
| 28> H 3.6817209442 -1.1114470905 -2.734237678
| 29> H 4.6051209972 -0.0860245192 -1.6040432358
| 30> H 2.4333822512 -1.7366016851 2.5906348731
| 31> H 2.5587009134 0.0407344861 2.4722903608
| 32> H 0.9420070038 -0.6753280814 4.2601670547
| 33> H 0.1418958961 0.2618804331 2.9874063658
| 34> H -0.0331428303 -1.4940480683 3.0251091521
| 35> H -0.6631020422 1.8436435606 -1.9486453555
| 36> H 0.9146647172 2.3157613654 -1.2172533023
| 37> H -4.8592993327 1.0961554647 0.4402395467
| 38> H -4.7934164127 1.0414767029 2.2282237022
| 39> H -4.6601033878 3.3907886563 1.4551174304
| 40> H -3.0965667279 2.9210322714 2.147760211
| 41> H -3.3025883824 2.9922467243 0.3928448276
| 42> H -1.8243464362 -2.2918931423 -1.2025701766
| 43> H -0.9580583947 -3.0494962457 0.1636923718
| 44> H -3.0819234844 -2.8869110712 1.5239623783
| 45> H -3.9036987374 -2.198823273 0.115469228
| 46> H -3.3139669422 -3.8673672869 0.0629826098
| 47> *
| 48>
| 49>                          ****END OF INPUT****

CARTESIAN COORDINATES (ANGSTROEM)
---------------------------------
  C      5.234260   -2.163051   -1.643529
  C      4.178343   -1.082450   -1.760909
  O      3.183241   -1.320864   -0.744218
  P      2.234063   -0.165073   -0.205298
  S      3.162373    1.502932    0.252994
  O      1.490334   -0.913782    0.968111
  C      1.889966   -0.819049    2.355345
  C      0.650862   -0.671773    3.214737
  S      0.739439   -0.042182   -1.686477
  C      0.100989    1.591211   -1.214139
  S     -0.611616    1.624133    0.449581
  P     -2.156416    0.228140    0.078385
  S     -3.018728    0.304145   -1.684286
  O     -3.132542    0.386540    1.320855
  C     -4.243708    1.299954    1.322240
  C     -3.794920    2.747040    1.333000
  O     -1.406714   -1.116197    0.446327
  C     -1.781500   -2.388878   -0.112442
  C     -3.107955   -2.869655    0.437630
  H      4.776622   -3.141371   -1.757986
  H      5.977774   -2.019582   -2.420578
  H      5.716232   -2.110636   -0.671348
  H      3.681721   -1.111447   -2.734238
  H      4.605121   -0.086025   -1.604043
  H      2.433382   -1.736602    2.590635
  H      2.558701    0.040734    2.472290
  H      0.942007   -0.675328    4.260167
  H      0.141896    0.261880    2.987406
  H     -0.033143   -1.494048    3.025109
  H     -0.663102    1.843644   -1.948645
  H      0.914665    2.315761   -1.217253
  H     -4.859299    1.096155    0.440240
  H     -4.793416    1.041477    2.228224
  H     -4.660103    3.390789    1.455117
  H     -3.096567    2.921032    2.147760
  H     -3.302588    2.992247    0.392845
  H     -1.824346   -2.291893   -1.202570
  H     -0.958058   -3.049496    0.163692
  H     -3.081923   -2.886911    1.523962
  H     -3.903699   -2.198823    0.115469
  H     -3.313967   -3.867367    0.062983

 Total Charge           Charge          ....    0
 Multiplicity           Mult            ....    1
 Number of Electrons    NEL             ....  202
 Basis Dimension        Dim             ....  334

ORBITAL ENERGIES
----------------

  NO   OCC          E(Eh)            E(eV)
   0   2.0000     -88.042825     -2395.7671
   1   2.0000     -88.041462     -2395.7300
   2   2.0000     -87.990548     -2394.3445
   3   2.0000     -87.985960     -2394.2197
   4   2.0000     -76.427266     -2079.6916
   5   2.0000     -76.423948     -2079.6014
   6   2.0000     -18.796422      -511.4766
   7   2.0000     -18.791196      -511.3344
   8   2.0000     -18.787162      -511.2247
   9   2.0000     -18.786448      -511.2052
  10   2.0000      -9.954481      -270.8752
  11   2.0000      -9.954196      -270.8674
  12   2.0000      -9.951124      -270.7838
  13   2.0000      -9.947945      -270.6973
  14   2.0000      -9.947643      -270.6891
  15   2.0000      -9.887515      -269.0530
  16   2.0000      -9.885329      -268.9935
  17   2.0000      -9.882500      -268.9165
  18   2.0000      -9.878361      -268.8039
  19   2.0000      -7.687645      -209.1915
  20   2.0000      -7.686659      -209.1646
  21   2.0000      -7.635443      -207.7710
  22   2.0000      -7.631000      -207.6501
  23   2.0000      -6.424750      -174.8263
  24   2.0000      -6.421692      -174.7431
  25   2.0000      -5.715497      -155.5266
  26   2.0000      -5.714540      -155.5006
  27   2.0000      -5.712296      -155.4395
  28   2.0000      -5.711200      -155.4096
  29   2.0000      -5.704490      -155.2271
  30   2.0000      -5.703556      -155.2016
  31   2.0000      -5.664200      -154.1307
  32   2.0000      -5.659710      -154.0085
  33   2.0000      -5.656080      -153.9097
  34   2.0000      -5.655786      -153.9018
  35   2.0000      -5.651608      -153.7881
  36   2.0000      -5.651381      -153.7819
  37   2.0000      -4.647109      -126.4543
  38   2.0000      -4.646500      -126.4377
  39   2.0000      -4.645414      -126.4081
  40   2.0000      -4.644044      -126.3709
  41   2.0000      -4.643488      -126.3557
  42   2.0000      -4.642262      -126.3224
  43   2.0000      -0.987875       -26.8814
  44   2.0000      -0.983646       -26.7664
  45   2.0000      -0.946357       -25.7517
  46   2.0000      -0.941893       -25.6302
  47   2.0000      -0.765625       -20.8337
  48   2.0000      -0.721950       -19.6453
  49   2.0000      -0.708420       -19.2771
  50   2.0000      -0.686974       -18.6935
  51   2.0000      -0.685311       -18.6483
  52   2.0000      -0.673031       -18.3141
  53   2.0000      -0.649847       -17.6832
  54   2.0000      -0.638261       -17.3680
  55   2.0000      -0.603150       -16.4126
  56   2.0000      -0.590211       -16.0605
  57   2.0000      -0.571784       -15.5590
  58   2.0000      -0.567098       -15.4315
  59   2.0000      -0.556403       -15.1405
  60   2.0000      -0.506349       -13.7785
  61   2.0000      -0.492976       -13.4146
  62   2.0000      -0.477847       -13.0029
  63   2.0000      -0.473689       -12.8897
  64   2.0000      -0.455930       -12.4065
  65   2.0000      -0.440685       -11.9917
  66   2.0000      -0.439948       -11.9716
  67   2.0000      -0.433475       -11.7955
  68   2.0000      -0.430530       -11.7153
  69   2.0000      -0.414321       -11.2742
  70   2.0000      -0.405853       -11.0438
  71   2.0000      -0.393465       -10.7067
  72   2.0000      -0.388129       -10.5615
  73   2.0000      -0.386889       -10.5278
  74   2.0000      -0.379192       -10.3184
  75   2.0000      -0.376129       -10.2350
  76   2.0000      -0.370666       -10.0863
  77   2.0000      -0.356922        -9.7123
  78   2.0000      -0.355449        -9.6723
  79   2.0000      -0.349321        -9.5055
  80   2.0000      -0.347731        -9.4622
  81   2.0000      -0.345725        -9.4076
  82   2.0000      -0.341707        -9.2983
  83   2.0000      -0.336578        -9.1588
  84   2.0000      -0.333184        -9.0664
  85   2.0000      -0.320144        -8.7116
  86   2.0000      -0.305879        -8.3234
  87   2.0000      -0.299123        -8.1396
  88   2.0000      -0.297136        -8.0855
  89   2.0000      -0.288730        -7.8567
  90   2.0000      -0.279835        -7.6147
  91   2.0000      -0.277738        -7.5576
  92   2.0000      -0.266242        -7.2448
  93   2.0000      -0.263651        -7.1743
  94   2.0000      -0.259791        -7.0693
  95   2.0000      -0.232149        -6.3171
  96   2.0000      -0.218131        -5.9357
  97   2.0000      -0.214283        -5.8309
  98   2.0000      -0.208601        -5.6763
  99   2.0000      -0.200845        -5.4653
 100   2.0000      -0.200248        -5.4490
 101   0.0000      -0.045075        -1.2266
 102   0.0000      -0.022768        -0.6196
 103   0.0000       0.000389         0.0106
 104   0.0000       0.004600         0.1252
 105   0.0000       0.008848         0.2408

MULLIKEN ATOMIC CHARGES
-----------------------
   0 C :   -0.280453
   1 C :   -0.009698
   2 O :   -0.378048
   3 P :    0.618059
   4 S :   -0.343793
   5 O :   -0.354633
   6 C :   -0.009416
   7 C :   -0.283202
   8 S :   -0.082069
   9 C :   -0.361580
  10 S :   -0.074561
  11 P :    0.615435
  12 S :   -0.338093
  13 O :   -0.370330
  14 C :   -0.004480
  15 C :   -0.316013
  16 O :   -0.351254
  17 C :    0.000053
  18 C :   -0.305904
  19 H :    0.116039
  20 H :    0.111976
  21 H :    0.117736
  22 H :    0.101943
  23 H :    0.105767
  24 H :    0.100099
  25 H :    0.108281
  26 H :    0.103928
  27 H :    0.122786
  28 H :    0.116289
  29 H :    0.190044
  30 H :    0.193545
  31 H :    0.111506
  32 H :    0.106293
  33 H :    0.114144
  34 H :    0.118973
  35 H :    0.127389
  36 H :    0.112086
  37 H :    0.104931
  38 H :    0.114875
  39 H :    0.120141
  40 H :    0.111211
Sum of atomic charges:   -0.0000000

LOEWDIN ATOMIC CHARGES
----------------------
   0 C :   -0.350489
   1 C :   -0.120485
   2 O :   -0.252230
   3 P :    0.567146
   4 S :   -0.327407
   5 O :   -0.233941
   6 C :   -0.113866
   7 C :   -0.354369
   8 S :    0.087436
   9 C :   -0.480879
  10 S :    0.103913
  11 P :    0.574052
  12 S :   -0.325719
  13 O :   -0.243183
  14 C :   -0.118712
  15 C :   -0.369359
  16 O :   -0.228529
  17 C :   -0.117890
  18 C :   -0.364553
  19 H :    0.126568
  20 H :    0.130755
  21 H :    0.127805
  22 H :    0.110372
  23 H :    0.107561
  24 H :    0.112887
  25 H :    0.106915
  26 H :    0.126583
  27 H :    0.120960
  28 H :    0.124673
  29 H :    0.130322
  30 H :    0.131390
  31 H :    0.110914
  32 H :    0.119245
  33 H :    0.131629
  34 H :    0.124836
  35 H :    0.121408
  36 H :    0.109741
  37 H :    0.118163
  38 H :    0.125024
  39 H :    0.121463
  40 H :    0.129850

  Mayer bond orders larger than 0.100000
B(  0-C ,  1-C ) :   1.1613 B(  0-C , 19-H ) :   0.9509 B(  0-C , 20-H ) :   0.9420
B(  0-C , 21-H ) :   0.9512 B(  1-C ,  2-O ) :   0.9060 B(  1-C , 22-H ) :   0.9301
B(  1-C , 23-H ) :   0.9077 B(  2-O ,  3-P ) :   1.1128 B(  3-P ,  4-S ) :   1.6022
B(  3-P ,  5-O ) :   1.1478 B(  3-P ,  8-S ) :   0.9649 B(  4-S ,  8-S ) :   0.1077
B(  5-O ,  6-C ) :   0.8980 B(  6-C ,  7-C ) :   1.1666 B(  6-C , 24-H ) :   0.9342
B(  6-C , 25-H ) :   0.9036 B(  7-C , 26-H ) :   0.9397 B(  7-C , 27-H ) :   0.9442
B(  7-C , 28-H ) :   0.9470 B(  8-S ,  9-C ) :   1.0032 B(  9-C , 10-S ) :   1.0054
B(  9-C , 29-H ) :   0.8842 B(  9-C , 30-H ) :   0.8829 B( 10-S , 11-P ) :   0.9508
B( 10-S , 12-S ) :   0.1069 B( 11-P , 12-S ) :   1.5829 B( 11-P , 13-O ) :   1.1132
B( 11-P , 16-O ) :   1.1303 B( 13-O , 14-C ) :   0.9073 B( 14-C , 15-C ) :   1.1663
B( 14-C , 31-H ) :   0.9165 B( 14-C , 32-H ) :   0.9339 B( 15-C , 33-H ) :   0.9376
B( 15-C , 34-H ) :   0.9447 B( 15-C , 35-H ) :   0.9355 B( 16-O , 17-C ) :   0.9026
B( 17-C , 18-C ) :   1.1630 B( 17-C , 36-H ) :   0.9162 B( 17-C , 37-H ) :   0.9328
B( 18-C , 38-H ) :   0.9471 B( 18-C , 39-H ) :   0.9364 B( 18-C , 40-H ) :   0.9400

Dispersion correction           -0.066102053
FINAL SINGLE POINT ENERGY     -2929.527867828850

DIPOLE MOMENT
-------------

Method             : SCF
Type of density    : Electron Density
Multiplicity       :   1
Irrep              :   0
Energy             : -2929.6460389694043442 Eh
Relativity type    :
Basis              : AO
                                X                 Y                 Z
Electronic contribution:      2.488698683       9.538081951      -9.350577458
Nuclear contribution   :     -2.647800676     -10.298535294       9.891959063
                        -----------------------------------------
Total Dipole Moment    :     -0.159101992      -0.760453343       0.541381605
                        -----------------------------------------
Magnitude (a.u.)       :      0.946940744
Magnitude (Debye)      :      2.406932088

Rotational constants in cm-1:             0.012991             0.004925             0.004797
Rotational constants in MHz :           389.473106           147.659950           143.817650

                             ****ORCA TERMINATED NORMALLY****
TOTAL RUN TIME: 0 days 0 hours 0 minutes 21 seconds 359 msec
