                         Program Version 6.0.0  -   RELEASE  -
|  1> ! wb97x-v def2-tzvp def2/J RIJCOSX DEFGRID2 scfconv7 GCP(DFT/TZ) printgap
|  2> %output
|  3>     printlevel normal
|  4> end
|  5> * xyz 0 1
|  6> C 5.510477658417559 -2.161979351289788 -0.5037921789553339
|  7> C 4.490158008685602 -1.2031843004642795 -1.0584493441954093
|  8> O 3.546217725003284 -0.9016094005749632 0.02823762692213509
|  9> P 2.490029353137606 0.306793471104545 -0.08507667260123183
| 10> S 3.1483311609128464 2.077294145510274 -0.5433099242540542
| 11> O 1.8351750239672138 0.2917418351816999 1.375288253198444
| 12> C 1.3224881849881487 -0.9432013180321598 2.002004866448309
| 13> C 2.2934096603808514 -1.4277817681723755 3.048689866186876
| 14> S 1.1029693654104347 -0.537303377224357 -1.4614072423939033
| 15> C 0.14091003171013333 0.9486746886909181 -1.9374103254223303
| 16> S -0.9243758843127201 1.7117426638592437 -0.6499835726140893
| 17> P -2.418035457462586 0.2179591875234948 -0.45384284844580214
| 18> S -3.065302441942389 -0.6027881057222547 -2.094045265279982
| 19> O -3.5885632145545823 1.006578472760935 0.317022139994243
| 20> C -3.363496753224929 1.6154635381515803 1.6438800949014214
| 21> C -4.703917906826898 1.7171858619024565 2.3224346939417235
| 22> O -1.7303359847894433 -0.7622227622315975 0.6205133276120429
| 23> C -2.2222978555017012 -2.127783557109944 0.8569506894243439
| 24> C -3.5205962334984235 -2.1339230205013386 1.6263076310560243
| 25> H 6.217693614943735 -2.4233354960943343 -1.296859114345774
| 26> H 6.066542134063954 -1.7066440570807 0.3202903572742384
| 27> H 5.03295860247915 -3.0803607868780105 -0.15073988174206304
| 28> H 3.926722086645268 -1.6428932694421774 -1.8871217810269796
| 29> H 4.948613257761796 -0.2654168279726062 -1.387555628116798
| 30> H 0.36641613719868765 -0.6504968052267438 2.441194666979223
| 31> H 1.1377609990286086 -1.695758912870273 1.2292321722835697
| 32> H 1.8575644966888758 -2.295472020210351 3.554952384800968
| 33> H 3.2446032768049333 -1.7294787146539745 2.6028414324365947
| 34> H 2.4780324018767255 -0.6517651062251063 3.797040526949903
| 35> H -0.47767142336588514 0.6417653971045946 -2.7860894531709826
| 36> H 0.8267520534923808 1.741038767651658 -2.251623240542353
| 37> H -2.6699931309755334 0.9884286070624861 2.210962728176105
| 38> H -2.917659142363057 2.602036051300373 1.4826721850978968
| 39> H -5.142690495332476 0.7266467324587633 2.4716062846583493
| 40> H -4.568440177665877 2.1872088510634704 3.301392792145629
| 41> H -5.393765213677385 2.3313114073386534 1.7372248321570405
| 42> H -2.313573390764543 -2.6309506830603437 -0.11067569711199264
| 43> H -1.4144995433772671 -2.5932247305092098 1.426026541039869
| 44> H -3.780442375966992 -3.1711624071100473 1.8625333429846982
| 45> H -3.4216846796304656 -1.582179175020811 2.5658234455751905
| 46> H -4.339786448638092 -1.705065286767194 1.0415984667364466
| 47> *
| 48>
| 49>                          ****END OF INPUT****

CARTESIAN COORDINATES (ANGSTROEM)
---------------------------------
  C      5.510478   -2.161979   -0.503792
  C      4.490158   -1.203184   -1.058449
  O      3.546218   -0.901609    0.028238
  P      2.490029    0.306793   -0.085077
  S      3.148331    2.077294   -0.543310
  O      1.835175    0.291742    1.375288
  C      1.322488   -0.943201    2.002005
  C      2.293410   -1.427782    3.048690
  S      1.102969   -0.537303   -1.461407
  C      0.140910    0.948675   -1.937410
  S     -0.924376    1.711743   -0.649984
  P     -2.418035    0.217959   -0.453843
  S     -3.065302   -0.602788   -2.094045
  O     -3.588563    1.006578    0.317022
  C     -3.363497    1.615464    1.643880
  C     -4.703918    1.717186    2.322435
  O     -1.730336   -0.762223    0.620513
  C     -2.222298   -2.127784    0.856951
  C     -3.520596   -2.133923    1.626308
  H      6.217694   -2.423335   -1.296859
  H      6.066542   -1.706644    0.320290
  H      5.032959   -3.080361   -0.150740
  H      3.926722   -1.642893   -1.887122
  H      4.948613   -0.265417   -1.387556
  H      0.366416   -0.650497    2.441195
  H      1.137761   -1.695759    1.229232
  H      1.857564   -2.295472    3.554952
  H      3.244603   -1.729479    2.602841
  H      2.478032   -0.651765    3.797041
  H     -0.477671    0.641765   -2.786089
  H      0.826752    1.741039   -2.251623
  H     -2.669993    0.988429    2.210963
  H     -2.917659    2.602036    1.482672
  H     -5.142690    0.726647    2.471606
  H     -4.568440    2.187209    3.301393
  H     -5.393765    2.331311    1.737225
  H     -2.313573   -2.630951   -0.110676
  H     -1.414500   -2.593225    1.426027
  H     -3.780442   -3.171162    1.862533
  H     -3.421685   -1.582179    2.565823
  H     -4.339786   -1.705065    1.041598

 Total Charge           Charge          ....    0
 Multiplicity           Mult            ....    1
 Number of Electrons    NEL             ....  202
 Basis Dimension        Dim             ....  757

ORBITAL ENERGIES
----------------

  NO   OCC          E(Eh)            E(eV)
   0   2.0000     -94.143941     -2561.7869
   1   2.0000     -94.143219     -2561.7672
   2   2.0000     -94.081614     -2560.0909
   3   2.0000     -94.078967     -2560.0188
   4   2.0000     -82.121083     -2234.6283
   5   2.0000     -82.119159     -2234.5759
   6   2.0000     -21.715104      -590.8980
   7   2.0000     -21.715054      -590.8967
   8   2.0000     -21.714245      -590.8746
   9   2.0000     -21.708685      -590.7234
  10   2.0000     -12.124382      -329.9212
  11   2.0000     -12.124173      -329.9155
  12   2.0000     -12.123370      -329.8937
  13   2.0000     -12.119951      -329.8006
  14   2.0000     -12.118246      -329.7542
  15   2.0000     -12.057796      -328.1093
  16   2.0000     -12.055975      -328.0598
  17   2.0000     -12.053954      -328.0048
  18   2.0000     -12.049435      -327.8818
  19   2.0000      -9.655408      -262.7370
  20   2.0000      -9.654584      -262.7146
  21   2.0000      -9.594362      -261.0759
  22   2.0000      -9.591742      -261.0046
  23   2.0000      -8.234354      -224.0682
  24   2.0000      -8.232263      -224.0113
  25   2.0000      -7.633040      -207.7056
  26   2.0000      -7.632557      -207.6924
  27   2.0000      -7.632035      -207.6782
  28   2.0000      -7.631453      -207.6624
  29   2.0000      -7.630540      -207.6375
  30   2.0000      -7.629631      -207.6128
  31   2.0000      -7.571986      -206.0442
  32   2.0000      -7.570202      -205.9957
  33   2.0000      -7.570175      -205.9949
  34   2.0000      -7.569313      -205.9715
  35   2.0000      -7.567658      -205.9264
  36   2.0000      -7.567476      -205.9215
  37   2.0000      -6.398784      -174.1198
  38   2.0000      -6.398183      -174.1034
  39   2.0000      -6.397927      -174.0964
  40   2.0000      -6.396641      -174.0614
  41   2.0000      -6.396286      -174.0518
  42   2.0000      -6.395685      -174.0354
  43   2.0000      -1.724602       -46.9288
  44   2.0000      -1.723629       -46.9023
  45   2.0000      -1.702420       -46.3252
  46   2.0000      -1.698144       -46.2089
  47   2.0000      -1.330841       -36.2140
  48   2.0000      -1.318368       -35.8746
  49   2.0000      -1.307260       -35.5724
  50   2.0000      -1.299301       -35.3558
  51   2.0000      -1.294585       -35.2274
  52   2.0000      -1.253758       -34.1165
  53   2.0000      -1.230072       -33.4719
  54   2.0000      -1.208462       -32.8839
  55   2.0000      -1.176282       -32.0083
  56   2.0000      -1.166975       -31.7550
  57   2.0000      -1.156701       -31.4754
  58   2.0000      -1.153506       -31.3885
  59   2.0000      -1.121158       -30.5083
  60   2.0000      -1.085066       -29.5262
  61   2.0000      -1.076179       -29.2843
  62   2.0000      -1.053431       -28.6653
  63   2.0000      -1.052614       -28.6431
  64   2.0000      -1.004126       -27.3237
  65   2.0000      -0.993255       -27.0278
  66   2.0000      -0.991282       -26.9742
  67   2.0000      -0.989891       -26.9363
  68   2.0000      -0.976666       -26.5764
  69   2.0000      -0.973289       -26.4845
  70   2.0000      -0.966634       -26.3035
  71   2.0000      -0.961788       -26.1716
  72   2.0000      -0.920887       -25.0586
  73   2.0000      -0.895308       -24.3626
  74   2.0000      -0.886918       -24.1343
  75   2.0000      -0.882317       -24.0091
  76   2.0000      -0.879266       -23.9261
  77   2.0000      -0.875690       -23.8287
  78   2.0000      -0.867455       -23.6047
  79   2.0000      -0.850219       -23.1356
  80   2.0000      -0.848778       -23.0964
  81   2.0000      -0.846603       -23.0372
  82   2.0000      -0.841551       -22.8998
  83   2.0000      -0.834925       -22.7195
  84   2.0000      -0.832556       -22.6550
  85   2.0000      -0.831501       -22.6263
  86   2.0000      -0.828479       -22.5441
  87   2.0000      -0.827829       -22.5264
  88   2.0000      -0.823909       -22.4197
  89   2.0000      -0.799070       -21.7438
  90   2.0000      -0.796273       -21.6677
  91   2.0000      -0.793738       -21.5987
  92   2.0000      -0.791953       -21.5501
  93   2.0000      -0.776874       -21.1398
  94   2.0000      -0.752987       -20.4898
  95   2.0000      -0.689482       -18.7617
  96   2.0000      -0.675036       -18.3687
  97   2.0000      -0.643312       -17.5054
  98   2.0000      -0.642126       -17.4731
  99   2.0000      -0.638625       -17.3779
 100   2.0000      -0.634359       -17.2618
 101   0.0000      -0.317709        -8.6453
 102   0.0000      -0.314244        -8.5510
 103   0.0000      -0.272527        -7.4158
 104   0.0000      -0.244964        -6.6658
 105   0.0000      -0.234290        -6.3754

MULLIKEN ATOMIC CHARGES
-----------------------
   0 C :   -0.320007
   1 C :   -0.063487
   2 O :   -0.308557
   3 P :    0.612793
   4 S :   -0.403027
   5 O :   -0.283872
   6 C :   -0.041329
   7 C :   -0.320098
   8 S :   -0.149162
   9 C :   -0.192536
  10 S :   -0.115836
  11 P :    0.597793
  12 S :   -0.401678
  13 O :   -0.300526
  14 C :   -0.076761
  15 C :   -0.318227
  16 O :   -0.301680
  17 C :   -0.054980
  18 C :   -0.334880
  19 H :    0.118234
  20 H :    0.123913
  21 H :    0.115117
  22 H :    0.116456
  23 H :    0.127621
  24 H :    0.119234
  25 H :    0.106086
  26 H :    0.107559
  27 H :    0.128544
  28 H :    0.122125
  29 H :    0.176430
  30 H :    0.179292
  31 H :    0.123625
  32 H :    0.129517
  33 H :    0.117893
  34 H :    0.115465
  35 H :    0.128156
  36 H :    0.137445
  37 H :    0.107466
  38 H :    0.126668
  39 H :    0.105950
  40 H :    0.143259
Sum of atomic charges:   -0.0000000

LOEWDIN ATOMIC CHARGES
----------------------
   0 C :   -0.304292
   1 C :   -0.319047
   2 O :    0.026785
   3 P :   -0.038781
   4 S :   -0.110947
   5 O :    0.038283
   6 C :   -0.319007
   7 C :   -0.306950
   8 S :    0.340435
   9 C :   -0.701771
  10 S :    0.358525
  11 P :   -0.034998
  12 S :   -0.111524
  13 O :    0.025407
  14 C :   -0.319457
  15 C :   -0.302286
  16 O :    0.019335
  17 C :   -0.320408
  18 C :   -0.310101
  19 H :    0.126959
  20 H :    0.123531
  21 H :    0.120798
  22 H :    0.118986
  23 H :    0.123732
  24 H :    0.124590
  25 H :    0.116496
  26 H :    0.123399
  27 H :    0.121294
  28 H :    0.123755
  29 H :    0.116519
  30 H :    0.116389
  31 H :    0.119501
  32 H :    0.123151
  33 H :    0.120347
  34 H :    0.126357
  35 H :    0.125590
  36 H :    0.124450
  37 H :    0.122510
  38 H :    0.128631
  39 H :    0.118346
  40 H :    0.125467

  Mayer bond orders larger than 0.100000
B(  0-C ,  1-C ) :   1.0075 B(  0-C , 19-H ) :   0.9686 B(  0-C , 20-H ) :   0.9755
B(  0-C , 21-H ) :   0.9750 B(  1-C ,  2-O ) :   0.8912 B(  1-C , 22-H ) :   0.9660
B(  1-C , 23-H ) :   0.9611 B(  2-O ,  3-P ) :   1.1561 B(  3-P ,  4-S ) :   1.8764
B(  3-P ,  5-O ) :   1.2347 B(  3-P ,  8-S ) :   1.0493 B(  5-O ,  6-C ) :   0.8664
B(  6-C ,  7-C ) :   0.9887 B(  6-C , 24-H ) :   0.9667 B(  6-C , 25-H ) :   0.9721
B(  7-C , 26-H ) :   0.9716 B(  7-C , 27-H ) :   0.9751 B(  7-C , 28-H ) :   0.9738
B(  8-S ,  9-C ) :   1.0150 B(  9-C , 10-S ) :   1.0236 B(  9-C , 29-H ) :   0.9323
B(  9-C , 30-H ) :   0.9330 B( 10-S , 11-P ) :   1.0939 B( 11-P , 12-S ) :   1.8699
B( 11-P , 13-O ) :   1.2001 B( 11-P , 16-O ) :   1.1383 B( 13-O , 14-C ) :   0.8770
B( 14-C , 15-C ) :   1.0062 B( 14-C , 31-H ) :   0.9694 B( 14-C , 32-H ) :   0.9620
B( 15-C , 33-H ) :   0.9799 B( 15-C , 34-H ) :   0.9691 B( 15-C , 35-H ) :   0.9723
B( 16-O , 17-C ) :   0.8750 B( 17-C , 18-C ) :   1.0016 B( 17-C , 36-H ) :   0.9697
B( 17-C , 37-H ) :   0.9672 B( 18-C , 38-H ) :   0.9662 B( 18-C , 39-H ) :   0.9708
B( 18-C , 40-H ) :   0.9671

FINAL SINGLE POINT ENERGY     -2932.532556856567

DIPOLE MOMENT
-------------

Method             : SCF
Type of density    : Electron Density
Multiplicity       :   1
Irrep              :   0
Energy             : -2932.5625415173672081 Eh
Relativity type    :
Basis              : AO
                                X                 Y                 Z
Electronic contribution:      0.936246748      15.068986425     -20.496437548
Nuclear contribution   :     -0.907062484     -16.615632275      22.094711985
                        -----------------------------------------
Total Dipole Moment    :      0.029184264      -1.546645850       1.598274437
                        -----------------------------------------
Magnitude (a.u.)       :      2.224285567
Magnitude (Debye)      :      5.653684606

Rotational constants in cm-1:             0.012169             0.004428             0.004220
Rotational constants in MHz :           364.823041           132.736305           126.520529

                             ****ORCA TERMINATED NORMALLY****
TOTAL RUN TIME: 0 days 0 hours 15 minutes 25 seconds 731 msec
