                         Program Version 6.0.0  -   RELEASE  -
|  1> ! wb97x-v def2-tzvp def2/J RIJCOSX DEFGRID2 scfconv7 GCP(DFT/TZ) printgap
|  2> %output
|  3>     printlevel normal
|  4> end
|  5> %cpcm
|  6>     smd true
|  7>     smdsolvent "water"
|  8> end
|  9> * xyz 0 1
| 10> C 5.510477658417559 -2.161979351289788 -0.5037921789553339
| 11> C 4.490158008685602 -1.2031843004642795 -1.0584493441954093
| 12> O 3.546217725003284 -0.9016094005749632 0.02823762692213509
| 13> P 2.490029353137606 0.306793471104545 -0.08507667260123183
| 14> S 3.1483311609128464 2.077294145510274 -0.5433099242540542
| 15> O 1.8351750239672138 0.2917418351816999 1.375288253198444
| 16> C 1.3224881849881487 -0.9432013180321598 2.002004866448309
| 17> C 2.2934096603808514 -1.4277817681723755 3.048689866186876
| 18> S 1.1029693654104347 -0.537303377224357 -1.4614072423939033
| 19> C 0.14091003171013333 0.9486746886909181 -1.9374103254223303
| 20> S -0.9243758843127201 1.7117426638592437 -0.6499835726140893
| 21> P -2.418035457462586 0.2179591875234948 -0.45384284844580214
| 22> S -3.065302441942389 -0.6027881057222547 -2.094045265279982
| 23> O -3.5885632145545823 1.006578472760935 0.317022139994243
| 24> C -3.363496753224929 1.6154635381515803 1.6438800949014214
| 25> C -4.703917906826898 1.7171858619024565 2.3224346939417235
| 26> O -1.7303359847894433 -0.7622227622315975 0.6205133276120429
| 27> C -2.2222978555017012 -2.127783557109944 0.8569506894243439
| 28> C -3.5205962334984235 -2.1339230205013386 1.6263076310560243
| 29> H 6.217693614943735 -2.4233354960943343 -1.296859114345774
| 30> H 6.066542134063954 -1.7066440570807 0.3202903572742384
| 31> H 5.03295860247915 -3.0803607868780105 -0.15073988174206304
| 32> H 3.926722086645268 -1.6428932694421774 -1.8871217810269796
| 33> H 4.948613257761796 -0.2654168279726062 -1.387555628116798
| 34> H 0.36641613719868765 -0.6504968052267438 2.441194666979223
| 35> H 1.1377609990286086 -1.695758912870273 1.2292321722835697
| 36> H 1.8575644966888758 -2.295472020210351 3.554952384800968
| 37> H 3.2446032768049333 -1.7294787146539745 2.6028414324365947
| 38> H 2.4780324018767255 -0.6517651062251063 3.797040526949903
| 39> H -0.47767142336588514 0.6417653971045946 -2.7860894531709826
| 40> H 0.8267520534923808 1.741038767651658 -2.251623240542353
| 41> H -2.6699931309755334 0.9884286070624861 2.210962728176105
| 42> H -2.917659142363057 2.602036051300373 1.4826721850978968
| 43> H -5.142690495332476 0.7266467324587633 2.4716062846583493
| 44> H -4.568440177665877 2.1872088510634704 3.301392792145629
| 45> H -5.393765213677385 2.3313114073386534 1.7372248321570405
| 46> H -2.313573390764543 -2.6309506830603437 -0.11067569711199264
| 47> H -1.4144995433772671 -2.5932247305092098 1.426026541039869
| 48> H -3.780442375966992 -3.1711624071100473 1.8625333429846982
| 49> H -3.4216846796304656 -1.582179175020811 2.5658234455751905
| 50> H -4.339786448638092 -1.705065286767194 1.0415984667364466
| 51> *
| 52>
| 53>                          ****END OF INPUT****

CARTESIAN COORDINATES (ANGSTROEM)
---------------------------------
  C      5.510478   -2.161979   -0.503792
  C      4.490158   -1.203184   -1.058449
  O      3.546218   -0.901609    0.028238
  P      2.490029    0.306793   -0.085077
  S      3.148331    2.077294   -0.543310
  O      1.835175    0.291742    1.375288
  C      1.322488   -0.943201    2.002005
  C      2.293410   -1.427782    3.048690
  S      1.102969   -0.537303   -1.461407
  C      0.140910    0.948675   -1.937410
  S     -0.924376    1.711743   -0.649984
  P     -2.418035    0.217959   -0.453843
  S     -3.065302   -0.602788   -2.094045
  O     -3.588563    1.006578    0.317022
  C     -3.363497    1.615464    1.643880
  C     -4.703918    1.717186    2.322435
  O     -1.730336   -0.762223    0.620513
  C     -2.222298   -2.127784    0.856951
  C     -3.520596   -2.133923    1.626308
  H      6.217694   -2.423335   -1.296859
  H      6.066542   -1.706644    0.320290
  H      5.032959   -3.080361   -0.150740
  H      3.926722   -1.642893   -1.887122
  H      4.948613   -0.265417   -1.387556
  H      0.366416   -0.650497    2.441195
  H      1.137761   -1.695759    1.229232
  H      1.857564   -2.295472    3.554952
  H      3.244603   -1.729479    2.602841
  H      2.478032   -0.651765    3.797041
  H     -0.477671    0.641765   -2.786089
  H      0.826752    1.741039   -2.251623
  H     -2.669993    0.988429    2.210963
  H     -2.917659    2.602036    1.482672
  H     -5.142690    0.726647    2.471606
  H     -4.568440    2.187209    3.301393
  H     -5.393765    2.331311    1.737225
  H     -2.313573   -2.630951   -0.110676
  H     -1.414500   -2.593225    1.426027
  H     -3.780442   -3.171162    1.862533
  H     -3.421685   -1.582179    2.565823
  H     -4.339786   -1.705065    1.041598

 Total Charge           Charge          ....    0
 Multiplicity           Mult            ....    1
 Number of Electrons    NEL             ....  202
 Basis Dimension        Dim             ....  757

ORBITAL ENERGIES
----------------

  NO   OCC          E(Eh)            E(eV)
   0   2.0000     -94.148773     -2561.9183
   1   2.0000     -94.148251     -2561.9042
   2   2.0000     -94.091737     -2560.3663
   3   2.0000     -94.091473     -2560.3592
   4   2.0000     -82.126710     -2234.7814
   5   2.0000     -82.126030     -2234.7629
   6   2.0000     -21.714934      -590.8934
   7   2.0000     -21.713702      -590.8599
   8   2.0000     -21.713433      -590.8525
   9   2.0000     -21.711173      -590.7910
  10   2.0000     -12.124922      -329.9359
  11   2.0000     -12.107985      -329.4750
  12   2.0000     -12.107757      -329.4688
  13   2.0000     -12.106948      -329.4468
  14   2.0000     -12.105440      -329.4058
  15   2.0000     -12.035869      -327.5126
  16   2.0000     -12.035807      -327.5110
  17   2.0000     -12.035203      -327.4945
  18   2.0000     -12.034275      -327.4693
  19   2.0000      -9.660186      -262.8670
  20   2.0000      -9.659654      -262.8525
  21   2.0000      -9.604883      -261.3621
  22   2.0000      -9.604586      -261.3541
  23   2.0000      -8.239863      -224.2181
  24   2.0000      -8.239272      -224.2020
  25   2.0000      -7.637928      -207.8386
  26   2.0000      -7.637425      -207.8249
  27   2.0000      -7.636972      -207.8126
  28   2.0000      -7.636327      -207.7950
  29   2.0000      -7.635509      -207.7728
  30   2.0000      -7.634654      -207.7495
  31   2.0000      -7.582470      -206.3295
  32   2.0000      -7.582227      -206.3229
  33   2.0000      -7.580904      -206.2869
  34   2.0000      -7.580746      -206.2826
  35   2.0000      -7.580511      -206.2762
  36   2.0000      -7.580456      -206.2747
  37   2.0000      -6.404209      -174.2674
  38   2.0000      -6.403895      -174.2588
  39   2.0000      -6.403676      -174.2529
  40   2.0000      -6.403366      -174.2444
  41   2.0000      -6.403119      -174.2377
  42   2.0000      -6.402920      -174.2323
  43   2.0000      -1.725816       -46.9618
  44   2.0000      -1.722181       -46.8629
  45   2.0000      -1.701070       -46.2885
  46   2.0000      -1.699965       -46.2584
  47   2.0000      -1.331956       -36.2444
  48   2.0000      -1.312143       -35.7052
  49   2.0000      -1.300474       -35.3877
  50   2.0000      -1.284151       -34.9435
  51   2.0000      -1.283465       -34.9249
  52   2.0000      -1.252748       -34.0890
  53   2.0000      -1.231862       -33.5207
  54   2.0000      -1.214436       -33.0465
  55   2.0000      -1.168945       -31.8086
  56   2.0000      -1.164702       -31.6931
  57   2.0000      -1.147289       -31.2193
  58   2.0000      -1.146245       -31.1909
  59   2.0000      -1.120787       -30.4982
  60   2.0000      -1.078909       -29.3586
  61   2.0000      -1.070832       -29.1388
  62   2.0000      -1.050097       -28.5746
  63   2.0000      -1.044063       -28.4104
  64   2.0000      -0.998783       -27.1783
  65   2.0000      -0.991786       -26.9879
  66   2.0000      -0.990532       -26.9538
  67   2.0000      -0.982654       -26.7394
  68   2.0000      -0.971518       -26.4363
  69   2.0000      -0.970250       -26.4019
  70   2.0000      -0.961784       -26.1715
  71   2.0000      -0.959907       -26.1204
  72   2.0000      -0.922349       -25.0984
  73   2.0000      -0.891318       -24.2540
  74   2.0000      -0.875723       -23.8296
  75   2.0000      -0.869023       -23.6473
  76   2.0000      -0.866854       -23.5883
  77   2.0000      -0.865384       -23.5483
  78   2.0000      -0.863215       -23.4893
  79   2.0000      -0.841937       -22.9103
  80   2.0000      -0.837557       -22.7911
  81   2.0000      -0.836055       -22.7502
  82   2.0000      -0.833363       -22.6770
  83   2.0000      -0.828391       -22.5417
  84   2.0000      -0.828102       -22.5338
  85   2.0000      -0.811804       -22.0903
  86   2.0000      -0.811296       -22.0765
  87   2.0000      -0.810424       -22.0528
  88   2.0000      -0.810084       -22.0435
  89   2.0000      -0.787412       -21.4266
  90   2.0000      -0.779181       -21.2026
  91   2.0000      -0.778691       -21.1893
  92   2.0000      -0.777386       -21.1537
  93   2.0000      -0.775507       -21.1026
  94   2.0000      -0.758511       -20.6401
  95   2.0000      -0.694736       -18.9047
  96   2.0000      -0.680998       -18.5309
  97   2.0000      -0.656435       -17.8625
  98   2.0000      -0.654939       -17.8218
  99   2.0000      -0.649757       -17.6808
 100   2.0000      -0.648253       -17.6399
 101   0.0000      -0.323298        -8.7974
 102   0.0000      -0.318855        -8.6765
 103   0.0000      -0.275323        -7.4919
 104   0.0000      -0.247676        -6.7396
 105   0.0000      -0.236940        -6.4475

MULLIKEN ATOMIC CHARGES
-----------------------
   0 C :   -0.366861
   1 C :   -0.052971
   2 O :   -0.320588
   3 P :    0.627819
   4 S :   -0.459727
   5 O :   -0.333840
   6 C :   -0.041086
   7 C :   -0.374979
   8 S :   -0.148397
   9 C :   -0.195097
  10 S :   -0.142621
  11 P :    0.617815
  12 S :   -0.459511
  13 O :   -0.344904
  14 C :   -0.063283
  15 C :   -0.374931
  16 O :   -0.313056
  17 C :   -0.053148
  18 C :   -0.366556
  19 H :    0.140545
  20 H :    0.133372
  21 H :    0.134085
  22 H :    0.136268
  23 H :    0.130796
  24 H :    0.144697
  25 H :    0.135699
  26 H :    0.140352
  27 H :    0.134226
  28 H :    0.132631
  29 H :    0.197371
  30 H :    0.199644
  31 H :    0.152095
  32 H :    0.146348
  33 H :    0.138034
  34 H :    0.139204
  35 H :    0.134140
  36 H :    0.136152
  37 H :    0.145748
  38 H :    0.148547
  39 H :    0.133708
  40 H :    0.132261
Sum of atomic charges:   -0.0000000

LOEWDIN ATOMIC CHARGES
----------------------
   0 C :   -0.305426
   1 C :   -0.313671
   2 O :    0.023681
   3 P :   -0.037096
   4 S :   -0.153292
   5 O :    0.015787
   6 C :   -0.312517
   7 C :   -0.308726
   8 S :    0.345440
   9 C :   -0.697323
  10 S :    0.345398
  11 P :   -0.030933
  12 S :   -0.152533
  13 O :    0.007502
  14 C :   -0.310656
  15 C :   -0.304999
  16 O :    0.017303
  17 C :   -0.312784
  18 C :   -0.309442
  19 H :    0.133693
  20 H :    0.124859
  21 H :    0.125040
  22 H :    0.125418
  23 H :    0.124837
  24 H :    0.132000
  25 H :    0.123986
  26 H :    0.133575
  27 H :    0.120801
  28 H :    0.125123
  29 H :    0.122482
  30 H :    0.122110
  31 H :    0.128619
  32 H :    0.128038
  33 H :    0.124042
  34 H :    0.133976
  35 H :    0.125175
  36 H :    0.123511
  37 H :    0.134650
  38 H :    0.134557
  39 H :    0.126195
  40 H :    0.121600

  Mayer bond orders larger than 0.100000
B(  0-C ,  1-C ) :   1.0149 B(  0-C , 19-H ) :   0.9640 B(  0-C , 20-H ) :   0.9725
B(  0-C , 21-H ) :   0.9716 B(  1-C ,  2-O ) :   0.8660 B(  1-C , 22-H ) :   0.9611
B(  1-C , 23-H ) :   0.9589 B(  2-O ,  3-P ) :   1.1777 B(  3-P ,  4-S ) :   1.8401
B(  3-P ,  5-O ) :   1.2351 B(  3-P ,  8-S ) :   1.0648 B(  5-O ,  6-C ) :   0.8212
B(  6-C ,  7-C ) :   0.9924 B(  6-C , 24-H ) :   0.9587 B(  6-C , 25-H ) :   0.9679
B(  7-C , 26-H ) :   0.9678 B(  7-C , 27-H ) :   0.9746 B(  7-C , 28-H ) :   0.9707
B(  8-S ,  9-C ) :   1.0054 B(  9-C , 10-S ) :   1.0071 B(  9-C , 29-H ) :   0.9289
B(  9-C , 30-H ) :   0.9285 B( 10-S , 11-P ) :   1.0984 B( 11-P , 12-S ) :   1.8344
B( 11-P , 13-O ) :   1.2098 B( 11-P , 16-O ) :   1.1637 B( 13-O , 14-C ) :   0.8395
B( 14-C , 15-C ) :   1.0108 B( 14-C , 31-H ) :   0.9632 B( 14-C , 32-H ) :   0.9570
B( 15-C , 33-H ) :   0.9760 B( 15-C , 34-H ) :   0.9653 B( 15-C , 35-H ) :   0.9700
B( 16-O , 17-C ) :   0.8468 B( 17-C , 18-C ) :   1.0040 B( 17-C , 36-H ) :   0.9707
B( 17-C , 37-H ) :   0.9596 B( 18-C , 38-H ) :   0.9618 B( 18-C , 39-H ) :   0.9674
B( 18-C , 40-H ) :   0.9672

FINAL SINGLE POINT ENERGY     -2932.549113449282

DIPOLE MOMENT
-------------

Method             : SCF
Type of density    : Electron Density
Multiplicity       :   1
Irrep              :   0
Energy             : -2932.5790981100822137 Eh
Relativity type    :
Basis              : AO
                                X                 Y                 Z
Electronic contribution:      1.020599204      14.373618589     -20.005422299
Nuclear contribution   :     -0.907062484     -16.615632275      22.094711985
                        -----------------------------------------
Total Dipole Moment    :      0.113536720      -2.242013686       2.089289686
                        -----------------------------------------
Magnitude (a.u.)       :      3.066699748
Magnitude (Debye)      :      7.794931287

Rotational constants in cm-1:             0.012169             0.004428             0.004220
Rotational constants in MHz :           364.823041           132.736305           126.520529

                             ****ORCA TERMINATED NORMALLY****
TOTAL RUN TIME: 0 days 0 hours 14 minutes 54 seconds 553 msec
