                         Program Version 6.0.0  -   RELEASE  -
|  1> ! pbe def2-sv(p) def2/J RI DEFGRID1 loosescf d4 GCP(DFT/SV(P)) printgap
|  2> %output
|  3>     printlevel normal
|  4> end
|  5> * xyz 0 1
|  6> C 3.7819589096 0.6530518746 -3.0198506143
|  7> C 2.4963811913 0.4580245248 -2.2428313127
|  8> O 2.8245451592 -0.1918744932 -1.0006261512
|  9> P 2.0423742697 0.0212176846 0.3633819302
| 10> S 1.4755211944 1.8464729125 0.7614538861
| 11> O 3.086485076 -0.4668616227 1.4380524843
| 12> C 3.813725941 -1.7213226507 1.3491555486
| 13> C 3.3505242296 -2.6736888653 2.4335966792
| 14> S 0.6102282141 -1.5694226765 0.291971881
| 15> C -0.2467032552 -1.222831541 1.8440095625
| 16> S -1.3538432673 0.2339259591 1.804989074
| 17> P -2.0317835962 0.1916437857 -0.1937301003
| 18> S -0.9122831733 0.6938356125 -1.7341453643
| 19> O -3.3461090046 1.0819348853 -0.0958523798
| 20> C -3.3378709426 2.497485708 -0.3379329208
| 21> C -2.5623059738 3.2490456069 0.7251907016
| 22> O -2.6037888911 -1.2822298004 -0.2157791048
| 23> C -2.8623034556 -1.997374676 -1.4424233086
| 24> C -4.0563497261 -1.4274990993 -2.1782833744
| 25> H 3.5505807419 1.1186886142 -3.9719994077
| 26> H 4.4607651312 1.2927006344 -2.4623631316
| 27> H 4.2603128557 -0.3064399533 -3.1933516228
| 28> H 1.7899729934 -0.1783889892 -2.7817539214
| 29> H 2.0066241652 1.4130530803 -2.0263037314
| 30> H 3.6727327516 -2.1475860925 0.3543024394
| 31> H 4.8601862875 -1.4446218604 1.484714301
| 32> H 3.4027618062 -2.1861888111 3.4032252935
| 33> H 2.3286664662 -2.9963324052 2.2504406349
| 34> H 3.999390428 -3.543762609 2.437382931
| 35> H 0.478027392 -1.0233913651 2.6325941776
| 36> H -0.8428490184 -2.1050700808 2.0656881375
| 37> H -2.9045385656 2.6786873758 -1.3273891945
| 38> H -4.3937937509 2.770961693 -0.3372631238
| 39> H -1.5042615017 2.9852338385 0.6768789814
| 40> H -2.6607928027 4.3170844836 0.5600754099
| 41> H -2.9361214941 2.9987017473 1.7151136314
| 42> H -1.9633203277 -1.9519754568 -2.0655017056
| 43> H -3.0362212034 -3.0226609272 -1.1141580084
| 44> H -3.8328208748 -0.4161260238 -2.5158213022
| 45> H -4.2781735521 -2.0471570027 -3.0413727478
| 46> H -4.9213770816 -1.3944762105 -1.5212758114
| 47> *
| 48>
| 49>                          ****END OF INPUT****

CARTESIAN COORDINATES (ANGSTROEM)
---------------------------------
  C      3.781959    0.653052   -3.019851
  C      2.496381    0.458025   -2.242831
  O      2.824545   -0.191874   -1.000626
  P      2.042374    0.021218    0.363382
  S      1.475521    1.846473    0.761454
  O      3.086485   -0.466862    1.438052
  C      3.813726   -1.721323    1.349156
  C      3.350524   -2.673689    2.433597
  S      0.610228   -1.569423    0.291972
  C     -0.246703   -1.222832    1.844010
  S     -1.353843    0.233926    1.804989
  P     -2.031784    0.191644   -0.193730
  S     -0.912283    0.693836   -1.734145
  O     -3.346109    1.081935   -0.095852
  C     -3.337871    2.497486   -0.337933
  C     -2.562306    3.249046    0.725191
  O     -2.603789   -1.282230   -0.215779
  C     -2.862303   -1.997375   -1.442423
  C     -4.056350   -1.427499   -2.178283
  H      3.550581    1.118689   -3.971999
  H      4.460765    1.292701   -2.462363
  H      4.260313   -0.306440   -3.193352
  H      1.789973   -0.178389   -2.781754
  H      2.006624    1.413053   -2.026304
  H      3.672733   -2.147586    0.354302
  H      4.860186   -1.444622    1.484714
  H      3.402762   -2.186189    3.403225
  H      2.328666   -2.996332    2.250441
  H      3.999390   -3.543763    2.437383
  H      0.478027   -1.023391    2.632594
  H     -0.842849   -2.105070    2.065688
  H     -2.904539    2.678687   -1.327389
  H     -4.393794    2.770962   -0.337263
  H     -1.504262    2.985234    0.676879
  H     -2.660793    4.317084    0.560075
  H     -2.936121    2.998702    1.715114
  H     -1.963320   -1.951975   -2.065502
  H     -3.036221   -3.022661   -1.114158
  H     -3.832821   -0.416126   -2.515821
  H     -4.278174   -2.047157   -3.041373
  H     -4.921377   -1.394476   -1.521276

 Total Charge           Charge          ....    0
 Multiplicity           Mult            ....    1
 Number of Electrons    NEL             ....  202
 Basis Dimension        Dim             ....  334

ORBITAL ENERGIES
----------------

  NO   OCC          E(Eh)            E(eV)
   0   2.0000     -88.042393     -2395.7553
   1   2.0000     -88.032922     -2395.4976
   2   2.0000     -87.978768     -2394.0240
   3   2.0000     -87.976534     -2393.9632
   4   2.0000     -76.421794     -2079.5427
   5   2.0000     -76.421607     -2079.5376
   6   2.0000     -18.790281      -511.3095
   7   2.0000     -18.788332      -511.2565
   8   2.0000     -18.787649      -511.2379
   9   2.0000     -18.785209      -511.1715
  10   2.0000      -9.958653      -270.9887
  11   2.0000      -9.955906      -270.9140
  12   2.0000      -9.948524      -270.7131
  13   2.0000      -9.945040      -270.6183
  14   2.0000      -9.945001      -270.6172
  15   2.0000      -9.889394      -269.1041
  16   2.0000      -9.882791      -268.9244
  17   2.0000      -9.880912      -268.8733
  18   2.0000      -9.875786      -268.7338
  19   2.0000      -7.686729      -209.1665
  20   2.0000      -7.678182      -208.9340
  21   2.0000      -7.623501      -207.4460
  22   2.0000      -7.621624      -207.3949
  23   2.0000      -6.419045      -174.6711
  24   2.0000      -6.418710      -174.6620
  25   2.0000      -5.714541      -155.5006
  26   2.0000      -5.711334      -155.4133
  27   2.0000      -5.706410      -155.2793
  28   2.0000      -5.703723      -155.2062
  29   2.0000      -5.702821      -155.1816
  30   2.0000      -5.694613      -154.9583
  31   2.0000      -5.652358      -153.8085
  32   2.0000      -5.650789      -153.7658
  33   2.0000      -5.644166      -153.5856
  34   2.0000      -5.643699      -153.5729
  35   2.0000      -5.642241      -153.5332
  36   2.0000      -5.641507      -153.5132
  37   2.0000      -4.642031      -126.3161
  38   2.0000      -4.641366      -126.2980
  39   2.0000      -4.640804      -126.2827
  40   2.0000      -4.640576      -126.2765
  41   2.0000      -4.639163      -126.2381
  42   2.0000      -4.639088      -126.2360
  43   2.0000      -0.984687       -26.7947
  44   2.0000      -0.981744       -26.7146
  45   2.0000      -0.942122       -25.6364
  46   2.0000      -0.941366       -25.6159
  47   2.0000      -0.760321       -20.6894
  48   2.0000      -0.717768       -19.5315
  49   2.0000      -0.706791       -19.2327
  50   2.0000      -0.689578       -18.7644
  51   2.0000      -0.681464       -18.5436
  52   2.0000      -0.666568       -18.1383
  53   2.0000      -0.648282       -17.6407
  54   2.0000      -0.633623       -17.2418
  55   2.0000      -0.594691       -16.1824
  56   2.0000      -0.580706       -15.8018
  57   2.0000      -0.573753       -15.6126
  58   2.0000      -0.568090       -15.4585
  59   2.0000      -0.560982       -15.2651
  60   2.0000      -0.506567       -13.7844
  61   2.0000      -0.487978       -13.2786
  62   2.0000      -0.478117       -13.0102
  63   2.0000      -0.468583       -12.7508
  64   2.0000      -0.455861       -12.4046
  65   2.0000      -0.441956       -12.0262
  66   2.0000      -0.433908       -11.8072
  67   2.0000      -0.431259       -11.7352
  68   2.0000      -0.429987       -11.7005
  69   2.0000      -0.412236       -11.2175
  70   2.0000      -0.406201       -11.0533
  71   2.0000      -0.390160       -10.6168
  72   2.0000      -0.388070       -10.5599
  73   2.0000      -0.381257       -10.3745
  74   2.0000      -0.379441       -10.3251
  75   2.0000      -0.371470       -10.1082
  76   2.0000      -0.366288        -9.9672
  77   2.0000      -0.357983        -9.7412
  78   2.0000      -0.353806        -9.6275
  79   2.0000      -0.349663        -9.5148
  80   2.0000      -0.348194        -9.4748
  81   2.0000      -0.343272        -9.3409
  82   2.0000      -0.340005        -9.2520
  83   2.0000      -0.335862        -9.1393
  84   2.0000      -0.326389        -8.8815
  85   2.0000      -0.313316        -8.5258
  86   2.0000      -0.310221        -8.4415
  87   2.0000      -0.299552        -8.1512
  88   2.0000      -0.291555        -7.9336
  89   2.0000      -0.289682        -7.8826
  90   2.0000      -0.278628        -7.5818
  91   2.0000      -0.271709        -7.3936
  92   2.0000      -0.265123        -7.2144
  93   2.0000      -0.256228        -6.9723
  94   2.0000      -0.255670        -6.9571
  95   2.0000      -0.244416        -6.6509
  96   2.0000      -0.221462        -6.0263
  97   2.0000      -0.208350        -5.6695
  98   2.0000      -0.186672        -5.0796
  99   2.0000      -0.181272        -4.9327
 100   2.0000      -0.180352        -4.9076
 101   0.0000      -0.049322        -1.3421
 102   0.0000      -0.027966        -0.7610
 103   0.0000      -0.011691        -0.3181
 104   0.0000       0.008137         0.2214
 105   0.0000       0.019250         0.5238

MULLIKEN ATOMIC CHARGES
-----------------------
   0 C :   -0.274957
   1 C :   -0.021663
   2 O :   -0.387811
   3 P :    0.607675
   4 S :   -0.285182
   5 O :   -0.363540
   6 C :   -0.008661
   7 C :   -0.294447
   8 S :   -0.122541
   9 C :   -0.318784
  10 S :   -0.084944
  11 P :    0.620767
  12 S :   -0.335103
  13 O :   -0.369722
  14 C :   -0.002028
  15 C :   -0.339160
  16 O :   -0.372055
  17 C :   -0.000796
  18 C :   -0.304137
  19 H :    0.111854
  20 H :    0.117008
  21 H :    0.109551
  22 H :    0.109156
  23 H :    0.121628
  24 H :    0.107553
  25 H :    0.111071
  26 H :    0.120330
  27 H :    0.117713
  28 H :    0.110804
  29 H :    0.182979
  30 H :    0.185542
  31 H :    0.108716
  32 H :    0.102154
  33 H :    0.152634
  34 H :    0.112407
  35 H :    0.118794
  36 H :    0.108473
  37 H :    0.099877
  38 H :    0.122724
  39 H :    0.109477
  40 H :    0.116647
Sum of atomic charges:   -0.0000000

LOEWDIN ATOMIC CHARGES
----------------------
   0 C :   -0.351826
   1 C :   -0.119307
   2 O :   -0.248805
   3 P :    0.563850
   4 S :   -0.293240
   5 O :   -0.243249
   6 C :   -0.113505
   7 C :   -0.360514
   8 S :    0.072246
   9 C :   -0.470240
  10 S :    0.088681
  11 P :    0.570726
  12 S :   -0.318270
  13 O :   -0.243909
  14 C :   -0.121962
  15 C :   -0.373615
  16 O :   -0.243982
  17 C :   -0.118555
  18 C :   -0.364299
  19 H :    0.131006
  20 H :    0.127566
  21 H :    0.123334
  22 H :    0.109942
  23 H :    0.110689
  24 H :    0.109729
  25 H :    0.121714
  26 H :    0.128245
  27 H :    0.118903
  28 H :    0.130459
  29 H :    0.131808
  30 H :    0.135066
  31 H :    0.108329
  32 H :    0.117140
  33 H :    0.126785
  34 H :    0.131367
  35 H :    0.123768
  36 H :    0.108783
  37 H :    0.116250
  38 H :    0.123224
  39 H :    0.129085
  40 H :    0.126583

  Mayer bond orders larger than 0.100000
B(  0-C ,  1-C ) :   1.1534 B(  0-C , 19-H ) :   0.9422 B(  0-C , 20-H ) :   0.9497
B(  0-C , 21-H ) :   0.9508 B(  1-C ,  2-O ) :   0.8956 B(  1-C , 22-H ) :   0.9302
B(  1-C , 23-H ) :   0.9086 B(  2-O ,  3-P ) :   1.0981 B(  3-P ,  4-S ) :   1.6921
B(  3-P ,  5-O ) :   1.1212 B(  3-P ,  8-S ) :   0.9127 B(  4-S ,  8-S ) :   0.1158
B(  5-O ,  6-C ) :   0.8937 B(  6-C ,  7-C ) :   1.1644 B(  6-C , 24-H ) :   0.9173
B(  6-C , 25-H ) :   0.9345 B(  7-C , 26-H ) :   0.9457 B(  7-C , 27-H ) :   0.9372
B(  7-C , 28-H ) :   0.9400 B(  8-S ,  9-C ) :   1.0084 B(  9-C , 10-S ) :   0.9822
B(  9-C , 29-H ) :   0.9005 B(  9-C , 30-H ) :   0.9092 B( 10-S , 11-P ) :   0.9853
B( 10-S , 12-S ) :   0.1171 B( 11-P , 12-S ) :   1.5700 B( 11-P , 13-O ) :   1.1075
B( 11-P , 16-O ) :   1.1151 B( 13-O , 14-C ) :   0.9087 B( 14-C , 15-C ) :   1.1651
B( 14-C , 31-H ) :   0.9126 B( 14-C , 32-H ) :   0.9327 B( 15-C , 33-H ) :   0.9269
B( 15-C , 34-H ) :   0.9377 B( 15-C , 35-H ) :   0.9432 B( 16-O , 17-C ) :   0.9040
B( 17-C , 18-C ) :   1.1664 B( 17-C , 36-H ) :   0.9139 B( 17-C , 37-H ) :   0.9347
B( 18-C , 38-H ) :   0.9359 B( 18-C , 39-H ) :   0.9396 B( 18-C , 40-H ) :   0.9461

Dispersion correction           -0.067699292
FINAL SINGLE POINT ENERGY     -2929.511118324563

DIPOLE MOMENT
-------------

Method             : SCF
Type of density    : Electron Density
Multiplicity       :   1
Irrep              :   0
Energy             : -2929.6270147590266788 Eh
Relativity type    :
Basis              : AO
                                X                 Y                 Z
Electronic contribution:     -1.382718238       3.831316787       8.127559985
Nuclear contribution   :      1.435981087      -5.106026869      -8.417667674
                        -----------------------------------------
Total Dipole Moment    :      0.053262849      -1.274710082      -0.290107690
                        -----------------------------------------
Magnitude (a.u.)       :      1.308390307
Magnitude (Debye)      :      3.325663867

Rotational constants in cm-1:             0.011271             0.005496             0.005282
Rotational constants in MHz :           337.896624           164.774617           158.350899

                             ****ORCA TERMINATED NORMALLY****
TOTAL RUN TIME: 0 days 0 hours 0 minutes 21 seconds 146 msec
