                         Program Version 6.0.0  -   RELEASE  -
|  1> ! r2scan-3c def2/J RI DEFGRID2 scfconv6 printgap
|  2> %output
|  3>     printlevel normal
|  4> end
|  5> * xyz 0 1
|  6> C 1.6426374183 1.1964842204 9.7385e-05
|  7> C 0.2572793147 1.2315259193 -8.9798e-05
|  8> C -0.4207473707 0.0222999907 -0.0003157887
|  9> C 0.299075217 -1.1655698776 -6.79713e-05
| 10> N 1.6190803114 -1.1889441549 8.87966e-05
| 11> C 2.2743093083 -0.0382948699 1.1239e-05
| 12> Cl -2.1571173139 -0.0102508732 8.48982e-05
| 13> H 2.2150625693 2.1093320367 0.0002258865
| 14> H -0.2834937253 2.1643549776 -0.0001099636
| 15> H -0.1994289208 -2.1241089881 -0.0001671665
| 16> H 3.3515057395 -0.1198107287 0.0001797099
| 17> *
| 18>
| 19>                          ****END OF INPUT****

CARTESIAN COORDINATES (ANGSTROEM)
---------------------------------
  C      1.642637    1.196484    0.000097
  C      0.257279    1.231526   -0.000090
  C     -0.420747    0.022300   -0.000316
  C      0.299075   -1.165570   -0.000068
  N      1.619080   -1.188944    0.000089
  C      2.274309   -0.038295    0.000011
  Cl    -2.157117   -0.010251    0.000085
  H      2.215063    2.109332    0.000226
  H     -0.283494    2.164355   -0.000110
  H     -0.199429   -2.124109   -0.000167
  H      3.351506   -0.119811    0.000180

 Total Charge           Charge          ....    0
 Multiplicity           Mult            ....    1
 Number of Electrons    NEL             ....   58
 Basis Dimension        Dim             ....  166

ORBITAL ENERGIES
----------------

  NO   OCC          E(Eh)            E(eV)
   0   2.0000    -101.231331     -2754.6446
   1   2.0000     -14.171646      -385.6301
   2   2.0000     -10.114570      -275.2314
   3   2.0000     -10.084073      -274.4016
   4   2.0000     -10.079314      -274.2721
   5   2.0000     -10.072020      -274.0736
   6   2.0000     -10.062211      -273.8067
   7   2.0000      -9.387055      -255.4347
   8   2.0000      -7.133326      -194.1077
   9   2.0000      -7.123319      -193.8354
  10   2.0000      -7.122839      -193.8223
  11   2.0000      -0.934673       -25.4338
  12   2.0000      -0.852289       -23.1920
  13   2.0000      -0.780195       -21.2302
  14   2.0000      -0.728693       -19.8288
  15   2.0000      -0.621537       -16.9129
  16   2.0000      -0.604832       -16.4583
  17   2.0000      -0.511480       -13.9181
  18   2.0000      -0.479083       -13.0365
  19   2.0000      -0.452955       -12.3255
  20   2.0000      -0.417734       -11.3671
  21   2.0000      -0.403578       -10.9819
  22   2.0000      -0.394232       -10.7276
  23   2.0000      -0.359867        -9.7925
  24   2.0000      -0.337145        -9.1742
  25   2.0000      -0.301601        -8.2070
  26   2.0000      -0.283491        -7.7142
  27   2.0000      -0.245736        -6.6868
  28   2.0000      -0.238944        -6.5020
  29   0.0000      -0.070268        -1.9121
  30   0.0000      -0.055987        -1.5235
  31   0.0000       0.001858         0.0506
  32   0.0000       0.090321         2.4578
  33   0.0000       0.090437         2.4609

MULLIKEN ATOMIC CHARGES
-----------------------
   0 C :   -0.075080
   1 C :   -0.190643
   2 C :    0.215632
   3 C :   -0.168735
   4 N :   -0.163706
   5 C :   -0.087214
   6 Cl:   -0.133021
   7 H :    0.153747
   8 H :    0.165018
   9 H :    0.147242
  10 H :    0.136760
Sum of atomic charges:    0.0000000

LOEWDIN ATOMIC CHARGES
----------------------
   0 C :   -0.134489
   1 C :   -0.133914
   2 C :   -0.151293
   3 C :    0.074295
   4 N :   -0.604050
   5 C :    0.079352
   6 Cl:    0.134452
   7 H :    0.173610
   8 H :    0.180594
   9 H :    0.193884
  10 H :    0.187559

  Mayer bond orders larger than 0.100000
B(  0-C ,  1-C ) :   1.3921 B(  0-C ,  5-C ) :   1.3511 B(  0-C ,  7-H ) :   0.9344
B(  1-C ,  2-C ) :   1.3676 B(  1-C ,  8-H ) :   0.9428 B(  2-C ,  3-C ) :   1.2694
B(  2-C ,  6-Cl) :   0.9413 B(  3-C ,  4-N ) :   1.4802 B(  3-C ,  9-H ) :   0.9915
B(  4-N ,  5-C ) :   1.4537 B(  5-C , 10-H ) :   0.9802

Dispersion correction           -0.003660003
FINAL SINGLE POINT ENERGY      -707.794695779218

DIPOLE MOMENT
-------------

Method             : SCF
Type of density    : Electron Density
Multiplicity       :   1
Irrep              :   0
Energy             :  -707.7970422969106039 Eh
Relativity type    :
Basis              : AO
                                X                 Y                 Z
Electronic contribution:     -7.443386873      -1.154546148      -0.000022535
Nuclear contribution   :      7.673534566       1.911489463       0.000007063
                        -----------------------------------------
Total Dipole Moment    :      0.230147693       0.756943314      -0.000015472
                        -----------------------------------------
Magnitude (a.u.)       :      0.791158102
Magnitude (Debye)      :      2.010964081

Rotational constants in cm-1:             0.197569             0.053245             0.041941
Rotational constants in MHz :          5922.965692          1596.236017          1257.374336

                             ****ORCA TERMINATED NORMALLY****
TOTAL RUN TIME: 0 days 0 hours 0 minutes 25 seconds 17 msec
