                         Program Version 6.0.0  -   RELEASE  -
|  1> ! r2scan-3c def2/J RI DEFGRID2 scfconv6 printgap
|  2> %output
|  3>     printlevel normal
|  4> end
|  5> %cpcm
|  6>     smd true
|  7>     smdsolvent "water"
|  8> end
|  9> * xyz 0 1
| 10> C 1.6426374183 1.1964842204 9.7385e-05
| 11> C 0.2572793147 1.2315259193 -8.9798e-05
| 12> C -0.4207473707 0.0222999907 -0.0003157887
| 13> C 0.299075217 -1.1655698776 -6.79713e-05
| 14> N 1.6190803114 -1.1889441549 8.87966e-05
| 15> C 2.2743093083 -0.0382948699 1.1239e-05
| 16> Cl -2.1571173139 -0.0102508732 8.48982e-05
| 17> H 2.2150625693 2.1093320367 0.0002258865
| 18> H -0.2834937253 2.1643549776 -0.0001099636
| 19> H -0.1994289208 -2.1241089881 -0.0001671665
| 20> H 3.3515057395 -0.1198107287 0.0001797099
| 21> *
| 22>
| 23>                          ****END OF INPUT****

CARTESIAN COORDINATES (ANGSTROEM)
---------------------------------
  C      1.642637    1.196484    0.000097
  C      0.257279    1.231526   -0.000090
  C     -0.420747    0.022300   -0.000316
  C      0.299075   -1.165570   -0.000068
  N      1.619080   -1.188944    0.000089
  C      2.274309   -0.038295    0.000011
  Cl    -2.157117   -0.010251    0.000085
  H      2.215063    2.109332    0.000226
  H     -0.283494    2.164355   -0.000110
  H     -0.199429   -2.124109   -0.000167
  H      3.351506   -0.119811    0.000180

 Total Charge           Charge          ....    0
 Multiplicity           Mult            ....    1
 Number of Electrons    NEL             ....   58
 Basis Dimension        Dim             ....  166

ORBITAL ENERGIES
----------------

  NO   OCC          E(Eh)            E(eV)
   0   2.0000    -101.229843     -2754.6041
   1   2.0000     -14.169776      -385.5792
   2   2.0000     -10.108760      -275.0733
   3   2.0000     -10.078468      -274.2491
   4   2.0000     -10.071567      -274.0613
   5   2.0000     -10.062214      -273.8068
   6   2.0000     -10.050851      -273.4976
   7   2.0000      -9.385696      -255.3978
   8   2.0000      -7.131859      -194.0677
   9   2.0000      -7.122017      -193.7999
  10   2.0000      -7.121506      -193.7860
  11   2.0000      -0.931247       -25.3405
  12   2.0000      -0.849523       -23.1167
  13   2.0000      -0.772157       -21.0115
  14   2.0000      -0.723452       -19.6861
  15   2.0000      -0.612816       -16.6756
  16   2.0000      -0.598055       -16.2739
  17   2.0000      -0.502124       -13.6635
  18   2.0000      -0.472160       -12.8481
  19   2.0000      -0.444398       -12.0927
  20   2.0000      -0.408653       -11.1200
  21   2.0000      -0.399945       -10.8831
  22   2.0000      -0.383583       -10.4378
  23   2.0000      -0.350434        -9.5358
  24   2.0000      -0.335946        -9.1415
  25   2.0000      -0.300195        -8.1687
  26   2.0000      -0.277386        -7.5480
  27   2.0000      -0.241733        -6.5779
  28   2.0000      -0.240053        -6.5322
  29   0.0000      -0.064635        -1.7588
  30   0.0000      -0.050127        -1.3640
  31   0.0000       0.005538         0.1507
  32   0.0000       0.096158         2.6166
  33   0.0000       0.096808         2.6343

MULLIKEN ATOMIC CHARGES
-----------------------
   0 C :   -0.108788
   1 C :   -0.188491
   2 C :    0.201292
   3 C :   -0.173726
   4 N :   -0.218290
   5 C :   -0.101607
   6 Cl:   -0.149720
   7 H :    0.194404
   8 H :    0.202756
   9 H :    0.175047
  10 H :    0.167122
Sum of atomic charges:    0.0000000

LOEWDIN ATOMIC CHARGES
----------------------
   0 C :   -0.126413
   1 C :   -0.123849
   2 C :   -0.157651
   3 C :    0.069095
   4 N :   -0.644769
   5 C :    0.077966
   6 Cl:    0.122134
   7 H :    0.188746
   8 H :    0.194065
   9 H :    0.202711
  10 H :    0.197964

  Mayer bond orders larger than 0.100000
B(  0-C ,  1-C ) :   1.3956 B(  0-C ,  5-C ) :   1.3559 B(  0-C ,  7-H ) :   0.9320
B(  1-C ,  2-C ) :   1.3422 B(  1-C ,  8-H ) :   0.9352 B(  2-C ,  3-C ) :   1.2748
B(  2-C ,  6-Cl) :   0.9296 B(  3-C ,  4-N ) :   1.4947 B(  3-C ,  9-H ) :   0.9749
B(  4-N ,  5-C ) :   1.4449 B(  5-C , 10-H ) :   0.9664

Dispersion correction           -0.003660003
FINAL SINGLE POINT ENERGY      -707.801027671647

DIPOLE MOMENT
-------------

Method             : SCF
Type of density    : Electron Density
Multiplicity       :   1
Irrep              :   0
Energy             :  -707.8033741893402748 Eh
Relativity type    :
Basis              : AO
                                X                 Y                 Z
Electronic contribution:     -7.369250136      -0.813715666      -0.000038524
Nuclear contribution   :      7.673534566       1.911489463       0.000007063
                        -----------------------------------------
Total Dipole Moment    :      0.304284429       1.097773797      -0.000031461
                        -----------------------------------------
Magnitude (a.u.)       :      1.139164748
Magnitude (Debye)      :      2.895526679

Rotational constants in cm-1:             0.197569             0.053245             0.041941
Rotational constants in MHz :          5922.965692          1596.236017          1257.374336

                             ****ORCA TERMINATED NORMALLY****
TOTAL RUN TIME: 0 days 0 hours 0 minutes 40 seconds 82 msec
