                         Program Version 6.0.0  -   RELEASE  -
|  1> ! pbe def2-sv(p) def2/J RI DEFGRID1 loosescf d4 GCP(DFT/SV(P)) printgap
|  2> %output
|  3>     printlevel normal
|  4> end
|  5> * xyz 0 1
|  6> C 2.5987954752 0.4794849819 -2.6889403357
|  7> C 1.7438503256 1.3918350675 -1.8363313138
|  8> O 1.2346760177 0.718194481 -0.6705093804
|  9> P 2.1661956194 0.3352693214 0.5543501024
| 10> S 3.5596132628 1.6325984728 1.0078389394
| 11> O 2.7018317711 -1.1090631771 0.1306237951
| 12> C 3.8605166715 -1.6935571768 0.7486265977
| 13> C 3.5842595309 -2.1292916386 2.1736829347
| 14> S 0.6814102799 -0.0199068865 1.9943867057
| 15> C -0.2252589364 -1.3998207975 1.1869339897
| 16> S -1.9912776597 -1.0772816447 1.0888905599
| 17> P -2.0049287133 -0.0153869303 -0.7616652872
| 18> S -0.9783347075 -0.8888254539 -2.1823576016
| 19> O -1.4800542625 1.4591366537 -0.5434553121
| 20> C -2.196084236 2.5395338259 0.101028726
| 21> C -2.4444560128 2.2897841974 1.5744927706
| 22> O -3.5521780012 0.2393067365 -1.0145556731
| 23> C -4.5851160441 -0.7581280581 -0.9065312617
| 24> C -4.3354399388 -1.962271003 -1.7895635241
| 25> H 3.504246476 0.2043574661 -2.1505931226
| 26> H 2.0415054233 -0.4214244384 -2.9365578089
| 27> H 2.8716229759 0.9968891942 -3.6032208813
| 28> H 0.8429332882 1.7065438685 -2.3662723015
| 29> H 2.3108982398 2.2682099552 -1.5055559009
| 30> H 4.10447687 -2.5402112336 0.1055648063
| 31> H 4.6718711866 -0.958804889 0.7242264192
| 32> H 4.4684081355 -2.6124798526 2.576980137
| 33> H 3.346697602 -1.260964767 2.788050777
| 34> H 2.7498713602 -2.8250775312 2.2052286898
| 35> H -0.1053122085 -2.2821875647 1.8092127851
| 36> H 0.1707329088 -1.5524318649 0.1817880276
| 37> H -1.5368646565 3.3964435684 -0.0498411534
| 38> H -3.1341722717 2.6936874707 -0.4352295727
| 39> H -3.1541144532 1.4774393041 1.7145846101
| 40> H -1.5148703917 2.037071635 2.0811380937
| 41> H -2.8522961226 3.192938204 2.0180349669
| 42> H -4.6618700377 -1.0580002283 0.1420313676
| 43> H -5.4877105672 -0.2233122982 -1.2077920209
| 44> H -3.44261626 -2.4916121397 -1.4609082413
| 45> H -5.1864556094 -2.6330535138 -1.7311984913
| 46> H -4.1902980148 -1.6531965506 -2.8220484479
| 47> *
| 48>
| 49>                          ****END OF INPUT****

CARTESIAN COORDINATES (ANGSTROEM)
---------------------------------
  C      2.598795    0.479485   -2.688940
  C      1.743850    1.391835   -1.836331
  O      1.234676    0.718194   -0.670509
  P      2.166196    0.335269    0.554350
  S      3.559613    1.632598    1.007839
  O      2.701832   -1.109063    0.130624
  C      3.860517   -1.693557    0.748627
  C      3.584260   -2.129292    2.173683
  S      0.681410   -0.019907    1.994387
  C     -0.225259   -1.399821    1.186934
  S     -1.991278   -1.077282    1.088891
  P     -2.004929   -0.015387   -0.761665
  S     -0.978335   -0.888825   -2.182358
  O     -1.480054    1.459137   -0.543455
  C     -2.196084    2.539534    0.101029
  C     -2.444456    2.289784    1.574493
  O     -3.552178    0.239307   -1.014556
  C     -4.585116   -0.758128   -0.906531
  C     -4.335440   -1.962271   -1.789564
  H      3.504246    0.204357   -2.150593
  H      2.041505   -0.421424   -2.936558
  H      2.871623    0.996889   -3.603221
  H      0.842933    1.706544   -2.366272
  H      2.310898    2.268210   -1.505556
  H      4.104477   -2.540211    0.105565
  H      4.671871   -0.958805    0.724226
  H      4.468408   -2.612480    2.576980
  H      3.346698   -1.260965    2.788051
  H      2.749871   -2.825078    2.205229
  H     -0.105312   -2.282188    1.809213
  H      0.170733   -1.552432    0.181788
  H     -1.536865    3.396444   -0.049841
  H     -3.134172    2.693687   -0.435230
  H     -3.154114    1.477439    1.714585
  H     -1.514870    2.037072    2.081138
  H     -2.852296    3.192938    2.018035
  H     -4.661870   -1.058000    0.142031
  H     -5.487711   -0.223312   -1.207792
  H     -3.442616   -2.491612   -1.460908
  H     -5.186456   -2.633054   -1.731198
  H     -4.190298   -1.653197   -2.822048

 Total Charge           Charge          ....    0
 Multiplicity           Mult            ....    1
 Number of Electrons    NEL             ....  202
 Basis Dimension        Dim             ....  334

ORBITAL ENERGIES
----------------

  NO   OCC          E(Eh)            E(eV)
   0   2.0000     -88.049531     -2395.9496
   1   2.0000     -88.040549     -2395.7051
   2   2.0000     -87.984084     -2394.1686
   3   2.0000     -87.983084     -2394.1414
   4   2.0000     -76.429967     -2079.7651
   5   2.0000     -76.420470     -2079.5067
   6   2.0000     -18.802449      -511.6406
   7   2.0000     -18.790097      -511.3045
   8   2.0000     -18.788807      -511.2694
   9   2.0000     -18.776950      -510.9468
  10   2.0000      -9.965260      -271.1685
  11   2.0000      -9.960027      -271.0261
  12   2.0000      -9.954370      -270.8722
  13   2.0000      -9.950022      -270.7539
  14   2.0000      -9.936592      -270.3884
  15   2.0000      -9.887153      -269.0431
  16   2.0000      -9.884359      -268.9671
  17   2.0000      -9.883891      -268.9544
  18   2.0000      -9.870815      -268.5985
  19   2.0000      -7.694491      -209.3777
  20   2.0000      -7.685822      -209.1419
  21   2.0000      -7.629255      -207.6026
  22   2.0000      -7.628127      -207.5719
  23   2.0000      -6.426909      -174.8851
  24   2.0000      -6.418455      -174.6550
  25   2.0000      -5.722242      -155.7101
  26   2.0000      -5.718950      -155.6205
  27   2.0000      -5.714136      -155.4895
  28   2.0000      -5.711648      -155.4218
  29   2.0000      -5.710075      -155.3790
  30   2.0000      -5.702544      -155.1741
  31   2.0000      -5.658217      -153.9679
  32   2.0000      -5.657211      -153.9405
  33   2.0000      -5.649884      -153.7412
  34   2.0000      -5.649364      -153.7270
  35   2.0000      -5.648734      -153.7099
  36   2.0000      -5.648081      -153.6921
  37   2.0000      -4.649974      -126.5322
  38   2.0000      -4.648849      -126.5016
  39   2.0000      -4.646833      -126.4467
  40   2.0000      -4.640754      -126.2813
  41   2.0000      -4.640371      -126.2709
  42   2.0000      -4.638992      -126.2334
  43   2.0000      -0.992249       -27.0005
  44   2.0000      -0.979639       -26.6573
  45   2.0000      -0.946193       -25.7472
  46   2.0000      -0.937944       -25.5227
  47   2.0000      -0.764935       -20.8149
  48   2.0000      -0.722003       -19.6467
  49   2.0000      -0.708326       -19.2745
  50   2.0000      -0.693606       -18.8740
  51   2.0000      -0.683770       -18.6063
  52   2.0000      -0.671298       -18.2669
  53   2.0000      -0.652231       -17.7481
  54   2.0000      -0.637615       -17.3504
  55   2.0000      -0.594540       -16.1782
  56   2.0000      -0.591359       -16.0917
  57   2.0000      -0.583193       -15.8695
  58   2.0000      -0.568197       -15.4614
  59   2.0000      -0.561222       -15.2716
  60   2.0000      -0.501943       -13.6586
  61   2.0000      -0.487590       -13.2680
  62   2.0000      -0.473435       -12.8828
  63   2.0000      -0.466901       -12.7050
  64   2.0000      -0.459631       -12.5072
  65   2.0000      -0.445126       -12.1125
  66   2.0000      -0.441273       -12.0077
  67   2.0000      -0.435980       -11.8636
  68   2.0000      -0.431281       -11.7358
  69   2.0000      -0.416788       -11.3414
  70   2.0000      -0.411726       -11.2036
  71   2.0000      -0.408006       -11.1024
  72   2.0000      -0.392788       -10.6883
  73   2.0000      -0.389746       -10.6055
  74   2.0000      -0.381198       -10.3729
  75   2.0000      -0.371354       -10.1051
  76   2.0000      -0.357330        -9.7235
  77   2.0000      -0.354867        -9.6564
  78   2.0000      -0.351959        -9.5773
  79   2.0000      -0.348132        -9.4732
  80   2.0000      -0.345627        -9.4050
  81   2.0000      -0.341945        -9.3048
  82   2.0000      -0.341253        -9.2860
  83   2.0000      -0.333196        -9.0667
  84   2.0000      -0.327458        -8.9106
  85   2.0000      -0.326286        -8.8787
  86   2.0000      -0.313672        -8.5354
  87   2.0000      -0.302453        -8.2302
  88   2.0000      -0.292912        -7.9705
  89   2.0000      -0.290632        -7.9085
  90   2.0000      -0.279955        -7.6180
  91   2.0000      -0.274096        -7.4585
  92   2.0000      -0.263772        -7.1776
  93   2.0000      -0.262565        -7.1448
  94   2.0000      -0.260083        -7.0772
  95   2.0000      -0.237511        -6.4630
  96   2.0000      -0.218010        -5.9324
  97   2.0000      -0.206619        -5.6224
  98   2.0000      -0.203907        -5.5486
  99   2.0000      -0.198710        -5.4072
 100   2.0000      -0.192352        -5.2342
 101   0.0000      -0.045059        -1.2261
 102   0.0000      -0.028722        -0.7816
 103   0.0000      -0.019949        -0.5428
 104   0.0000       0.002690         0.0732
 105   0.0000       0.014899         0.4054

MULLIKEN ATOMIC CHARGES
-----------------------
   0 C :   -0.308685
   1 C :    0.005550
   2 O :   -0.358210
   3 P :    0.604430
   4 S :   -0.327538
   5 O :   -0.379505
   6 C :   -0.007740
   7 C :   -0.313336
   8 S :   -0.074259
   9 C :   -0.357754
  10 S :   -0.119037
  11 P :    0.625539
  12 S :   -0.307232
  13 O :   -0.350479
  14 C :    0.003238
  15 C :   -0.325096
  16 O :   -0.382973
  17 C :   -0.017400
  18 C :   -0.306760
  19 H :    0.113237
  20 H :    0.124250
  21 H :    0.105859
  22 H :    0.103788
  23 H :    0.104475
  24 H :    0.105910
  25 H :    0.112198
  26 H :    0.112930
  27 H :    0.128944
  28 H :    0.111576
  29 H :    0.187322
  30 H :    0.208706
  31 H :    0.111241
  32 H :    0.107244
  33 H :    0.115335
  34 H :    0.138573
  35 H :    0.111209
  36 H :    0.116206
  37 H :    0.111184
  38 H :    0.127166
  39 H :    0.112185
  40 H :    0.127710
Sum of atomic charges:    0.0000000

LOEWDIN ATOMIC CHARGES
----------------------
   0 C :   -0.364511
   1 C :   -0.120108
   2 O :   -0.234151
   3 P :    0.564983
   4 S :   -0.322977
   5 O :   -0.246747
   6 C :   -0.121750
   7 C :   -0.367238
   8 S :    0.083966
   9 C :   -0.474800
  10 S :    0.075879
  11 P :    0.580748
  12 S :   -0.299159
  13 O :   -0.227634
  14 C :   -0.109119
  15 C :   -0.372744
  16 O :   -0.244501
  17 C :   -0.114945
  18 C :   -0.369307
  19 H :    0.118745
  20 H :    0.126057
  21 H :    0.127756
  22 H :    0.116016
  23 H :    0.106465
  24 H :    0.118637
  25 H :    0.109859
  26 H :    0.131193
  27 H :    0.122625
  28 H :    0.121416
  29 H :    0.135672
  30 H :    0.129628
  31 H :    0.123194
  32 H :    0.112608
  33 H :    0.114078
  34 H :    0.125211
  35 H :    0.130484
  36 H :    0.108076
  37 H :    0.122108
  38 H :    0.122326
  39 H :    0.130661
  40 H :    0.131300

  Mayer bond orders larger than 0.100000
B(  0-C ,  1-C ) :   1.1681 B(  0-C , 19-H ) :   0.9397 B(  0-C , 20-H ) :   0.9430
B(  0-C , 21-H ) :   0.9396 B(  1-C ,  2-O ) :   0.9014 B(  1-C , 22-H ) :   0.9223
B(  1-C , 23-H ) :   0.9183 B(  2-O ,  3-P ) :   1.1337 B(  3-P ,  4-S ) :   1.6323
B(  3-P ,  5-O ) :   1.0545 B(  3-P ,  8-S ) :   0.9850 B(  5-O ,  6-C ) :   0.9134
B(  6-C ,  7-C ) :   1.1642 B(  6-C , 24-H ) :   0.9335 B(  6-C , 25-H ) :   0.9121
B(  7-C , 26-H ) :   0.9388 B(  7-C , 27-H ) :   0.9349 B(  7-C , 28-H ) :   0.9461
B(  8-S ,  9-C ) :   0.9605 B(  9-C , 10-S ) :   1.0183 B(  9-C , 29-H ) :   0.9079
B(  9-C , 30-H ) :   0.8535 B( 10-S , 11-P ) :   0.9282 B( 10-S , 12-S ) :   0.1084
B( 11-P , 12-S ) :   1.6410 B( 11-P , 13-O ) :   1.1390 B( 11-P , 16-O ) :   1.0803
B( 13-O , 14-C ) :   0.8994 B( 14-C , 15-C ) :   1.1709 B( 14-C , 31-H ) :   0.9332
B( 14-C , 32-H ) :   0.9278 B( 15-C , 33-H ) :   0.9409 B( 15-C , 34-H ) :   0.9329
B( 15-C , 35-H ) :   0.9351 B( 16-O , 17-C ) :   0.9109 B( 17-C , 18-C ) :   1.1680
B( 17-C , 36-H ) :   0.9253 B( 17-C , 37-H ) :   0.9331 B( 18-C , 38-H ) :   0.9314
B( 18-C , 39-H ) :   0.9344 B( 18-C , 40-H ) :   0.9430

Dispersion correction           -0.067584257
FINAL SINGLE POINT ENERGY     -2929.513509891306

DIPOLE MOMENT
-------------

Method             : SCF
Type of density    : Electron Density
Multiplicity       :   1
Irrep              :   0
Energy             : -2929.6338693700404292 Eh
Relativity type    :
Basis              : AO
                                X                 Y                 Z
Electronic contribution:      2.806973377       3.951392582       3.776190122
Nuclear contribution   :     -4.121793804      -4.514747777      -3.580949991
                        -----------------------------------------
Total Dipole Moment    :     -1.314820427      -0.563355195       0.195240131
                        -----------------------------------------
Magnitude (a.u.)       :      1.443689904
Magnitude (Debye)      :      3.669568111

Rotational constants in cm-1:             0.012796             0.005154             0.005077
Rotational constants in MHz :           383.622834           154.512180           152.191018

                             ****ORCA TERMINATED NORMALLY****
TOTAL RUN TIME: 0 days 0 hours 0 minutes 21 seconds 813 msec
