                         Program Version 6.0.0  -   RELEASE  -
|  1> ! pbe def2-sv(p) def2/J RI DEFGRID1 loosescf d4 GCP(DFT/SV(P)) printgap
|  2> %output
|  3>     printlevel normal
|  4> end
|  5> * xyz 0 1
|  6> C 5.3827233709 -1.2992556632 0.173135513
|  7> C 4.6467051657 -1.3688286088 -1.1500626422
|  8> O 3.2189947427 -1.4040839728 -0.9536717599
|  9> P 2.395018141 -0.1008107987 -0.5446852753
| 10> S 3.170684741 1.626108257 -1.0163435616
| 11> O 2.1348927063 -0.1923111099 1.0195096635
| 12> C 1.6813509331 -1.4086707605 1.6597477175
| 13> C 0.8663040863 -1.0261672182 2.8778862112
| 14> S 0.5769609882 -0.6351619041 -1.492257058
| 15> C -0.1455551627 1.0253793297 -1.4254066632
| 16> S -0.6564832352 1.5122367572 0.2428973983
| 17> P -2.4153343401 0.3473304207 0.2711634539
| 18> S -3.4911128935 0.3105454463 -1.3734716869
| 19> O -3.2055538678 0.8074059292 1.5720226497
| 20> C -4.1790710334 1.8662059329 1.5492401843
| 21> C -3.5465887055 3.2136260391 1.2678347005
| 22> O -1.8238294166 -1.0432974848 0.7382721005
| 23> C -2.5654084128 -2.2788893104 0.60514959
| 24> C -1.5806951039 -3.4066450235 0.3751966139
| 25> H 5.1342144031 -2.1572283817 0.792345649
| 26> H 6.4525969573 -1.2874868201 -0.0096007303
| 27> H 5.1039458616 -0.3861675463 0.6994255263
| 28> H 4.8645857252 -2.2905459463 -1.6908708511
| 29> H 4.893239055 -0.5036892533 -1.7729707916
| 30> H 1.0890268135 -1.9854144864 0.9427415105
| 31> H 2.5684081818 -1.9818466384 1.9381608635
| 32> H 1.447929491 -0.3708592943 3.5197396332
| 33> H -0.040325476 -0.5058310601 2.578800058
| 34> H 0.598946432 -1.924055192 3.4258905163
| 35> H -1.0161970328 1.0211568268 -2.0823424859
| 36> H 0.5965507928 1.7532273382 -1.7545329303
| 37> H -4.9298163547 1.6275971196 0.7892541943
| 38> H -4.6288173742 1.8300672028 2.5422023125
| 39> H -3.1549494658 3.2359464482 0.2514305638
| 40> H -4.2949977822 3.9924441176 1.373102366
| 41> H -2.72942618 3.4005393488 1.9601256956
| 42> H -3.1344754937 -2.4223451577 1.5260207913
| 43> H -3.2588653921 -2.1808997489 -0.2370598146
| 44> H -0.9125668736 -3.5001722853 1.2262414973
| 45> H -2.1296175072 -4.3339553851 0.2469924071
| 46> H -0.994963852 -3.2120777833 -0.5201456984
| 47> *
| 48>
| 49>                          ****END OF INPUT****

CARTESIAN COORDINATES (ANGSTROEM)
---------------------------------
  C      5.382723   -1.299256    0.173136
  C      4.646705   -1.368829   -1.150063
  O      3.218995   -1.404084   -0.953672
  P      2.395018   -0.100811   -0.544685
  S      3.170685    1.626108   -1.016344
  O      2.134893   -0.192311    1.019510
  C      1.681351   -1.408671    1.659748
  C      0.866304   -1.026167    2.877886
  S      0.576961   -0.635162   -1.492257
  C     -0.145555    1.025379   -1.425407
  S     -0.656483    1.512237    0.242897
  P     -2.415334    0.347330    0.271163
  S     -3.491113    0.310545   -1.373472
  O     -3.205554    0.807406    1.572023
  C     -4.179071    1.866206    1.549240
  C     -3.546589    3.213626    1.267835
  O     -1.823829   -1.043297    0.738272
  C     -2.565408   -2.278889    0.605150
  C     -1.580695   -3.406645    0.375197
  H      5.134214   -2.157228    0.792346
  H      6.452597   -1.287487   -0.009601
  H      5.103946   -0.386168    0.699426
  H      4.864586   -2.290546   -1.690871
  H      4.893239   -0.503689   -1.772971
  H      1.089027   -1.985414    0.942742
  H      2.568408   -1.981847    1.938161
  H      1.447929   -0.370859    3.519740
  H     -0.040325   -0.505831    2.578800
  H      0.598946   -1.924055    3.425891
  H     -1.016197    1.021157   -2.082342
  H      0.596551    1.753227   -1.754533
  H     -4.929816    1.627597    0.789254
  H     -4.628817    1.830067    2.542202
  H     -3.154949    3.235946    0.251431
  H     -4.294998    3.992444    1.373102
  H     -2.729426    3.400539    1.960126
  H     -3.134475   -2.422345    1.526021
  H     -3.258865   -2.180900   -0.237060
  H     -0.912567   -3.500172    1.226241
  H     -2.129618   -4.333955    0.246992
  H     -0.994964   -3.212078   -0.520146

 Total Charge           Charge          ....    0
 Multiplicity           Mult            ....    1
 Number of Electrons    NEL             ....  202
 Basis Dimension        Dim             ....  334

ORBITAL ENERGIES
----------------

  NO   OCC          E(Eh)            E(eV)
   0   2.0000     -88.044130     -2395.8026
   1   2.0000     -88.040289     -2395.6981
   2   2.0000     -87.991452     -2394.3691
   3   2.0000     -87.987644     -2394.2655
   4   2.0000     -76.429311     -2079.7473
   5   2.0000     -76.424524     -2079.6170
   6   2.0000     -18.796868      -511.4888
   7   2.0000     -18.794898      -511.4352
   8   2.0000     -18.794336      -511.4199
   9   2.0000     -18.790192      -511.3071
  10   2.0000      -9.954965      -270.8884
  11   2.0000      -9.954877      -270.8860
  12   2.0000      -9.954815      -270.8843
  13   2.0000      -9.952678      -270.8261
  14   2.0000      -9.951765      -270.8013
  15   2.0000      -9.890039      -269.1216
  16   2.0000      -9.888134      -269.0698
  17   2.0000      -9.885398      -268.9953
  18   2.0000      -9.881739      -268.8958
  19   2.0000      -7.689304      -209.2366
  20   2.0000      -7.685502      -209.1331
  21   2.0000      -7.636356      -207.7958
  22   2.0000      -7.633019      -207.7050
  23   2.0000      -6.427097      -174.8902
  24   2.0000      -6.422667      -174.7697
  25   2.0000      -5.717132      -155.5711
  26   2.0000      -5.713965      -155.4849
  27   2.0000      -5.713246      -155.4653
  28   2.0000      -5.710227      -155.3832
  29   2.0000      -5.706128      -155.2716
  30   2.0000      -5.702352      -155.1689
  31   2.0000      -5.665060      -154.1541
  32   2.0000      -5.661992      -154.0706
  33   2.0000      -5.657013      -153.9351
  34   2.0000      -5.656707      -153.9268
  35   2.0000      -5.653841      -153.8488
  36   2.0000      -5.652848      -153.8218
  37   2.0000      -4.649646      -126.5233
  38   2.0000      -4.648775      -126.4996
  39   2.0000      -4.647576      -126.4670
  40   2.0000      -4.645646      -126.4145
  41   2.0000      -4.644032      -126.3705
  42   2.0000      -4.643116      -126.3456
  43   2.0000      -0.990758       -26.9599
  44   2.0000      -0.985081       -26.8054
  45   2.0000      -0.949435       -25.8354
  46   2.0000      -0.944208       -25.6932
  47   2.0000      -0.765866       -20.8403
  48   2.0000      -0.725176       -19.7330
  49   2.0000      -0.710749       -19.3405
  50   2.0000      -0.691641       -18.8205
  51   2.0000      -0.689864       -18.7722
  52   2.0000      -0.675779       -18.3889
  53   2.0000      -0.651272       -17.7220
  54   2.0000      -0.639754       -17.4086
  55   2.0000      -0.603430       -16.4202
  56   2.0000      -0.591165       -16.0864
  57   2.0000      -0.575324       -15.6554
  58   2.0000      -0.569316       -15.4919
  59   2.0000      -0.556724       -15.1492
  60   2.0000      -0.508816       -13.8456
  61   2.0000      -0.501215       -13.6388
  62   2.0000      -0.480974       -13.0880
  63   2.0000      -0.476480       -12.9657
  64   2.0000      -0.460855       -12.5405
  65   2.0000      -0.445484       -12.1222
  66   2.0000      -0.442990       -12.0544
  67   2.0000      -0.434686       -11.8284
  68   2.0000      -0.432572       -11.7709
  69   2.0000      -0.418196       -11.3797
  70   2.0000      -0.405605       -11.0371
  71   2.0000      -0.397453       -10.8152
  72   2.0000      -0.392670       -10.6851
  73   2.0000      -0.385701       -10.4954
  74   2.0000      -0.382576       -10.4104
  75   2.0000      -0.375044       -10.2055
  76   2.0000      -0.367605       -10.0030
  77   2.0000      -0.360184        -9.8011
  78   2.0000      -0.357568        -9.7299
  79   2.0000      -0.354545        -9.6476
  80   2.0000      -0.348935        -9.4950
  81   2.0000      -0.344406        -9.3718
  82   2.0000      -0.343117        -9.3367
  83   2.0000      -0.338844        -9.2204
  84   2.0000      -0.337923        -9.1953
  85   2.0000      -0.320775        -8.7287
  86   2.0000      -0.314136        -8.5481
  87   2.0000      -0.310164        -8.4400
  88   2.0000      -0.299326        -8.1451
  89   2.0000      -0.290702        -7.9104
  90   2.0000      -0.285563        -7.7706
  91   2.0000      -0.279514        -7.6060
  92   2.0000      -0.268414        -7.3039
  93   2.0000      -0.267515        -7.2794
  94   2.0000      -0.261819        -7.1245
  95   2.0000      -0.234694        -6.3863
  96   2.0000      -0.219285        -5.9670
  97   2.0000      -0.214299        -5.8314
  98   2.0000      -0.207616        -5.6495
  99   2.0000      -0.205435        -5.5902
 100   2.0000      -0.200511        -5.4562
 101   0.0000      -0.044460        -1.2098
 102   0.0000      -0.024918        -0.6781
 103   0.0000      -0.004865        -0.1324
 104   0.0000       0.005077         0.1381
 105   0.0000       0.014124         0.3843

MULLIKEN ATOMIC CHARGES
-----------------------
   0 C :   -0.315248
   1 C :   -0.007067
   2 O :   -0.396547
   3 P :    0.620819
   4 S :   -0.315442
   5 O :   -0.361884
   6 C :   -0.031837
   7 C :   -0.286305
   8 S :   -0.074084
   9 C :   -0.387312
  10 S :   -0.055007
  11 P :    0.612902
  12 S :   -0.333989
  13 O :   -0.377771
  14 C :   -0.003914
  15 C :   -0.319765
  16 O :   -0.364301
  17 C :   -0.013062
  18 C :   -0.294890
  19 H :    0.115729
  20 H :    0.115001
  21 H :    0.131664
  22 H :    0.106634
  23 H :    0.116317
  24 H :    0.113821
  25 H :    0.101329
  26 H :    0.115474
  27 H :    0.131900
  28 H :    0.102710
  29 H :    0.194215
  30 H :    0.197894
  31 H :    0.112417
  32 H :    0.106021
  33 H :    0.129302
  34 H :    0.115052
  35 H :    0.120434
  36 H :    0.103921
  37 H :    0.109471
  38 H :    0.120250
  39 H :    0.112672
  40 H :    0.132476
Sum of atomic charges:    0.0000000

LOEWDIN ATOMIC CHARGES
----------------------
   0 C :   -0.364107
   1 C :   -0.116277
   2 O :   -0.259057
   3 P :    0.571535
   4 S :   -0.305987
   5 O :   -0.241799
   6 C :   -0.118358
   7 C :   -0.355328
   8 S :    0.089011
   9 C :   -0.489816
  10 S :    0.106907
  11 P :    0.572476
  12 S :   -0.322404
  13 O :   -0.246345
  14 C :   -0.118713
  15 C :   -0.369716
  16 O :   -0.238796
  17 C :   -0.117054
  18 C :   -0.354581
  19 H :    0.122356
  20 H :    0.132313
  21 H :    0.126997
  22 H :    0.119241
  23 H :    0.112193
  24 H :    0.105312
  25 H :    0.110179
  26 H :    0.127807
  27 H :    0.123262
  28 H :    0.125444
  29 H :    0.128661
  30 H :    0.130148
  31 H :    0.111388
  32 H :    0.119127
  33 H :    0.122166
  34 H :    0.132148
  35 H :    0.125468
  36 H :    0.114029
  37 H :    0.108296
  38 H :    0.122845
  39 H :    0.131272
  40 H :    0.127758

  Mayer bond orders larger than 0.100000
B(  0-C ,  1-C ) :   1.1609 B(  0-C , 19-H ) :   0.9438 B(  0-C , 20-H ) :   0.9389
B(  0-C , 21-H ) :   0.9367 B(  1-C ,  2-O ) :   0.9074 B(  1-C , 22-H ) :   0.9344
B(  1-C , 23-H ) :   0.9143 B(  2-O ,  3-P ) :   1.0800 B(  3-P ,  4-S ) :   1.6353
B(  3-P ,  5-O ) :   1.1170 B(  3-P ,  8-S ) :   0.9636 B(  4-S ,  8-S ) :   0.1024
B(  5-O ,  6-C ) :   0.8931 B(  6-C ,  7-C ) :   1.1683 B(  6-C , 24-H ) :   0.9033
B(  6-C , 25-H ) :   0.9295 B(  7-C , 26-H ) :   0.9464 B(  7-C , 27-H ) :   0.9359
B(  7-C , 28-H ) :   0.9393 B(  8-S ,  9-C ) :   1.0055 B(  9-C , 10-S ) :   1.0008
B(  9-C , 29-H ) :   0.8698 B(  9-C , 30-H ) :   0.8709 B( 10-S , 11-P ) :   0.9746
B( 10-S , 12-S ) :   0.1081 B( 11-P , 12-S ) :   1.5952 B( 11-P , 13-O ) :   1.1098
B( 11-P , 16-O ) :   1.1158 B( 13-O , 14-C ) :   0.9075 B( 14-C , 15-C ) :   1.1648
B( 14-C , 31-H ) :   0.9166 B( 14-C , 32-H ) :   0.9336 B( 15-C , 33-H ) :   0.9346
B( 15-C , 34-H ) :   0.9376 B( 15-C , 35-H ) :   0.9447 B( 16-O , 17-C ) :   0.8958
B( 17-C , 18-C ) :   1.1682 B( 17-C , 36-H ) :   0.9323 B( 17-C , 37-H ) :   0.9041
B( 18-C , 38-H ) :   0.9423 B( 18-C , 39-H ) :   0.9388 B( 18-C , 40-H ) :   0.9418

Dispersion correction           -0.065327639
FINAL SINGLE POINT ENERGY     -2929.526202816886

DIPOLE MOMENT
-------------

Method             : SCF
Type of density    : Electron Density
Multiplicity       :   1
Irrep              :   0
Energy             : -2929.6463216646907313 Eh
Relativity type    :
Basis              : AO
                                X                 Y                 Z
Electronic contribution:     -1.580414342      10.549615415     -14.026581429
Nuclear contribution   :      1.464708506     -11.757283162      15.156396567
                        -----------------------------------------
Total Dipole Moment    :     -0.115705837      -1.207667747       1.129815138
                        -----------------------------------------
Magnitude (a.u.)       :      1.657809239
Magnitude (Debye)      :      4.213816209

Rotational constants in cm-1:             0.013380             0.004758             0.004412
Rotational constants in MHz :           401.128192           142.639680           132.267018

                             ****ORCA TERMINATED NORMALLY****
TOTAL RUN TIME: 0 days 0 hours 0 minutes 21 seconds 477 msec
