                         Program Version 6.0.0  -   RELEASE  -
|  1> ! pbe def2-sv(p) def2/J RI DEFGRID1 loosescf d4 GCP(DFT/SV(P)) printgap
|  2> %output
|  3>     printlevel normal
|  4> end
|  5> * xyz 0 1
|  6> C 4.2211037349 1.2300351888 0.0002642736
|  7> C 2.9240387082 1.7183808581 0.0001869591
|  8> C 1.8506130814 0.8447832367 2.39425e-05
|  9> C 2.0725534289 -0.532085592 -6.15885e-05
| 10> C 3.3641080643 -1.0284348932 -0.0001107079
| 11> C 4.4285238145 -0.1378691805 7.9998e-05
| 12> Cl 6.0434094012 -0.7643894415 -3.04103e-05
| 13> O 1.0346385377 -1.4388717454 -8.89622e-05
| 14> C -0.2247086854 -0.9130089874 -3.18869e-05
| 15> C -1.2948775016 -1.790562057 -8.33088e-05
| 16> C -2.5928003731 -1.2995025243 -0.0001711882
| 17> C -2.8306030529 0.069317028 -0.000132155
| 18> C -1.7478865366 0.9495360743 -0.0001077435
| 19> C -0.4432107505 0.4696463089 -5.98963e-05
| 20> O 0.576096842 1.3757047321 2.36874e-05
| 21> Cl -2.0019753531 2.651156072 -7.45548e-05
| 22> Cl -4.4363884357 0.6883548909 6.45396e-05
| 23> Cl -3.9171431542 -2.3970492276 0.0001435142
| 24> H 5.056847693 1.9086424053 6.76475e-05
| 25> H 2.7273909587 2.7771092628 0.0001495288
| 26> H 3.517009164 -2.0941265907 -0.0002482784
| 27> H -1.1050458756 -2.850351969 -0.0001361622
| 28> *
| 29>
| 30>                          ****END OF INPUT****

CARTESIAN COORDINATES (ANGSTROEM)
---------------------------------
  C      4.221104    1.230035    0.000264
  C      2.924039    1.718381    0.000187
  C      1.850613    0.844783    0.000024
  C      2.072553   -0.532086   -0.000062
  C      3.364108   -1.028435   -0.000111
  C      4.428524   -0.137869    0.000080
  Cl     6.043409   -0.764389   -0.000030
  O      1.034639   -1.438872   -0.000089
  C     -0.224709   -0.913009   -0.000032
  C     -1.294878   -1.790562   -0.000083
  C     -2.592800   -1.299503   -0.000171
  C     -2.830603    0.069317   -0.000132
  C     -1.747887    0.949536   -0.000108
  C     -0.443211    0.469646   -0.000060
  O      0.576097    1.375705    0.000024
  Cl    -2.001975    2.651156   -0.000075
  Cl    -4.436388    0.688355    0.000065
  Cl    -3.917143   -2.397049    0.000144
  H      5.056848    1.908642    0.000068
  H      2.727391    2.777109    0.000150
  H      3.517009   -2.094127   -0.000248
  H     -1.105046   -2.850352   -0.000136

 Total Charge           Charge          ....    0
 Multiplicity           Mult            ....    1
 Number of Electrons    NEL             ....  160
 Basis Dimension        Dim             ....  276

ORBITAL ENERGIES
----------------

  NO   OCC          E(Eh)            E(eV)
   0   2.0000    -100.658334     -2739.0525
   1   2.0000    -100.655928     -2738.9870
   2   2.0000    -100.655274     -2738.9693
   3   2.0000    -100.649906     -2738.8232
   4   2.0000     -18.836031      -512.5545
   5   2.0000     -18.834764      -512.5200
   6   2.0000      -9.991783      -271.8902
   7   2.0000      -9.991480      -271.8820
   8   2.0000      -9.987809      -271.7821
   9   2.0000      -9.983671      -271.6695
  10   2.0000      -9.977435      -271.4998
  11   2.0000      -9.975022      -271.4341
  12   2.0000      -9.974485      -271.4195
  13   2.0000      -9.967423      -271.2274
  14   2.0000      -9.926377      -270.1105
  15   2.0000      -9.922550      -270.0063
  16   2.0000      -9.922445      -270.0035
  17   2.0000      -9.919683      -269.9283
  18   2.0000      -9.193843      -250.1772
  19   2.0000      -9.191545      -250.1147
  20   2.0000      -9.191127      -250.1033
  21   2.0000      -9.185803      -249.9584
  22   2.0000      -7.025671      -191.1782
  23   2.0000      -7.023378      -191.1158
  24   2.0000      -7.022762      -191.0991
  25   2.0000      -7.017228      -190.9485
  26   2.0000      -7.013825      -190.8559
  27   2.0000      -7.012778      -190.8274
  28   2.0000      -7.011500      -190.7926
  29   2.0000      -7.011073      -190.7810
  30   2.0000      -7.010506      -190.7656
  31   2.0000      -7.010249      -190.7586
  32   2.0000      -7.005746      -190.6360
  33   2.0000      -7.005162      -190.6202
  34   2.0000      -1.042619       -28.3711
  35   2.0000      -1.007657       -27.4197
  36   2.0000      -0.862518       -23.4703
  37   2.0000      -0.831471       -22.6255
  38   2.0000      -0.817181       -22.2366
  39   2.0000      -0.795966       -21.6593
  40   2.0000      -0.780678       -21.2433
  41   2.0000      -0.764901       -20.8140
  42   2.0000      -0.719403       -19.5759
  43   2.0000      -0.697496       -18.9798
  44   2.0000      -0.677677       -18.4405
  45   2.0000      -0.658103       -17.9079
  46   2.0000      -0.616481       -16.7753
  47   2.0000      -0.597581       -16.2610
  48   2.0000      -0.569102       -15.4861
  49   2.0000      -0.559883       -15.2352
  50   2.0000      -0.529421       -14.4063
  51   2.0000      -0.503465       -13.7000
  52   2.0000      -0.476312       -12.9611
  53   2.0000      -0.461133       -12.5481
  54   2.0000      -0.454813       -12.3761
  55   2.0000      -0.453672       -12.3451
  56   2.0000      -0.435309       -11.8454
  57   2.0000      -0.424592       -11.5537
  58   2.0000      -0.417935       -11.3726
  59   2.0000      -0.398509       -10.8440
  60   2.0000      -0.396202       -10.7812
  61   2.0000      -0.393629       -10.7112
  62   2.0000      -0.389106       -10.5881
  63   2.0000      -0.382987       -10.4216
  64   2.0000      -0.366355        -9.9690
  65   2.0000      -0.364634        -9.9222
  66   2.0000      -0.361909        -9.8480
  67   2.0000      -0.334967        -9.1149
  68   2.0000      -0.318518        -8.6673
  69   2.0000      -0.314702        -8.5635
  70   2.0000      -0.299452        -8.1485
  71   2.0000      -0.296762        -8.0753
  72   2.0000      -0.287632        -7.8269
  73   2.0000      -0.278624        -7.5817
  74   2.0000      -0.277792        -7.5591
  75   2.0000      -0.263260        -7.1637
  76   2.0000      -0.250373        -6.8130
  77   2.0000      -0.237629        -6.4662
  78   2.0000      -0.224031        -6.0962
  79   2.0000      -0.190816        -5.1924
  80   0.0000      -0.072839        -1.9820
  81   0.0000      -0.064178        -1.7464
  82   0.0000      -0.060604        -1.6491
  83   0.0000      -0.044240        -1.2038
  84   0.0000      -0.030418        -0.8277

MULLIKEN ATOMIC CHARGES
-----------------------
   0 C :   -0.064632
   1 C :   -0.173438
   2 C :    0.229135
   3 C :    0.194881
   4 C :   -0.181865
   5 C :    0.133728
   6 Cl:   -0.077081
   7 O :   -0.203574
   8 C :    0.209646
   9 C :   -0.231169
  10 C :    0.071881
  11 C :    0.032554
  12 C :   -0.047210
  13 C :    0.151225
  14 O :   -0.193158
  15 Cl:   -0.010277
  16 Cl:   -0.022655
  17 Cl:   -0.044533
  18 H :    0.058957
  19 H :    0.065418
  20 H :    0.052507
  21 H :    0.049659
Sum of atomic charges:   -0.0000000

LOEWDIN ATOMIC CHARGES
----------------------
   0 C :   -0.141665
   1 C :   -0.123480
   2 C :    0.014984
   3 C :    0.024461
   4 C :   -0.149186
   5 C :   -0.133671
   6 Cl:    0.134231
   7 O :   -0.017405
   8 C :    0.017072
   9 C :   -0.154318
  10 C :   -0.160111
  11 C :   -0.187356
  12 C :   -0.170664
  13 C :   -0.007546
  14 O :   -0.016828
  15 Cl:    0.174872
  16 Cl:    0.166128
  17 Cl:    0.158746
  18 H :    0.136266
  19 H :    0.143521
  20 H :    0.144526
  21 H :    0.147424

  Mayer bond orders larger than 0.100000
B(  0-C ,  1-C ) :   1.3072 B(  0-C ,  5-C ) :   1.3887 B(  0-C , 18-H ) :   0.9718
B(  1-C ,  2-C ) :   1.3755 B(  1-C ,  4-C ) :   0.1015 B(  1-C , 19-H ) :   0.9659
B(  2-C ,  3-C ) :   1.2841 B(  2-C , 14-O ) :   1.0359 B(  3-C ,  4-C ) :   1.3534
B(  3-C ,  7-O ) :   1.0482 B(  4-C ,  5-C ) :   1.3079 B(  4-C , 20-H ) :   0.9762
B(  5-C ,  6-Cl) :   0.9653 B(  7-O ,  8-C ) :   1.0627 B(  8-C ,  9-C ) :   1.2970
B(  8-C , 13-C ) :   1.2460 B(  9-C , 10-C ) :   1.2894 B(  9-C , 21-H ) :   0.9940
B( 10-C , 11-C ) :   1.4212 B( 10-C , 17-Cl) :   1.0256 B( 11-C , 12-C ) :   1.4348
B( 11-C , 16-Cl) :   1.1093 B( 12-C , 13-C ) :   1.4053 B( 12-C , 15-Cl) :   1.0966
B( 13-C , 14-O ) :   1.1428

Dispersion correction           -0.040054164
FINAL SINGLE POINT ENERGY     -2448.390116329303

DIPOLE MOMENT
-------------

Method             : SCF
Type of density    : Electron Density
Multiplicity       :   1
Irrep              :   0
Energy             : -2448.4294800998559367 Eh
Relativity type    :
Basis              : AO
                                X                 Y                 Z
Electronic contribution:    -14.906347332       0.502091093       0.000215394
Nuclear contribution   :     15.377389125      -0.482675626      -0.000296255
                        -----------------------------------------
Total Dipole Moment    :      0.471041793       0.019415467      -0.000080861
                        -----------------------------------------
Magnitude (a.u.)       :      0.471441765
Magnitude (Debye)      :      1.198309735

Rotational constants in cm-1:             0.022819             0.004477             0.003742
Rotational constants in MHz :           684.101516           134.202199           112.192974

                             ****ORCA TERMINATED NORMALLY****
TOTAL RUN TIME: 0 days 0 hours 0 minutes 16 seconds 54 msec
