                         Program Version 6.0.0  -   RELEASE  -
|  1> ! pbe def2-sv(p) def2/J RI DEFGRID1 loosescf d4 GCP(DFT/SV(P)) printgap
|  2> %output
|  3>     printlevel normal
|  4> end
|  5> * xyz 0 1
|  6> C 2.5104311024 -1.7019436377 2.8687621325
|  7> C 1.6513370101 -0.4625348815 2.7322607155
|  8> O 1.1790750854 -0.2649630765 1.3830129313
|  9> P 2.1014552723 -0.0872500812 0.1087008547
| 10> S 2.9048501669 -1.6920374617 -0.693192124
| 11> O 3.1409109613 1.0046495263 0.6107342134
| 12> C 4.3690267789 1.2712009935 -0.0893404213
| 13> C 4.1267062218 1.9787579141 -1.4063505625
| 14> S 0.7580624933 0.9559701331 -1.1575446515
| 15> C -0.0471858836 -0.5102193328 -1.8446532765
| 16> S -0.9238409695 -1.4737343875 -0.5866251752
| 17> P -2.3411620465 0.0255297544 -0.0885621144
| 18> S -2.9765864501 1.1291230297 -1.5846994303
| 19> O -1.714608542 0.8501912164 1.1099592682
| 20> C -1.6508989909 2.2927740577 1.1582515526
| 21> C -0.4079046469 2.7103021269 1.9167749338
| 22> O -3.4222603683 -0.782715353 0.7446787735
| 23> C -4.0353253567 -2.0210522838 0.3409775796
| 24> C -4.6789588391 -1.940455956 -1.0280519218
| 25> H 3.4266409082 -1.5906971049 2.2899752497
| 26> H 2.7666115729 -1.8506640642 3.9130922676
| 27> H 1.9759614865 -2.5750981412 2.5007722771
| 28> H 2.2005274541 0.4313307262 3.0369140552
| 29> H 0.7290114814 -0.5496225405 3.3096800198
| 30> H 4.9376815592 1.8915179612 0.6045976899
| 31> H 4.8867512082 0.3207257762 -0.2538038831
| 32> H 3.521111698 2.8683843712 -1.2535869819
| 33> H 5.0791358108 2.2605833829 -1.8435728491
| 34> H 3.6050930751 1.3150474261 -2.094620961
| 35> H 0.7009708192 -1.1730716394 -2.2790513198
| 36> H -0.7539333594 -0.1540425325 -2.5940145256
| 37> H -1.6478970221 2.6851125724 0.1356299328
| 38> H -2.5546059578 2.636113437 1.6675782028
| 39> H -0.3979557108 3.792085554 2.0020308364
| 40> H -0.412757178 2.2687493821 2.9090899331
| 41> H 0.4869150716 2.3880827577 1.3901203973
| 42> H -3.2726191148 -2.8047435701 0.3650716088
| 43> H -4.7773270393 -2.2037841477 1.120449783
| 44> H -3.9188481888 -1.787891704 -1.7930099185
| 45> H -5.2058568709 -2.8667488902 -1.2332712565
| 46> H -5.3799289762 -1.1100569373 -1.0686808436
| 47> *
| 48>
| 49>                          ****END OF INPUT****

CARTESIAN COORDINATES (ANGSTROEM)
---------------------------------
  C      2.510431   -1.701944    2.868762
  C      1.651337   -0.462535    2.732261
  O      1.179075   -0.264963    1.383013
  P      2.101455   -0.087250    0.108701
  S      2.904850   -1.692037   -0.693192
  O      3.140911    1.004650    0.610734
  C      4.369027    1.271201   -0.089340
  C      4.126706    1.978758   -1.406351
  S      0.758062    0.955970   -1.157545
  C     -0.047186   -0.510219   -1.844653
  S     -0.923841   -1.473734   -0.586625
  P     -2.341162    0.025530   -0.088562
  S     -2.976586    1.129123   -1.584699
  O     -1.714609    0.850191    1.109959
  C     -1.650899    2.292774    1.158252
  C     -0.407905    2.710302    1.916775
  O     -3.422260   -0.782715    0.744679
  C     -4.035325   -2.021052    0.340978
  C     -4.678959   -1.940456   -1.028052
  H      3.426641   -1.590697    2.289975
  H      2.766612   -1.850664    3.913092
  H      1.975961   -2.575098    2.500772
  H      2.200527    0.431331    3.036914
  H      0.729011   -0.549623    3.309680
  H      4.937682    1.891518    0.604598
  H      4.886751    0.320726   -0.253804
  H      3.521112    2.868384   -1.253587
  H      5.079136    2.260583   -1.843573
  H      3.605093    1.315047   -2.094621
  H      0.700971   -1.173072   -2.279051
  H     -0.753933   -0.154043   -2.594015
  H     -1.647897    2.685113    0.135630
  H     -2.554606    2.636113    1.667578
  H     -0.397956    3.792086    2.002031
  H     -0.412757    2.268749    2.909090
  H      0.486915    2.388083    1.390120
  H     -3.272619   -2.804744    0.365072
  H     -4.777327   -2.203784    1.120450
  H     -3.918848   -1.787892   -1.793010
  H     -5.205857   -2.866749   -1.233271
  H     -5.379929   -1.110057   -1.068681

 Total Charge           Charge          ....    0
 Multiplicity           Mult            ....    1
 Number of Electrons    NEL             ....  202
 Basis Dimension        Dim             ....  334

ORBITAL ENERGIES
----------------

  NO   OCC          E(Eh)            E(eV)
   0   2.0000     -88.043575     -2395.7875
   1   2.0000     -88.039816     -2395.6852
   2   2.0000     -87.989243     -2394.3090
   3   2.0000     -87.982536     -2394.1265
   4   2.0000     -76.430365     -2079.7760
   5   2.0000     -76.423696     -2079.5945
   6   2.0000     -18.803350      -511.6652
   7   2.0000     -18.789284      -511.2824
   8   2.0000     -18.788627      -511.2645
   9   2.0000     -18.782339      -511.0934
  10   2.0000      -9.957498      -270.9573
  11   2.0000      -9.955493      -270.9027
  12   2.0000      -9.955129      -270.8928
  13   2.0000      -9.952966      -270.8340
  14   2.0000      -9.943870      -270.5865
  15   2.0000      -9.887471      -269.0518
  16   2.0000      -9.883899      -268.9546
  17   2.0000      -9.880477      -268.8615
  18   2.0000      -9.879913      -268.8461
  19   2.0000      -7.688323      -209.2099
  20   2.0000      -7.684808      -209.1142
  21   2.0000      -7.634210      -207.7374
  22   2.0000      -7.627600      -207.5575
  23   2.0000      -6.427385      -174.8980
  24   2.0000      -6.420678      -174.7155
  25   2.0000      -5.716185      -155.5453
  26   2.0000      -5.713016      -155.4591
  27   2.0000      -5.712572      -155.4470
  28   2.0000      -5.709388      -155.3603
  29   2.0000      -5.705153      -155.2451
  30   2.0000      -5.701811      -155.1542
  31   2.0000      -5.663064      -154.0998
  32   2.0000      -5.656403      -153.9186
  33   2.0000      -5.654914      -153.8780
  34   2.0000      -5.654382      -153.8636
  35   2.0000      -5.648218      -153.6958
  36   2.0000      -5.647871      -153.6864
  37   2.0000      -4.650458      -126.5454
  38   2.0000      -4.648888      -126.5027
  39   2.0000      -4.647706      -126.4705
  40   2.0000      -4.643017      -126.3429
  41   2.0000      -4.642674      -126.3336
  42   2.0000      -4.641200      -126.2935
  43   2.0000      -0.992404       -27.0047
  44   2.0000      -0.981546       -26.7092
  45   2.0000      -0.947849       -25.7923
  46   2.0000      -0.938163       -25.5287
  47   2.0000      -0.765934       -20.8421
  48   2.0000      -0.721029       -19.6202
  49   2.0000      -0.708862       -19.2891
  50   2.0000      -0.691351       -18.8126
  51   2.0000      -0.682642       -18.5756
  52   2.0000      -0.674177       -18.3453
  53   2.0000      -0.650831       -17.7100
  54   2.0000      -0.637612       -17.3503
  55   2.0000      -0.600476       -16.3398
  56   2.0000      -0.591875       -16.1057
  57   2.0000      -0.580804       -15.8045
  58   2.0000      -0.568716       -15.4756
  59   2.0000      -0.555948       -15.1281
  60   2.0000      -0.501496       -13.6464
  61   2.0000      -0.496564       -13.5122
  62   2.0000      -0.474359       -12.9080
  63   2.0000      -0.467371       -12.7178
  64   2.0000      -0.461145       -12.5484
  65   2.0000      -0.444694       -12.1007
  66   2.0000      -0.435631       -11.8541
  67   2.0000      -0.429482       -11.6868
  68   2.0000      -0.424881       -11.5616
  69   2.0000      -0.416107       -11.3228
  70   2.0000      -0.413831       -11.2609
  71   2.0000      -0.410054       -11.1581
  72   2.0000      -0.395630       -10.7656
  73   2.0000      -0.381197       -10.3729
  74   2.0000      -0.379113       -10.3162
  75   2.0000      -0.376959       -10.2576
  76   2.0000      -0.366987        -9.9862
  77   2.0000      -0.356660        -9.7052
  78   2.0000      -0.350441        -9.5360
  79   2.0000      -0.349504        -9.5105
  80   2.0000      -0.345339        -9.3972
  81   2.0000      -0.342928        -9.3315
  82   2.0000      -0.340404        -9.2629
  83   2.0000      -0.337744        -9.1905
  84   2.0000      -0.332013        -9.0345
  85   2.0000      -0.324604        -8.8329
  86   2.0000      -0.310524        -8.4498
  87   2.0000      -0.300289        -8.1713
  88   2.0000      -0.294295        -8.0082
  89   2.0000      -0.290631        -7.9085
  90   2.0000      -0.282244        -7.6803
  91   2.0000      -0.279353        -7.6016
  92   2.0000      -0.270439        -7.3590
  93   2.0000      -0.264049        -7.1851
  94   2.0000      -0.254303        -6.9199
  95   2.0000      -0.232977        -6.3396
  96   2.0000      -0.216044        -5.8789
  97   2.0000      -0.213078        -5.7981
  98   2.0000      -0.203544        -5.5387
  99   2.0000      -0.196967        -5.3598
 100   2.0000      -0.195907        -5.3309
 101   0.0000      -0.048134        -1.3098
 102   0.0000      -0.025125        -0.6837
 103   0.0000      -0.004389        -0.1194
 104   0.0000       0.000869         0.0237
 105   0.0000       0.009267         0.2522

MULLIKEN ATOMIC CHARGES
-----------------------
   0 C :   -0.310087
   1 C :   -0.005188
   2 O :   -0.358891
   3 P :    0.626795
   4 S :   -0.326264
   5 O :   -0.385524
   6 C :   -0.007019
   7 C :   -0.314809
   8 S :   -0.079415
   9 C :   -0.358735
  10 S :   -0.091341
  11 P :    0.612003
  12 S :   -0.340848
  13 O :   -0.358836
  14 C :   -0.003296
  15 C :   -0.293117
  16 O :   -0.366102
  17 C :   -0.011837
  18 C :   -0.307661
  19 H :    0.124931
  20 H :    0.109107
  21 H :    0.127191
  22 H :    0.106736
  23 H :    0.112188
  24 H :    0.105294
  25 H :    0.113214
  26 H :    0.117649
  27 H :    0.115329
  28 H :    0.129291
  29 H :    0.190975
  30 H :    0.193651
  31 H :    0.113126
  32 H :    0.100730
  33 H :    0.104802
  34 H :    0.109793
  35 H :    0.123632
  36 H :    0.114474
  37 H :    0.108342
  38 H :    0.124358
  39 H :    0.109828
  40 H :    0.125531
Sum of atomic charges:   -0.0000000

LOEWDIN ATOMIC CHARGES
----------------------
   0 C :   -0.366568
   1 C :   -0.109286
   2 O :   -0.234415
   3 P :    0.574231
   4 S :   -0.319273
   5 O :   -0.244773
   6 C :   -0.120228
   7 C :   -0.368375
   8 S :    0.100460
   9 C :   -0.482724
  10 S :    0.083711
  11 P :    0.572417
  12 S :   -0.321661
  13 O :   -0.238677
  14 C :   -0.117309
  15 C :   -0.355503
  16 O :   -0.242491
  17 C :   -0.115025
  18 C :   -0.369151
  19 H :    0.120708
  20 H :    0.128791
  21 H :    0.131209
  22 H :    0.111377
  23 H :    0.121997
  24 H :    0.118410
  25 H :    0.111112
  26 H :    0.124951
  27 H :    0.132481
  28 H :    0.122498
  29 H :    0.129526
  30 H :    0.130322
  31 H :    0.104664
  32 H :    0.112403
  33 H :    0.127795
  34 H :    0.122330
  35 H :    0.115197
  36 H :    0.108443
  37 H :    0.121019
  38 H :    0.120627
  39 H :    0.129178
  40 H :    0.129599

  Mayer bond orders larger than 0.100000
B(  0-C ,  1-C ) :   1.1673 B(  0-C , 19-H ) :   0.9368 B(  0-C , 20-H ) :   0.9359
B(  0-C , 21-H ) :   0.9444 B(  1-C ,  2-O ) :   0.9047 B(  1-C , 22-H ) :   0.9299
B(  1-C , 23-H ) :   0.9317 B(  2-O ,  3-P ) :   1.1204 B(  3-P ,  4-S ) :   1.6070
B(  3-P ,  5-O ) :   1.0741 B(  3-P ,  8-S ) :   0.9457 B(  4-S ,  8-S ) :   0.1125
B(  5-O ,  6-C ) :   0.9040 B(  6-C ,  7-C ) :   1.1672 B(  6-C , 24-H ) :   0.9328
B(  6-C , 25-H ) :   0.9133 B(  7-C , 26-H ) :   0.9457 B(  7-C , 27-H ) :   0.9377
B(  7-C , 28-H ) :   0.9343 B(  8-S ,  9-C ) :   1.0040 B(  9-C , 10-S ) :   1.0147
B(  9-C , 29-H ) :   0.8798 B(  9-C , 30-H ) :   0.8787 B( 10-S , 11-P ) :   0.9421
B( 10-S , 12-S ) :   0.1100 B( 11-P , 12-S ) :   1.5966 B( 11-P , 13-O ) :   1.1369
B( 11-P , 16-O ) :   1.1276 B( 13-O , 14-C ) :   0.9003 B( 14-C , 15-C ) :   1.1631
B( 14-C , 31-H ) :   0.9029 B( 14-C , 32-H ) :   0.9348 B( 15-C , 33-H ) :   0.9400
B( 15-C , 34-H ) :   0.9466 B( 15-C , 35-H ) :   0.9390 B( 16-O , 17-C ) :   0.9171
B( 17-C , 18-C ) :   1.1634 B( 17-C , 36-H ) :   0.9259 B( 17-C , 37-H ) :   0.9342
B( 18-C , 38-H ) :   0.9334 B( 18-C , 39-H ) :   0.9355 B( 18-C , 40-H ) :   0.9432

Dispersion correction           -0.067649464
FINAL SINGLE POINT ENERGY     -2929.518951508099

DIPOLE MOMENT
-------------

Method             : SCF
Type of density    : Electron Density
Multiplicity       :   1
Irrep              :   0
Energy             : -2929.6369279305995406 Eh
Relativity type    :
Basis              : AO
                                X                 Y                 Z
Electronic contribution:     -5.297162387      -3.805444795      -9.235325904
Nuclear contribution   :      5.832998771       4.030555109      10.317133245
                        -----------------------------------------
Total Dipole Moment    :      0.535836384       0.225110314       1.081807341
                        -----------------------------------------
Magnitude (a.u.)       :      1.228048211
Magnitude (Debye)      :      3.121450486

Rotational constants in cm-1:             0.012681             0.005185             0.005043
Rotational constants in MHz :           380.179926           155.438387           151.173682

                             ****ORCA TERMINATED NORMALLY****
TOTAL RUN TIME: 0 days 0 hours 0 minutes 21 seconds 941 msec
