                         Program Version 6.0.0  -   RELEASE  -
|  1> ! pbe def2-sv(p) def2/J RI DEFGRID1 loosescf d4 GCP(DFT/SV(P)) printgap
|  2> %output
|  3>     printlevel normal
|  4> end
|  5> * xyz 0 1
|  6> C 4.8296142341 -0.5808184923 0.8041263551
|  7> C 4.3768235741 -1.2754717568 -0.4627820675
|  8> O 3.3869984785 -0.5207022749 -1.1952391806
|  9> P 1.9936826739 0.0055422405 -0.6326675807
| 10> S 0.8513479988 0.4145599505 -2.1655426206
| 11> O 2.3235272506 1.1987611872 0.3649816368
| 12> C 2.17526026 2.5816288468 0.0047513396
| 13> C 3.2986292654 3.0330677607 -0.9059760213
| 14> S 1.3656601238 -1.496382996 0.7216197228
| 15> C -0.0106833297 -2.2163980451 -0.2349642784
| 16> S -1.6012121491 -2.1546911494 0.6323454441
| 17> P -2.1314425068 -0.1365582952 0.3495657649
| 18> S -0.9128331854 1.302023232 0.9116642227
| 19> O -3.5598017516 -0.0599409513 1.0398709602
| 20> C -3.733843747 0.3085737194 2.4185049356
| 21> C -3.1704743211 -0.7359406929 3.3602506508
| 22> O -2.4943165551 -0.1998719404 -1.1892852484
| 23> C -2.6726840749 0.9705579784 -2.0109246019
| 24> C -3.8314993796 1.8243679276 -1.5436304503
| 25> H 5.6018660968 -1.1777327459 1.2792581737
| 26> H 5.2269903314 0.4049378547 0.5767856038
| 27> H 3.991419615 -0.4724200161 1.49145625
| 28> H 3.9554587554 -2.2575404822 -0.232638843
| 29> H 5.1919696782 -1.3807355651 -1.1805361718
| 30> H 1.2013519268 2.7201185603 -0.4752896732
| 31> H 2.1801188789 3.1075913835 0.9603599945
| 32> H 3.2818527885 2.4477972675 -1.8255239164
| 33> H 3.1651612689 4.082089902 -1.1502077235
| 34> H 4.2594433376 2.8953379015 -0.4174739142
| 35> H 0.2001313661 -3.2726049308 -0.3782810681
| 36> H -0.0911477973 -1.6903627052 -1.1900564642
| 37> H -3.2470712876 1.2756223613 2.582275915
| 38> H -4.8141696112 0.4115280562 2.5275607568
| 39> H -3.4224903338 -0.4733958403 4.3826801468
| 40> H -3.5782329984 -1.71587636 3.1251209492
| 41> H -2.0858043412 -0.7768615853 3.263233416
| 42> H -1.7373509405 1.5392400996 -2.0103519436
| 43> H -2.8415227155 0.5600453048 -3.0073652893
| 44> H -3.6067674661 2.2516858613 -0.5669007962
| 45> H -3.9908399997 2.6301758928 -2.2532335304
| 46> H -4.7331676633 1.2222879869 -1.4666282589
| 47> *
| 48>
| 49>                          ****END OF INPUT****

CARTESIAN COORDINATES (ANGSTROEM)
---------------------------------
  C      4.829614   -0.580818    0.804126
  C      4.376824   -1.275472   -0.462782
  O      3.386998   -0.520702   -1.195239
  P      1.993683    0.005542   -0.632668
  S      0.851348    0.414560   -2.165543
  O      2.323527    1.198761    0.364982
  C      2.175260    2.581629    0.004751
  C      3.298629    3.033068   -0.905976
  S      1.365660   -1.496383    0.721620
  C     -0.010683   -2.216398   -0.234964
  S     -1.601212   -2.154691    0.632345
  P     -2.131443   -0.136558    0.349566
  S     -0.912833    1.302023    0.911664
  O     -3.559802   -0.059941    1.039871
  C     -3.733844    0.308574    2.418505
  C     -3.170474   -0.735941    3.360251
  O     -2.494317   -0.199872   -1.189285
  C     -2.672684    0.970558   -2.010925
  C     -3.831499    1.824368   -1.543630
  H      5.601866   -1.177733    1.279258
  H      5.226990    0.404938    0.576786
  H      3.991420   -0.472420    1.491456
  H      3.955459   -2.257540   -0.232639
  H      5.191970   -1.380736   -1.180536
  H      1.201352    2.720119   -0.475290
  H      2.180119    3.107591    0.960360
  H      3.281853    2.447797   -1.825524
  H      3.165161    4.082090   -1.150208
  H      4.259443    2.895338   -0.417474
  H      0.200131   -3.272605   -0.378281
  H     -0.091148   -1.690363   -1.190056
  H     -3.247071    1.275622    2.582276
  H     -4.814170    0.411528    2.527561
  H     -3.422490   -0.473396    4.382680
  H     -3.578233   -1.715876    3.125121
  H     -2.085804   -0.776862    3.263233
  H     -1.737351    1.539240   -2.010352
  H     -2.841523    0.560045   -3.007365
  H     -3.606767    2.251686   -0.566901
  H     -3.990840    2.630176   -2.253234
  H     -4.733168    1.222288   -1.466628

 Total Charge           Charge          ....    0
 Multiplicity           Mult            ....    1
 Number of Electrons    NEL             ....  202
 Basis Dimension        Dim             ....  334

ORBITAL ENERGIES
----------------

  NO   OCC          E(Eh)            E(eV)
   0   2.0000     -88.040114     -2395.6933
   1   2.0000     -88.039994     -2395.6900
   2   2.0000     -87.982476     -2394.1249
   3   2.0000     -87.981477     -2394.0977
   4   2.0000     -76.422758     -2079.5690
   5   2.0000     -76.421854     -2079.5444
   6   2.0000     -18.788901      -511.2720
   7   2.0000     -18.787294      -511.2283
   8   2.0000     -18.783878      -511.1353
   9   2.0000     -18.782984      -511.1110
  10   2.0000      -9.954996      -270.8892
  11   2.0000      -9.953332      -270.8439
  12   2.0000      -9.949801      -270.7479
  13   2.0000      -9.945857      -270.6405
  14   2.0000      -9.941700      -270.5274
  15   2.0000      -9.888297      -269.0742
  16   2.0000      -9.882045      -268.9041
  17   2.0000      -9.880520      -268.8626
  18   2.0000      -9.877523      -268.7811
  19   2.0000      -7.685692      -209.1383
  20   2.0000      -7.685103      -209.1223
  21   2.0000      -7.627603      -207.5576
  22   2.0000      -7.626016      -207.5145
  23   2.0000      -6.420314      -174.7056
  24   2.0000      -6.419348      -174.6794
  25   2.0000      -5.713543      -155.4734
  26   2.0000      -5.712960      -155.4575
  27   2.0000      -5.710195      -155.3823
  28   2.0000      -5.709776      -155.3709
  29   2.0000      -5.702590      -155.1754
  30   2.0000      -5.701890      -155.1563
  31   2.0000      -5.656600      -153.9239
  32   2.0000      -5.654824      -153.8756
  33   2.0000      -5.648713      -153.7093
  34   2.0000      -5.647061      -153.6644
  35   2.0000      -5.646746      -153.6558
  36   2.0000      -5.646242      -153.6421
  37   2.0000      -4.642997      -126.3424
  38   2.0000      -4.641843      -126.3110
  39   2.0000      -4.641818      -126.3103
  40   2.0000      -4.641133      -126.2916
  41   2.0000      -4.640976      -126.2874
  42   2.0000      -4.639880      -126.2576
  43   2.0000      -0.981972       -26.7208
  44   2.0000      -0.978648       -26.6304
  45   2.0000      -0.941064       -25.6077
  46   2.0000      -0.939383       -25.5619
  47   2.0000      -0.759722       -20.6731
  48   2.0000      -0.718341       -19.5470
  49   2.0000      -0.705185       -19.1891
  50   2.0000      -0.689399       -18.7595
  51   2.0000      -0.683268       -18.5927
  52   2.0000      -0.670205       -18.2372
  53   2.0000      -0.650323       -17.6962
  54   2.0000      -0.634295       -17.2600
  55   2.0000      -0.600192       -16.3321
  56   2.0000      -0.589756       -16.0481
  57   2.0000      -0.572726       -15.5847
  58   2.0000      -0.568774       -15.4771
  59   2.0000      -0.558420       -15.1954
  60   2.0000      -0.493578       -13.4309
  61   2.0000      -0.485800       -13.2193
  62   2.0000      -0.471050       -12.8179
  63   2.0000      -0.468172       -12.7396
  64   2.0000      -0.451236       -12.2787
  65   2.0000      -0.445623       -12.1260
  66   2.0000      -0.435864       -11.8605
  67   2.0000      -0.431112       -11.7311
  68   2.0000      -0.424527       -11.5520
  69   2.0000      -0.413365       -11.2482
  70   2.0000      -0.409217       -11.1354
  71   2.0000      -0.400524       -10.8988
  72   2.0000      -0.389907       -10.6099
  73   2.0000      -0.385298       -10.4845
  74   2.0000      -0.378359       -10.2957
  75   2.0000      -0.372630       -10.1398
  76   2.0000      -0.367832       -10.0092
  77   2.0000      -0.353448        -9.6178
  78   2.0000      -0.351791        -9.5727
  79   2.0000      -0.349842        -9.5197
  80   2.0000      -0.345120        -9.3912
  81   2.0000      -0.342140        -9.3101
  82   2.0000      -0.339042        -9.2258
  83   2.0000      -0.334012        -9.0889
  84   2.0000      -0.330235        -8.9861
  85   2.0000      -0.310129        -8.4390
  86   2.0000      -0.308502        -8.3948
  87   2.0000      -0.302802        -8.2397
  88   2.0000      -0.291809        -7.9405
  89   2.0000      -0.278715        -7.5842
  90   2.0000      -0.276193        -7.5156
  91   2.0000      -0.269071        -7.3218
  92   2.0000      -0.267076        -7.2675
  93   2.0000      -0.260004        -7.0751
  94   2.0000      -0.258537        -7.0351
  95   2.0000      -0.235128        -6.3982
  96   2.0000      -0.219374        -5.9695
  97   2.0000      -0.208939        -5.6855
  98   2.0000      -0.203119        -5.5272
  99   2.0000      -0.193716        -5.2713
 100   2.0000      -0.182212        -4.9582
 101   0.0000      -0.040456        -1.1009
 102   0.0000      -0.029340        -0.7984
 103   0.0000      -0.011412        -0.3105
 104   0.0000       0.004373         0.1190
 105   0.0000       0.028224         0.7680

MULLIKEN ATOMIC CHARGES
-----------------------
   0 C :   -0.321399
   1 C :   -0.004149
   2 O :   -0.370392
   3 P :    0.628372
   4 S :   -0.311898
   5 O :   -0.381672
   6 C :   -0.013233
   7 C :   -0.306449
   8 S :   -0.094761
   9 C :   -0.347721
  10 S :   -0.083711
  11 P :    0.618622
  12 S :   -0.330488
  13 O :   -0.372938
  14 C :   -0.002619
  15 C :   -0.322847
  16 O :   -0.366538
  17 C :   -0.008528
  18 C :   -0.308072
  19 H :    0.113384
  20 H :    0.122050
  21 H :    0.131246
  22 H :    0.106106
  23 H :    0.108893
  24 H :    0.124815
  25 H :    0.104880
  26 H :    0.128211
  27 H :    0.110414
  28 H :    0.113427
  29 H :    0.182154
  30 H :    0.199872
  31 H :    0.110162
  32 H :    0.104409
  33 H :    0.113284
  34 H :    0.119279
  35 H :    0.132350
  36 H :    0.127468
  37 H :    0.103106
  38 H :    0.120021
  39 H :    0.109922
  40 H :    0.114971
Sum of atomic charges:   -0.0000000

LOEWDIN ATOMIC CHARGES
----------------------
   0 C :   -0.367134
   1 C :   -0.119733
   2 O :   -0.249678
   3 P :    0.579014
   4 S :   -0.293432
   5 O :   -0.241934
   6 C :   -0.120409
   7 C :   -0.364192
   8 S :    0.081243
   9 C :   -0.477513
  10 S :    0.092783
  11 P :    0.571397
  12 S :   -0.315818
  13 O :   -0.242705
  14 C :   -0.120484
  15 C :   -0.371441
  16 O :   -0.237753
  17 C :   -0.118732
  18 C :   -0.367089
  19 H :    0.131336
  20 H :    0.126146
  21 H :    0.121160
  22 H :    0.106104
  23 H :    0.121407
  24 H :    0.109168
  25 H :    0.118960
  26 H :    0.125514
  27 H :    0.130168
  28 H :    0.121308
  29 H :    0.137046
  30 H :    0.125073
  31 H :    0.109547
  32 H :    0.118323
  33 H :    0.131358
  34 H :    0.124138
  35 H :    0.123496
  36 H :    0.108877
  37 H :    0.119103
  38 H :    0.120732
  39 H :    0.129530
  40 H :    0.125117

  Mayer bond orders larger than 0.100000
B(  0-C ,  1-C ) :   1.1654 B(  0-C , 19-H ) :   0.9357 B(  0-C , 20-H ) :   0.9428
B(  0-C , 21-H ) :   0.9354 B(  1-C ,  2-O ) :   0.9159 B(  1-C , 22-H ) :   0.9175
B(  1-C , 23-H ) :   0.9337 B(  2-O ,  3-P ) :   1.1080 B(  3-P ,  4-S ) :   1.5961
B(  3-P ,  5-O ) :   1.0994 B(  3-P ,  8-S ) :   0.9523 B(  4-S ,  8-S ) :   0.1067
B(  4-S , 30-H ) :   0.1050 B(  5-O ,  6-C ) :   0.8980 B(  6-C ,  7-C ) :   1.1607
B(  6-C , 24-H ) :   0.9090 B(  6-C , 25-H ) :   0.9348 B(  7-C , 26-H ) :   0.9363
B(  7-C , 27-H ) :   0.9398 B(  7-C , 28-H ) :   0.9441 B(  8-S ,  9-C ) :   0.9991
B(  9-C , 10-S ) :   1.0017 B(  9-C , 29-H ) :   0.9122 B(  9-C , 30-H ) :   0.8505
B( 10-S , 11-P ) :   0.9641 B( 10-S , 12-S ) :   0.1157 B( 11-P , 12-S ) :   1.6067
B( 11-P , 13-O ) :   1.1012 B( 11-P , 16-O ) :   1.1327 B( 13-O , 14-C ) :   0.9079
B( 14-C , 15-C ) :   1.1663 B( 14-C , 31-H ) :   0.9136 B( 14-C , 32-H ) :   0.9331
B( 15-C , 33-H ) :   0.9379 B( 15-C , 34-H ) :   0.9438 B( 15-C , 35-H ) :   0.9336
B( 16-O , 17-C ) :   0.9000 B( 17-C , 18-C ) :   1.1628 B( 17-C , 36-H ) :   0.9097
B( 17-C , 37-H ) :   0.9363 B( 18-C , 38-H ) :   0.9354 B( 18-C , 39-H ) :   0.9387
B( 18-C , 40-H ) :   0.9446

Dispersion correction           -0.067904153
FINAL SINGLE POINT ENERGY     -2929.517011070748

DIPOLE MOMENT
-------------

Method             : SCF
Type of density    : Electron Density
Multiplicity       :   1
Irrep              :   0
Energy             : -2929.6347821732470038 Eh
Relativity type    :
Basis              : AO
                                X                 Y                 Z
Electronic contribution:     -3.669769428     -11.713094264      -3.525064878
Nuclear contribution   :      3.979857032      11.747785155       4.020360292
                        -----------------------------------------
Total Dipole Moment    :      0.310087604       0.034690891       0.495295414
                        -----------------------------------------
Magnitude (a.u.)       :      0.585384769
Magnitude (Debye)      :      1.487929834

Rotational constants in cm-1:             0.012511             0.005393             0.004839
Rotational constants in MHz :           375.084256           161.680070           145.057521

                             ****ORCA TERMINATED NORMALLY****
TOTAL RUN TIME: 0 days 0 hours 0 minutes 21 seconds 210 msec
