                         Program Version 6.0.0  -   RELEASE  -
|  1> ! pbe def2-sv(p) def2/J RI DEFGRID1 loosescf d4 GCP(DFT/SV(P)) printgap
|  2> %output
|  3>     printlevel normal
|  4> end
|  5> * xyz 0 1
|  6> C 2.6952392572 -3.2098583084 -0.0196796849
|  7> C 3.3691498999 -2.2950445657 -1.0205588242
|  8> O 3.5532124981 -0.954705188 -0.506541307
|  9> P 2.4000718394 0.0750183698 -0.1702474809
| 10> S 3.0919427368 1.8996026053 -0.0529796822
| 11> O 1.6528154775 -0.4428099072 1.1481367823
| 12> C 1.8595436423 0.1603204075 2.4366288332
| 13> C 3.1887591367 -0.2638262715 3.026765732
| 14> S 0.9209717668 -0.3049425871 -1.637365851
| 15> C 0.0395010311 1.2613463518 -1.4130247972
| 16> S -0.7946805656 1.3934648907 0.1812585387
| 17> P -2.6001383443 0.3365443341 -0.2942546871
| 18> S -2.9591209209 0.1771346609 -2.2131838612
| 19> O -3.774155421 1.1184755375 0.4014386526
| 20> C -4.0706758063 1.1265446118 1.8198508817
| 21> C -2.9448013918 1.7097120003 2.6466987184
| 22> O -2.5567275276 -0.9917767649 0.5835844576
| 23> C -1.5366136059 -2.0027462352 0.5355121308
| 24> C -1.5955324096 -2.8254488221 -0.7359001478
| 25> H 2.6513681747 -4.2127083669 -0.4328238492
| 26> H 3.2581018759 -3.2305246434 0.9096891068
| 27> H 1.684497112 -2.8640686529 0.183519065
| 28> H 2.7892191551 -2.2326356348 -1.9452882047
| 29> H 4.3866980602 -2.6197700947 -1.2438537254
| 30> H 1.8115581605 1.2483248929 2.3277342064
| 31> H 1.0179878765 -0.1873513559 3.0371279587
| 32> H 3.9974206347 0.0611637473 2.3722053969
| 33> H 3.316230811 0.1966156687 4.0012249709
| 34> H 3.2309288405 -1.3447005823 3.1294774862
| 35> H -0.7009139412 1.3170156027 -2.212888654
| 36> H 0.7533276931 2.0832468933 -1.4649511531
| 37> H -4.9717116252 1.7387351464 1.8800830979
| 38> H -4.2945897175 0.1032529123 2.1261022671
| 39> H -2.0591669703 1.0801514995 2.5799779044
| 40> H -2.688935756 2.7055095967 2.2935764365
| 41> H -3.2591612442 1.767974354 3.6841447978
| 42> H -0.5593307677 -1.5230642375 0.6486839244
| 43> H -1.7448673747 -2.6180818578 1.4132241635
| 44> H -2.5984764847 -3.218992439 -0.8797820431
| 45> H -1.3356193598 -2.2165589067 -1.5997531647
| 46> H -0.8937466965 -3.650190517 -0.6636582009
| 47> *
| 48>
| 49>                          ****END OF INPUT****

CARTESIAN COORDINATES (ANGSTROEM)
---------------------------------
  C      2.695239   -3.209858   -0.019680
  C      3.369150   -2.295045   -1.020559
  O      3.553212   -0.954705   -0.506541
  P      2.400072    0.075018   -0.170247
  S      3.091943    1.899603   -0.052980
  O      1.652815   -0.442810    1.148137
  C      1.859544    0.160320    2.436629
  C      3.188759   -0.263826    3.026766
  S      0.920972   -0.304943   -1.637366
  C      0.039501    1.261346   -1.413025
  S     -0.794681    1.393465    0.181259
  P     -2.600138    0.336544   -0.294255
  S     -2.959121    0.177135   -2.213184
  O     -3.774155    1.118476    0.401439
  C     -4.070676    1.126545    1.819851
  C     -2.944801    1.709712    2.646699
  O     -2.556728   -0.991777    0.583584
  C     -1.536614   -2.002746    0.535512
  C     -1.595532   -2.825449   -0.735900
  H      2.651368   -4.212708   -0.432824
  H      3.258102   -3.230525    0.909689
  H      1.684497   -2.864069    0.183519
  H      2.789219   -2.232636   -1.945288
  H      4.386698   -2.619770   -1.243854
  H      1.811558    1.248325    2.327734
  H      1.017988   -0.187351    3.037128
  H      3.997421    0.061164    2.372205
  H      3.316231    0.196616    4.001225
  H      3.230929   -1.344701    3.129477
  H     -0.700914    1.317016   -2.212889
  H      0.753328    2.083247   -1.464951
  H     -4.971712    1.738735    1.880083
  H     -4.294590    0.103253    2.126102
  H     -2.059167    1.080151    2.579978
  H     -2.688936    2.705510    2.293576
  H     -3.259161    1.767974    3.684145
  H     -0.559331   -1.523064    0.648684
  H     -1.744867   -2.618082    1.413224
  H     -2.598476   -3.218992   -0.879782
  H     -1.335619   -2.216559   -1.599753
  H     -0.893747   -3.650191   -0.663658

 Total Charge           Charge          ....    0
 Multiplicity           Mult            ....    1
 Number of Electrons    NEL             ....  202
 Basis Dimension        Dim             ....  334

ORBITAL ENERGIES
----------------

  NO   OCC          E(Eh)            E(eV)
   0   2.0000     -88.046972     -2395.8799
   1   2.0000     -88.043268     -2395.7791
   2   2.0000     -87.989855     -2394.3257
   3   2.0000     -87.985181     -2394.1985
   4   2.0000     -76.430641     -2079.7835
   5   2.0000     -76.428127     -2079.7151
   6   2.0000     -18.799668      -511.5650
   7   2.0000     -18.795983      -511.4647
   8   2.0000     -18.794657      -511.4286
   9   2.0000     -18.793147      -511.3875
  10   2.0000      -9.967278      -271.2234
  11   2.0000      -9.960414      -271.0366
  12   2.0000      -9.954286      -270.8699
  13   2.0000      -9.953864      -270.8584
  14   2.0000      -9.952494      -270.8211
  15   2.0000      -9.898653      -269.3560
  16   2.0000      -9.895152      -269.2608
  17   2.0000      -9.888257      -269.0732
  18   2.0000      -9.880190      -268.8536
  19   2.0000      -7.691800      -209.3045
  20   2.0000      -7.687650      -209.1916
  21   2.0000      -7.635039      -207.7600
  22   2.0000      -7.630351      -207.6324
  23   2.0000      -6.428385      -174.9252
  24   2.0000      -6.425299      -174.8413
  25   2.0000      -5.719522      -155.6361
  26   2.0000      -5.716456      -155.5527
  27   2.0000      -5.715587      -155.5290
  28   2.0000      -5.712100      -155.4341
  29   2.0000      -5.708817      -155.3448
  30   2.0000      -5.704761      -155.2344
  31   2.0000      -5.664127      -154.1287
  32   2.0000      -5.659406      -154.0003
  33   2.0000      -5.655811      -153.9024
  34   2.0000      -5.654829      -153.8757
  35   2.0000      -5.650763      -153.7651
  36   2.0000      -5.650539      -153.7590
  37   2.0000      -4.651184      -126.5651
  38   2.0000      -4.649947      -126.5315
  39   2.0000      -4.648822      -126.5009
  40   2.0000      -4.648200      -126.4839
  41   2.0000      -4.647061      -126.4530
  42   2.0000      -4.645525      -126.4112
  43   2.0000      -0.990217       -26.9452
  44   2.0000      -0.989878       -26.9360
  45   2.0000      -0.951840       -25.9009
  46   2.0000      -0.945177       -25.7196
  47   2.0000      -0.766129       -20.8474
  48   2.0000      -0.726161       -19.7598
  49   2.0000      -0.716680       -19.5019
  50   2.0000      -0.698418       -19.0049
  51   2.0000      -0.692390       -18.8409
  52   2.0000      -0.678136       -18.4530
  53   2.0000      -0.654589       -17.8123
  54   2.0000      -0.640854       -17.4385
  55   2.0000      -0.602131       -16.3848
  56   2.0000      -0.594711       -16.1829
  57   2.0000      -0.582785       -15.8584
  58   2.0000      -0.582088       -15.8394
  59   2.0000      -0.564614       -15.3639
  60   2.0000      -0.505842       -13.7647
  61   2.0000      -0.496038       -13.4979
  62   2.0000      -0.484067       -13.1721
  63   2.0000      -0.474408       -12.9093
  64   2.0000      -0.462792       -12.5932
  65   2.0000      -0.452626       -12.3166
  66   2.0000      -0.447096       -12.1661
  67   2.0000      -0.438383       -11.9290
  68   2.0000      -0.428811       -11.6685
  69   2.0000      -0.423739       -11.5305
  70   2.0000      -0.417583       -11.3630
  71   2.0000      -0.404917       -11.0183
  72   2.0000      -0.398142       -10.8340
  73   2.0000      -0.393111       -10.6971
  74   2.0000      -0.386632       -10.5208
  75   2.0000      -0.379304       -10.3214
  76   2.0000      -0.367427        -9.9982
  77   2.0000      -0.362220        -9.8565
  78   2.0000      -0.358816        -9.7639
  79   2.0000      -0.356336        -9.6964
  80   2.0000      -0.353678        -9.6241
  81   2.0000      -0.352563        -9.5937
  82   2.0000      -0.347003        -9.4424
  83   2.0000      -0.342645        -9.3239
  84   2.0000      -0.336109        -9.1460
  85   2.0000      -0.323691        -8.8081
  86   2.0000      -0.315944        -8.5973
  87   2.0000      -0.312798        -8.5117
  88   2.0000      -0.298386        -8.1195
  89   2.0000      -0.293170        -7.9776
  90   2.0000      -0.285950        -7.7811
  91   2.0000      -0.280587        -7.6352
  92   2.0000      -0.278728        -7.5846
  93   2.0000      -0.269369        -7.3299
  94   2.0000      -0.260702        -7.0941
  95   2.0000      -0.235085        -6.3970
  96   2.0000      -0.219626        -5.9763
  97   2.0000      -0.213269        -5.8033
  98   2.0000      -0.204139        -5.5549
  99   2.0000      -0.201895        -5.4938
 100   2.0000      -0.199565        -5.4304
 101   0.0000      -0.047761        -1.2996
 102   0.0000      -0.028373        -0.7721
 103   0.0000      -0.009684        -0.2635
 104   0.0000       0.001207         0.0328
 105   0.0000       0.003015         0.0821

MULLIKEN ATOMIC CHARGES
-----------------------
   0 C :   -0.329148
   1 C :   -0.025617
   2 O :   -0.366970
   3 P :    0.618880
   4 S :   -0.310077
   5 O :   -0.376893
   6 C :   -0.009574
   7 C :   -0.307547
   8 S :   -0.114691
   9 C :   -0.337166
  10 S :   -0.116438
  11 P :    0.617293
  12 S :   -0.309999
  13 O :   -0.359959
  14 C :    0.007515
  15 C :   -0.338924
  16 O :   -0.382170
  17 C :   -0.055511
  18 C :   -0.307381
  19 H :    0.117130
  20 H :    0.124461
  21 H :    0.141201
  22 H :    0.126563
  23 H :    0.118561
  24 H :    0.115862
  25 H :    0.101360
  26 H :    0.128494
  27 H :    0.113179
  28 H :    0.112492
  29 H :    0.196191
  30 H :    0.195436
  31 H :    0.113441
  32 H :    0.111271
  33 H :    0.130306
  34 H :    0.133156
  35 H :    0.118455
  36 H :    0.152532
  37 H :    0.098500
  38 H :    0.116147
  39 H :    0.134463
  40 H :    0.105176
Sum of atomic charges:    0.0000000

LOEWDIN ATOMIC CHARGES
----------------------
   0 C :   -0.367104
   1 C :   -0.114181
   2 O :   -0.240775
   3 P :    0.571822
   4 S :   -0.303745
   5 O :   -0.248846
   6 C :   -0.124331
   7 C :   -0.363847
   8 S :    0.087887
   9 C :   -0.486258
  10 S :    0.079511
  11 P :    0.569776
  12 S :   -0.298921
  13 O :   -0.234914
  14 C :   -0.108139
  15 C :   -0.372333
  16 O :   -0.245828
  17 C :   -0.125801
  18 C :   -0.369212
  19 H :    0.133020
  20 H :    0.128345
  21 H :    0.123453
  22 H :    0.110773
  23 H :    0.126147
  24 H :    0.108942
  25 H :    0.114439
  26 H :    0.125846
  27 H :    0.131336
  28 H :    0.121526
  29 H :    0.128866
  30 H :    0.131721
  31 H :    0.124234
  32 H :    0.115392
  33 H :    0.116095
  34 H :    0.130753
  35 H :    0.134064
  36 H :    0.105204
  37 H :    0.116023
  38 H :    0.127322
  39 H :    0.116560
  40 H :    0.125178

  Mayer bond orders larger than 0.100000
B(  0-C ,  1-C ) :   1.1628 B(  0-C , 19-H ) :   0.9354 B(  0-C , 20-H ) :   0.9414
B(  0-C , 21-H ) :   0.9315 B(  1-C ,  2-O ) :   0.9066 B(  1-C , 22-H ) :   0.9170
B(  1-C , 23-H ) :   0.9342 B(  2-O ,  3-P ) :   1.1294 B(  3-P ,  4-S ) :   1.6286
B(  3-P ,  5-O ) :   1.0652 B(  3-P ,  8-S ) :   0.9573 B(  5-O ,  6-C ) :   0.9003
B(  6-C ,  7-C ) :   1.1629 B(  6-C , 24-H ) :   0.9093 B(  6-C , 25-H ) :   0.9316
B(  7-C , 26-H ) :   0.9358 B(  7-C , 27-H ) :   0.9401 B(  7-C , 28-H ) :   0.9448
B(  8-S ,  9-C ) :   1.0016 B(  9-C , 10-S ) :   1.0180 B(  9-C , 29-H ) :   0.8585
B(  9-C , 30-H ) :   0.8736 B( 10-S , 11-P ) :   0.9295 B( 10-S , 12-S ) :   0.1138
B( 11-P , 12-S ) :   1.6515 B( 11-P , 13-O ) :   1.1453 B( 11-P , 16-O ) :   1.0715
B( 12-S , 29-H ) :   0.1027 B( 13-O , 14-C ) :   0.9001 B( 14-C , 15-C ) :   1.1690
B( 14-C , 31-H ) :   0.9336 B( 14-C , 32-H ) :   0.9273 B( 15-C , 33-H ) :   0.9313
B( 15-C , 34-H ) :   0.9416 B( 15-C , 35-H ) :   0.9352 B( 16-O , 17-C ) :   0.9093
B( 17-C , 18-C ) :   1.1671 B( 17-C , 36-H ) :   0.8913 B( 17-C , 37-H ) :   0.9344
B( 18-C , 38-H ) :   0.9435 B( 18-C , 39-H ) :   0.9275 B( 18-C , 40-H ) :   0.9357

Dispersion correction           -0.067038650
FINAL SINGLE POINT ENERGY     -2929.517606567936

DIPOLE MOMENT
-------------

Method             : SCF
Type of density    : Electron Density
Multiplicity       :   1
Irrep              :   0
Energy             : -2929.6377227941979982 Eh
Relativity type    :
Basis              : AO
                                X                 Y                 Z
Electronic contribution:     -3.543333419      15.543852735     -17.662100761
Nuclear contribution   :      3.711039538     -17.005630825      19.445193786
                        -----------------------------------------
Total Dipole Moment    :      0.167706118      -1.461778090       1.783093025
                        -----------------------------------------
Magnitude (a.u.)       :      2.311783135
Magnitude (Debye)      :      5.876085748

Rotational constants in cm-1:             0.011667             0.005342             0.004947
Rotational constants in MHz :           349.760218           160.138155           148.315893

                             ****ORCA TERMINATED NORMALLY****
TOTAL RUN TIME: 0 days 0 hours 0 minutes 21 seconds 769 msec
