                         Program Version 6.0.0  -   RELEASE  -
|  1> ! r2scan-3c def2/J RI DEFGRID2 scfconv6 printgap
|  2> %output
|  3>     printlevel normal
|  4> end
|  5> * xyz 0 1
|  6> C 5.3378251865 -1.4005565494 0.1650045527
|  7> C 4.5938699739 -1.4594657361 -1.1542931121
|  8> O 3.1669841988 -1.4400603342 -0.9505729635
|  9> P 2.3887814498 -0.10123772 -0.5691973665
| 10> S 3.2219137532 1.590436743 -1.0697922242
| 11> O 2.1214602633 -0.1514742733 0.9953577756
| 12> C 1.615411162 -1.3320502283 1.6625232875
| 13> C 0.8765431421 -0.8886562659 2.9082273176
| 14> S 0.5580200287 -0.589671592 -1.5158942809
| 15> C -0.1428925715 1.0780117467 -1.406437557
| 16> S -0.654002134 1.5267075749 0.2725180555
| 17> P -2.399523152 0.341929876 0.2852027931
| 18> S -3.4877181623 0.3391756155 -1.3516230506
| 19> O -3.183971206 0.7592252866 1.6037635381
| 20> C -4.1718429999 1.8047437821 1.6161256408
| 21> C -3.5558839892 3.1696599045 1.3869747759
| 22> O -1.7911598646 -1.055028584 0.711288534
| 23> C -2.532671699 -2.2887925524 0.5607501495
| 24> C -1.5519809424 -3.410553662 0.287194892
| 25> H 5.0589062257 -2.239828917 0.796782501
| 26> H 6.406539691 -1.4330413952 -0.0220153311
| 27> H 5.0968729561 -0.4704326274 0.6799524966
| 28> H 4.7754133207 -2.3952355081 -1.68437376
| 29> H 4.8689074363 -0.6117976485 -1.7892060951
| 30> H 0.9564394999 -1.8702703432 0.9746346837
| 31> H 2.4718173414 -1.9631938822 1.9097526682
| 32> H 1.5256562371 -0.2716245546 3.5227855548
| 33> H -0.0035213369 -0.3090546259 2.6398820061
| 34> H 0.5691060348 -1.7636712839 3.471946288
| 35> H -1.011219564 1.1025252418 -2.0658370005
| 36> H 0.6095759949 1.8047348699 -1.7140460959
| 37> H -4.9168536547 1.5843366909 0.8449926434
| 38> H -4.6245237148 1.7262057746 2.6053327784
| 39> H -4.3141391956 3.9345415705 1.5203700458
| 40> H -2.7422967968 3.3401535226 2.0876204626
| 41> H -3.1628555672 3.2354131002 0.3730273555
| 42> H -3.0866999884 -2.4550907685 1.4869868271
| 43> H -3.2397929042 -2.1720027569 -0.2676935676
| 44> H -0.8723279986 -3.5288853028 1.1260955422
| 45> H -2.1039099394 -4.3335467418 0.1415773394
| 46> H -0.9781483661 -3.1928952337 -0.6106926739
| 47> *
| 48>
| 49>                          ****END OF INPUT****

CARTESIAN COORDINATES (ANGSTROEM)
---------------------------------
  C      5.337825   -1.400557    0.165005
  C      4.593870   -1.459466   -1.154293
  O      3.166984   -1.440060   -0.950573
  P      2.388781   -0.101238   -0.569197
  S      3.221914    1.590437   -1.069792
  O      2.121460   -0.151474    0.995358
  C      1.615411   -1.332050    1.662523
  C      0.876543   -0.888656    2.908227
  S      0.558020   -0.589672   -1.515894
  C     -0.142893    1.078012   -1.406438
  S     -0.654002    1.526708    0.272518
  P     -2.399523    0.341930    0.285203
  S     -3.487718    0.339176   -1.351623
  O     -3.183971    0.759225    1.603764
  C     -4.171843    1.804744    1.616126
  C     -3.555884    3.169660    1.386975
  O     -1.791160   -1.055029    0.711289
  C     -2.532672   -2.288793    0.560750
  C     -1.551981   -3.410554    0.287195
  H      5.058906   -2.239829    0.796783
  H      6.406540   -1.433041   -0.022015
  H      5.096873   -0.470433    0.679952
  H      4.775413   -2.395236   -1.684374
  H      4.868907   -0.611798   -1.789206
  H      0.956439   -1.870270    0.974635
  H      2.471817   -1.963194    1.909753
  H      1.525656   -0.271625    3.522786
  H     -0.003521   -0.309055    2.639882
  H      0.569106   -1.763671    3.471946
  H     -1.011220    1.102525   -2.065837
  H      0.609576    1.804735   -1.714046
  H     -4.916854    1.584337    0.844993
  H     -4.624524    1.726206    2.605333
  H     -4.314139    3.934542    1.520370
  H     -2.742297    3.340154    2.087620
  H     -3.162856    3.235413    0.373027
  H     -3.086700   -2.455091    1.486987
  H     -3.239793   -2.172003   -0.267694
  H     -0.872328   -3.528885    1.126096
  H     -2.103910   -4.333547    0.141577
  H     -0.978148   -3.192895   -0.610693

 Total Charge           Charge          ....    0
 Multiplicity           Mult            ....    1
 Number of Electrons    NEL             ....  202
 Basis Dimension        Dim             ....  539

ORBITAL ENERGIES
----------------

  NO   OCC          E(Eh)            E(eV)
   0   2.0000     -88.577057     -2410.3043
   1   2.0000     -88.573074     -2410.1959
   2   2.0000     -88.523655     -2408.8511
   3   2.0000     -88.520901     -2408.7762
   4   2.0000     -76.916554     -2093.0058
   5   2.0000     -76.912801     -2092.9037
   6   2.0000     -18.996912      -516.9323
   7   2.0000     -18.993753      -516.8463
   8   2.0000     -18.992910      -516.8233
   9   2.0000     -18.988879      -516.7137
  10   2.0000     -10.103147      -274.9206
  11   2.0000     -10.100971      -274.8614
  12   2.0000     -10.100947      -274.8607
  13   2.0000     -10.100518      -274.8491
  14   2.0000     -10.098682      -274.7991
  15   2.0000     -10.035626      -273.0833
  16   2.0000     -10.032803      -273.0064
  17   2.0000     -10.030315      -272.9387
  18   2.0000     -10.028069      -272.8776
  19   2.0000      -7.871404      -214.1918
  20   2.0000      -7.867465      -214.0846
  21   2.0000      -7.818414      -212.7499
  22   2.0000      -7.815744      -212.6772
  23   2.0000      -6.595283      -179.4668
  24   2.0000      -6.591384      -179.3607
  25   2.0000      -5.818323      -158.3246
  26   2.0000      -5.815291      -158.2421
  27   2.0000      -5.814279      -158.2146
  28   2.0000      -5.811423      -158.1369
  29   2.0000      -5.808432      -158.0555
  30   2.0000      -5.804510      -157.9487
  31   2.0000      -5.765937      -156.8991
  32   2.0000      -5.763447      -156.8314
  33   2.0000      -5.758699      -156.7022
  34   2.0000      -5.758530      -156.6976
  35   2.0000      -5.756189      -156.6339
  36   2.0000      -5.755501      -156.6152
  37   2.0000      -4.740796      -129.0036
  38   2.0000      -4.740123      -128.9853
  39   2.0000      -4.739028      -128.9555
  40   2.0000      -4.737262      -128.9074
  41   2.0000      -4.736063      -128.8748
  42   2.0000      -4.735008      -128.8461
  43   2.0000      -1.053723       -28.6733
  44   2.0000      -1.047561       -28.5056
  45   2.0000      -1.014478       -27.6054
  46   2.0000      -1.009289       -27.4641
  47   2.0000      -0.803042       -21.8519
  48   2.0000      -0.762311       -20.7435
  49   2.0000      -0.751274       -20.4432
  50   2.0000      -0.735729       -20.0202
  51   2.0000      -0.734498       -19.9867
  52   2.0000      -0.712074       -19.3765
  53   2.0000      -0.686145       -18.6710
  54   2.0000      -0.669981       -18.2311
  55   2.0000      -0.634506       -17.2658
  56   2.0000      -0.622508       -16.9393
  57   2.0000      -0.608835       -16.5672
  58   2.0000      -0.602958       -16.4073
  59   2.0000      -0.588068       -16.0021
  60   2.0000      -0.534020       -14.5314
  61   2.0000      -0.525498       -14.2995
  62   2.0000      -0.500314       -13.6142
  63   2.0000      -0.496489       -13.5101
  64   2.0000      -0.478858       -13.0304
  65   2.0000      -0.464236       -12.6325
  66   2.0000      -0.460635       -12.5345
  67   2.0000      -0.453018       -12.3273
  68   2.0000      -0.450018       -12.2456
  69   2.0000      -0.435292       -11.8449
  70   2.0000      -0.423500       -11.5240
  71   2.0000      -0.415229       -11.2989
  72   2.0000      -0.409676       -11.1479
  73   2.0000      -0.402431       -10.9507
  74   2.0000      -0.397897       -10.8273
  75   2.0000      -0.389992       -10.6122
  76   2.0000      -0.382871       -10.4184
  77   2.0000      -0.376321       -10.2402
  78   2.0000      -0.373876       -10.1737
  79   2.0000      -0.369947       -10.0668
  80   2.0000      -0.363744        -9.8980
  81   2.0000      -0.359052        -9.7703
  82   2.0000      -0.358180        -9.7466
  83   2.0000      -0.354125        -9.6362
  84   2.0000      -0.352151        -9.5825
  85   2.0000      -0.333556        -9.0765
  86   2.0000      -0.328071        -8.9273
  87   2.0000      -0.325480        -8.8568
  88   2.0000      -0.313256        -8.5241
  89   2.0000      -0.306180        -8.3316
  90   2.0000      -0.300850        -8.1865
  91   2.0000      -0.294048        -8.0015
  92   2.0000      -0.283512        -7.7147
  93   2.0000      -0.282525        -7.6879
  94   2.0000      -0.275524        -7.4974
  95   2.0000      -0.247202        -6.7267
  96   2.0000      -0.232404        -6.3240
  97   2.0000      -0.227100        -6.1797
  98   2.0000      -0.220724        -6.0062
  99   2.0000      -0.217770        -5.9258
 100   2.0000      -0.212291        -5.7767
 101   0.0000      -0.046428        -1.2634
 102   0.0000      -0.025848        -0.7034
 103   0.0000      -0.005109        -0.1390
 104   0.0000       0.004995         0.1359
 105   0.0000       0.014440         0.3929

MULLIKEN ATOMIC CHARGES
-----------------------
   0 C :   -0.448254
   1 C :   -0.150723
   2 O :   -0.315338
   3 P :    0.633911
   4 S :   -0.440981
   5 O :   -0.254330
   6 C :   -0.089215
   7 C :   -0.453678
   8 S :   -0.154240
   9 C :   -0.241843
  10 S :   -0.099258
  11 P :    0.681575
  12 S :   -0.492507
  13 O :   -0.316177
  14 C :   -0.148150
  15 C :   -0.456954
  16 O :   -0.259525
  17 C :   -0.120092
  18 C :   -0.480594
  19 H :    0.148374
  20 H :    0.149910
  21 H :    0.178107
  22 H :    0.150105
  23 H :    0.176521
  24 H :    0.159995
  25 H :    0.145759
  26 H :    0.153528
  27 H :    0.173344
  28 H :    0.139870
  29 H :    0.213401
  30 H :    0.217499
  31 H :    0.172395
  32 H :    0.147971
  33 H :    0.148883
  34 H :    0.157103
  35 H :    0.179064
  36 H :    0.150074
  37 H :    0.171107
  38 H :    0.149871
  39 H :    0.148559
  40 H :    0.174934
Sum of atomic charges:   -0.0000000

LOEWDIN ATOMIC CHARGES
----------------------
   0 C :   -0.399118
   1 C :    0.022360
   2 O :   -0.678954
   3 P :    0.374712
   4 S :   -0.103869
   5 O :   -0.666984
   6 C :    0.019088
   7 C :   -0.390924
   8 S :    0.165526
   9 C :   -0.419712
  10 S :    0.185549
  11 P :    0.372862
  12 S :   -0.139889
  13 O :   -0.658716
  14 C :    0.020505
  15 C :   -0.405950
  16 O :   -0.680616
  17 C :    0.023306
  18 C :   -0.394503
  19 H :    0.155352
  20 H :    0.161266
  21 H :    0.167664
  22 H :    0.179193
  23 H :    0.181367
  24 H :    0.179897
  25 H :    0.170083
  26 H :    0.161714
  27 H :    0.168903
  28 H :    0.158324
  29 H :    0.193803
  30 H :    0.193720
  31 H :    0.180086
  32 H :    0.179558
  33 H :    0.160134
  34 H :    0.160577
  35 H :    0.166456
  36 H :    0.171883
  37 H :    0.183487
  38 H :    0.155371
  39 H :    0.160358
  40 H :    0.166129

  Mayer bond orders larger than 0.100000
B(  0-C ,  1-C ) :   0.9253 B(  0-C , 19-H ) :   0.9722 B(  0-C , 20-H ) :   0.9615
B(  0-C , 21-H ) :   0.9608 B(  1-C ,  2-O ) :   0.7990 B(  1-C , 22-H ) :   0.9617
B(  1-C , 23-H ) :   0.9660 B(  2-O ,  3-P ) :   1.0677 B(  3-P ,  4-S ) :   1.8560
B(  3-P ,  5-O ) :   1.0942 B(  3-P ,  8-S ) :   1.0542 B(  5-O ,  6-C ) :   0.7463
B(  6-C ,  7-C ) :   0.9483 B(  6-C , 24-H ) :   0.9483 B(  6-C , 25-H ) :   0.9490
B(  7-C , 26-H ) :   0.9711 B(  7-C , 27-H ) :   0.9624 B(  7-C , 28-H ) :   0.9672
B(  8-S ,  9-C ) :   0.9179 B(  9-C , 10-S ) :   0.9106 B(  9-C , 29-H ) :   0.9019
B(  9-C , 30-H ) :   0.9027 B( 10-S , 11-P ) :   1.1094 B( 11-P , 12-S ) :   1.7466
B( 11-P , 13-O ) :   1.0624 B( 11-P , 16-O ) :   1.1387 B( 13-O , 14-C ) :   0.8150
B( 14-C , 15-C ) :   0.9226 B( 14-C , 31-H ) :   0.9661 B( 14-C , 32-H ) :   0.9584
B( 15-C , 33-H ) :   0.9582 B( 15-C , 34-H ) :   0.9688 B( 15-C , 35-H ) :   0.9609
B( 16-O , 17-C ) :   0.7689 B( 17-C , 18-C ) :   0.9456 B( 17-C , 36-H ) :   0.9477
B( 17-C , 37-H ) :   0.9502 B( 18-C , 38-H ) :   0.9740 B( 18-C , 39-H ) :   0.9618
B( 18-C , 40-H ) :   0.9698

Dispersion correction           -0.021724575
FINAL SINGLE POINT ENERGY     -2932.465210883900

DIPOLE MOMENT
-------------

Method             : SCF
Type of density    : Electron Density
Multiplicity       :   1
Irrep              :   0
Energy             : -2932.4901146333818360 Eh
Relativity type    :
Basis              : AO
                                X                 Y                 Z
Electronic contribution:     -1.378579417      10.566769278     -14.158868563
Nuclear contribution   :      1.228334174     -11.849239118      15.431685892
                        -----------------------------------------
Total Dipole Moment    :     -0.150245243      -1.282469840       1.272817330
                        -----------------------------------------
Magnitude (a.u.)       :      1.813109615
Magnitude (Debye)      :      4.608558394

Rotational constants in cm-1:             0.013395             0.004764             0.004448
Rotational constants in MHz :           401.570859           142.824652           133.339990

                             ****ORCA TERMINATED NORMALLY****
TOTAL RUN TIME: 0 days 0 hours 1 minutes 24 seconds 335 msec
