                         Program Version 6.0.0  -   RELEASE  -
|  1> ! r2scan-3c def2/J RI DEFGRID2 scfconv6 printgap
|  2> %output
|  3>     printlevel normal
|  4> end
|  5> %cpcm
|  6>     smd true
|  7>     smdsolvent "water"
|  8> end
|  9> * xyz 0 1
| 10> C 5.3378251865 -1.4005565494 0.1650045527
| 11> C 4.5938699739 -1.4594657361 -1.1542931121
| 12> O 3.1669841988 -1.4400603342 -0.9505729635
| 13> P 2.3887814498 -0.10123772 -0.5691973665
| 14> S 3.2219137532 1.590436743 -1.0697922242
| 15> O 2.1214602633 -0.1514742733 0.9953577756
| 16> C 1.615411162 -1.3320502283 1.6625232875
| 17> C 0.8765431421 -0.8886562659 2.9082273176
| 18> S 0.5580200287 -0.589671592 -1.5158942809
| 19> C -0.1428925715 1.0780117467 -1.406437557
| 20> S -0.654002134 1.5267075749 0.2725180555
| 21> P -2.399523152 0.341929876 0.2852027931
| 22> S -3.4877181623 0.3391756155 -1.3516230506
| 23> O -3.183971206 0.7592252866 1.6037635381
| 24> C -4.1718429999 1.8047437821 1.6161256408
| 25> C -3.5558839892 3.1696599045 1.3869747759
| 26> O -1.7911598646 -1.055028584 0.711288534
| 27> C -2.532671699 -2.2887925524 0.5607501495
| 28> C -1.5519809424 -3.410553662 0.287194892
| 29> H 5.0589062257 -2.239828917 0.796782501
| 30> H 6.406539691 -1.4330413952 -0.0220153311
| 31> H 5.0968729561 -0.4704326274 0.6799524966
| 32> H 4.7754133207 -2.3952355081 -1.68437376
| 33> H 4.8689074363 -0.6117976485 -1.7892060951
| 34> H 0.9564394999 -1.8702703432 0.9746346837
| 35> H 2.4718173414 -1.9631938822 1.9097526682
| 36> H 1.5256562371 -0.2716245546 3.5227855548
| 37> H -0.0035213369 -0.3090546259 2.6398820061
| 38> H 0.5691060348 -1.7636712839 3.471946288
| 39> H -1.011219564 1.1025252418 -2.0658370005
| 40> H 0.6095759949 1.8047348699 -1.7140460959
| 41> H -4.9168536547 1.5843366909 0.8449926434
| 42> H -4.6245237148 1.7262057746 2.6053327784
| 43> H -4.3141391956 3.9345415705 1.5203700458
| 44> H -2.7422967968 3.3401535226 2.0876204626
| 45> H -3.1628555672 3.2354131002 0.3730273555
| 46> H -3.0866999884 -2.4550907685 1.4869868271
| 47> H -3.2397929042 -2.1720027569 -0.2676935676
| 48> H -0.8723279986 -3.5288853028 1.1260955422
| 49> H -2.1039099394 -4.3335467418 0.1415773394
| 50> H -0.9781483661 -3.1928952337 -0.6106926739
| 51> *
| 52>
| 53>                          ****END OF INPUT****

CARTESIAN COORDINATES (ANGSTROEM)
---------------------------------
  C      5.337825   -1.400557    0.165005
  C      4.593870   -1.459466   -1.154293
  O      3.166984   -1.440060   -0.950573
  P      2.388781   -0.101238   -0.569197
  S      3.221914    1.590437   -1.069792
  O      2.121460   -0.151474    0.995358
  C      1.615411   -1.332050    1.662523
  C      0.876543   -0.888656    2.908227
  S      0.558020   -0.589672   -1.515894
  C     -0.142893    1.078012   -1.406438
  S     -0.654002    1.526708    0.272518
  P     -2.399523    0.341930    0.285203
  S     -3.487718    0.339176   -1.351623
  O     -3.183971    0.759225    1.603764
  C     -4.171843    1.804744    1.616126
  C     -3.555884    3.169660    1.386975
  O     -1.791160   -1.055029    0.711289
  C     -2.532672   -2.288793    0.560750
  C     -1.551981   -3.410554    0.287195
  H      5.058906   -2.239829    0.796783
  H      6.406540   -1.433041   -0.022015
  H      5.096873   -0.470433    0.679952
  H      4.775413   -2.395236   -1.684374
  H      4.868907   -0.611798   -1.789206
  H      0.956439   -1.870270    0.974635
  H      2.471817   -1.963194    1.909753
  H      1.525656   -0.271625    3.522786
  H     -0.003521   -0.309055    2.639882
  H      0.569106   -1.763671    3.471946
  H     -1.011220    1.102525   -2.065837
  H      0.609576    1.804735   -1.714046
  H     -4.916854    1.584337    0.844993
  H     -4.624524    1.726206    2.605333
  H     -4.314139    3.934542    1.520370
  H     -2.742297    3.340154    2.087620
  H     -3.162856    3.235413    0.373027
  H     -3.086700   -2.455091    1.486987
  H     -3.239793   -2.172003   -0.267694
  H     -0.872328   -3.528885    1.126096
  H     -2.103910   -4.333547    0.141577
  H     -0.978148   -3.192895   -0.610693

 Total Charge           Charge          ....    0
 Multiplicity           Mult            ....    1
 Number of Electrons    NEL             ....  202
 Basis Dimension        Dim             ....  539

ORBITAL ENERGIES
----------------

  NO   OCC          E(Eh)            E(eV)
   0   2.0000     -88.581077     -2410.4136
   1   2.0000     -88.578678     -2410.3484
   2   2.0000     -88.531783     -2409.0723
   3   2.0000     -88.529290     -2409.0045
   4   2.0000     -76.919914     -2093.0973
   5   2.0000     -76.919787     -2093.0938
   6   2.0000     -18.997184      -516.9397
   7   2.0000     -18.994896      -516.8774
   8   2.0000     -18.993289      -516.8337
   9   2.0000     -18.992653      -516.8164
  10   2.0000     -10.105105      -274.9739
  11   2.0000     -10.090329      -274.5718
  12   2.0000     -10.090018      -274.5633
  13   2.0000     -10.089955      -274.5616
  14   2.0000     -10.088644      -274.5259
  15   2.0000     -10.019153      -272.6350
  16   2.0000     -10.019085      -272.6332
  17   2.0000     -10.018532      -272.6181
  18   2.0000     -10.018449      -272.6159
  19   2.0000      -7.875492      -214.3030
  20   2.0000      -7.873085      -214.2375
  21   2.0000      -7.826966      -212.9826
  22   2.0000      -7.824338      -212.9111
  23   2.0000      -6.598512      -179.5546
  24   2.0000      -6.598503      -179.5544
  25   2.0000      -5.822390      -158.4353
  26   2.0000      -5.819866      -158.3666
  27   2.0000      -5.819383      -158.3535
  28   2.0000      -5.817019      -158.2891
  29   2.0000      -5.812539      -158.1672
  30   2.0000      -5.810190      -158.1033
  31   2.0000      -5.774564      -157.1339
  32   2.0000      -5.771802      -157.0587
  33   2.0000      -5.767295      -156.9361
  34   2.0000      -5.766879      -156.9248
  35   2.0000      -5.764626      -156.8635
  36   2.0000      -5.764457      -156.8589
  37   2.0000      -4.744312      -129.0993
  38   2.0000      -4.743951      -129.0895
  39   2.0000      -4.743351      -129.0731
  40   2.0000      -4.743155      -129.0678
  41   2.0000      -4.742370      -129.0465
  42   2.0000      -4.742264      -129.0436
  43   2.0000      -1.053023       -28.6542
  44   2.0000      -1.050163       -28.5764
  45   2.0000      -1.012945       -27.5636
  46   2.0000      -1.011610       -27.5273
  47   2.0000      -0.806422       -21.9438
  48   2.0000      -0.758796       -20.6479
  49   2.0000      -0.744738       -20.2654
  50   2.0000      -0.727105       -19.7855
  51   2.0000      -0.723297       -19.6819
  52   2.0000      -0.710249       -19.3269
  53   2.0000      -0.689821       -18.7710
  54   2.0000      -0.676247       -18.4016
  55   2.0000      -0.631584       -17.1863
  56   2.0000      -0.616956       -16.7882
  57   2.0000      -0.599159       -16.3040
  58   2.0000      -0.598094       -16.2750
  59   2.0000      -0.585751       -15.9391
  60   2.0000      -0.528981       -14.3943
  61   2.0000      -0.521556       -14.1923
  62   2.0000      -0.496706       -13.5161
  63   2.0000      -0.490805       -13.3555
  64   2.0000      -0.479647       -13.0519
  65   2.0000      -0.458575       -12.4785
  66   2.0000      -0.455754       -12.4017
  67   2.0000      -0.445980       -12.1357
  68   2.0000      -0.442177       -12.0323
  69   2.0000      -0.432501       -11.7689
  70   2.0000      -0.420922       -11.4539
  71   2.0000      -0.411388       -11.1944
  72   2.0000      -0.406361       -11.0576
  73   2.0000      -0.397474       -10.8158
  74   2.0000      -0.396489       -10.7890
  75   2.0000      -0.389287       -10.5930
  76   2.0000      -0.380036       -10.3413
  77   2.0000      -0.369162       -10.0454
  78   2.0000      -0.364535        -9.9195
  79   2.0000      -0.358722        -9.7613
  80   2.0000      -0.354586        -9.6488
  81   2.0000      -0.351488        -9.5645
  82   2.0000      -0.349995        -9.5238
  83   2.0000      -0.347245        -9.4490
  84   2.0000      -0.346590        -9.4312
  85   2.0000      -0.328245        -8.9320
  86   2.0000      -0.323410        -8.8004
  87   2.0000      -0.321579        -8.7506
  88   2.0000      -0.306257        -8.3337
  89   2.0000      -0.303921        -8.2701
  90   2.0000      -0.299139        -8.1400
  91   2.0000      -0.288984        -7.8636
  92   2.0000      -0.282966        -7.6999
  93   2.0000      -0.280977        -7.6458
  94   2.0000      -0.276088        -7.5127
  95   2.0000      -0.251530        -6.8445
  96   2.0000      -0.240076        -6.5328
  97   2.0000      -0.236057        -6.4234
  98   2.0000      -0.228921        -6.2292
  99   2.0000      -0.225463        -6.1351
 100   2.0000      -0.220945        -6.0122
 101   0.0000      -0.052492        -1.4284
 102   0.0000      -0.032650        -0.8884
 103   0.0000      -0.008832        -0.2403
 104   0.0000       0.000870         0.0237
 105   0.0000       0.013980         0.3804

MULLIKEN ATOMIC CHARGES
-----------------------
   0 C :   -0.476229
   1 C :   -0.145066
   2 O :   -0.332752
   3 P :    0.644260
   4 S :   -0.492693
   5 O :   -0.279357
   6 C :   -0.087887
   7 C :   -0.499571
   8 S :   -0.163721
   9 C :   -0.250892
  10 S :   -0.116492
  11 P :    0.719970
  12 S :   -0.538840
  13 O :   -0.340074
  14 C :   -0.146345
  15 C :   -0.493243
  16 O :   -0.280363
  17 C :   -0.119274
  18 C :   -0.507031
  19 H :    0.169023
  20 H :    0.172365
  21 H :    0.169360
  22 H :    0.176024
  23 H :    0.177308
  24 H :    0.171153
  25 H :    0.176103
  26 H :    0.166603
  27 H :    0.167866
  28 H :    0.171135
  29 H :    0.230597
  30 H :    0.233485
  31 H :    0.177687
  32 H :    0.175339
  33 H :    0.173533
  34 H :    0.171016
  35 H :    0.173035
  36 H :    0.173645
  37 H :    0.169839
  38 H :    0.170550
  39 H :    0.169366
  40 H :    0.170570
Sum of atomic charges:    0.0000000

LOEWDIN ATOMIC CHARGES
----------------------
   0 C :   -0.400792
   1 C :    0.027693
   2 O :   -0.685918
   3 P :    0.376444
   4 S :   -0.142386
   5 O :   -0.684891
   6 C :    0.025790
   7 C :   -0.395808
   8 S :    0.160600
   9 C :   -0.416580
  10 S :    0.175818
  11 P :    0.379355
  12 S :   -0.169512
  13 O :   -0.667803
  14 C :    0.025985
  15 C :   -0.409344
  16 O :   -0.687545
  17 C :    0.028862
  18 C :   -0.396219
  19 H :    0.163066
  20 H :    0.169224
  21 H :    0.162937
  22 H :    0.190327
  23 H :    0.181443
  24 H :    0.184289
  25 H :    0.183087
  26 H :    0.164616
  27 H :    0.164187
  28 H :    0.170130
  29 H :    0.198703
  30 H :    0.197680
  31 H :    0.181724
  32 H :    0.191141
  33 H :    0.169041
  34 H :    0.163854
  35 H :    0.161692
  36 H :    0.181679
  37 H :    0.183024
  38 H :    0.162769
  39 H :    0.167973
  40 H :    0.163666

  Mayer bond orders larger than 0.100000
B(  0-C ,  1-C ) :   0.9211 B(  0-C , 19-H ) :   0.9666 B(  0-C , 20-H ) :   0.9569
B(  0-C , 21-H ) :   0.9619 B(  1-C ,  2-O ) :   0.7852 B(  1-C , 22-H ) :   0.9514
B(  1-C , 23-H ) :   0.9634 B(  2-O ,  3-P ) :   1.0801 B(  3-P ,  4-S ) :   1.8316
B(  3-P ,  5-O ) :   1.0998 B(  3-P ,  8-S ) :   1.0672 B(  5-O ,  6-C ) :   0.7330
B(  6-C ,  7-C ) :   0.9343 B(  6-C , 24-H ) :   0.9436 B(  6-C , 25-H ) :   0.9384
B(  7-C , 26-H ) :   0.9693 B(  7-C , 27-H ) :   0.9648 B(  7-C , 28-H ) :   0.9606
B(  8-S ,  9-C ) :   0.9078 B(  9-C , 10-S ) :   0.9003 B(  9-C , 29-H ) :   0.8986
B(  9-C , 30-H ) :   0.8994 B( 10-S , 11-P ) :   1.1111 B( 11-P , 12-S ) :   1.7086
B( 11-P , 13-O ) :   1.0716 B( 11-P , 16-O ) :   1.1534 B( 13-O , 14-C ) :   0.8033
B( 14-C , 15-C ) :   0.9094 B( 14-C , 31-H ) :   0.9647 B( 14-C , 32-H ) :   0.9486
B( 15-C , 33-H ) :   0.9529 B( 15-C , 34-H ) :   0.9661 B( 15-C , 35-H ) :   0.9625
B( 16-O , 17-C ) :   0.7590 B( 17-C , 18-C ) :   0.9450 B( 17-C , 36-H ) :   0.9383
B( 17-C , 37-H ) :   0.9498 B( 18-C , 38-H ) :   0.9679 B( 18-C , 39-H ) :   0.9573
B( 18-C , 40-H ) :   0.9690

Dispersion correction           -0.021724575
FINAL SINGLE POINT ENERGY     -2932.474192349733

DIPOLE MOMENT
-------------

Method             : SCF
Type of density    : Electron Density
Multiplicity       :   1
Irrep              :   0
Energy             : -2932.4990960992154214 Eh
Relativity type    :
Basis              : AO
                                X                 Y                 Z
Electronic contribution:     -1.476095290       9.975204652     -13.742321582
Nuclear contribution   :      1.228334174     -11.849239118      15.431685892
                        -----------------------------------------
Total Dipole Moment    :     -0.247761116      -1.874034465       1.689364310
                        -----------------------------------------
Magnitude (a.u.)       :      2.535220409
Magnitude (Debye)      :      6.444018165

Rotational constants in cm-1:             0.013395             0.004764             0.004448
Rotational constants in MHz :           401.570859           142.824652           133.339990

                             ****ORCA TERMINATED NORMALLY****
TOTAL RUN TIME: 0 days 0 hours 1 minutes 49 seconds 886 msec
