                         Program Version 6.0.0  -   RELEASE  -
|  1> ! wb97x-v def2-tzvp def2/J RIJCOSX DEFGRID2 scfconv7 GCP(DFT/TZ) printgap
|  2> %output
|  3>     printlevel normal
|  4> end
|  5> * xyz 0 1
|  6> C -3.091954973803501 0.3835583243188566 0.00788022865002314
|  7> C -1.6274077885816374 0.04549362230932894 -0.0070310031086705796
|  8> C -1.1997582681210415 -1.2866678841020611 -0.006614065385777473
|  9> C 0.15784265786330026 -1.59058674518924 -0.0013013880070712298
| 10> C 1.1390877551277772 -0.5960160804974144 0.0019537015946824252
| 11> C 0.6950347988952862 0.7328740468123706 -0.00042996505964754546
| 12> C -0.661459439146805 1.0513329033173895 -0.0052508421160479095
| 13> O 1.5802298084580835 1.7937332535708836 -0.0005791570479530972
| 14> C 2.6050868164182934 -0.921700109815966 0.003662059294197145
| 15> H -3.5380213936144234 0.1417758528676694 0.9795104115603167
| 16> H -3.2564717258639932 1.4470355311442056 -0.18209605631400758
| 17> H -3.6367338123299224 -0.1920388783771824 -0.7471556016658134
| 18> H -1.933387917086721 -2.08777003929008 -0.010465213639928236
| 19> H 0.4753591845476059 -2.630138370904619 -0.0020615109601801068
| 20> H -0.955015909675063 2.0972102187222754 -0.008620466580528069
| 21> H 2.486349964803121 1.456210021490911 0.0013026498119951696
| 22> H 3.112861559052857 -0.5161359046719262 -0.8807743838795193
| 23> H 3.111737443699086 -0.5129267123725284 0.8872110047141671
| 24> H 2.754852246717646 -2.0033731423113226 0.005654677476632297
| 25> *
| 26>
| 27>                          ****END OF INPUT****

CARTESIAN COORDINATES (ANGSTROEM)
---------------------------------
  C     -3.091955    0.383558    0.007880
  C     -1.627408    0.045494   -0.007031
  C     -1.199758   -1.286668   -0.006614
  C      0.157843   -1.590587   -0.001301
  C      1.139088   -0.596016    0.001954
  C      0.695035    0.732874   -0.000430
  C     -0.661459    1.051333   -0.005251
  O      1.580230    1.793733   -0.000579
  C      2.605087   -0.921700    0.003662
  H     -3.538021    0.141776    0.979510
  H     -3.256472    1.447036   -0.182096
  H     -3.636734   -0.192039   -0.747156
  H     -1.933388   -2.087770   -0.010465
  H      0.475359   -2.630138   -0.002062
  H     -0.955016    2.097210   -0.008620
  H      2.486350    1.456210    0.001303
  H      3.112862   -0.516136   -0.880774
  H      3.111737   -0.512927    0.887211
  H      2.754852   -2.003373    0.005655

 Total Charge           Charge          ....    0
 Multiplicity           Mult            ....    1
 Number of Electrons    NEL             ....   66
 Basis Dimension        Dim             ....  339

ORBITAL ENERGIES
----------------

  NO   OCC          E(Eh)            E(eV)
   0   2.0000     -21.699343      -590.4692
   1   2.0000     -12.107275      -329.4557
   2   2.0000     -12.057563      -328.1030
   3   2.0000     -12.056730      -328.0803
   4   2.0000     -12.054686      -328.0247
   5   2.0000     -12.049418      -327.8813
   6   2.0000     -12.040952      -327.6510
   7   2.0000     -12.039219      -327.6038
   8   2.0000     -12.037439      -327.5554
   9   2.0000      -1.710943       -46.5571
  10   2.0000      -1.385238       -37.6942
  11   2.0000      -1.309727       -35.6395
  12   2.0000      -1.274337       -34.6765
  13   2.0000      -1.229753       -33.4633
  14   2.0000      -1.169152       -31.8142
  15   2.0000      -1.139670       -31.0120
  16   2.0000      -1.104459       -30.0539
  17   2.0000      -1.035904       -28.1884
  18   2.0000      -1.000697       -27.2303
  19   2.0000      -0.944457       -25.7000
  20   2.0000      -0.942413       -25.6444
  21   2.0000      -0.933651       -25.4059
  22   2.0000      -0.888077       -24.1658
  23   2.0000      -0.869572       -23.6623
  24   2.0000      -0.848869       -23.0989
  25   2.0000      -0.843828       -22.9617
  26   2.0000      -0.834840       -22.7171
  27   2.0000      -0.823985       -22.4218
  28   2.0000      -0.817466       -22.2444
  29   2.0000      -0.799745       -21.7622
  30   2.0000      -0.750656       -20.4264
  31   2.0000      -0.633503       -17.2385
  32   2.0000      -0.627352       -17.0711
  33   0.0000      -0.243701        -6.6315
  34   0.0000      -0.235702        -6.4138
  35   0.0000      -0.148892        -4.0516
  36   0.0000      -0.073835        -2.0092
  37   0.0000      -0.067410        -1.8343

MULLIKEN ATOMIC CHARGES
-----------------------
   0 C :   -0.364733
   1 C :    0.192262
   2 C :   -0.219148
   3 C :   -0.154644
   4 C :    0.082616
   5 C :    0.195514
   6 C :   -0.295813
   7 O :   -0.389340
   8 C :   -0.461799
   9 H :    0.123870
  10 H :    0.118425
  11 H :    0.121644
  12 H :    0.110134
  13 H :    0.109103
  14 H :    0.113832
  15 H :    0.318244
  16 H :    0.137189
  17 H :    0.137067
  18 H :    0.125578
Sum of atomic charges:    0.0000000

LOEWDIN ATOMIC CHARGES
----------------------
   0 C :   -0.250593
   1 C :   -0.168196
   2 C :   -0.134981
   3 C :   -0.115982
   4 C :   -0.174979
   5 C :   -0.226169
   6 C :   -0.100843
   7 O :    0.065341
   8 C :   -0.266861
   9 H :    0.127905
  10 H :    0.124224
  11 H :    0.126415
  12 H :    0.142101
  13 H :    0.143198
  14 H :    0.148612
  15 H :    0.181850
  16 H :    0.124351
  17 H :    0.124281
  18 H :    0.130328

  Mayer bond orders larger than 0.100000
B(  0-C ,  1-C ) :   0.9136 B(  0-C ,  9-H ) :   0.9680 B(  0-C , 10-H ) :   0.9977
B(  0-C , 11-H ) :   0.9829 B(  1-C ,  2-C ) :   1.3705 B(  1-C ,  6-C ) :   1.4079
B(  2-C ,  3-C ) :   1.4670 B(  2-C , 12-H ) :   0.9829 B(  3-C ,  4-C ) :   1.3728
B(  3-C , 13-H ) :   0.9632 B(  4-C ,  5-C ) :   1.3024 B(  4-C ,  8-C ) :   0.8832
B(  5-C ,  6-C ) :   1.4488 B(  5-C ,  7-O ) :   1.1602 B(  6-C , 14-H ) :   0.9672
B(  7-O , 15-H ) :   0.8866 B(  8-C , 16-H ) :   0.9836 B(  8-C , 17-H ) :   0.9835
B(  8-C , 18-H ) :   0.9821

FINAL SINGLE POINT ENERGY      -386.122528046732

DIPOLE MOMENT
-------------

Method             : SCF
Type of density    : Electron Density
Multiplicity       :   1
Irrep              :   0
Energy             :  -386.1338231706325246 Eh
Relativity type    :
Basis              : AO
                                X                 Y                 Z
Electronic contribution:      1.617327837       2.148475456      -0.033794529
Nuclear contribution   :     -1.275141882      -2.575190710       0.043874416
                        -----------------------------------------
Total Dipole Moment    :      0.342185955      -0.426715255       0.010079887
                        -----------------------------------------
Magnitude (a.u.)       :      0.547063745
Magnitude (Debye)      :      1.390525532

Rotational constants in cm-1:             0.101836             0.043174             0.030666
Rotational constants in MHz :          3052.959901          1294.313195           919.345686

                             ****ORCA TERMINATED NORMALLY****
TOTAL RUN TIME: 0 days 0 hours 3 minutes 46 seconds 870 msec
