                         Program Version 6.0.0  -   RELEASE  -
|  1> ! wb97x-v def2-tzvp def2/J RIJCOSX DEFGRID2 scfconv7 GCP(DFT/TZ) printgap
|  2> %output
|  3>     printlevel normal
|  4> end
|  5> %cpcm
|  6>     smd true
|  7>     smdsolvent "water"
|  8> end
|  9> * xyz 0 1
| 10> C -3.091954973803501 0.3835583243188566 0.00788022865002314
| 11> C -1.6274077885816374 0.04549362230932894 -0.0070310031086705796
| 12> C -1.1997582681210415 -1.2866678841020611 -0.006614065385777473
| 13> C 0.15784265786330026 -1.59058674518924 -0.0013013880070712298
| 14> C 1.1390877551277772 -0.5960160804974144 0.0019537015946824252
| 15> C 0.6950347988952862 0.7328740468123706 -0.00042996505964754546
| 16> C -0.661459439146805 1.0513329033173895 -0.0052508421160479095
| 17> O 1.5802298084580835 1.7937332535708836 -0.0005791570479530972
| 18> C 2.6050868164182934 -0.921700109815966 0.003662059294197145
| 19> H -3.5380213936144234 0.1417758528676694 0.9795104115603167
| 20> H -3.2564717258639932 1.4470355311442056 -0.18209605631400758
| 21> H -3.6367338123299224 -0.1920388783771824 -0.7471556016658134
| 22> H -1.933387917086721 -2.08777003929008 -0.010465213639928236
| 23> H 0.4753591845476059 -2.630138370904619 -0.0020615109601801068
| 24> H -0.955015909675063 2.0972102187222754 -0.008620466580528069
| 25> H 2.486349964803121 1.456210021490911 0.0013026498119951696
| 26> H 3.112861559052857 -0.5161359046719262 -0.8807743838795193
| 27> H 3.111737443699086 -0.5129267123725284 0.8872110047141671
| 28> H 2.754852246717646 -2.0033731423113226 0.005654677476632297
| 29> *
| 30>
| 31>                          ****END OF INPUT****

CARTESIAN COORDINATES (ANGSTROEM)
---------------------------------
  C     -3.091955    0.383558    0.007880
  C     -1.627408    0.045494   -0.007031
  C     -1.199758   -1.286668   -0.006614
  C      0.157843   -1.590587   -0.001301
  C      1.139088   -0.596016    0.001954
  C      0.695035    0.732874   -0.000430
  C     -0.661459    1.051333   -0.005251
  O      1.580230    1.793733   -0.000579
  C      2.605087   -0.921700    0.003662
  H     -3.538021    0.141776    0.979510
  H     -3.256472    1.447036   -0.182096
  H     -3.636734   -0.192039   -0.747156
  H     -1.933388   -2.087770   -0.010465
  H      0.475359   -2.630138   -0.002062
  H     -0.955016    2.097210   -0.008620
  H      2.486350    1.456210    0.001303
  H      3.112862   -0.516136   -0.880774
  H      3.111737   -0.512927    0.887211
  H      2.754852   -2.003373    0.005655

 Total Charge           Charge          ....    0
 Multiplicity           Mult            ....    1
 Number of Electrons    NEL             ....   66
 Basis Dimension        Dim             ....  339

ORBITAL ENERGIES
----------------

  NO   OCC          E(Eh)            E(eV)
   0   2.0000     -21.700124      -590.4904
   1   2.0000     -12.108263      -329.4826
   2   2.0000     -12.057844      -328.1106
   3   2.0000     -12.053573      -327.9944
   4   2.0000     -12.047231      -327.8218
   5   2.0000     -12.040178      -327.6299
   6   2.0000     -12.038569      -327.5861
   7   2.0000     -12.036787      -327.5376
   8   2.0000     -12.033267      -327.4419
   9   2.0000      -1.712142       -46.5898
  10   2.0000      -1.385933       -37.7132
  11   2.0000      -1.306668       -35.5562
  12   2.0000      -1.275430       -34.7062
  13   2.0000      -1.221761       -33.2458
  14   2.0000      -1.162896       -31.6440
  15   2.0000      -1.138303       -30.9748
  16   2.0000      -1.103522       -30.0284
  17   2.0000      -1.034456       -28.1490
  18   2.0000      -1.003511       -27.3069
  19   2.0000      -0.946119       -25.7452
  20   2.0000      -0.944745       -25.7078
  21   2.0000      -0.929947       -25.3051
  22   2.0000      -0.884338       -24.0641
  23   2.0000      -0.864808       -23.5326
  24   2.0000      -0.835350       -22.7310
  25   2.0000      -0.834657       -22.7122
  26   2.0000      -0.827557       -22.5190
  27   2.0000      -0.817079       -22.2339
  28   2.0000      -0.807063       -21.9613
  29   2.0000      -0.794658       -21.6237
  30   2.0000      -0.750699       -20.4276
  31   2.0000      -0.636176       -17.3112
  32   2.0000      -0.627753       -17.0820
  33   0.0000      -0.244758        -6.6602
  34   0.0000      -0.237115        -6.4522
  35   0.0000      -0.147539        -4.0147
  36   0.0000      -0.073444        -1.9985
  37   0.0000      -0.043283        -1.1778

MULLIKEN ATOMIC CHARGES
-----------------------
   0 C :   -0.392687
   1 C :    0.147197
   2 C :   -0.267892
   3 C :   -0.195334
   4 C :    0.018631
   5 C :    0.235486
   6 C :   -0.348088
   7 O :   -0.462807
   8 C :   -0.451267
   9 H :    0.140626
  10 H :    0.141415
  11 H :    0.140865
  12 H :    0.153477
  13 H :    0.158120
  14 H :    0.148668
  15 H :    0.376327
  16 H :    0.154528
  17 H :    0.154559
  18 H :    0.148174
Sum of atomic charges:    0.0000000

LOEWDIN ATOMIC CHARGES
----------------------
   0 C :   -0.253118
   1 C :   -0.179534
   2 C :   -0.146779
   3 C :   -0.123966
   4 C :   -0.176928
   5 C :   -0.239024
   6 C :   -0.116808
   7 O :    0.040189
   8 C :   -0.261294
   9 H :    0.132364
  10 H :    0.129294
  11 H :    0.131211
  12 H :    0.150965
  13 H :    0.154093
  14 H :    0.155255
  15 H :    0.203746
  16 H :    0.132886
  17 H :    0.132846
  18 H :    0.134601

  Mayer bond orders larger than 0.100000
B(  0-C ,  1-C ) :   0.9283 B(  0-C ,  9-H ) :   0.9624 B(  0-C , 10-H ) :   0.9925
B(  0-C , 11-H ) :   0.9764 B(  1-C ,  2-C ) :   1.3520 B(  1-C ,  6-C ) :   1.4076
B(  2-C ,  3-C ) :   1.4365 B(  2-C , 12-H ) :   0.9884 B(  3-C ,  4-C ) :   1.3477
B(  3-C , 13-H ) :   0.9685 B(  4-C ,  5-C ) :   1.2952 B(  4-C ,  8-C ) :   0.9344
B(  5-C ,  6-C ) :   1.4129 B(  5-C ,  7-O ) :   1.1260 B(  6-C , 14-H ) :   0.9794
B(  7-O , 15-H ) :   0.8489 B(  8-C , 16-H ) :   0.9719 B(  8-C , 17-H ) :   0.9719
B(  8-C , 18-H ) :   0.9769

FINAL SINGLE POINT ENERGY      -386.130734482451

DIPOLE MOMENT
-------------

Method             : SCF
Type of density    : Electron Density
Multiplicity       :   1
Irrep              :   0
Energy             :  -386.1420296063509454 Eh
Relativity type    :
Basis              : AO
                                X                 Y                 Z
Electronic contribution:      1.803289520       1.976711935      -0.029880855
Nuclear contribution   :     -1.275141882      -2.575190710       0.043874416
                        -----------------------------------------
Total Dipole Moment    :      0.528147638      -0.598478775       0.013993561
                        -----------------------------------------
Magnitude (a.u.)       :      0.798318603
Magnitude (Debye)      :      2.029164628

Rotational constants in cm-1:             0.101836             0.043174             0.030666
Rotational constants in MHz :          3052.959901          1294.313195           919.345686

                             ****ORCA TERMINATED NORMALLY****
TOTAL RUN TIME: 0 days 0 hours 3 minutes 47 seconds 272 msec
