                         Program Version 6.0.0  -   RELEASE  -
|  1> ! pbe def2-sv(p) def2/J RI DEFGRID1 loosescf d4 GCP(DFT/SV(P)) printgap
|  2> %output
|  3>     printlevel normal
|  4> end
|  5> * xyz 0 1
|  6> C 1.9368213735 2.1463806614 2.0514734451
|  7> C 1.1902045702 0.876877327 2.4001430853
|  8> O 1.8347425705 -0.3311318238 1.9275777224
|  9> P 2.4801743431 -0.6358159203 0.5256541112
| 10> S 2.7776146602 -2.5664758385 0.3928718031
| 11> O 3.7629814548 0.2976163816 0.5257744184
| 12> C 4.5259676628 0.6733769319 -0.6355439526
| 13> C 5.00051549 -0.5176941492 -1.4411714727
| 14> S 1.2472143066 0.2066189746 -1.0075782893
| 15> C 0.1839037531 -1.2337790184 -1.2147730955
| 16> S -0.9977811679 -1.4311231709 0.148164539
| 17> P -2.216848799 0.2165456298 -0.386529465
| 18> S -2.5225833672 0.4723590536 -2.309301945
| 19> O -1.4976274274 1.3991824334 0.3771481058
| 20> C -1.6323790128 2.7751497992 -0.0443427373
| 21> C -3.0286436856 3.2973567347 0.2160932326
| 22> O -3.5215780592 0.0087130942 0.4914707501
| 23> C -4.5566307671 -0.9183989864 0.1075969656
| 24> C -5.8296529268 -0.519899588 0.8267056751
| 25> H 1.4445557928 2.9845648287 2.5358404968
| 26> H 2.964926452 2.086458904 2.3989504923
| 27> H 1.9347459928 2.307103417 0.974782471
| 28> H 0.176298713 0.8925719709 1.990918536
| 29> H 1.1432930162 0.7235704892 3.4797419078
| 30> H 3.9075997945 1.33295853 -1.2508467463
| 31> H 5.3660699804 1.2323646241 -0.219739148
| 32> H 5.5519363289 -1.2089160706 -0.8081882867
| 33> H 4.1501829532 -1.0485900077 -1.8667839834
| 34> H 5.6428466098 -0.1756389401 -2.246273442
| 35> H 0.7975645274 -2.1359839002 -1.2291825395
| 36> H -0.3610575545 -1.1002173526 -2.1495131244
| 37> H -0.8818009977 3.304123193 0.5438198015
| 38> H -1.3839501945 2.8367184109 -1.1083662866
| 39> H -3.2946187619 3.1559077664 1.2602086919
| 40> H -3.0715907049 4.3534734453 -0.030663557
| 41> H -3.7436112713 2.7592223365 -0.4052953728
| 42> H -4.6792978064 -0.8753776255 -0.9800979156
| 43> H -4.2353337063 -1.9243786821 0.3909720567
| 44> H -5.6645346895 -0.5250017208 1.9001144464
| 45> H -6.1373183399 0.4762464548 0.5217214167
| 46> H -6.6139386308 -1.2278447643 0.5797505893
| 47> *
| 48>
| 49>                          ****END OF INPUT****

CARTESIAN COORDINATES (ANGSTROEM)
---------------------------------
  C      1.936821    2.146381    2.051473
  C      1.190205    0.876877    2.400143
  O      1.834743   -0.331132    1.927578
  P      2.480174   -0.635816    0.525654
  S      2.777615   -2.566476    0.392872
  O      3.762981    0.297616    0.525774
  C      4.525968    0.673377   -0.635544
  C      5.000515   -0.517694   -1.441171
  S      1.247214    0.206619   -1.007578
  C      0.183904   -1.233779   -1.214773
  S     -0.997781   -1.431123    0.148165
  P     -2.216849    0.216546   -0.386529
  S     -2.522583    0.472359   -2.309302
  O     -1.497627    1.399182    0.377148
  C     -1.632379    2.775150   -0.044343
  C     -3.028644    3.297357    0.216093
  O     -3.521578    0.008713    0.491471
  C     -4.556631   -0.918399    0.107597
  C     -5.829653   -0.519900    0.826706
  H      1.444556    2.984565    2.535840
  H      2.964926    2.086459    2.398950
  H      1.934746    2.307103    0.974782
  H      0.176299    0.892572    1.990919
  H      1.143293    0.723570    3.479742
  H      3.907600    1.332959   -1.250847
  H      5.366070    1.232365   -0.219739
  H      5.551936   -1.208916   -0.808188
  H      4.150183   -1.048590   -1.866784
  H      5.642847   -0.175639   -2.246273
  H      0.797565   -2.135984   -1.229183
  H     -0.361058   -1.100217   -2.149513
  H     -0.881801    3.304123    0.543820
  H     -1.383950    2.836718   -1.108366
  H     -3.294619    3.155908    1.260209
  H     -3.071591    4.353473   -0.030664
  H     -3.743611    2.759222   -0.405295
  H     -4.679298   -0.875378   -0.980098
  H     -4.235334   -1.924379    0.390972
  H     -5.664535   -0.525002    1.900114
  H     -6.137318    0.476246    0.521721
  H     -6.613939   -1.227845    0.579751

 Total Charge           Charge          ....    0
 Multiplicity           Mult            ....    1
 Number of Electrons    NEL             ....  202
 Basis Dimension        Dim             ....  334

ORBITAL ENERGIES
----------------

  NO   OCC          E(Eh)            E(eV)
   0   2.0000     -88.043955     -2395.7978
   1   2.0000     -88.043410     -2395.7830
   2   2.0000     -87.994209     -2394.4442
   3   2.0000     -87.977389     -2393.9865
   4   2.0000     -76.431125     -2079.7966
   5   2.0000     -76.424935     -2079.6282
   6   2.0000     -18.799532      -511.5613
   7   2.0000     -18.799329      -511.5557
   8   2.0000     -18.793569      -511.3990
   9   2.0000     -18.785545      -511.1807
  10   2.0000      -9.958805      -270.9929
  11   2.0000      -9.958489      -270.9843
  12   2.0000      -9.957724      -270.9634
  13   2.0000      -9.951465      -270.7931
  14   2.0000      -9.949643      -270.7435
  15   2.0000      -9.892597      -269.1913
  16   2.0000      -9.890163      -269.1250
  17   2.0000      -9.888430      -269.0779
  18   2.0000      -9.881684      -268.8943
  19   2.0000      -7.688580      -209.2169
  20   2.0000      -7.688560      -209.2164
  21   2.0000      -7.639086      -207.8701
  22   2.0000      -7.622794      -207.4268
  23   2.0000      -6.428991      -174.9417
  24   2.0000      -6.421770      -174.7452
  25   2.0000      -5.716314      -155.5488
  26   2.0000      -5.716197      -155.5456
  27   2.0000      -5.713234      -155.4650
  28   2.0000      -5.713108      -155.4616
  29   2.0000      -5.705887      -155.2651
  30   2.0000      -5.705507      -155.2547
  31   2.0000      -5.667851      -154.2301
  32   2.0000      -5.659719      -154.0088
  33   2.0000      -5.659416      -154.0005
  34   2.0000      -5.651882      -153.7955
  35   2.0000      -5.643402      -153.5648
  36   2.0000      -5.642723      -153.5463
  37   2.0000      -4.651413      -126.5714
  38   2.0000      -4.650754      -126.5535
  39   2.0000      -4.649495      -126.5192
  40   2.0000      -4.644520      -126.3838
  41   2.0000      -4.643989      -126.3694
  42   2.0000      -4.641746      -126.3083
  43   2.0000      -0.994664       -27.0662
  44   2.0000      -0.984725       -26.7957
  45   2.0000      -0.953841       -25.9553
  46   2.0000      -0.942053       -25.6346
  47   2.0000      -0.765720       -20.8363
  48   2.0000      -0.724845       -19.7240
  49   2.0000      -0.712648       -19.3921
  50   2.0000      -0.694712       -18.9041
  51   2.0000      -0.690337       -18.7850
  52   2.0000      -0.677740       -18.4423
  53   2.0000      -0.651964       -17.7408
  54   2.0000      -0.638397       -17.3717
  55   2.0000      -0.604424       -16.4472
  56   2.0000      -0.590544       -16.0695
  57   2.0000      -0.578124       -15.7315
  58   2.0000      -0.571509       -15.5515
  59   2.0000      -0.565419       -15.3858
  60   2.0000      -0.509997       -13.8777
  61   2.0000      -0.492572       -13.4036
  62   2.0000      -0.483525       -13.1574
  63   2.0000      -0.469497       -12.7757
  64   2.0000      -0.461583       -12.5603
  65   2.0000      -0.449838       -12.2407
  66   2.0000      -0.441879       -12.0241
  67   2.0000      -0.438348       -11.9281
  68   2.0000      -0.432464       -11.7680
  69   2.0000      -0.415640       -11.3101
  70   2.0000      -0.411378       -11.1942
  71   2.0000      -0.405560       -11.0358
  72   2.0000      -0.397483       -10.8161
  73   2.0000      -0.389385       -10.5957
  74   2.0000      -0.385785       -10.4978
  75   2.0000      -0.377444       -10.2708
  76   2.0000      -0.367017        -9.9870
  77   2.0000      -0.362048        -9.8518
  78   2.0000      -0.353892        -9.6299
  79   2.0000      -0.352990        -9.6053
  80   2.0000      -0.350116        -9.5271
  81   2.0000      -0.346685        -9.4338
  82   2.0000      -0.345229        -9.3942
  83   2.0000      -0.342042        -9.3074
  84   2.0000      -0.338157        -9.2017
  85   2.0000      -0.324531        -8.8309
  86   2.0000      -0.315683        -8.5902
  87   2.0000      -0.305382        -8.3099
  88   2.0000      -0.295352        -8.0369
  89   2.0000      -0.292032        -7.9466
  90   2.0000      -0.283928        -7.7261
  91   2.0000      -0.281559        -7.6616
  92   2.0000      -0.271676        -7.3927
  93   2.0000      -0.267706        -7.2847
  94   2.0000      -0.258998        -7.0477
  95   2.0000      -0.237572        -6.4647
  96   2.0000      -0.220893        -6.0108
  97   2.0000      -0.215470        -5.8632
  98   2.0000      -0.207195        -5.6381
  99   2.0000      -0.197156        -5.3649
 100   2.0000      -0.192216        -5.2305
 101   0.0000      -0.045668        -1.2427
 102   0.0000      -0.025404        -0.6913
 103   0.0000      -0.005482        -0.1492
 104   0.0000       0.001562         0.0425
 105   0.0000       0.013770         0.3747

MULLIKEN ATOMIC CHARGES
-----------------------
   0 C :   -0.324625
   1 C :   -0.013172
   2 O :   -0.353945
   3 P :    0.601361
   4 S :   -0.314794
   5 O :   -0.374737
   6 C :   -0.009730
   7 C :   -0.306345
   8 S :   -0.115254
   9 C :   -0.371119
  10 S :   -0.067033
  11 P :    0.614515
  12 S :   -0.335390
  13 O :   -0.358131
  14 C :   -0.006769
  15 C :   -0.306866
  16 O :   -0.375443
  17 C :   -0.013538
  18 C :   -0.282810
  19 H :    0.112487
  20 H :    0.125167
  21 H :    0.117653
  22 H :    0.134962
  23 H :    0.105888
  24 H :    0.109446
  25 H :    0.108512
  26 H :    0.128028
  27 H :    0.124574
  28 H :    0.110029
  29 H :    0.196315
  30 H :    0.194594
  31 H :    0.105614
  32 H :    0.115474
  33 H :    0.117099
  34 H :    0.114161
  35 H :    0.124926
  36 H :    0.108505
  37 H :    0.107582
  38 H :    0.118933
  39 H :    0.119134
  40 H :    0.114741
Sum of atomic charges:    0.0000000

LOEWDIN ATOMIC CHARGES
----------------------
   0 C :   -0.369179
   1 C :   -0.114859
   2 O :   -0.231353
   3 P :    0.571013
   4 S :   -0.310867
   5 O :   -0.241364
   6 C :   -0.114483
   7 C :   -0.368776
   8 S :    0.063367
   9 C :   -0.488774
  10 S :    0.091846
  11 P :    0.571322
  12 S :   -0.320764
  13 O :   -0.233187
  14 C :   -0.116503
  15 C :   -0.364379
  16 O :   -0.245839
  17 C :   -0.119454
  18 C :   -0.350211
  19 H :    0.128929
  20 H :    0.128215
  21 H :    0.114925
  22 H :    0.112553
  23 H :    0.121570
  24 H :    0.106617
  25 H :    0.120891
  26 H :    0.130980
  27 H :    0.121180
  28 H :    0.129487
  29 H :    0.128287
  30 H :    0.128172
  31 H :    0.116891
  32 H :    0.112368
  33 H :    0.126674
  34 H :    0.131609
  35 H :    0.122885
  36 H :    0.109266
  37 H :    0.112937
  38 H :    0.128018
  39 H :    0.127695
  40 H :    0.132297

  Mayer bond orders larger than 0.100000
B(  0-C ,  1-C ) :   1.1708 B(  0-C , 19-H ) :   0.9340 B(  0-C , 20-H ) :   0.9406
B(  0-C , 21-H ) :   0.9377 B(  1-C ,  2-O ) :   0.8957 B(  1-C , 22-H ) :   0.9056
B(  1-C , 23-H ) :   0.9339 B(  2-O ,  3-P ) :   1.1541 B(  3-P ,  4-S ) :   1.6338
B(  3-P ,  5-O ) :   1.0941 B(  3-P ,  8-S ) :   0.9209 B(  4-S ,  8-S ) :   0.1094
B(  5-O ,  6-C ) :   0.9118 B(  6-C ,  7-C ) :   1.1678 B(  6-C , 24-H ) :   0.9256
B(  6-C , 25-H ) :   0.9335 B(  7-C , 26-H ) :   0.9427 B(  7-C , 27-H ) :   0.9328
B(  7-C , 28-H ) :   0.9349 B(  8-S ,  9-C ) :   1.0099 B(  9-C , 10-S ) :   1.0034
B(  9-C , 29-H ) :   0.8625 B(  9-C , 30-H ) :   0.8716 B( 10-S , 11-P ) :   0.9699
B( 10-S , 12-S ) :   0.1098 B( 11-P , 12-S ) :   1.5973 B( 11-P , 13-O ) :   1.1162
B( 11-P , 16-O ) :   1.1144 B( 13-O , 14-C ) :   0.8961 B( 14-C , 15-C ) :   1.1651
B( 14-C , 31-H ) :   0.9310 B( 14-C , 32-H ) :   0.9156 B( 15-C , 33-H ) :   0.9460
B( 15-C , 34-H ) :   0.9387 B( 15-C , 35-H ) :   0.9343 B( 16-O , 17-C ) :   0.9004
B( 17-C , 18-C ) :   1.1612 B( 17-C , 36-H ) :   0.9097 B( 17-C , 37-H ) :   0.9297
B( 18-C , 38-H ) :   0.9503 B( 18-C , 39-H ) :   0.9515 B( 18-C , 40-H ) :   0.9415

Dispersion correction           -0.065389707
FINAL SINGLE POINT ENERGY     -2929.520411446109

DIPOLE MOMENT
-------------

Method             : SCF
Type of density    : Electron Density
Multiplicity       :   1
Irrep              :   0
Energy             : -2929.6406183525746201 Eh
Relativity type    :
Basis              : AO
                                X                 Y                 Z
Electronic contribution:      6.200941158     -15.918581818      -3.701431449
Nuclear contribution   :     -6.796354472      17.587659295       4.022373562
                        -----------------------------------------
Total Dipole Moment    :     -0.595413314       1.669077476       0.320942113
                        -----------------------------------------
Magnitude (a.u.)       :      1.800927671
Magnitude (Debye)      :      4.577594352

Rotational constants in cm-1:             0.013743             0.004571             0.004311
Rotational constants in MHz :           412.000237           137.033515           129.228410

                             ****ORCA TERMINATED NORMALLY****
TOTAL RUN TIME: 0 days 0 hours 0 minutes 21 seconds 139 msec
