                         Program Version 6.0.1  -  RELEASE   -
|  1> ! pbe def2-sv(p) def2/J RI DEFGRID1 loosescf d4 GCP(DFT/SV(P)) printgap
|  2> %output
|  3>     printlevel normal
|  4> end
|  5> * xyz 0 1
|  6> C 4.0365906345 -2.6001110996 0.982914422
|  7> C 2.583668132 -2.3812059171 0.6124063385
|  8> O 2.5306194328 -1.3451829418 -0.3898575273
|  9> C 1.4029385994 -1.1438450439 -1.0245576519
| 10> O 0.3804685266 -1.776086518 -0.8203448446
| 11> C 1.498204411 -0.0277303594 -2.0392647263
| 12> C 0.4236744845 1.0261115257 -1.7607806648
| 13> H 0.4390912672 1.7822425536 -2.5507702177
| 14> C 0.6096746808 1.7245321231 -0.4249223925
| 15> O -0.3185882756 1.9598333942 0.322227886
| 16> O 1.8608270039 2.0149845404 -0.1889204485
| 17> C 2.1883464458 2.6730687171 1.0546921538
| 18> C 1.9605274826 4.1718508325 0.9557556173
| 19> S -1.2757764395 0.3500552691 -1.8175509102
| 20> P -1.6542577242 -0.2839889262 0.1620430727
| 21> S -0.5000976621 -0.5605220814 1.7406522411
| 22> O -2.8364186745 0.7602840593 0.4146266232
| 23> C -3.5529254176 0.8060873781 1.6511090226
| 24> O -2.5597118683 -1.5869876253 -0.0948755077
| 25> C -2.1277512108 -2.9406871265 0.0180815468
| 26> H 4.0970969064 -3.374627752 1.7399245696
| 27> H 4.6028341464 -2.9064287611 0.1084631004
| 28> H 4.4621482719 -1.6823035179 1.3760921721
| 29> H 1.9860163393 -2.0545158221 1.4697680511
| 30> H 2.1248638873 -3.283989356 0.1973711635
| 31> H 1.3190308842 -0.4479059493 -3.0296224228
| 32> H 2.4883729178 0.4233018647 -1.987473821
| 33> H 1.5792025825 2.2332925665 1.8499883333
| 34> H 3.2410239232 2.4368198929 1.2073677178
| 35> H 2.2802910093 4.6414030789 1.8799956184
| 36> H 2.5301756197 4.5835532405 0.1274246358
| 37> H 0.9042515712 4.381843657 0.8025497797
| 38> H -4.2447899109 -0.0342457137 1.7112513878
| 39> H -4.0909443287 1.7504720005 1.6421703047
| 40> H -2.8559729252 0.7727647327 2.4913557502
| 41> H -1.646345404 -3.2524999799 -0.9066458561
| 42> H -3.0269576533 -3.522298903 0.2070581634
| 43> H -1.4232713488 -3.0391714446 0.8458440306
| 44> *
| 45>
| 46>                          ****END OF INPUT****

CARTESIAN COORDINATES (ANGSTROEM)
---------------------------------
  C      4.036591   -2.600111    0.982914
  C      2.583668   -2.381206    0.612406
  O      2.530619   -1.345183   -0.389858
  C      1.402939   -1.143845   -1.024558
  O      0.380469   -1.776087   -0.820345
  C      1.498204   -0.027730   -2.039265
  C      0.423674    1.026112   -1.760781
  H      0.439091    1.782243   -2.550770
  C      0.609675    1.724532   -0.424922
  O     -0.318588    1.959833    0.322228
  O      1.860827    2.014985   -0.188920
  C      2.188346    2.673069    1.054692
  C      1.960527    4.171851    0.955756
  S     -1.275776    0.350055   -1.817551
  P     -1.654258   -0.283989    0.162043
  S     -0.500098   -0.560522    1.740652
  O     -2.836419    0.760284    0.414627
  C     -3.552925    0.806087    1.651109
  O     -2.559712   -1.586988   -0.094876
  C     -2.127751   -2.940687    0.018082
  H      4.097097   -3.374628    1.739925
  H      4.602834   -2.906429    0.108463
  H      4.462148   -1.682304    1.376092
  H      1.986016   -2.054516    1.469768
  H      2.124864   -3.283989    0.197371
  H      1.319031   -0.447906   -3.029622
  H      2.488373    0.423302   -1.987474
  H      1.579203    2.233293    1.849988
  H      3.241024    2.436820    1.207368
  H      2.280291    4.641403    1.879996
  H      2.530176    4.583553    0.127425
  H      0.904252    4.381844    0.802550
  H     -4.244790   -0.034246    1.711251
  H     -4.090944    1.750472    1.642170
  H     -2.855973    0.772765    2.491356
  H     -1.646345   -3.252500   -0.906646
  H     -3.026958   -3.522299    0.207058
  H     -1.423271   -3.039171    0.845844

 Total Charge           Charge          ....    0
 Multiplicity           Mult            ....    1
 Number of Electrons    NEL             ....  174
 Basis Dimension        Dim             ....  316

ORBITAL ENERGIES
----------------

  NO   OCC          E(Eh)            E(eV)
   0   2.0000     -88.024484     -2395.2680
   1   2.0000     -87.964288     -2393.6300
   2   2.0000     -76.410991     -2079.2488
   3   2.0000     -18.817027      -512.0373
   4   2.0000     -18.808234      -511.7981
   5   2.0000     -18.767029      -510.6768
   6   2.0000     -18.761882      -510.5368
   7   2.0000     -18.747845      -510.1548
   8   2.0000     -18.741423      -509.9800
   9   2.0000     -10.019954      -272.6568
  10   2.0000     -10.013678      -272.4860
  11   2.0000      -9.953808      -270.8569
  12   2.0000      -9.952329      -270.8166
  13   2.0000      -9.944795      -270.6116
  14   2.0000      -9.922206      -269.9969
  15   2.0000      -9.919048      -269.9110
  16   2.0000      -9.914100      -269.7764
  17   2.0000      -9.891169      -269.1524
  18   2.0000      -9.889221      -269.0994
  19   2.0000      -7.669935      -208.7095
  20   2.0000      -7.609337      -207.0606
  21   2.0000      -6.406157      -174.3204
  22   2.0000      -5.698416      -155.0618
  23   2.0000      -5.694934      -154.9670
  24   2.0000      -5.685653      -154.7145
  25   2.0000      -5.638570      -153.4333
  26   2.0000      -5.630112      -153.2031
  27   2.0000      -5.628922      -153.1707
  28   2.0000      -4.628677      -125.9527
  29   2.0000      -4.628386      -125.9448
  30   2.0000      -4.626770      -125.9008
  31   2.0000      -1.025467       -27.9044
  32   2.0000      -1.015297       -27.6276
  33   2.0000      -0.958239       -26.0750
  34   2.0000      -0.928023       -25.2528
  35   2.0000      -0.918788       -25.0015
  36   2.0000      -0.913342       -24.8533
  37   2.0000      -0.764180       -20.7944
  38   2.0000      -0.713946       -19.4275
  39   2.0000      -0.708795       -19.2873
  40   2.0000      -0.683160       -18.5897
  41   2.0000      -0.648461       -17.6455
  42   2.0000      -0.621322       -16.9070
  43   2.0000      -0.611214       -16.6320
  44   2.0000      -0.607395       -16.5281
  45   2.0000      -0.590397       -16.0655
  46   2.0000      -0.563727       -15.3398
  47   2.0000      -0.513041       -13.9605
  48   2.0000      -0.507229       -13.8024
  49   2.0000      -0.492111       -13.3910
  50   2.0000      -0.483214       -13.1489
  51   2.0000      -0.454653       -12.3717
  52   2.0000      -0.452864       -12.3231
  53   2.0000      -0.450826       -12.2676
  54   2.0000      -0.436218       -11.8701
  55   2.0000      -0.427300       -11.6274
  56   2.0000      -0.415908       -11.3174
  57   2.0000      -0.414115       -11.2687
  58   2.0000      -0.404218       -10.9993
  59   2.0000      -0.401752       -10.9322
  60   2.0000      -0.397992       -10.8299
  61   2.0000      -0.388374       -10.5682
  62   2.0000      -0.382780       -10.4160
  63   2.0000      -0.378622       -10.3028
  64   2.0000      -0.369388       -10.0515
  65   2.0000      -0.368020       -10.0143
  66   2.0000      -0.358967        -9.7680
  67   2.0000      -0.356664        -9.7053
  68   2.0000      -0.350311        -9.5325
  69   2.0000      -0.345548        -9.4028
  70   2.0000      -0.336517        -9.1571
  71   2.0000      -0.331293        -9.0149
  72   2.0000      -0.317286        -8.6338
  73   2.0000      -0.305332        -8.3085
  74   2.0000      -0.302224        -8.2239
  75   2.0000      -0.293559        -7.9881
  76   2.0000      -0.282696        -7.6925
  77   2.0000      -0.270643        -7.3646
  78   2.0000      -0.267132        -7.2690
  79   2.0000      -0.263898        -7.1810
  80   2.0000      -0.250182        -6.8078
  81   2.0000      -0.243252        -6.6192
  82   2.0000      -0.236787        -6.4433
  83   2.0000      -0.228110        -6.2072
  84   2.0000      -0.190614        -5.1869
  85   2.0000      -0.182570        -4.9680
  86   2.0000      -0.173635        -4.7248
  87   0.0000      -0.043411        -1.1813
  88   0.0000      -0.040562        -1.1038
  89   0.0000      -0.030562        -0.8316
  90   0.0000       0.009464         0.2575
  91   0.0000       0.036221         0.9856

MULLIKEN ATOMIC CHARGES
-----------------------
   0 C :   -0.272440
   1 C :   -0.042886
   2 O :   -0.217439
   3 C :    0.095827
   4 O :   -0.209807
   5 C :   -0.009024
   6 C :   -0.335338
   7 H :    0.154886
   8 C :    0.205130
   9 O :   -0.174118
  10 O :   -0.223912
  11 C :   -0.010340
  12 C :   -0.311462
  13 S :   -0.054909
  14 P :    0.653694
  15 S :   -0.363695
  16 O :   -0.373164
  17 C :   -0.090291
  18 O :   -0.396980
  19 C :   -0.086362
  20 H :    0.113041
  21 H :    0.111579
  22 H :    0.113277
  23 H :    0.129544
  24 H :    0.104266
  25 H :    0.121474
  26 H :    0.112919
  27 H :    0.125356
  28 H :    0.104103
  29 H :    0.117362
  30 H :    0.112674
  31 H :    0.133952
  32 H :    0.104927
  33 H :    0.116260
  34 H :    0.112578
  35 H :    0.113250
  36 H :    0.107477
  37 H :    0.108590
Sum of atomic charges:   -0.0000000

LOEWDIN ATOMIC CHARGES
----------------------
   0 C :   -0.350711
   1 C :   -0.111124
   2 O :   -0.044884
   3 C :    0.028991
   4 O :   -0.172506
   5 C :   -0.250191
   6 C :   -0.261675
   7 H :    0.153029
   8 C :    0.007127
   9 O :   -0.146547
  10 O :   -0.042282
  11 C :   -0.106699
  12 C :   -0.357008
  13 S :    0.127977
  14 P :    0.603195
  15 S :   -0.330885
  16 O :   -0.252938
  17 C :   -0.213732
  18 O :   -0.262758
  19 C :   -0.215031
  20 H :    0.131644
  21 H :    0.124646
  22 H :    0.125967
  23 H :    0.119035
  24 H :    0.116510
  25 H :    0.146716
  26 H :    0.138229
  27 H :    0.127244
  28 H :    0.119098
  29 H :    0.133313
  30 H :    0.124250
  31 H :    0.133141
  32 H :    0.108146
  33 H :    0.117895
  34 H :    0.106960
  35 H :    0.110445
  36 H :    0.111780
  37 H :    0.103636

  Mayer bond orders larger than 0.100000
B(  0-C ,  1-C ) :   1.1514 B(  0-C , 20-H ) :   0.9443 B(  0-C , 21-H ) :   0.9507
B(  0-C , 22-H ) :   0.9490 B(  1-C ,  2-O ) :   0.8928 B(  1-C , 23-H ) :   0.9208
B(  1-C , 24-H ) :   0.9263 B(  2-O ,  3-C ) :   1.2695 B(  3-C ,  4-O ) :   1.9356
B(  3-C ,  5-C ) :   1.0139 B(  5-C ,  6-C ) :   1.0162 B(  5-C , 25-H ) :   0.8846
B(  5-C , 26-H ) :   0.8835 B(  6-C ,  7-H ) :   0.8720 B(  6-C ,  8-C ) :   0.8898
B(  6-C , 13-S ) :   1.0566 B(  8-C ,  9-O ) :   1.9978 B(  8-C , 10-O ) :   1.2611
B( 10-O , 11-C ) :   0.9004 B( 11-C , 12-C ) :   1.1728 B( 11-C , 27-H ) :   0.9128
B( 11-C , 28-H ) :   0.9370 B( 12-C , 29-H ) :   0.9437 B( 12-C , 30-H ) :   0.9477
B( 12-C , 31-H ) :   0.9442 B( 13-S , 14-P ) :   0.9274 B( 13-S , 15-S ) :   0.1215
B( 14-P , 15-S ) :   1.5074 B( 14-P , 16-O ) :   1.1032 B( 14-P , 18-O ) :   1.0838
B( 16-O , 17-C ) :   0.9412 B( 17-C , 32-H ) :   0.9513 B( 17-C , 33-H ) :   0.9603
B( 17-C , 34-H ) :   0.9319 B( 18-O , 19-C ) :   0.9387 B( 19-C , 35-H ) :   0.9501
B( 19-C , 36-H ) :   0.9560 B( 19-C , 37-H ) :   0.9320

Dispersion correction           -0.054874275
FINAL SINGLE POINT ENERGY     -1978.996807279772

DIPOLE MOMENT
-------------

Method             : SCF
Type of density    : Electron Density
Multiplicity       :   1
Irrep              :   0
Energy             : -1979.1255112854532854 Eh
Relativity type    :
Basis              : AO
                                X                 Y                 Z
Electronic contribution:    -13.860547656       0.474454811      -8.599377872
Nuclear contribution   :     15.368684596      -0.295436569       8.460620711
                        -----------------------------------------
Total Dipole Moment    :      1.508136940       0.179018242      -0.138757161
                        -----------------------------------------
Magnitude (a.u.)       :      1.525050199
Magnitude (Debye)      :      3.876369546

Rotational constants in cm-1:             0.011353             0.009416             0.007064
Rotational constants in MHz :           340.348029           282.283210           211.773440

                             ****ORCA TERMINATED NORMALLY****
TOTAL RUN TIME: 0 days 0 hours 0 minutes 40 seconds 973 msec
