                         Program Version 6.0.0  -   RELEASE  -
|  1> ! r2scan-3c def2/J RI DEFGRID2 scfconv6 printgap
|  2> %output
|  3>     printlevel normal
|  4> end
|  5> * xyz 0 1
|  6> C 0.973978183 1.4892523332 2.4312907895
|  7> C 2.3843440113 0.9367995459 2.463069433
|  8> O 2.9312385944 0.7843819286 1.1434407079
|  9> P 2.5045580578 -0.3996409797 0.1697441415
| 10> S 2.210164094 -2.1310086222 1.0504927506
| 11> O 3.6642085887 -0.37093834 -0.9086973308
| 12> C 4.8830533096 -1.1269242652 -0.7532025532
| 13> C 5.7446597749 -0.5941677488 0.3725720026
| 14> S 0.9655898254 0.3952638317 -1.0463766068
| 15> C -0.0921775318 -1.0779947434 -1.137947308
| 16> S -1.2143207313 -1.241027782 0.2793719354
| 17> P -2.5113702834 0.3199964871 -0.288462276
| 18> S -2.9212992564 0.500449085 -2.2023952872
| 19> O -1.7772002923 1.5326376997 0.4150747582
| 20> C -2.1171965052 2.9106244035 0.1380937594
| 21> C -1.182394377 3.4906003258 -0.9050164214
| 22> O -3.7977165873 0.1648720027 0.6344832206
| 23> C -4.9409182363 -0.6130859648 0.2390662728
| 24> C -4.633066031 -2.0961403675 0.2068487664
| 25> H 0.9421739021 2.4076491114 1.8505857789
| 26> H 0.2932275802 0.7681120474 1.9804332038
| 27> H 0.6434750367 1.692244423 3.4449137592
| 28> H 2.4061234832 -0.0368716167 2.964213327
| 29> H 3.0719462782 1.6247280526 2.9573728404
| 30> H 4.6190642012 -2.1742065586 -0.5744202936
| 31> H 5.3749466921 -1.0272233797 -1.7216123849
| 32> H 5.9125248496 0.4718306294 0.2438638739
| 33> H 5.2510831538 -0.7608501675 1.3288475884
| 34> H 6.6976614984 -1.1139788111 0.3723861949
| 35> H 0.5214753497 -1.976174555 -1.151315803
| 36> H -0.6823104572 -0.9818442067 -2.0493164792
| 37> H -3.1575879027 2.967622013 -0.1931520274
| 38> H -2.0103897906 3.4166988586 1.0988432643
| 39> H -0.1486184246 3.3629010872 -0.5959682367
| 40> H -1.3187043845 2.982586787 -1.8572059026
| 41> H -1.3961667509 4.546979865 -1.0316128486
| 42> H -5.694494014 -0.3728313854 0.9901355027
| 43> H -5.2707185761 -0.2671918739 -0.7460271738
| 44> H -4.2030001132 -2.413384048 1.1535646749
| 45> H -5.5474214432 -2.6502977893 0.0207723313
| 46> H -3.921296251 -2.3111621344 -0.5893178906
| 47> *
| 48>
| 49>                          ****END OF INPUT****

CARTESIAN COORDINATES (ANGSTROEM)
---------------------------------
  C      0.973978    1.489252    2.431291
  C      2.384344    0.936800    2.463069
  O      2.931239    0.784382    1.143441
  P      2.504558   -0.399641    0.169744
  S      2.210164   -2.131009    1.050493
  O      3.664209   -0.370938   -0.908697
  C      4.883053   -1.126924   -0.753203
  C      5.744660   -0.594168    0.372572
  S      0.965590    0.395264   -1.046377
  C     -0.092178   -1.077995   -1.137947
  S     -1.214321   -1.241028    0.279372
  P     -2.511370    0.319996   -0.288462
  S     -2.921299    0.500449   -2.202395
  O     -1.777200    1.532638    0.415075
  C     -2.117197    2.910624    0.138094
  C     -1.182394    3.490600   -0.905016
  O     -3.797717    0.164872    0.634483
  C     -4.940918   -0.613086    0.239066
  C     -4.633066   -2.096140    0.206849
  H      0.942174    2.407649    1.850586
  H      0.293228    0.768112    1.980433
  H      0.643475    1.692244    3.444914
  H      2.406123   -0.036872    2.964213
  H      3.071946    1.624728    2.957373
  H      4.619064   -2.174207   -0.574420
  H      5.374947   -1.027223   -1.721612
  H      5.912525    0.471831    0.243864
  H      5.251083   -0.760850    1.328848
  H      6.697661   -1.113979    0.372386
  H      0.521475   -1.976175   -1.151316
  H     -0.682310   -0.981844   -2.049316
  H     -3.157588    2.967622   -0.193152
  H     -2.010390    3.416699    1.098843
  H     -0.148618    3.362901   -0.595968
  H     -1.318704    2.982587   -1.857206
  H     -1.396167    4.546980   -1.031613
  H     -5.694494   -0.372831    0.990136
  H     -5.270719   -0.267192   -0.746027
  H     -4.203000   -2.413384    1.153565
  H     -5.547421   -2.650298    0.020772
  H     -3.921296   -2.311162   -0.589318

 Total Charge           Charge          ....    0
 Multiplicity           Mult            ....    1
 Number of Electrons    NEL             ....  202
 Basis Dimension        Dim             ....  539

ORBITAL ENERGIES
----------------

  NO   OCC          E(Eh)            E(eV)
   0   2.0000     -88.575037     -2410.2493
   1   2.0000     -88.572954     -2410.1926
   2   2.0000     -88.524637     -2408.8778
   3   2.0000     -88.521421     -2408.7903
   4   2.0000     -76.914233     -2092.9427
   5   2.0000     -76.913579     -2092.9249
   6   2.0000     -18.993321      -516.8345
   7   2.0000     -18.992213      -516.8044
   8   2.0000     -18.988749      -516.7101
   9   2.0000     -18.988193      -516.6950
  10   2.0000     -10.104286      -274.9516
  11   2.0000     -10.099640      -274.8252
  12   2.0000     -10.098051      -274.7819
  13   2.0000     -10.097179      -274.7582
  14   2.0000     -10.096652      -274.7439
  15   2.0000     -10.028950      -272.9016
  16   2.0000     -10.028184      -272.8808
  17   2.0000     -10.024101      -272.7697
  18   2.0000     -10.023539      -272.7544
  19   2.0000      -7.869198      -214.1318
  20   2.0000      -7.867289      -214.0798
  21   2.0000      -7.819329      -212.7748
  22   2.0000      -7.816258      -212.6912
  23   2.0000      -6.592824      -179.3999
  24   2.0000      -6.592254      -179.3844
  25   2.0000      -5.816083      -158.2637
  26   2.0000      -5.814231      -158.2133
  27   2.0000      -5.813114      -158.1829
  28   2.0000      -5.811305      -158.1337
  29   2.0000      -5.806268      -157.9966
  30   2.0000      -5.804152      -157.9390
  31   2.0000      -5.766949      -156.9267
  32   2.0000      -5.763810      -156.8413
  33   2.0000      -5.759680      -156.7289
  34   2.0000      -5.759303      -156.7186
  35   2.0000      -5.756648      -156.6463
  36   2.0000      -5.756237      -156.6352
  37   2.0000      -4.738030      -128.9284
  38   2.0000      -4.737789      -128.9218
  39   2.0000      -4.737721      -128.9200
  40   2.0000      -4.737051      -128.9017
  41   2.0000      -4.736850      -128.8962
  42   2.0000      -4.736055      -128.8746
  43   2.0000      -1.050034       -28.5729
  44   2.0000      -1.049138       -28.5485
  45   2.0000      -1.010407       -27.4946
  46   2.0000      -1.010359       -27.4933
  47   2.0000      -0.800510       -21.7830
  48   2.0000      -0.758534       -20.6408
  49   2.0000      -0.747329       -20.3359
  50   2.0000      -0.730103       -19.8671
  51   2.0000      -0.729731       -19.8570
  52   2.0000      -0.710626       -19.3371
  53   2.0000      -0.686635       -18.6843
  54   2.0000      -0.669824       -18.2269
  55   2.0000      -0.635101       -17.2820
  56   2.0000      -0.624477       -16.9929
  57   2.0000      -0.607383       -16.5277
  58   2.0000      -0.604089       -16.4381
  59   2.0000      -0.586529       -15.9603
  60   2.0000      -0.525544       -14.3008
  61   2.0000      -0.518396       -14.1063
  62   2.0000      -0.493183       -13.4202
  63   2.0000      -0.489167       -13.3109
  64   2.0000      -0.477784       -13.0012
  65   2.0000      -0.459852       -12.5132
  66   2.0000      -0.457805       -12.4575
  67   2.0000      -0.456078       -12.4105
  68   2.0000      -0.446451       -12.1486
  69   2.0000      -0.432341       -11.7646
  70   2.0000      -0.422351       -11.4928
  71   2.0000      -0.413814       -11.2605
  72   2.0000      -0.410609       -11.1732
  73   2.0000      -0.404942       -11.0190
  74   2.0000      -0.395896       -10.7729
  75   2.0000      -0.392866       -10.6904
  76   2.0000      -0.381128       -10.3710
  77   2.0000      -0.372619       -10.1395
  78   2.0000      -0.369440       -10.0530
  79   2.0000      -0.365545        -9.9470
  80   2.0000      -0.361181        -9.8282
  81   2.0000      -0.358183        -9.7467
  82   2.0000      -0.356558        -9.7024
  83   2.0000      -0.352616        -9.5952
  84   2.0000      -0.346608        -9.4317
  85   2.0000      -0.331134        -9.0106
  86   2.0000      -0.320538        -8.7223
  87   2.0000      -0.311492        -8.4761
  88   2.0000      -0.307767        -8.3748
  89   2.0000      -0.301843        -8.2136
  90   2.0000      -0.299986        -8.1630
  91   2.0000      -0.292592        -7.9618
  92   2.0000      -0.287762        -7.8304
  93   2.0000      -0.279339        -7.6012
  94   2.0000      -0.276466        -7.5230
  95   2.0000      -0.243594        -6.6285
  96   2.0000      -0.231750        -6.3062
  97   2.0000      -0.226023        -6.1504
  98   2.0000      -0.220418        -5.9979
  99   2.0000      -0.217811        -5.9269
 100   2.0000      -0.213997        -5.8231
 101   0.0000      -0.045336        -1.2337
 102   0.0000      -0.030055        -0.8178
 103   0.0000      -0.005437        -0.1480
 104   0.0000       0.002226         0.0606
 105   0.0000       0.015239         0.4147

MULLIKEN ATOMIC CHARGES
-----------------------
   0 C :   -0.445341
   1 C :   -0.154777
   2 O :   -0.280514
   3 P :    0.656154
   4 S :   -0.472348
   5 O :   -0.290872
   6 C :   -0.157356
   7 C :   -0.434176
   8 S :   -0.094506
   9 C :   -0.250212
  10 S :   -0.093819
  11 P :    0.672432
  12 S :   -0.484799
  13 O :   -0.271300
  14 C :   -0.125967
  15 C :   -0.461215
  16 O :   -0.304597
  17 C :   -0.149791
  18 C :   -0.453742
  19 H :    0.147102
  20 H :    0.187963
  21 H :    0.145138
  22 H :    0.169807
  23 H :    0.146393
  24 H :    0.170159
  25 H :    0.149897
  26 H :    0.156484
  27 H :    0.164425
  28 H :    0.146947
  29 H :    0.206796
  30 H :    0.217333
  31 H :    0.151935
  32 H :    0.151554
  33 H :    0.156657
  34 H :    0.182578
  35 H :    0.144469
  36 H :    0.147672
  37 H :    0.172114
  38 H :    0.157100
  39 H :    0.147755
  40 H :    0.176469
Sum of atomic charges:   -0.0000000

LOEWDIN ATOMIC CHARGES
----------------------
   0 C :   -0.404728
   1 C :    0.019273
   2 O :   -0.664922
   3 P :    0.386469
   4 S :   -0.122507
   5 O :   -0.668675
   6 C :    0.022312
   7 C :   -0.399385
   8 S :    0.188001
   9 C :   -0.419126
  10 S :    0.168207
  11 P :    0.375218
  12 S :   -0.139556
  13 O :   -0.678347
  14 C :    0.025550
  15 C :   -0.404824
  16 O :   -0.659375
  17 C :    0.019183
  18 C :   -0.406123
  19 H :    0.158794
  20 H :    0.173647
  21 H :    0.158806
  22 H :    0.180076
  23 H :    0.178339
  24 H :    0.179073
  25 H :    0.180358
  26 H :    0.161677
  27 H :    0.163868
  28 H :    0.159132
  29 H :    0.190823
  30 H :    0.193240
  31 H :    0.175938
  32 H :    0.178890
  33 H :    0.159909
  34 H :    0.168566
  35 H :    0.157294
  36 H :    0.179280
  37 H :    0.179799
  38 H :    0.160660
  39 H :    0.159539
  40 H :    0.165649

  Mayer bond orders larger than 0.100000
B(  0-C ,  1-C ) :   0.9384 B(  0-C , 19-H ) :   0.9690 B(  0-C , 20-H ) :   0.9505
B(  0-C , 21-H ) :   0.9604 B(  1-C ,  2-O ) :   0.7991 B(  1-C , 22-H ) :   0.9617
B(  1-C , 23-H ) :   0.9611 B(  2-O ,  3-P ) :   1.0685 B(  3-P ,  4-S ) :   1.7341
B(  3-P ,  5-O ) :   1.1833 B(  3-P ,  8-S ) :   1.0915 B(  5-O ,  6-C ) :   0.8132
B(  6-C ,  7-C ) :   0.9283 B(  6-C , 24-H ) :   0.9662 B(  6-C , 25-H ) :   0.9608
B(  7-C , 26-H ) :   0.9707 B(  7-C , 27-H ) :   0.9603 B(  7-C , 28-H ) :   0.9617
B(  8-S ,  9-C ) :   0.8985 B(  9-C , 10-S ) :   0.9140 B(  9-C , 29-H ) :   0.9092
B(  9-C , 30-H ) :   0.9042 B( 10-S , 11-P ) :   1.1034 B( 11-P , 12-S ) :   1.7456
B( 11-P , 13-O ) :   1.1500 B( 11-P , 16-O ) :   1.0662 B( 13-O , 14-C ) :   0.7531
B( 14-C , 15-C ) :   0.9359 B( 14-C , 31-H ) :   0.9611 B( 14-C , 32-H ) :   0.9657
B( 15-C , 33-H ) :   0.9721 B( 15-C , 34-H ) :   0.9596 B( 15-C , 35-H ) :   0.9647
B( 16-O , 17-C ) :   0.8190 B( 17-C , 18-C ) :   0.9218 B( 17-C , 36-H ) :   0.9586
B( 17-C , 37-H ) :   0.9656 B( 18-C , 38-H ) :   0.9689 B( 18-C , 39-H ) :   0.9589
B( 18-C , 40-H ) :   0.9614

Dispersion correction           -0.021520163
FINAL SINGLE POINT ENERGY     -2932.463972048746

DIPOLE MOMENT
-------------

Method             : SCF
Type of density    : Electron Density
Multiplicity       :   1
Irrep              :   0
Energy             : -2932.4888880432181395 Eh
Relativity type    :
Basis              : AO
                                X                 Y                 Z
Electronic contribution:     -2.143920897      -7.208340450      -6.863902149
Nuclear contribution   :      2.284644105       7.825215698       7.588432011
                        -----------------------------------------
Total Dipole Moment    :      0.140723208       0.616875248       0.724529862
                        -----------------------------------------
Magnitude (a.u.)       :      0.961915596
Magnitude (Debye)      :      2.444995138

Rotational constants in cm-1:             0.014097             0.004466             0.004198
Rotational constants in MHz :           422.622753           133.891217           125.840550

                             ****ORCA TERMINATED NORMALLY****
TOTAL RUN TIME: 0 days 0 hours 1 minutes 20 seconds 685 msec
