                         Program Version 6.0.0  -   RELEASE  -
|  1> ! r2scan-3c def2/J RI DEFGRID2 scfconv6 printgap
|  2> %output
|  3>     printlevel normal
|  4> end
|  5> %cpcm
|  6>     smd true
|  7>     smdsolvent "water"
|  8> end
|  9> * xyz 0 1
| 10> C 0.973978183 1.4892523332 2.4312907895
| 11> C 2.3843440113 0.9367995459 2.463069433
| 12> O 2.9312385944 0.7843819286 1.1434407079
| 13> P 2.5045580578 -0.3996409797 0.1697441415
| 14> S 2.210164094 -2.1310086222 1.0504927506
| 15> O 3.6642085887 -0.37093834 -0.9086973308
| 16> C 4.8830533096 -1.1269242652 -0.7532025532
| 17> C 5.7446597749 -0.5941677488 0.3725720026
| 18> S 0.9655898254 0.3952638317 -1.0463766068
| 19> C -0.0921775318 -1.0779947434 -1.137947308
| 20> S -1.2143207313 -1.241027782 0.2793719354
| 21> P -2.5113702834 0.3199964871 -0.288462276
| 22> S -2.9212992564 0.500449085 -2.2023952872
| 23> O -1.7772002923 1.5326376997 0.4150747582
| 24> C -2.1171965052 2.9106244035 0.1380937594
| 25> C -1.182394377 3.4906003258 -0.9050164214
| 26> O -3.7977165873 0.1648720027 0.6344832206
| 27> C -4.9409182363 -0.6130859648 0.2390662728
| 28> C -4.633066031 -2.0961403675 0.2068487664
| 29> H 0.9421739021 2.4076491114 1.8505857789
| 30> H 0.2932275802 0.7681120474 1.9804332038
| 31> H 0.6434750367 1.692244423 3.4449137592
| 32> H 2.4061234832 -0.0368716167 2.964213327
| 33> H 3.0719462782 1.6247280526 2.9573728404
| 34> H 4.6190642012 -2.1742065586 -0.5744202936
| 35> H 5.3749466921 -1.0272233797 -1.7216123849
| 36> H 5.9125248496 0.4718306294 0.2438638739
| 37> H 5.2510831538 -0.7608501675 1.3288475884
| 38> H 6.6976614984 -1.1139788111 0.3723861949
| 39> H 0.5214753497 -1.976174555 -1.151315803
| 40> H -0.6823104572 -0.9818442067 -2.0493164792
| 41> H -3.1575879027 2.967622013 -0.1931520274
| 42> H -2.0103897906 3.4166988586 1.0988432643
| 43> H -0.1486184246 3.3629010872 -0.5959682367
| 44> H -1.3187043845 2.982586787 -1.8572059026
| 45> H -1.3961667509 4.546979865 -1.0316128486
| 46> H -5.694494014 -0.3728313854 0.9901355027
| 47> H -5.2707185761 -0.2671918739 -0.7460271738
| 48> H -4.2030001132 -2.413384048 1.1535646749
| 49> H -5.5474214432 -2.6502977893 0.0207723313
| 50> H -3.921296251 -2.3111621344 -0.5893178906
| 51> *
| 52>
| 53>                          ****END OF INPUT****

CARTESIAN COORDINATES (ANGSTROEM)
---------------------------------
  C      0.973978    1.489252    2.431291
  C      2.384344    0.936800    2.463069
  O      2.931239    0.784382    1.143441
  P      2.504558   -0.399641    0.169744
  S      2.210164   -2.131009    1.050493
  O      3.664209   -0.370938   -0.908697
  C      4.883053   -1.126924   -0.753203
  C      5.744660   -0.594168    0.372572
  S      0.965590    0.395264   -1.046377
  C     -0.092178   -1.077995   -1.137947
  S     -1.214321   -1.241028    0.279372
  P     -2.511370    0.319996   -0.288462
  S     -2.921299    0.500449   -2.202395
  O     -1.777200    1.532638    0.415075
  C     -2.117197    2.910624    0.138094
  C     -1.182394    3.490600   -0.905016
  O     -3.797717    0.164872    0.634483
  C     -4.940918   -0.613086    0.239066
  C     -4.633066   -2.096140    0.206849
  H      0.942174    2.407649    1.850586
  H      0.293228    0.768112    1.980433
  H      0.643475    1.692244    3.444914
  H      2.406123   -0.036872    2.964213
  H      3.071946    1.624728    2.957373
  H      4.619064   -2.174207   -0.574420
  H      5.374947   -1.027223   -1.721612
  H      5.912525    0.471831    0.243864
  H      5.251083   -0.760850    1.328848
  H      6.697661   -1.113979    0.372386
  H      0.521475   -1.976175   -1.151316
  H     -0.682310   -0.981844   -2.049316
  H     -3.157588    2.967622   -0.193152
  H     -2.010390    3.416699    1.098843
  H     -0.148618    3.362901   -0.595968
  H     -1.318704    2.982587   -1.857206
  H     -1.396167    4.546980   -1.031613
  H     -5.694494   -0.372831    0.990136
  H     -5.270719   -0.267192   -0.746027
  H     -4.203000   -2.413384    1.153565
  H     -5.547421   -2.650298    0.020772
  H     -3.921296   -2.311162   -0.589318

 Total Charge           Charge          ....    0
 Multiplicity           Mult            ....    1
 Number of Electrons    NEL             ....  202
 Basis Dimension        Dim             ....  539

ORBITAL ENERGIES
----------------

  NO   OCC          E(Eh)            E(eV)
   0   2.0000     -88.579893     -2410.3814
   1   2.0000     -88.578270     -2410.3373
   2   2.0000     -88.531496     -2409.0645
   3   2.0000     -88.528096     -2408.9720
   4   2.0000     -76.919720     -2093.0920
   5   2.0000     -76.918533     -2093.0597
   6   2.0000     -18.995848      -516.9033
   7   2.0000     -18.995274      -516.8877
   8   2.0000     -18.992559      -516.8138
   9   2.0000     -18.991222      -516.7774
  10   2.0000     -10.105582      -274.9869
  11   2.0000     -10.090261      -274.5700
  12   2.0000     -10.089246      -274.5423
  13   2.0000     -10.089143      -274.5395
  14   2.0000     -10.089060      -274.5373
  15   2.0000     -10.018652      -272.6214
  16   2.0000     -10.018568      -272.6191
  17   2.0000     -10.016598      -272.5655
  18   2.0000     -10.015828      -272.5445
  19   2.0000      -7.874123      -214.2658
  20   2.0000      -7.872657      -214.2259
  21   2.0000      -7.826425      -212.9679
  22   2.0000      -7.823196      -212.8800
  23   2.0000      -6.598375      -179.5509
  24   2.0000      -6.597235      -179.5199
  25   2.0000      -5.820990      -158.3972
  26   2.0000      -5.819567      -158.3585
  27   2.0000      -5.818024      -158.3165
  28   2.0000      -5.816629      -158.2785
  29   2.0000      -5.811226      -158.1315
  30   2.0000      -5.809597      -158.0872
  31   2.0000      -5.774010      -157.1188
  32   2.0000      -5.770706      -157.0289
  33   2.0000      -5.766762      -156.9216
  34   2.0000      -5.766405      -156.9119
  35   2.0000      -5.763585      -156.8351
  36   2.0000      -5.763168      -156.8238
  37   2.0000      -4.743564      -129.0789
  38   2.0000      -4.743257      -129.0706
  39   2.0000      -4.742711      -129.0557
  40   2.0000      -4.742449      -129.0486
  41   2.0000      -4.742038      -129.0374
  42   2.0000      -4.741115      -129.0123
  43   2.0000      -1.052524       -28.6406
  44   2.0000      -1.052192       -28.6316
  45   2.0000      -1.013178       -27.5700
  46   2.0000      -1.011842       -27.5336
  47   2.0000      -0.803898       -21.8752
  48   2.0000      -0.756848       -20.5949
  49   2.0000      -0.742571       -20.2064
  50   2.0000      -0.723379       -19.6841
  51   2.0000      -0.722139       -19.6504
  52   2.0000      -0.710168       -19.3247
  53   2.0000      -0.690239       -18.7824
  54   2.0000      -0.675967       -18.3940
  55   2.0000      -0.634835       -17.2747
  56   2.0000      -0.621753       -16.9188
  57   2.0000      -0.601667       -16.3722
  58   2.0000      -0.598886       -16.2965
  59   2.0000      -0.586144       -15.9498
  60   2.0000      -0.521459       -14.1896
  61   2.0000      -0.515910       -14.0386
  62   2.0000      -0.491133       -13.3644
  63   2.0000      -0.485807       -13.2195
  64   2.0000      -0.478861       -13.0305
  65   2.0000      -0.457504       -12.4493
  66   2.0000      -0.454849       -12.3771
  67   2.0000      -0.452907       -12.3242
  68   2.0000      -0.442836       -12.0502
  69   2.0000      -0.429750       -11.6941
  70   2.0000      -0.420285       -11.4365
  71   2.0000      -0.411886       -11.2080
  72   2.0000      -0.406503       -11.0615
  73   2.0000      -0.404809       -11.0154
  74   2.0000      -0.394357       -10.7310
  75   2.0000      -0.391101       -10.6424
  76   2.0000      -0.380483       -10.3535
  77   2.0000      -0.369507       -10.0548
  78   2.0000      -0.364878        -9.9288
  79   2.0000      -0.361445        -9.8354
  80   2.0000      -0.354019        -9.6333
  81   2.0000      -0.352664        -9.5965
  82   2.0000      -0.350108        -9.5269
  83   2.0000      -0.346800        -9.4369
  84   2.0000      -0.344119        -9.3639
  85   2.0000      -0.329550        -8.9675
  86   2.0000      -0.319194        -8.6857
  87   2.0000      -0.306782        -8.3480
  88   2.0000      -0.304369        -8.2823
  89   2.0000      -0.300520        -8.1776
  90   2.0000      -0.299271        -8.1436
  91   2.0000      -0.291444        -7.9306
  92   2.0000      -0.287910        -7.8344
  93   2.0000      -0.280377        -7.6294
  94   2.0000      -0.277912        -7.5624
  95   2.0000      -0.247832        -6.7438
  96   2.0000      -0.238900        -6.5008
  97   2.0000      -0.232872        -6.3368
  98   2.0000      -0.227300        -6.1851
  99   2.0000      -0.225080        -6.1247
 100   2.0000      -0.220659        -6.0044
 101   0.0000      -0.051333        -1.3968
 102   0.0000      -0.036575        -0.9953
 103   0.0000      -0.009319        -0.2536
 104   0.0000      -0.002584        -0.0703
 105   0.0000       0.012031         0.3274

MULLIKEN ATOMIC CHARGES
-----------------------
   0 C :   -0.484742
   1 C :   -0.151495
   2 O :   -0.303874
   3 P :    0.694778
   4 S :   -0.510672
   5 O :   -0.326422
   6 C :   -0.153744
   7 C :   -0.474671
   8 S :   -0.115720
   9 C :   -0.259660
  10 S :   -0.110672
  11 P :    0.706510
  12 S :   -0.528315
  13 O :   -0.295908
  14 C :   -0.129337
  15 C :   -0.494924
  16 O :   -0.329843
  17 C :   -0.149574
  18 C :   -0.489295
  19 H :    0.169620
  20 H :    0.170550
  21 H :    0.171412
  22 H :    0.174330
  23 H :    0.174599
  24 H :    0.176068
  25 H :    0.175027
  26 H :    0.168908
  27 H :    0.167446
  28 H :    0.172159
  29 H :    0.230104
  30 H :    0.233697
  31 H :    0.169195
  32 H :    0.178030
  33 H :    0.167065
  34 H :    0.173209
  35 H :    0.169443
  36 H :    0.174794
  37 H :    0.177194
  38 H :    0.170195
  39 H :    0.172663
  40 H :    0.171872
Sum of atomic charges:    0.0000000

LOEWDIN ATOMIC CHARGES
----------------------
   0 C :   -0.409002
   1 C :    0.025294
   2 O :   -0.675409
   3 P :    0.391246
   4 S :   -0.145492
   5 O :   -0.686351
   6 C :    0.026931
   7 C :   -0.402626
   8 S :    0.176964
   9 C :   -0.413062
  10 S :    0.158190
  11 P :    0.380528
  12 S :   -0.165895
  13 O :   -0.690786
  14 C :    0.030721
  15 C :   -0.408351
  16 O :   -0.670874
  17 C :    0.024521
  18 C :   -0.409412
  19 H :    0.164360
  20 H :    0.165048
  21 H :    0.168253
  22 H :    0.181783
  23 H :    0.190466
  24 H :    0.181440
  25 H :    0.190761
  26 H :    0.164312
  27 H :    0.162608
  28 H :    0.168718
  29 H :    0.198448
  30 H :    0.198067
  31 H :    0.181488
  32 H :    0.190153
  33 H :    0.162095
  34 H :    0.162548
  35 H :    0.166366
  36 H :    0.190701
  37 H :    0.181444
  38 H :    0.163698
  39 H :    0.168602
  40 H :    0.161507

  Mayer bond orders larger than 0.100000
B(  0-C ,  1-C ) :   0.9260 B(  0-C , 19-H ) :   0.9656 B(  0-C , 20-H ) :   0.9554
B(  0-C , 21-H ) :   0.9545 B(  1-C ,  2-O ) :   0.7871 B(  1-C , 22-H ) :   0.9594
B(  1-C , 23-H ) :   0.9517 B(  2-O ,  3-P ) :   1.0766 B(  3-P ,  4-S ) :   1.7051
B(  3-P ,  5-O ) :   1.1845 B(  3-P ,  8-S ) :   1.0954 B(  5-O ,  6-C ) :   0.8021
B(  6-C ,  7-C ) :   0.9156 B(  6-C , 24-H ) :   0.9616 B(  6-C , 25-H ) :   0.9513
B(  7-C , 26-H ) :   0.9700 B(  7-C , 27-H ) :   0.9589 B(  7-C , 28-H ) :   0.9556
B(  8-S ,  9-C ) :   0.8903 B(  9-C , 10-S ) :   0.9075 B(  9-C , 29-H ) :   0.9023
B(  9-C , 30-H ) :   0.9009 B( 10-S , 11-P ) :   1.1104 B( 11-P , 12-S ) :   1.7084
B( 11-P , 13-O ) :   1.1589 B( 11-P , 16-O ) :   1.0739 B( 13-O , 14-C ) :   0.7405
B( 14-C , 15-C ) :   0.9229 B( 14-C , 31-H ) :   0.9569 B( 14-C , 32-H ) :   0.9550
B( 15-C , 33-H ) :   0.9699 B( 15-C , 34-H ) :   0.9638 B( 15-C , 35-H ) :   0.9599
B( 16-O , 17-C ) :   0.8074 B( 17-C , 18-C ) :   0.9092 B( 17-C , 36-H ) :   0.9490
B( 17-C , 37-H ) :   0.9640 B( 18-C , 38-H ) :   0.9663 B( 18-C , 39-H ) :   0.9535
B( 18-C , 40-H ) :   0.9626

Dispersion correction           -0.021520163
FINAL SINGLE POINT ENERGY     -2932.471026366440

DIPOLE MOMENT
-------------

Method             : SCF
Type of density    : Electron Density
Multiplicity       :   1
Irrep              :   0
Energy             : -2932.4959423609120677 Eh
Relativity type    :
Basis              : AO
                                X                 Y                 Z
Electronic contribution:     -2.123161183      -7.022773965      -6.614779888
Nuclear contribution   :      2.284644105       7.825215698       7.588432011
                        -----------------------------------------
Total Dipole Moment    :      0.161482922       0.802441733       0.973652123
                        -----------------------------------------
Magnitude (a.u.)       :      1.272001543
Magnitude (Debye)      :      3.233170978

Rotational constants in cm-1:             0.014097             0.004466             0.004198
Rotational constants in MHz :           422.622753           133.891217           125.840550

                             ****ORCA TERMINATED NORMALLY****
TOTAL RUN TIME: 0 days 0 hours 1 minutes 53 seconds 668 msec
