                         Program Version 6.0.0  -   RELEASE  -
|  1> ! pbe def2-sv(p) def2/J RI DEFGRID1 loosescf d4 GCP(DFT/SV(P)) printgap
|  2> %output
|  3>     printlevel normal
|  4> end
|  5> * xyz 0 1
|  6> C 5.1230483379 -1.9137993107 -1.3549199949
|  7> C 4.1250828831 -0.9141562253 -1.9024975352
|  8> O 3.8439731529 0.1309895557 -0.9401382492
|  9> P 2.6939104055 0.0778499435 0.1371507567
| 10> S 2.6417462875 1.7202892235 1.1934184945
| 11> O 3.0256960135 -1.2483834738 0.9509435688
| 12> C 2.4791246461 -1.51050566 2.2550101359
| 13> C 1.0522746828 -2.0156504223 2.1803073339
| 14> S 0.9456952397 -0.4158780434 -1.0034804798
| 15> C 0.1926952323 1.2298158022 -1.0306284367
| 16> S -0.8463866367 1.563767216 0.4194052305
| 17> P -2.4067536478 0.2466699326 -0.1251202182
| 18> S -2.852527676 0.1282189306 -2.0349841499
| 19> O -3.6142562151 0.6402025074 0.8293743451
| 20> C -4.6028707343 1.6168811621 0.461280938
| 21> C -4.0261865912 3.0164036039 0.3932227773
| 22> O -1.8783338335 -1.0835074924 0.5509948906
| 23> C -2.325043791 -2.3906497836 0.1341477192
| 24> C -3.7816450665 -2.622550845 0.4759132588
| 25> H 4.699813148 -2.4480964397 -0.5091112103
| 26> H 5.3770907315 -2.6231421325 -2.1364834394
| 27> H 6.0237478356 -1.3998449258 -1.030486645
| 28> H 3.1850143902 -1.4012814098 -2.1777222078
| 29> H 4.5302558421 -0.3792458595 -2.7633328216
| 30> H 3.1465035673 -2.2655400891 2.6737321063
| 31> H 2.5394275056 -0.5931126612 2.8496091071
| 32> H 0.73621158 -2.3403401471 3.1665352279
| 33> H 0.3823588272 -1.2267552251 1.8424340634
| 34> H 0.9893370931 -2.8508374377 1.4870100882
| 35> H -0.4225148089 1.2770013232 -1.9292592448
| 36> H 0.9709741694 1.9902533963 -1.0358751029
| 37> H -5.0286660493 1.330470124 -0.505946613
| 38> H -5.3599813513 1.5307178959 1.2417993477
| 39> H -3.3205021919 3.0895570507 -0.4335060245
| 40> H -4.8286122156 3.7297556652 0.2347402576
| 41> H -3.5055709865 3.2563700343 1.3171268629
| 42> H -2.1572335429 -2.4846623511 -0.9434286055
| 43> H -1.6684118977 -3.0743146639 0.6731913507
| 44> H -3.9532325908 -2.4360160946 1.5327431466
| 45> H -4.4102276213 -1.9500954846 -0.1067744145
| 46> H -4.0487133677 -3.6477634243 0.2395745303
| 47> *
| 48>
| 49>                          ****END OF INPUT****

CARTESIAN COORDINATES (ANGSTROEM)
---------------------------------
  C      5.123048   -1.913799   -1.354920
  C      4.125083   -0.914156   -1.902498
  O      3.843973    0.130990   -0.940138
  P      2.693910    0.077850    0.137151
  S      2.641746    1.720289    1.193418
  O      3.025696   -1.248383    0.950944
  C      2.479125   -1.510506    2.255010
  C      1.052275   -2.015650    2.180307
  S      0.945695   -0.415878   -1.003480
  C      0.192695    1.229816   -1.030628
  S     -0.846387    1.563767    0.419405
  P     -2.406754    0.246670   -0.125120
  S     -2.852528    0.128219   -2.034984
  O     -3.614256    0.640203    0.829374
  C     -4.602871    1.616881    0.461281
  C     -4.026187    3.016404    0.393223
  O     -1.878334   -1.083507    0.550995
  C     -2.325044   -2.390650    0.134148
  C     -3.781645   -2.622551    0.475913
  H      4.699813   -2.448096   -0.509111
  H      5.377091   -2.623142   -2.136483
  H      6.023748   -1.399845   -1.030487
  H      3.185014   -1.401281   -2.177722
  H      4.530256   -0.379246   -2.763333
  H      3.146504   -2.265540    2.673732
  H      2.539428   -0.593113    2.849609
  H      0.736212   -2.340340    3.166535
  H      0.382359   -1.226755    1.842434
  H      0.989337   -2.850837    1.487010
  H     -0.422515    1.277001   -1.929259
  H      0.970974    1.990253   -1.035875
  H     -5.028666    1.330470   -0.505947
  H     -5.359981    1.530718    1.241799
  H     -3.320502    3.089557   -0.433506
  H     -4.828612    3.729756    0.234740
  H     -3.505571    3.256370    1.317127
  H     -2.157234   -2.484662   -0.943429
  H     -1.668412   -3.074315    0.673191
  H     -3.953233   -2.436016    1.532743
  H     -4.410228   -1.950095   -0.106774
  H     -4.048713   -3.647763    0.239575

 Total Charge           Charge          ....    0
 Multiplicity           Mult            ....    1
 Number of Electrons    NEL             ....  202
 Basis Dimension        Dim             ....  334

ORBITAL ENERGIES
----------------

  NO   OCC          E(Eh)            E(eV)
   0   2.0000     -88.041181     -2395.7223
   1   2.0000     -88.040844     -2395.7132
   2   2.0000     -87.991313     -2394.3654
   3   2.0000     -87.987119     -2394.2512
   4   2.0000     -76.426830     -2079.6798
   5   2.0000     -76.426173     -2079.6619
   6   2.0000     -18.795272      -511.4453
   7   2.0000     -18.795139      -511.4417
   8   2.0000     -18.791650      -511.3468
   9   2.0000     -18.791273      -511.3365
  10   2.0000      -9.956782      -270.9378
  11   2.0000      -9.954354      -270.8717
  12   2.0000      -9.952658      -270.8256
  13   2.0000      -9.952548      -270.8226
  14   2.0000      -9.951623      -270.7974
  15   2.0000      -9.886593      -269.0279
  16   2.0000      -9.885399      -268.9954
  17   2.0000      -9.884640      -268.9747
  18   2.0000      -9.880493      -268.8619
  19   2.0000      -7.686052      -209.1481
  20   2.0000      -7.685530      -209.1339
  21   2.0000      -7.636179      -207.7910
  22   2.0000      -7.632371      -207.6874
  23   2.0000      -6.424647      -174.8235
  24   2.0000      -6.423886      -174.8028
  25   2.0000      -5.713886      -155.4828
  26   2.0000      -5.713287      -155.4664
  27   2.0000      -5.710749      -155.3974
  28   2.0000      -5.710149      -155.3810
  29   2.0000      -5.702906      -155.1840
  30   2.0000      -5.702550      -155.1743
  31   2.0000      -5.664879      -154.1492
  32   2.0000      -5.661375      -154.0539
  33   2.0000      -5.656833      -153.9303
  34   2.0000      -5.656562      -153.9229
  35   2.0000      -5.652865      -153.8223
  36   2.0000      -5.652551      -153.8137
  37   2.0000      -4.647070      -126.4532
  38   2.0000      -4.646684      -126.4427
  39   2.0000      -4.646351      -126.4336
  40   2.0000      -4.645582      -126.4127
  41   2.0000      -4.645233      -126.4032
  42   2.0000      -4.644183      -126.3746
  43   2.0000      -0.988895       -26.9092
  44   2.0000      -0.988350       -26.8944
  45   2.0000      -0.948144       -25.8003
  46   2.0000      -0.946496       -25.7555
  47   2.0000      -0.762555       -20.7502
  48   2.0000      -0.721735       -19.6394
  49   2.0000      -0.709942       -19.3185
  50   2.0000      -0.689481       -18.7617
  51   2.0000      -0.688454       -18.7338
  52   2.0000      -0.675148       -18.3717
  53   2.0000      -0.651218       -17.7206
  54   2.0000      -0.639749       -17.4085
  55   2.0000      -0.603639       -16.4258
  56   2.0000      -0.593210       -16.1421
  57   2.0000      -0.575869       -15.6702
  58   2.0000      -0.573942       -15.6178
  59   2.0000      -0.557878       -15.1806
  60   2.0000      -0.501734       -13.6529
  61   2.0000      -0.493390       -13.4258
  62   2.0000      -0.477479       -12.9929
  63   2.0000      -0.474793       -12.9198
  64   2.0000      -0.457119       -12.4388
  65   2.0000      -0.448385       -12.2012
  66   2.0000      -0.441439       -12.0122
  67   2.0000      -0.438421       -11.9301
  68   2.0000      -0.429435       -11.6855
  69   2.0000      -0.419668       -11.4198
  70   2.0000      -0.407692       -11.0939
  71   2.0000      -0.395721       -10.7681
  72   2.0000      -0.393877       -10.7180
  73   2.0000      -0.388256       -10.5650
  74   2.0000      -0.381361       -10.3774
  75   2.0000      -0.373976       -10.1764
  76   2.0000      -0.367793       -10.0081
  77   2.0000      -0.358491        -9.7550
  78   2.0000      -0.354880        -9.6568
  79   2.0000      -0.351839        -9.5740
  80   2.0000      -0.349850        -9.5199
  81   2.0000      -0.348629        -9.4867
  82   2.0000      -0.346380        -9.4255
  83   2.0000      -0.339990        -9.2516
  84   2.0000      -0.333093        -9.0639
  85   2.0000      -0.317508        -8.6398
  86   2.0000      -0.314785        -8.5657
  87   2.0000      -0.297367        -8.0918
  88   2.0000      -0.295780        -8.0486
  89   2.0000      -0.291485        -7.9317
  90   2.0000      -0.284725        -7.7478
  91   2.0000      -0.276148        -7.5144
  92   2.0000      -0.272908        -7.4262
  93   2.0000      -0.265741        -7.2312
  94   2.0000      -0.260050        -7.0763
  95   2.0000      -0.232443        -6.3251
  96   2.0000      -0.218282        -5.9398
  97   2.0000      -0.213645        -5.8136
  98   2.0000      -0.206227        -5.6117
  99   2.0000      -0.205639        -5.5957
 100   2.0000      -0.199092        -5.4176
 101   0.0000      -0.041641        -1.1331
 102   0.0000      -0.028473        -0.7748
 103   0.0000      -0.008432        -0.2294
 104   0.0000       0.007804         0.2124
 105   0.0000       0.012740         0.3467

MULLIKEN ATOMIC CHARGES
-----------------------
   0 C :   -0.293813
   1 C :   -0.014786
   2 O :   -0.355461
   3 P :    0.605912
   4 S :   -0.308962
   5 O :   -0.381046
   6 C :    0.000901
   7 C :   -0.343431
   8 S :   -0.101051
   9 C :   -0.363087
  10 S :   -0.048917
  11 P :    0.606246
  12 S :   -0.341849
  13 O :   -0.370914
  14 C :   -0.005420
  15 C :   -0.316662
  16 O :   -0.354635
  17 C :   -0.005866
  18 C :   -0.307310
  19 H :    0.123570
  20 H :    0.109705
  21 H :    0.120293
  22 H :    0.104673
  23 H :    0.111059
  24 H :    0.102320
  25 H :    0.113090
  26 H :    0.109172
  27 H :    0.158146
  28 H :    0.110879
  29 H :    0.193243
  30 H :    0.190389
  31 H :    0.111340
  32 H :    0.106501
  33 H :    0.127366
  34 H :    0.114123
  35 H :    0.121423
  36 H :    0.111525
  37 H :    0.108786
  38 H :    0.117734
  39 H :    0.122770
  40 H :    0.112044
Sum of atomic charges:    0.0000000

LOEWDIN ATOMIC CHARGES
----------------------
   0 C :   -0.361254
   1 C :   -0.115237
   2 O :   -0.238463
   3 P :    0.571299
   4 S :   -0.302799
   5 O :   -0.245850
   6 C :   -0.117678
   7 C :   -0.372784
   8 S :    0.072451
   9 C :   -0.484346
  10 S :    0.107283
  11 P :    0.571336
  12 S :   -0.327520
  13 O :   -0.242519
  14 C :   -0.118913
  15 C :   -0.369531
  16 O :   -0.234354
  17 C :   -0.116298
  18 C :   -0.364901
  19 H :    0.125688
  20 H :    0.129401
  21 H :    0.129185
  22 H :    0.102523
  23 H :    0.122044
  24 H :    0.116802
  25 H :    0.111505
  26 H :    0.129522
  27 H :    0.125365
  28 H :    0.120590
  29 H :    0.128026
  30 H :    0.131589
  31 H :    0.110599
  32 H :    0.119349
  33 H :    0.121576
  34 H :    0.131642
  35 H :    0.125999
  36 H :    0.110832
  37 H :    0.118029
  38 H :    0.126958
  39 H :    0.122438
  40 H :    0.130416

  Mayer bond orders larger than 0.100000
B(  0-C ,  1-C ) :   1.1626 B(  0-C , 19-H ) :   0.9405 B(  0-C , 20-H ) :   0.9392
B(  0-C , 21-H ) :   0.9470 B(  1-C ,  2-O ) :   0.8993 B(  1-C , 22-H ) :   0.9111
B(  1-C , 23-H ) :   0.9365 B(  2-O ,  3-P ) :   1.1394 B(  3-P ,  4-S ) :   1.6419
B(  3-P ,  5-O ) :   1.0870 B(  3-P ,  8-S ) :   0.9462 B(  4-S ,  8-S ) :   0.1117
B(  5-O ,  6-C ) :   0.9064 B(  6-C ,  7-C ) :   1.1624 B(  6-C , 24-H ) :   0.9335
B(  6-C , 25-H ) :   0.9120 B(  7-C , 26-H ) :   0.9382 B(  7-C , 27-H ) :   0.9247
B(  7-C , 28-H ) :   0.9430 B(  8-S ,  9-C ) :   0.9999 B(  9-C , 10-S ) :   1.0070
B(  9-C , 29-H ) :   0.8726 B(  9-C , 30-H ) :   0.8857 B( 10-S , 11-P ) :   0.9680
B( 10-S , 12-S ) :   0.1093 B( 11-P , 12-S ) :   1.5784 B( 11-P , 13-O ) :   1.1108
B( 11-P , 16-O ) :   1.1274 B( 13-O , 14-C ) :   0.9077 B( 14-C , 15-C ) :   1.1660
B( 14-C , 31-H ) :   0.9165 B( 14-C , 32-H ) :   0.9338 B( 15-C , 33-H ) :   0.9354
B( 15-C , 34-H ) :   0.9377 B( 15-C , 35-H ) :   0.9444 B( 16-O , 17-C ) :   0.9059
B( 17-C , 18-C ) :   1.1639 B( 17-C , 36-H ) :   0.9177 B( 17-C , 37-H ) :   0.9305
B( 18-C , 38-H ) :   0.9456 B( 18-C , 39-H ) :   0.9362 B( 18-C , 40-H ) :   0.9391

Dispersion correction           -0.064617475
FINAL SINGLE POINT ENERGY     -2929.524031843089

DIPOLE MOMENT
-------------

Method             : SCF
Type of density    : Electron Density
Multiplicity       :   1
Irrep              :   0
Energy             : -2929.6443456785013950 Eh
Relativity type    :
Basis              : AO
                                X                 Y                 Z
Electronic contribution:      5.605677966      13.156535288      -3.378602251
Nuclear contribution   :     -5.977316554     -14.394448282       3.509758384
                        -----------------------------------------
Total Dipole Moment    :     -0.371638587      -1.237912994       0.131156133
                        -----------------------------------------
Magnitude (a.u.)       :      1.299132692
Magnitude (Debye)      :      3.302132877

Rotational constants in cm-1:             0.013221             0.004490             0.004242
Rotational constants in MHz :           396.345013           134.614610           127.167255

                             ****ORCA TERMINATED NORMALLY****
TOTAL RUN TIME: 0 days 0 hours 0 minutes 20 seconds 820 msec
