                         Program Version 6.0.0  -   RELEASE  -
|  1> ! pbe def2-sv(p) def2/J RI DEFGRID1 loosescf d4 GCP(DFT/SV(P)) printgap
|  2> %output
|  3>     printlevel normal
|  4> end
|  5> * xyz 0 1
|  6> C 4.1727555608 0.4045101503 -2.5994312742
|  7> C 4.6177860018 -0.2309847589 -1.2971093448
|  8> O 3.5013137366 -0.6716987735 -0.5025460377
|  9> P 2.5465387062 0.3667481556 0.2202301129
| 10> S 3.3602723875 2.0147772778 0.8907967973
| 11> O 1.9946866694 -0.6383242381 1.3124095861
| 12> C 1.2604601514 -0.1758654651 2.4630666256
| 13> C 1.1005560067 -1.3549227092 3.4002139407
| 14> S 0.9212566245 0.6575496237 -1.1310117909
| 15> C 0.4553326985 -1.0851508918 -1.3440004934
| 16> S -0.6401110764 -1.7128024393 -0.0369410213
| 17> P -2.1507203879 -0.25831113 -0.2531179064
| 18> S -2.5757905685 0.3012164876 -2.0874273393
| 19> O -1.6460141319 0.8673895007 0.7437298905
| 20> C -2.0289029764 2.2485869323 0.586981434
| 21> C -3.4891516709 2.4573923425 0.9255110517
| 22> O -3.3627573046 -0.8739398538 0.5648237903
| 23> C -4.2010484056 -1.908318307 0.0091043232
| 24> C -5.4808795729 -1.9557382287 0.8188430417
| 25> H 5.0463694071 0.6525579507 -3.1937054326
| 26> H 3.5384277242 -0.2762852561 -3.1614441223
| 27> H 3.6147806067 1.3181407965 -2.3952229388
| 28> H 5.2069885868 0.4776835821 -0.7067498291
| 29> H 5.194230216 -1.1413768885 -1.4672001983
| 30> H 1.8205404104 0.6427611242 2.9270712438
| 31> H 0.2862656418 0.2024403089 2.1370726861
| 32> H 0.5572609327 -1.0367720296 4.2837573354
| 33> H 0.5489762959 -2.1469901893 2.9007581063
| 34> H 2.0762988534 -1.7325440193 3.6912219144
| 35> H 1.3457546977 -1.7095578871 -1.3312772247
| 36> H -0.0639826441 -1.1403811145 -2.2995501922
| 37> H -1.3682233099 2.7868665195 1.2685159481
| 38> H -1.8171283759 2.5518661359 -0.443824463
| 39> H -3.7228333193 3.5162682096 0.8776543686
| 40> H -4.1111043866 1.9235271519 0.2077626877
| 41> H -3.7003213262 2.0818794592 1.9232062544
| 42> H -4.397507954 -1.670508603 -1.0418096711
| 43> H -3.6571634936 -2.8549625359 0.0663178172
| 44> H -6.1129353534 -2.7514599047 0.438601938
| 45> H -5.2506220251 -2.1456946699 1.8630340573
| 46> H -6.0100962535 -1.0102785915 0.7413040229
| 47> *
| 48>
| 49>                          ****END OF INPUT****

CARTESIAN COORDINATES (ANGSTROEM)
---------------------------------
  C      4.172756    0.404510   -2.599431
  C      4.617786   -0.230985   -1.297109
  O      3.501314   -0.671699   -0.502546
  P      2.546539    0.366748    0.220230
  S      3.360272    2.014777    0.890797
  O      1.994687   -0.638324    1.312410
  C      1.260460   -0.175865    2.463067
  C      1.100556   -1.354923    3.400214
  S      0.921257    0.657550   -1.131012
  C      0.455333   -1.085151   -1.344000
  S     -0.640111   -1.712802   -0.036941
  P     -2.150720   -0.258311   -0.253118
  S     -2.575791    0.301216   -2.087427
  O     -1.646014    0.867390    0.743730
  C     -2.028903    2.248587    0.586981
  C     -3.489152    2.457392    0.925511
  O     -3.362757   -0.873940    0.564824
  C     -4.201048   -1.908318    0.009104
  C     -5.480880   -1.955738    0.818843
  H      5.046369    0.652558   -3.193705
  H      3.538428   -0.276285   -3.161444
  H      3.614781    1.318141   -2.395223
  H      5.206989    0.477684   -0.706750
  H      5.194230   -1.141377   -1.467200
  H      1.820540    0.642761    2.927071
  H      0.286266    0.202440    2.137073
  H      0.557261   -1.036772    4.283757
  H      0.548976   -2.146990    2.900758
  H      2.076299   -1.732544    3.691222
  H      1.345755   -1.709558   -1.331277
  H     -0.063983   -1.140381   -2.299550
  H     -1.368223    2.786867    1.268516
  H     -1.817128    2.551866   -0.443824
  H     -3.722833    3.516268    0.877654
  H     -4.111104    1.923527    0.207763
  H     -3.700321    2.081879    1.923206
  H     -4.397508   -1.670509   -1.041810
  H     -3.657163   -2.854963    0.066318
  H     -6.112935   -2.751460    0.438602
  H     -5.250622   -2.145695    1.863034
  H     -6.010096   -1.010279    0.741304

 Total Charge           Charge          ....    0
 Multiplicity           Mult            ....    1
 Number of Electrons    NEL             ....  202
 Basis Dimension        Dim             ....  334

ORBITAL ENERGIES
----------------

  NO   OCC          E(Eh)            E(eV)
   0   2.0000     -88.046033     -2395.8544
   1   2.0000     -88.041868     -2395.7410
   2   2.0000     -87.993751     -2394.4317
   3   2.0000     -87.986467     -2394.2335
   4   2.0000     -76.431563     -2079.8086
   5   2.0000     -76.424162     -2079.6072
   6   2.0000     -18.799667      -511.5649
   7   2.0000     -18.795752      -511.4584
   8   2.0000     -18.792820      -511.3786
   9   2.0000     -18.787268      -511.2275
  10   2.0000      -9.959004      -270.9983
  11   2.0000      -9.958047      -270.9722
  12   2.0000      -9.953221      -270.8409
  13   2.0000      -9.951874      -270.8043
  14   2.0000      -9.943135      -270.5665
  15   2.0000      -9.892882      -269.1990
  16   2.0000      -9.885088      -268.9869
  17   2.0000      -9.884160      -268.9617
  18   2.0000      -9.880065      -268.8502
  19   2.0000      -7.691151      -209.2869
  20   2.0000      -7.686374      -209.1569
  21   2.0000      -7.638637      -207.8579
  22   2.0000      -7.631721      -207.6697
  23   2.0000      -6.429112      -174.9450
  24   2.0000      -6.421847      -174.7474
  25   2.0000      -5.718953      -155.6206
  26   2.0000      -5.715724      -155.5328
  27   2.0000      -5.714503      -155.4995
  28   2.0000      -5.710723      -155.3967
  29   2.0000      -5.708092      -155.3251
  30   2.0000      -5.703363      -155.1964
  31   2.0000      -5.667439      -154.2188
  32   2.0000      -5.660624      -154.0334
  33   2.0000      -5.659269      -153.9965
  34   2.0000      -5.658953      -153.9879
  35   2.0000      -5.652284      -153.8065
  36   2.0000      -5.651964      -153.7978
  37   2.0000      -4.651472      -126.5730
  38   2.0000      -4.650943      -126.5586
  39   2.0000      -4.649687      -126.5244
  40   2.0000      -4.644175      -126.3744
  41   2.0000      -4.644062      -126.3713
  42   2.0000      -4.642077      -126.3173
  43   2.0000      -0.992614       -27.0104
  44   2.0000      -0.988061       -26.8865
  45   2.0000      -0.951396       -25.8888
  46   2.0000      -0.943934       -25.6858
  47   2.0000      -0.765548       -20.8316
  48   2.0000      -0.723859       -19.6972
  49   2.0000      -0.711456       -19.3597
  50   2.0000      -0.691401       -18.8140
  51   2.0000      -0.682795       -18.5798
  52   2.0000      -0.674923       -18.3656
  53   2.0000      -0.654524       -17.8105
  54   2.0000      -0.640028       -17.4160
  55   2.0000      -0.602089       -16.3837
  56   2.0000      -0.595247       -16.1975
  57   2.0000      -0.570974       -15.5370
  58   2.0000      -0.565441       -15.3864
  59   2.0000      -0.558507       -15.1977
  60   2.0000      -0.508815       -13.8456
  61   2.0000      -0.500620       -13.6226
  62   2.0000      -0.481115       -13.0918
  63   2.0000      -0.470134       -12.7930
  64   2.0000      -0.462109       -12.5746
  65   2.0000      -0.447725       -12.1832
  66   2.0000      -0.439662       -11.9638
  67   2.0000      -0.438096       -11.9212
  68   2.0000      -0.425480       -11.5779
  69   2.0000      -0.420663       -11.4468
  70   2.0000      -0.409817       -11.1517
  71   2.0000      -0.399412       -10.8686
  72   2.0000      -0.393997       -10.7212
  73   2.0000      -0.386541       -10.5183
  74   2.0000      -0.377944       -10.2844
  75   2.0000      -0.377352       -10.2683
  76   2.0000      -0.368124       -10.0172
  77   2.0000      -0.361875        -9.8471
  78   2.0000      -0.356538        -9.7019
  79   2.0000      -0.350930        -9.5493
  80   2.0000      -0.350162        -9.5284
  81   2.0000      -0.346956        -9.4412
  82   2.0000      -0.344445        -9.3728
  83   2.0000      -0.338291        -9.2054
  84   2.0000      -0.332278        -9.0417
  85   2.0000      -0.318975        -8.6798
  86   2.0000      -0.316010        -8.5991
  87   2.0000      -0.306140        -8.3305
  88   2.0000      -0.301832        -8.2133
  89   2.0000      -0.289394        -7.8748
  90   2.0000      -0.289179        -7.8690
  91   2.0000      -0.277959        -7.5636
  92   2.0000      -0.268910        -7.3174
  93   2.0000      -0.267120        -7.2687
  94   2.0000      -0.256056        -6.9676
  95   2.0000      -0.234953        -6.3934
  96   2.0000      -0.219928        -5.9846
  97   2.0000      -0.212516        -5.7829
  98   2.0000      -0.207486        -5.6460
  99   2.0000      -0.205201        -5.5838
 100   2.0000      -0.204081        -5.5533
 101   0.0000      -0.045347        -1.2340
 102   0.0000      -0.023474        -0.6388
 103   0.0000      -0.009096        -0.2475
 104   0.0000       0.003619         0.0985
 105   0.0000       0.006890         0.1875

MULLIKEN ATOMIC CHARGES
-----------------------
   0 C :   -0.311572
   1 C :   -0.003530
   2 O :   -0.366934
   3 P :    0.578423
   4 S :   -0.323158
   5 O :   -0.368161
   6 C :   -0.025795
   7 C :   -0.279069
   8 S :   -0.069882
   9 C :   -0.356431
  10 S :   -0.083570
  11 P :    0.610138
  12 S :   -0.329405
  13 O :   -0.356704
  14 C :   -0.003482
  15 C :   -0.305959
  16 O :   -0.373156
  17 C :   -0.013659
  18 C :   -0.281498
  19 H :    0.113247
  20 H :    0.112804
  21 H :    0.129348
  22 H :    0.114432
  23 H :    0.106568
  24 H :    0.105301
  25 H :    0.119652
  26 H :    0.107131
  27 H :    0.113849
  28 H :    0.114041
  29 H :    0.188647
  30 H :    0.194593
  31 H :    0.110099
  32 H :    0.117412
  33 H :    0.114396
  34 H :    0.121629
  35 H :    0.115554
  36 H :    0.107785
  37 H :    0.103969
  38 H :    0.113995
  39 H :    0.118256
  40 H :    0.120695
Sum of atomic charges:   -0.0000000

LOEWDIN ATOMIC CHARGES
----------------------
   0 C :   -0.367151
   1 C :   -0.118122
   2 O :   -0.240171
   3 P :    0.564837
   4 S :   -0.321878
   5 O :   -0.240017
   6 C :   -0.129385
   7 C :   -0.350588
   8 S :    0.088475
   9 C :   -0.478226
  10 S :    0.090958
  11 P :    0.568058
  12 S :   -0.320894
  13 O :   -0.233852
  14 C :   -0.117408
  15 C :   -0.364418
  16 O :   -0.246185
  17 C :   -0.120280
  18 C :   -0.350019
  19 H :    0.131059
  20 H :    0.123123
  21 H :    0.122657
  22 H :    0.112090
  23 H :    0.118974
  24 H :    0.107348
  25 H :    0.107244
  26 H :    0.128736
  27 H :    0.121882
  28 H :    0.125804
  29 H :    0.133978
  30 H :    0.133881
  31 H :    0.120566
  32 H :    0.112104
  33 H :    0.131639
  34 H :    0.121273
  35 H :    0.125781
  36 H :    0.109186
  37 H :    0.110625
  38 H :    0.131951
  39 H :    0.127785
  40 H :    0.128583

  Mayer bond orders larger than 0.100000
B(  0-C ,  1-C ) :   1.1630 B(  0-C , 19-H ) :   0.9384 B(  0-C , 20-H ) :   0.9469
B(  0-C , 21-H ) :   0.9358 B(  1-C ,  2-O ) :   0.9076 B(  1-C , 22-H ) :   0.9154
B(  1-C , 23-H ) :   0.9347 B(  2-O ,  3-P ) :   1.0928 B(  3-P ,  4-S ) :   1.6520
B(  3-P ,  5-O ) :   1.1182 B(  3-P ,  8-S ) :   0.9628 B(  5-O ,  6-C ) :   0.8914
B(  6-C ,  7-C ) :   1.1642 B(  6-C , 24-H ) :   0.9157 B(  6-C , 25-H ) :   0.9031
B(  7-C , 26-H ) :   0.9426 B(  7-C , 27-H ) :   0.9484 B(  7-C , 28-H ) :   0.9504
B(  8-S ,  9-C ) :   0.9895 B(  9-C , 10-S ) :   0.9894 B(  9-C , 29-H ) :   0.8920
B(  9-C , 30-H ) :   0.8893 B( 10-S , 11-P ) :   0.9732 B( 10-S , 12-S ) :   0.1096
B( 11-P , 12-S ) :   1.5993 B( 11-P , 13-O ) :   1.1148 B( 11-P , 16-O ) :   1.1149
B( 13-O , 14-C ) :   0.8941 B( 14-C , 15-C ) :   1.1644 B( 14-C , 31-H ) :   0.9330
B( 14-C , 32-H ) :   0.9162 B( 15-C , 33-H ) :   0.9395 B( 15-C , 34-H ) :   0.9354
B( 15-C , 35-H ) :   0.9461 B( 16-O , 17-C ) :   0.9015 B( 17-C , 18-C ) :   1.1611
B( 17-C , 36-H ) :   0.9101 B( 17-C , 37-H ) :   0.9290 B( 18-C , 38-H ) :   0.9415
B( 18-C , 39-H ) :   0.9503 B( 18-C , 40-H ) :   0.9514

Dispersion correction           -0.064510503
FINAL SINGLE POINT ENERGY     -2929.527344633270

DIPOLE MOMENT
-------------

Method             : SCF
Type of density    : Electron Density
Multiplicity       :   1
Irrep              :   0
Energy             : -2929.6476574096445802 Eh
Relativity type    :
Basis              : AO
                                X                 Y                 Z
Electronic contribution:      9.986799491       2.533427721      -6.744187234
Nuclear contribution   :    -10.674693908      -3.401603105       6.964253029
                        -----------------------------------------
Total Dipole Moment    :     -0.687894417      -0.868175384       0.220065794
                        -----------------------------------------
Magnitude (a.u.)       :      1.129316688
Magnitude (Debye)      :      2.870494898

Rotational constants in cm-1:             0.013023             0.004634             0.004470
Rotational constants in MHz :           390.412403           138.911076           133.995841

                             ****ORCA TERMINATED NORMALLY****
TOTAL RUN TIME: 0 days 0 hours 0 minutes 20 seconds 978 msec
