                         Program Version 6.0.0  -   RELEASE  -
|  1> ! pbe def2-sv(p) def2/J RI DEFGRID1 loosescf d4 GCP(DFT/SV(P)) printgap
|  2> %output
|  3>     printlevel normal
|  4> end
|  5> * xyz 0 1
|  6> C 4.1570577272 -0.3784188172 -1.9564981033
|  7> C 4.3555870674 0.5840712436 -0.8042376001
|  8> O 3.124779556 0.8826976423 -0.0975943014
|  9> P 2.2622021432 -0.1538565335 0.7259778874
| 10> S 1.373765802 0.6769190763 2.2625188654
| 11> O 3.3153203138 -1.2819226642 1.0990901091
| 12> C 3.078448457 -2.2217489486 2.1619328483
| 13> C 1.9464252005 -3.1716031872 1.8311058419
| 14> S 0.9760449525 -1.0856192354 -0.7128169919
| 15> C 0.3851871638 0.4197666216 -1.5283184864
| 16> S -0.6807386743 1.4615309765 -0.4997666086
| 17> P -2.5204860815 0.3930317904 -0.734864454
| 18> S -2.5844425983 -0.8481742552 -2.2413867917
| 19> O -3.6417429521 1.4846814135 -0.889565678
| 20> C -3.9014521307 2.5560394523 0.0528841963
| 21> C -3.3367760321 3.8647956411 -0.4631496631
| 22> O -2.8589299311 -0.1609318445 0.7221986335
| 23> C -2.0542794489 -1.0584574846 1.501617582
| 24> C -2.0491583426 -2.4647456976 0.936545147
| 25> H 3.8187973274 -1.3446119258 -1.5891555128
| 26> H 3.4262266869 0.0058996795 -2.6639335498
| 27> H 5.1053542983 -0.5095062337 -2.4687562167
| 28> H 4.6856300178 1.5651859697 -1.1497754521
| 29> H 5.0713281111 0.183232362 -0.0848127885
| 30> H 4.0302429154 -2.7443544585 2.2657050109
| 31> H 2.8564869712 -1.6617744901 3.0758442012
| 32> H 2.1262396681 -3.6635938549 0.8788020162
| 33> H 1.8618124502 -3.9185316361 2.6136691084
| 34> H 1.0105943289 -2.6180567751 1.7667702731
| 35> H -0.1812349854 0.0826937377 -2.3980562314
| 36> H 1.2298641168 1.0423623863 -1.8122487935
| 37> H -4.9897036161 2.5957726094 0.1240013828
| 38> H -3.4792712413 2.2930262185 1.0244094598
| 39> H -3.7141410956 4.0626437551 -1.4626230296
| 40> H -3.6412042597 4.6674915838 0.2010922753
| 41> H -2.2503329429 3.8267134003 -0.4974982008
| 42> H -1.0397999427 -0.6516944375 1.5795081775
| 43> H -2.5206048451 -1.0302922809 2.4885446121
| 44> H -1.5537104567 -3.1303164296 1.6362428946
| 45> H -3.0701687958 -2.8039177757 0.781039414
| 46> H -1.5246727711 -2.4961112574 -0.0166817934
| 47> *
| 48>
| 49>                          ****END OF INPUT****

CARTESIAN COORDINATES (ANGSTROEM)
---------------------------------
  C      4.157058   -0.378419   -1.956498
  C      4.355587    0.584071   -0.804238
  O      3.124780    0.882698   -0.097594
  P      2.262202   -0.153857    0.725978
  S      1.373766    0.676919    2.262519
  O      3.315320   -1.281923    1.099090
  C      3.078448   -2.221749    2.161933
  C      1.946425   -3.171603    1.831106
  S      0.976045   -1.085619   -0.712817
  C      0.385187    0.419767   -1.528318
  S     -0.680739    1.461531   -0.499767
  P     -2.520486    0.393032   -0.734864
  S     -2.584443   -0.848174   -2.241387
  O     -3.641743    1.484681   -0.889566
  C     -3.901452    2.556039    0.052884
  C     -3.336776    3.864796   -0.463150
  O     -2.858930   -0.160932    0.722199
  C     -2.054279   -1.058457    1.501618
  C     -2.049158   -2.464746    0.936545
  H      3.818797   -1.344612   -1.589156
  H      3.426227    0.005900   -2.663934
  H      5.105354   -0.509506   -2.468756
  H      4.685630    1.565186   -1.149775
  H      5.071328    0.183232   -0.084813
  H      4.030243   -2.744354    2.265705
  H      2.856487   -1.661774    3.075844
  H      2.126240   -3.663594    0.878802
  H      1.861812   -3.918532    2.613669
  H      1.010594   -2.618057    1.766770
  H     -0.181235    0.082694   -2.398056
  H      1.229864    1.042362   -1.812249
  H     -4.989704    2.595773    0.124001
  H     -3.479271    2.293026    1.024409
  H     -3.714141    4.062644   -1.462623
  H     -3.641204    4.667492    0.201092
  H     -2.250333    3.826713   -0.497498
  H     -1.039800   -0.651694    1.579508
  H     -2.520605   -1.030292    2.488545
  H     -1.553710   -3.130316    1.636243
  H     -3.070169   -2.803918    0.781039
  H     -1.524673   -2.496111   -0.016682

 Total Charge           Charge          ....    0
 Multiplicity           Mult            ....    1
 Number of Electrons    NEL             ....  202
 Basis Dimension        Dim             ....  334

ORBITAL ENERGIES
----------------

  NO   OCC          E(Eh)            E(eV)
   0   2.0000     -88.044387     -2395.8096
   1   2.0000     -88.037237     -2395.6150
   2   2.0000     -87.987380     -2394.2583
   3   2.0000     -87.981488     -2394.0980
   4   2.0000     -76.432560     -2079.8357
   5   2.0000     -76.421727     -2079.5409
   6   2.0000     -18.803286      -511.6634
   7   2.0000     -18.799532      -511.5613
   8   2.0000     -18.786204      -511.1986
   9   2.0000     -18.784259      -511.1457
  10   2.0000      -9.964740      -271.1544
  11   2.0000      -9.961607      -271.0691
  12   2.0000      -9.955574      -270.9049
  13   2.0000      -9.953645      -270.8524
  14   2.0000      -9.941036      -270.5093
  15   2.0000      -9.894545      -269.2443
  16   2.0000      -9.893837      -269.2250
  17   2.0000      -9.883798      -268.9518
  18   2.0000      -9.871237      -268.6100
  19   2.0000      -7.688707      -209.2204
  20   2.0000      -7.682090      -209.0403
  21   2.0000      -7.632168      -207.6819
  22   2.0000      -7.626783      -207.5353
  23   2.0000      -6.429720      -174.9616
  24   2.0000      -6.419006      -174.6700
  25   2.0000      -5.716482      -155.5534
  26   2.0000      -5.713447      -155.4708
  27   2.0000      -5.709987      -155.3766
  28   2.0000      -5.706596      -155.2844
  29   2.0000      -5.705670      -155.2592
  30   2.0000      -5.699055      -155.0792
  31   2.0000      -5.661210      -154.0494
  32   2.0000      -5.655797      -153.9021
  33   2.0000      -5.652920      -153.8238
  34   2.0000      -5.652103      -153.8016
  35   2.0000      -5.647330      -153.6717
  36   2.0000      -5.646845      -153.6585
  37   2.0000      -4.653106      -126.6175
  38   2.0000      -4.651284      -126.5679
  39   2.0000      -4.649645      -126.5233
  40   2.0000      -4.641747      -126.3084
  41   2.0000      -4.640838      -126.2836
  42   2.0000      -4.639314      -126.2421
  43   2.0000      -0.997230       -27.1360
  44   2.0000      -0.981616       -26.7111
  45   2.0000      -0.953931       -25.9578
  46   2.0000      -0.936473       -25.4827
  47   2.0000      -0.761793       -20.7294
  48   2.0000      -0.723345       -19.6832
  49   2.0000      -0.712013       -19.3749
  50   2.0000      -0.699875       -19.0446
  51   2.0000      -0.682887       -18.5823
  52   2.0000      -0.674425       -18.3520
  53   2.0000      -0.652123       -17.7452
  54   2.0000      -0.637010       -17.3339
  55   2.0000      -0.600902       -16.3514
  56   2.0000      -0.588700       -16.0193
  57   2.0000      -0.582645       -15.8546
  58   2.0000      -0.572141       -15.5688
  59   2.0000      -0.561643       -15.2831
  60   2.0000      -0.504753       -13.7350
  61   2.0000      -0.497189       -13.5292
  62   2.0000      -0.479771       -13.0552
  63   2.0000      -0.470378       -12.7996
  64   2.0000      -0.461558       -12.5596
  65   2.0000      -0.453124       -12.3301
  66   2.0000      -0.440650       -11.9907
  67   2.0000      -0.434624       -11.8267
  68   2.0000      -0.430906       -11.7255
  69   2.0000      -0.421671       -11.4743
  70   2.0000      -0.410154       -11.1609
  71   2.0000      -0.401842       -10.9347
  72   2.0000      -0.395537       -10.7631
  73   2.0000      -0.385270       -10.4837
  74   2.0000      -0.378741       -10.3061
  75   2.0000      -0.374462       -10.1896
  76   2.0000      -0.369570       -10.0565
  77   2.0000      -0.360382        -9.8065
  78   2.0000      -0.357530        -9.7289
  79   2.0000      -0.353414        -9.6169
  80   2.0000      -0.350069        -9.5259
  81   2.0000      -0.348945        -9.4953
  82   2.0000      -0.339524        -9.2389
  83   2.0000      -0.336815        -9.1652
  84   2.0000      -0.331734        -9.0269
  85   2.0000      -0.325613        -8.8604
  86   2.0000      -0.307441        -8.3659
  87   2.0000      -0.304316        -8.2809
  88   2.0000      -0.301831        -8.2132
  89   2.0000      -0.291446        -7.9307
  90   2.0000      -0.285376        -7.7655
  91   2.0000      -0.279535        -7.6065
  92   2.0000      -0.271286        -7.3821
  93   2.0000      -0.264485        -7.1970
  94   2.0000      -0.254943        -6.9373
  95   2.0000      -0.241982        -6.5847
  96   2.0000      -0.216962        -5.9038
  97   2.0000      -0.204737        -5.5712
  98   2.0000      -0.201432        -5.4812
  99   2.0000      -0.197651        -5.3784
 100   2.0000      -0.190460        -5.1827
 101   0.0000      -0.047614        -1.2956
 102   0.0000      -0.027095        -0.7373
 103   0.0000      -0.014139        -0.3847
 104   0.0000      -0.004576        -0.1245
 105   0.0000       0.010422         0.2836

MULLIKEN ATOMIC CHARGES
-----------------------
   0 C :   -0.325286
   1 C :    0.007478
   2 O :   -0.374305
   3 P :    0.605330
   4 S :   -0.293235
   5 O :   -0.383234
   6 C :    0.002669
   7 C :   -0.349526
   8 S :   -0.101750
   9 C :   -0.347814
  10 S :   -0.102627
  11 P :    0.616543
  12 S :   -0.316419
  13 O :   -0.358381
  14 C :   -0.016544
  15 C :   -0.294123
  16 O :   -0.377927
  17 C :   -0.037610
  18 C :   -0.311037
  19 H :    0.132298
  20 H :    0.122375
  21 H :    0.115998
  22 H :    0.113115
  23 H :    0.112307
  24 H :    0.107188
  25 H :    0.114656
  26 H :    0.123924
  27 H :    0.119968
  28 H :    0.148231
  29 H :    0.194613
  30 H :    0.185150
  31 H :    0.111140
  32 H :    0.110066
  33 H :    0.121256
  34 H :    0.110023
  35 H :    0.127366
  36 H :    0.134088
  37 H :    0.098336
  38 H :    0.108715
  39 H :    0.113208
  40 H :    0.133776
Sum of atomic charges:   -0.0000000

LOEWDIN ATOMIC CHARGES
----------------------
   0 C :   -0.368588
   1 C :   -0.107303
   2 O :   -0.242643
   3 P :    0.570787
   4 S :   -0.301193
   5 O :   -0.244709
   6 C :   -0.117790
   7 C :   -0.372497
   8 S :    0.085725
   9 C :   -0.484849
  10 S :    0.075504
  11 P :    0.566605
  12 S :   -0.303447
  13 O :   -0.235875
  14 C :   -0.112150
  15 C :   -0.360893
  16 O :   -0.244011
  17 C :   -0.124173
  18 C :   -0.371125
  19 H :    0.122506
  20 H :    0.125657
  21 H :    0.133120
  22 H :    0.123222
  23 H :    0.116937
  24 H :    0.119703
  25 H :    0.113006
  26 H :    0.126792
  27 H :    0.134928
  28 H :    0.123392
  29 H :    0.129779
  30 H :    0.128465
  31 H :    0.122224
  32 H :    0.111555
  33 H :    0.129817
  34 H :    0.129845
  35 H :    0.120522
  36 H :    0.098159
  37 H :    0.116976
  38 H :    0.124915
  39 H :    0.125743
  40 H :    0.115362

  Mayer bond orders larger than 0.100000
B(  0-C ,  1-C ) :   1.1688 B(  0-C , 19-H ) :   0.9357 B(  0-C , 20-H ) :   0.9444
B(  0-C , 21-H ) :   0.9350 B(  1-C ,  2-O ) :   0.8908 B(  1-C , 22-H ) :   0.9351
B(  1-C , 23-H ) :   0.9275 B(  2-O ,  3-P ) :   1.1116 B(  3-P ,  4-S ) :   1.6689
B(  3-P ,  5-O ) :   1.0702 B(  3-P ,  8-S ) :   0.9461 B(  4-S ,  8-S ) :   0.1093
B(  5-O ,  6-C ) :   0.9021 B(  6-C ,  7-C ) :   1.1623 B(  6-C , 24-H ) :   0.9325
B(  6-C , 25-H ) :   0.9136 B(  7-C , 26-H ) :   0.9432 B(  7-C , 27-H ) :   0.9370
B(  7-C , 28-H ) :   0.9237 B(  8-S ,  9-C ) :   0.9950 B(  9-C , 10-S ) :   1.0228
B(  9-C , 29-H ) :   0.8644 B(  9-C , 30-H ) :   0.8895 B( 10-S , 11-P ) :   0.9333
B( 10-S , 12-S ) :   0.1134 B( 11-P , 12-S ) :   1.6429 B( 11-P , 13-O ) :   1.1457
B( 11-P , 16-O ) :   1.0927 B( 13-O , 14-C ) :   0.8941 B( 14-C , 15-C ) :   1.1646
B( 14-C , 31-H ) :   0.9356 B( 14-C , 32-H ) :   0.9195 B( 15-C , 33-H ) :   0.9466
B( 15-C , 34-H ) :   0.9395 B( 15-C , 35-H ) :   0.9374 B( 16-O , 17-C ) :   0.9091
B( 17-C , 18-C ) :   1.1665 B( 17-C , 36-H ) :   0.8940 B( 17-C , 37-H ) :   0.9348
B( 18-C , 38-H ) :   0.9320 B( 18-C , 39-H ) :   0.9422 B( 18-C , 40-H ) :   0.9287

Dispersion correction           -0.066204203
FINAL SINGLE POINT ENERGY     -2929.514909178849

DIPOLE MOMENT
-------------

Method             : SCF
Type of density    : Electron Density
Multiplicity       :   1
Irrep              :   0
Energy             : -2929.6343593544484065 Eh
Relativity type    :
Basis              : AO
                                X                 Y                 Z
Electronic contribution:     -5.633517910       5.924137737      -3.611095350
Nuclear contribution   :      7.065377887      -6.067389577       4.081498390
                        -----------------------------------------
Total Dipole Moment    :      1.431859977      -0.143251840       0.470403040
                        -----------------------------------------
Magnitude (a.u.)       :      1.513942900
Magnitude (Debye)      :      3.848137035

Rotational constants in cm-1:             0.012159             0.004955             0.004667
Rotational constants in MHz :           364.503479           148.544797           139.921255

                             ****ORCA TERMINATED NORMALLY****
TOTAL RUN TIME: 0 days 0 hours 0 minutes 21 seconds 506 msec
