                         Program Version 6.0.1  -  RELEASE   -
|  1> ! pbe def2-sv(p) def2/J RI DEFGRID1 loosescf d4 GCP(DFT/SV(P)) printgap
|  2> %output
|  3>     printlevel normal
|  4> end
|  5> * xyz 0 1
|  6> C 3.4208238554 -3.1413937178 0.405475071
|  7> C 2.9091489384 -1.8077938104 0.9249887285
|  8> O 2.7149504647 -0.8716376373 -0.1533234983
|  9> C 1.609477057 -0.9391242844 -0.8636088178
| 10> O 0.7032493754 -1.7242988437 -0.6607789234
| 11> C 1.5812827199 0.1038206108 -1.9610646483
| 12> C 0.3492295386 1.0009769017 -1.8140392003
| 13> H 0.3096152027 1.7056460072 -2.6491110587
| 14> C 0.3526335931 1.7790221603 -0.5136334565
| 15> O -0.6272190231 1.8304304543 0.2107793282
| 16> O 1.4899947561 2.3523007649 -0.2619376001
| 17> C 1.6311824924 3.0699649518 0.9864924144
| 18> C 3.0910501361 3.4449005149 1.137128967
| 19> S -1.2293458281 0.0830010341 -1.8955673576
| 20> P -1.6293397457 -0.4202606379 0.1250042775
| 21> S -0.5438869947 -0.5647593459 1.7705934898
| 22> O -3.0245548878 0.3158925321 0.4336978795
| 23> C -3.2081941676 1.4314423455 1.3010181349
| 24> O -2.2173713367 -1.8392768512 -0.3287070013
| 25> C -2.7558706892 -2.7732948572 0.607528174
| 26> H 2.6710165982 -3.6078273008 -0.2298425347
| 27> H 4.3326545252 -2.9950094261 -0.1669855064
| 28> H 3.624231492 -3.7962275674 1.2461714479
| 29> H 3.6411264322 -1.3240595869 1.5713017407
| 30> H 1.9616505476 -1.9292329801 1.4586738001
| 31> H 1.5181567558 -0.4118192198 -2.9198334464
| 32> H 2.488089013 0.7052562138 -1.9083594731
| 33> H 0.9843141283 3.9507558242 0.9466304578
| 34> H 1.2847930285 2.4190326422 1.7955383697
| 35> H 3.705839671 2.5501665554 1.1574648376
| 36> H 3.4025394924 4.0694825531 0.3057670302
| 37> H 3.2239150743 3.9897960084 2.0655571488
| 38> H -4.2291732198 1.3569620929 1.6683927902
| 39> H -3.0600719152 2.3559281726 0.7461818136
| 40> H -2.4972160353 1.3834292644 2.1278389229
| 41> H -2.0974801395 -2.8589847342 1.4750878629
| 42> H -2.8096451504 -3.7216651599 0.0788827375
| 43> H -3.7472354442 -2.4510237019 0.9269750909
| 44> *
| 45>
| 46>                          ****END OF INPUT****

CARTESIAN COORDINATES (ANGSTROEM)
---------------------------------
  C      3.420824   -3.141394    0.405475
  C      2.909149   -1.807794    0.924989
  O      2.714950   -0.871638   -0.153323
  C      1.609477   -0.939124   -0.863609
  O      0.703249   -1.724299   -0.660779
  C      1.581283    0.103821   -1.961065
  C      0.349230    1.000977   -1.814039
  H      0.309615    1.705646   -2.649111
  C      0.352634    1.779022   -0.513633
  O     -0.627219    1.830430    0.210779
  O      1.489995    2.352301   -0.261938
  C      1.631182    3.069965    0.986492
  C      3.091050    3.444901    1.137129
  S     -1.229346    0.083001   -1.895567
  P     -1.629340   -0.420261    0.125004
  S     -0.543887   -0.564759    1.770593
  O     -3.024555    0.315893    0.433698
  C     -3.208194    1.431442    1.301018
  O     -2.217371   -1.839277   -0.328707
  C     -2.755871   -2.773295    0.607528
  H      2.671017   -3.607827   -0.229843
  H      4.332655   -2.995009   -0.166986
  H      3.624231   -3.796228    1.246171
  H      3.641126   -1.324060    1.571302
  H      1.961651   -1.929233    1.458674
  H      1.518157   -0.411819   -2.919833
  H      2.488089    0.705256   -1.908359
  H      0.984314    3.950756    0.946630
  H      1.284793    2.419033    1.795538
  H      3.705840    2.550167    1.157465
  H      3.402539    4.069483    0.305767
  H      3.223915    3.989796    2.065557
  H     -4.229173    1.356962    1.668393
  H     -3.060072    2.355928    0.746182
  H     -2.497216    1.383429    2.127839
  H     -2.097480   -2.858985    1.475088
  H     -2.809645   -3.721665    0.078883
  H     -3.747235   -2.451024    0.926975

 Total Charge           Charge          ....    0
 Multiplicity           Mult            ....    1
 Number of Electrons    NEL             ....  174
 Basis Dimension        Dim             ....  316

ORBITAL ENERGIES
----------------

  NO   OCC          E(Eh)            E(eV)
   0   2.0000     -88.023749     -2395.2480
   1   2.0000     -87.963085     -2393.5972
   2   2.0000     -76.410744     -2079.2420
   3   2.0000     -18.826560      -512.2967
   4   2.0000     -18.801274      -511.6087
   5   2.0000     -18.764230      -510.6007
   6   2.0000     -18.763765      -510.5880
   7   2.0000     -18.760009      -510.4858
   8   2.0000     -18.732681      -509.7422
   9   2.0000     -10.031311      -272.9659
  10   2.0000     -10.006951      -272.3030
  11   2.0000      -9.960937      -271.0509
  12   2.0000      -9.954659      -270.8800
  13   2.0000      -9.939982      -270.4807
  14   2.0000      -9.920757      -269.9575
  15   2.0000      -9.920493      -269.9503
  16   2.0000      -9.913320      -269.7551
  17   2.0000      -9.898428      -269.3499
  18   2.0000      -9.882104      -268.9057
  19   2.0000      -7.669125      -208.6875
  20   2.0000      -7.607966      -207.0233
  21   2.0000      -6.405475      -174.3018
  22   2.0000      -5.697645      -155.0408
  23   2.0000      -5.694114      -154.9447
  24   2.0000      -5.684835      -154.6922
  25   2.0000      -5.637228      -153.3968
  26   2.0000      -5.628647      -153.1633
  27   2.0000      -5.627655      -153.1363
  28   2.0000      -4.628191      -125.9395
  29   2.0000      -4.627704      -125.9262
  30   2.0000      -4.626004      -125.8800
  31   2.0000      -1.037800       -28.2400
  32   2.0000      -1.007237       -27.4083
  33   2.0000      -0.956878       -26.0380
  34   2.0000      -0.940640       -25.5961
  35   2.0000      -0.912963       -24.8430
  36   2.0000      -0.910460       -24.7749
  37   2.0000      -0.766278       -20.8515
  38   2.0000      -0.719850       -19.5881
  39   2.0000      -0.705705       -19.2032
  40   2.0000      -0.681337       -18.5401
  41   2.0000      -0.646461       -17.5911
  42   2.0000      -0.621396       -16.9090
  43   2.0000      -0.609864       -16.5952
  44   2.0000      -0.607386       -16.5278
  45   2.0000      -0.592816       -16.1313
  46   2.0000      -0.563725       -15.3397
  47   2.0000      -0.524147       -14.2628
  48   2.0000      -0.499507       -13.5923
  49   2.0000      -0.493524       -13.4295
  50   2.0000      -0.482029       -13.1167
  51   2.0000      -0.464291       -12.6340
  52   2.0000      -0.456743       -12.4286
  53   2.0000      -0.450244       -12.2518
  54   2.0000      -0.435765       -11.8578
  55   2.0000      -0.432882       -11.7793
  56   2.0000      -0.423220       -11.5164
  57   2.0000      -0.405607       -11.0371
  58   2.0000      -0.404048       -10.9947
  59   2.0000      -0.397923       -10.8280
  60   2.0000      -0.388872       -10.5818
  61   2.0000      -0.384050       -10.4505
  62   2.0000      -0.383005       -10.4221
  63   2.0000      -0.380477       -10.3533
  64   2.0000      -0.373866       -10.1734
  65   2.0000      -0.370090       -10.0707
  66   2.0000      -0.368301       -10.0220
  67   2.0000      -0.358406        -9.7527
  68   2.0000      -0.352483        -9.5916
  69   2.0000      -0.336349        -9.1525
  70   2.0000      -0.335339        -9.1250
  71   2.0000      -0.327355        -8.9078
  72   2.0000      -0.321559        -8.7501
  73   2.0000      -0.317159        -8.6303
  74   2.0000      -0.295747        -8.0477
  75   2.0000      -0.289710        -7.8834
  76   2.0000      -0.283097        -7.7035
  77   2.0000      -0.280755        -7.6397
  78   2.0000      -0.266518        -7.2523
  79   2.0000      -0.256857        -6.9894
  80   2.0000      -0.252364        -6.8672
  81   2.0000      -0.246439        -6.7059
  82   2.0000      -0.239913        -6.5284
  83   2.0000      -0.222600        -6.0572
  84   2.0000      -0.191163        -5.2018
  85   2.0000      -0.179493        -4.8842
  86   2.0000      -0.171990        -4.6801
  87   0.0000      -0.050494        -1.3740
  88   0.0000      -0.042978        -1.1695
  89   0.0000      -0.027015        -0.7351
  90   0.0000       0.011918         0.3243
  91   0.0000       0.028457         0.7744

MULLIKEN ATOMIC CHARGES
-----------------------
   0 C :   -0.308290
   1 C :   -0.024993
   2 O :   -0.227103
   3 C :    0.088784
   4 O :   -0.188958
   5 C :   -0.014532
   6 C :   -0.333704
   7 H :    0.154668
   8 C :    0.221031
   9 O :   -0.197407
  10 O :   -0.214340
  11 C :   -0.035413
  12 C :   -0.277706
  13 S :   -0.052543
  14 P :    0.658613
  15 S :   -0.360171
  16 O :   -0.392925
  17 C :   -0.082786
  18 O :   -0.385097
  19 C :   -0.090597
  20 H :    0.130118
  21 H :    0.107554
  22 H :    0.112476
  23 H :    0.095179
  24 H :    0.133134
  25 H :    0.124103
  26 H :    0.111050
  27 H :    0.109599
  28 H :    0.129632
  29 H :    0.124017
  30 H :    0.116201
  31 H :    0.116985
  32 H :    0.108974
  33 H :    0.105079
  34 H :    0.108147
  35 H :    0.111504
  36 H :    0.116136
  37 H :    0.103581
Sum of atomic charges:   -0.0000000

LOEWDIN ATOMIC CHARGES
----------------------
   0 C :   -0.357335
   1 C :   -0.115579
   2 O :   -0.052694
   3 C :    0.020632
   4 O :   -0.162568
   5 C :   -0.249682
   6 C :   -0.263424
   7 H :    0.152149
   8 C :    0.019262
   9 O :   -0.149285
  10 O :   -0.033758
  11 C :   -0.103130
  12 C :   -0.350415
  13 S :    0.128648
  14 P :    0.604756
  15 S :   -0.333591
  16 O :   -0.262539
  17 C :   -0.215150
  18 O :   -0.258321
  19 C :   -0.214514
  20 H :    0.131367
  21 H :    0.121426
  22 H :    0.130786
  23 H :    0.114843
  24 H :    0.121080
  25 H :    0.147238
  26 H :    0.136415
  27 H :    0.119416
  28 H :    0.127076
  29 H :    0.130572
  30 H :    0.127223
  31 H :    0.134136
  32 H :    0.112537
  33 H :    0.107421
  34 H :    0.103527
  35 H :    0.106214
  36 H :    0.117811
  37 H :    0.107451

  Mayer bond orders larger than 0.100000
B(  0-C ,  1-C ) :   1.1680 B(  0-C , 20-H ) :   0.9452 B(  0-C , 21-H ) :   0.9481
B(  0-C , 22-H ) :   0.9445 B(  1-C ,  2-O ) :   0.9095 B(  1-C , 23-H ) :   0.9385
B(  1-C , 24-H ) :   0.9035 B(  2-O ,  3-C ) :   1.2445 B(  3-C ,  4-O ) :   1.9872
B(  3-C ,  5-C ) :   0.9982 B(  5-C ,  6-C ) :   1.0115 B(  5-C , 25-H ) :   0.8881
B(  5-C , 26-H ) :   0.8856 B(  6-C ,  7-H ) :   0.8731 B(  6-C ,  8-C ) :   0.9079
B(  6-C , 13-S ) :   1.0667 B(  8-C ,  9-O ) :   1.9128 B(  8-C , 10-O ) :   1.2870
B(  9-O , 14-P ) :   0.1254 B( 10-O , 11-C ) :   0.8822 B( 11-C , 12-C ) :   1.1563
B( 11-C , 27-H ) :   0.9330 B( 11-C , 28-H ) :   0.9227 B( 12-C , 29-H ) :   0.9490
B( 12-C , 30-H ) :   0.9490 B( 12-C , 31-H ) :   0.9421 B( 13-S , 14-P ) :   0.9120
B( 13-S , 15-S ) :   0.1161 B( 14-P , 15-S ) :   1.4943 B( 14-P , 16-O ) :   1.0814
B( 14-P , 18-O ) :   1.0871 B( 16-O , 17-C ) :   0.9431 B( 17-C , 32-H ) :   0.9566
B( 17-C , 33-H ) :   0.9520 B( 17-C , 34-H ) :   0.9300 B( 18-O , 19-C ) :   0.9437
B( 19-C , 35-H ) :   0.9309 B( 19-C , 36-H ) :   0.9603 B( 19-C , 37-H ) :   0.9515

Dispersion correction           -0.054856624
FINAL SINGLE POINT ENERGY     -1978.995265340699

DIPOLE MOMENT
-------------

Method             : SCF
Type of density    : Electron Density
Multiplicity       :   1
Irrep              :   0
Energy             : -1979.1241013541780376 Eh
Relativity type    :
Basis              : AO
                                X                 Y                 Z
Electronic contribution:    -13.977958971      -0.622162033      -8.943354011
Nuclear contribution   :     15.290725067       1.695017415       8.977486583
                        -----------------------------------------
Total Dipole Moment    :      1.312766096       1.072855382       0.034132573
                        -----------------------------------------
Magnitude (a.u.)       :      1.695741291
Magnitude (Debye)      :      4.310231822

Rotational constants in cm-1:             0.011841             0.009231             0.007096
Rotational constants in MHz :           354.994024           276.739647           212.732988

                             ****ORCA TERMINATED NORMALLY****
TOTAL RUN TIME: 0 days 0 hours 0 minutes 44 seconds 127 msec
