                         Program Version 6.0.0  -   RELEASE  -
|  1> ! r2scan-3c def2/J RI DEFGRID2 scfconv6 printgap
|  2> %output
|  3>     printlevel normal
|  4> end
|  5> * xyz 0 1
|  6> C 4.1508524751 -1.4648308808 -2.3832663519
|  7> C 4.3784788509 -1.6161525435 -0.893210977
|  8> O 3.1423217345 -1.638055398 -0.1582774285
|  9> P 2.2061050458 -0.3586854768 -0.0220486196
| 10> S 3.1820984351 1.3280626506 0.2150846833
| 11> O 1.2590738544 -0.8127735052 1.1645059018
| 12> C 1.6069738726 -0.6143207782 2.5554648658
| 13> C 0.608703316 0.3284309402 3.1971413978
| 14> S 0.8476446404 -0.5120136466 -1.6296020334
| 15> C 0.2881961371 1.2150114596 -1.6013577054
| 16> S -0.5250903969 1.6696601478 -0.0556651501
| 17> P -2.2396571866 0.4064991695 -0.2623324217
| 18> S -2.8298696142 0.0415827891 -2.0859313179
| 19> O -3.321326732 1.1695581147 0.5883597385
| 20> C -3.1208167006 1.5717416277 1.9691961813
| 21> C -4.1540385488 2.629606115 2.2938543349
| 22> O -1.9310992311 -0.8768164843 0.6359756595
| 23> C -1.6159357027 -2.1828007376 0.1239730486
| 24> C -2.620298483 -3.1803692244 0.6663227146
| 25> H 3.7367545075 -0.4804525413 -2.5984218682
| 26> H 5.0969895885 -1.5694984349 -2.9044640807
| 27> H 3.4556990907 -2.2212626523 -2.7389090412
| 28> H 4.9914835019 -0.7930938627 -0.5121198412
| 29> H 4.8447979613 -2.5717629315 -0.650384938
| 30> H 1.5762510184 -1.6051304396 3.0120404819
| 31> H 2.6226798826 -0.2126602196 2.6187366376
| 32> H 0.8127374737 0.3977155168 4.2605664748
| 33> H 0.6892536351 1.3173154454 2.7507782833
| 34> H -0.4010443581 -0.0441517226 3.0448558438
| 35> H -0.4075980442 1.3242316054 -2.4327902922
| 36> H 1.144811331 1.8801794678 -1.7034766316
| 37> H -3.2397709166 0.6857873665 2.5957744975
| 38> H -2.1045198065 1.9612847619 2.0745021855
| 39> H -5.1535291977 2.2327626878 2.1413437678
| 40> H -4.039613836 2.9325125465 3.3295742993
| 41> H -4.0192022179 3.4934810718 1.6492993078
| 42> H -1.6445265073 -2.1562242334 -0.9705422827
| 43> H -0.5998900571 -2.4126655103 0.4534175855
| 44> H -2.3594470344 -4.172900788 0.3136482832
| 45> H -2.6124707671 -3.1701814042 1.7524334277
| 46> H -3.6185976898 -2.9283814363 0.3163565026
| 47> *
| 48>
| 49>                          ****END OF INPUT****

CARTESIAN COORDINATES (ANGSTROEM)
---------------------------------
  C      4.150852   -1.464831   -2.383266
  C      4.378479   -1.616153   -0.893211
  O      3.142322   -1.638055   -0.158277
  P      2.206105   -0.358685   -0.022049
  S      3.182098    1.328063    0.215085
  O      1.259074   -0.812774    1.164506
  C      1.606974   -0.614321    2.555465
  C      0.608703    0.328431    3.197141
  S      0.847645   -0.512014   -1.629602
  C      0.288196    1.215011   -1.601358
  S     -0.525090    1.669660   -0.055665
  P     -2.239657    0.406499   -0.262332
  S     -2.829870    0.041583   -2.085931
  O     -3.321327    1.169558    0.588360
  C     -3.120817    1.571742    1.969196
  C     -4.154039    2.629606    2.293854
  O     -1.931099   -0.876816    0.635976
  C     -1.615936   -2.182801    0.123973
  C     -2.620298   -3.180369    0.666323
  H      3.736755   -0.480453   -2.598422
  H      5.096990   -1.569498   -2.904464
  H      3.455699   -2.221263   -2.738909
  H      4.991484   -0.793094   -0.512120
  H      4.844798   -2.571763   -0.650385
  H      1.576251   -1.605130    3.012040
  H      2.622680   -0.212660    2.618737
  H      0.812737    0.397716    4.260566
  H      0.689254    1.317315    2.750778
  H     -0.401044   -0.044152    3.044856
  H     -0.407598    1.324232   -2.432790
  H      1.144811    1.880179   -1.703477
  H     -3.239771    0.685787    2.595774
  H     -2.104520    1.961285    2.074502
  H     -5.153529    2.232763    2.141344
  H     -4.039614    2.932513    3.329574
  H     -4.019202    3.493481    1.649299
  H     -1.644527   -2.156224   -0.970542
  H     -0.599890   -2.412666    0.453418
  H     -2.359447   -4.172901    0.313648
  H     -2.612471   -3.170181    1.752433
  H     -3.618598   -2.928381    0.316357

 Total Charge           Charge          ....    0
 Multiplicity           Mult            ....    1
 Number of Electrons    NEL             ....  202
 Basis Dimension        Dim             ....  539

ORBITAL ENERGIES
----------------

  NO   OCC          E(Eh)            E(eV)
   0   2.0000     -88.578149     -2410.3340
   1   2.0000     -88.571214     -2410.1453
   2   2.0000     -88.524421     -2408.8720
   3   2.0000     -88.519808     -2408.7464
   4   2.0000     -76.916474     -2093.0037
   5   2.0000     -76.912943     -2092.9076
   6   2.0000     -18.994774      -516.8741
   7   2.0000     -18.992258      -516.8056
   8   2.0000     -18.990493      -516.7576
   9   2.0000     -18.986535      -516.6499
  10   2.0000     -10.108016      -275.0531
  11   2.0000     -10.106137      -275.0020
  12   2.0000     -10.101348      -274.8717
  13   2.0000     -10.099944      -274.8334
  14   2.0000     -10.089062      -274.5373
  15   2.0000     -10.036812      -273.1155
  16   2.0000     -10.030425      -272.9417
  17   2.0000     -10.030291      -272.9381
  18   2.0000     -10.026418      -272.8327
  19   2.0000      -7.872547      -214.2229
  20   2.0000      -7.865650      -214.0352
  21   2.0000      -7.819157      -212.7701
  22   2.0000      -7.814670      -212.6480
  23   2.0000      -6.595025      -179.4597
  24   2.0000      -6.591189      -179.3554
  25   2.0000      -5.819428      -158.3547
  26   2.0000      -5.816461      -158.2740
  27   2.0000      -5.812578      -158.1683
  28   2.0000      -5.809593      -158.0871
  29   2.0000      -5.809494      -158.0844
  30   2.0000      -5.802689      -157.8992
  31   2.0000      -5.766759      -156.9215
  32   2.0000      -5.762414      -156.8032
  33   2.0000      -5.759558      -156.7255
  34   2.0000      -5.759097      -156.7130
  35   2.0000      -5.754939      -156.5999
  36   2.0000      -5.754561      -156.5896
  37   2.0000      -4.740495      -128.9954
  38   2.0000      -4.739896      -128.9791
  39   2.0000      -4.738827      -128.9500
  40   2.0000      -4.736992      -128.9001
  41   2.0000      -4.735920      -128.8709
  42   2.0000      -4.734868      -128.8423
  43   2.0000      -1.051485       -28.6124
  44   2.0000      -1.048201       -28.5230
  45   2.0000      -1.011623       -27.5277
  46   2.0000      -1.006666       -27.3928
  47   2.0000      -0.803027       -21.8515
  48   2.0000      -0.761980       -20.7345
  49   2.0000      -0.753266       -20.4974
  50   2.0000      -0.733376       -19.9562
  51   2.0000      -0.732020       -19.9193
  52   2.0000      -0.709827       -19.3154
  53   2.0000      -0.685841       -18.6627
  54   2.0000      -0.671485       -18.2720
  55   2.0000      -0.632240       -17.2041
  56   2.0000      -0.615372       -16.7451
  57   2.0000      -0.609820       -16.5940
  58   2.0000      -0.606698       -16.5091
  59   2.0000      -0.591651       -16.0996
  60   2.0000      -0.534271       -14.5382
  61   2.0000      -0.526229       -14.3194
  62   2.0000      -0.501647       -13.6505
  63   2.0000      -0.493061       -13.4169
  64   2.0000      -0.478292       -13.0150
  65   2.0000      -0.463177       -12.6037
  66   2.0000      -0.462002       -12.5717
  67   2.0000      -0.453594       -12.3429
  68   2.0000      -0.446859       -12.1597
  69   2.0000      -0.433131       -11.7861
  70   2.0000      -0.420700       -11.4478
  71   2.0000      -0.412312       -11.2196
  72   2.0000      -0.409089       -11.1319
  73   2.0000      -0.403676       -10.9846
  74   2.0000      -0.395999       -10.7757
  75   2.0000      -0.391138       -10.6434
  76   2.0000      -0.383660       -10.4399
  77   2.0000      -0.373944       -10.1755
  78   2.0000      -0.371717       -10.1149
  79   2.0000      -0.370739       -10.0883
  80   2.0000      -0.363103        -9.8805
  81   2.0000      -0.361491        -9.8367
  82   2.0000      -0.357046        -9.7157
  83   2.0000      -0.354408        -9.6439
  84   2.0000      -0.351968        -9.5775
  85   2.0000      -0.331603        -9.0234
  86   2.0000      -0.327207        -8.9038
  87   2.0000      -0.317157        -8.6303
  88   2.0000      -0.312684        -8.5086
  89   2.0000      -0.305017        -8.2999
  90   2.0000      -0.303182        -8.2500
  91   2.0000      -0.295637        -8.0447
  92   2.0000      -0.286877        -7.8063
  93   2.0000      -0.281088        -7.6488
  94   2.0000      -0.269495        -7.3333
  95   2.0000      -0.246652        -6.7117
  96   2.0000      -0.230248        -6.2654
  97   2.0000      -0.226125        -6.1532
  98   2.0000      -0.222087        -6.0433
  99   2.0000      -0.216289        -5.8855
 100   2.0000      -0.211192        -5.7468
 101   0.0000      -0.049517        -1.3474
 102   0.0000      -0.028118        -0.7651
 103   0.0000      -0.004226        -0.1150
 104   0.0000       0.003416         0.0930
 105   0.0000       0.007075         0.1925

MULLIKEN ATOMIC CHARGES
-----------------------
   0 C :   -0.446228
   1 C :   -0.154219
   2 O :   -0.295997
   3 P :    0.664908
   4 S :   -0.473731
   5 O :   -0.258434
   6 C :   -0.114734
   7 C :   -0.487258
   8 S :   -0.122208
   9 C :   -0.241575
  10 S :   -0.162567
  11 P :    0.667425
  12 S :   -0.453372
  13 O :   -0.285393
  14 C :   -0.125793
  15 C :   -0.449456
  16 O :   -0.252444
  17 C :   -0.110123
  18 C :   -0.487441
  19 H :    0.174212
  20 H :    0.148608
  21 H :    0.155861
  22 H :    0.173027
  23 H :    0.147834
  24 H :    0.149150
  25 H :    0.161577
  26 H :    0.143671
  27 H :    0.177603
  28 H :    0.161195
  29 H :    0.211650
  30 H :    0.212364
  31 H :    0.160896
  32 H :    0.146229
  33 H :    0.158962
  34 H :    0.145865
  35 H :    0.161785
  36 H :    0.174358
  37 H :    0.166010
  38 H :    0.146264
  39 H :    0.148850
  40 H :    0.162666
Sum of atomic charges:   -0.0000000

LOEWDIN ATOMIC CHARGES
----------------------
   0 C :   -0.406181
   1 C :    0.019033
   2 O :   -0.661095
   3 P :    0.377212
   4 S :   -0.128111
   5 O :   -0.682127
   6 C :    0.026944
   7 C :   -0.401468
   8 S :    0.175347
   9 C :   -0.421389
  10 S :    0.137407
  11 P :    0.386938
  12 S :   -0.099348
  13 O :   -0.653945
  14 C :    0.024061
  15 C :   -0.382543
  16 O :   -0.667971
  17 C :    0.004700
  18 C :   -0.391524
  19 H :    0.164819
  20 H :    0.159569
  21 H :    0.160454
  22 H :    0.179827
  23 H :    0.179366
  24 H :    0.175021
  25 H :    0.179780
  26 H :    0.156867
  27 H :    0.166128
  28 H :    0.162214
  29 H :    0.191813
  30 H :    0.189877
  31 H :    0.174438
  32 H :    0.174635
  33 H :    0.163489
  34 H :    0.159760
  35 H :    0.163878
  36 H :    0.183008
  37 H :    0.181780
  38 H :    0.159167
  39 H :    0.156135
  40 H :    0.162033

  Mayer bond orders larger than 0.100000
B(  0-C ,  1-C ) :   0.9231 B(  0-C , 19-H ) :   0.9629 B(  0-C , 20-H ) :   0.9591
B(  0-C , 21-H ) :   0.9680 B(  1-C ,  2-O ) :   0.8167 B(  1-C , 22-H ) :   0.9674
B(  1-C , 23-H ) :   0.9583 B(  2-O ,  3-P ) :   1.0620 B(  3-P ,  4-S ) :   1.7556
B(  3-P ,  5-O ) :   1.1483 B(  3-P ,  8-S ) :   1.0991 B(  5-O ,  6-C ) :   0.7551
B(  6-C ,  7-C ) :   0.9501 B(  6-C , 24-H ) :   0.9583 B(  6-C , 25-H ) :   0.9602
B(  7-C , 26-H ) :   0.9633 B(  7-C , 27-H ) :   0.9668 B(  7-C , 28-H ) :   0.9665
B(  8-S ,  9-C ) :   0.8900 B(  9-C , 10-S ) :   0.9099 B(  9-C , 29-H ) :   0.9081
B(  9-C , 30-H ) :   0.9134 B( 10-S , 11-P ) :   0.9883 B( 11-P , 12-S ) :   1.8381
B( 11-P , 13-O ) :   1.1945 B( 11-P , 16-O ) :   1.0317 B( 13-O , 14-C ) :   0.7338
B( 14-C , 15-C ) :   0.9670 B( 14-C , 31-H ) :   0.9452 B( 14-C , 32-H ) :   0.9405
B( 15-C , 33-H ) :   0.9715 B( 15-C , 34-H ) :   0.9631 B( 15-C , 35-H ) :   0.9703
B( 16-O , 17-C ) :   0.7228 B( 17-C , 18-C ) :   0.9375 B( 17-C , 36-H ) :   0.9488
B( 17-C , 37-H ) :   0.9499 B( 18-C , 38-H ) :   0.9674 B( 18-C , 39-H ) :   0.9794
B( 18-C , 40-H ) :   0.9738

Dispersion correction           -0.021902860
FINAL SINGLE POINT ENERGY     -2932.462824774680

DIPOLE MOMENT
-------------

Method             : SCF
Type of density    : Electron Density
Multiplicity       :   1
Irrep              :   0
Energy             : -2932.4873757312143425 Eh
Relativity type    :
Basis              : AO
                                X                 Y                 Z
Electronic contribution:      1.679041584       6.964380016     -13.859840964
Nuclear contribution   :     -1.154938787      -7.759319233      15.215266583
                        -----------------------------------------
Total Dipole Moment    :      0.524102797      -0.794939217       1.355425620
                        -----------------------------------------
Magnitude (a.u.)       :      1.656439166
Magnitude (Debye)      :      4.210333759

Rotational constants in cm-1:             0.011841             0.005324             0.004949
Rotational constants in MHz :           354.975083           159.614877           148.365670

                             ****ORCA TERMINATED NORMALLY****
TOTAL RUN TIME: 0 days 0 hours 1 minutes 21 seconds 942 msec
