                         Program Version 6.0.0  -   RELEASE  -
|  1> ! r2scan-3c def2/J RI DEFGRID2 scfconv6 printgap
|  2> %output
|  3>     printlevel normal
|  4> end
|  5> %cpcm
|  6>     smd true
|  7>     smdsolvent "water"
|  8> end
|  9> * xyz 0 1
| 10> C 4.1508524751 -1.4648308808 -2.3832663519
| 11> C 4.3784788509 -1.6161525435 -0.893210977
| 12> O 3.1423217345 -1.638055398 -0.1582774285
| 13> P 2.2061050458 -0.3586854768 -0.0220486196
| 14> S 3.1820984351 1.3280626506 0.2150846833
| 15> O 1.2590738544 -0.8127735052 1.1645059018
| 16> C 1.6069738726 -0.6143207782 2.5554648658
| 17> C 0.608703316 0.3284309402 3.1971413978
| 18> S 0.8476446404 -0.5120136466 -1.6296020334
| 19> C 0.2881961371 1.2150114596 -1.6013577054
| 20> S -0.5250903969 1.6696601478 -0.0556651501
| 21> P -2.2396571866 0.4064991695 -0.2623324217
| 22> S -2.8298696142 0.0415827891 -2.0859313179
| 23> O -3.321326732 1.1695581147 0.5883597385
| 24> C -3.1208167006 1.5717416277 1.9691961813
| 25> C -4.1540385488 2.629606115 2.2938543349
| 26> O -1.9310992311 -0.8768164843 0.6359756595
| 27> C -1.6159357027 -2.1828007376 0.1239730486
| 28> C -2.620298483 -3.1803692244 0.6663227146
| 29> H 3.7367545075 -0.4804525413 -2.5984218682
| 30> H 5.0969895885 -1.5694984349 -2.9044640807
| 31> H 3.4556990907 -2.2212626523 -2.7389090412
| 32> H 4.9914835019 -0.7930938627 -0.5121198412
| 33> H 4.8447979613 -2.5717629315 -0.650384938
| 34> H 1.5762510184 -1.6051304396 3.0120404819
| 35> H 2.6226798826 -0.2126602196 2.6187366376
| 36> H 0.8127374737 0.3977155168 4.2605664748
| 37> H 0.6892536351 1.3173154454 2.7507782833
| 38> H -0.4010443581 -0.0441517226 3.0448558438
| 39> H -0.4075980442 1.3242316054 -2.4327902922
| 40> H 1.144811331 1.8801794678 -1.7034766316
| 41> H -3.2397709166 0.6857873665 2.5957744975
| 42> H -2.1045198065 1.9612847619 2.0745021855
| 43> H -5.1535291977 2.2327626878 2.1413437678
| 44> H -4.039613836 2.9325125465 3.3295742993
| 45> H -4.0192022179 3.4934810718 1.6492993078
| 46> H -1.6445265073 -2.1562242334 -0.9705422827
| 47> H -0.5998900571 -2.4126655103 0.4534175855
| 48> H -2.3594470344 -4.172900788 0.3136482832
| 49> H -2.6124707671 -3.1701814042 1.7524334277
| 50> H -3.6185976898 -2.9283814363 0.3163565026
| 51> *
| 52>
| 53>                          ****END OF INPUT****

CARTESIAN COORDINATES (ANGSTROEM)
---------------------------------
  C      4.150852   -1.464831   -2.383266
  C      4.378479   -1.616153   -0.893211
  O      3.142322   -1.638055   -0.158277
  P      2.206105   -0.358685   -0.022049
  S      3.182098    1.328063    0.215085
  O      1.259074   -0.812774    1.164506
  C      1.606974   -0.614321    2.555465
  C      0.608703    0.328431    3.197141
  S      0.847645   -0.512014   -1.629602
  C      0.288196    1.215011   -1.601358
  S     -0.525090    1.669660   -0.055665
  P     -2.239657    0.406499   -0.262332
  S     -2.829870    0.041583   -2.085931
  O     -3.321327    1.169558    0.588360
  C     -3.120817    1.571742    1.969196
  C     -4.154039    2.629606    2.293854
  O     -1.931099   -0.876816    0.635976
  C     -1.615936   -2.182801    0.123973
  C     -2.620298   -3.180369    0.666323
  H      3.736755   -0.480453   -2.598422
  H      5.096990   -1.569498   -2.904464
  H      3.455699   -2.221263   -2.738909
  H      4.991484   -0.793094   -0.512120
  H      4.844798   -2.571763   -0.650385
  H      1.576251   -1.605130    3.012040
  H      2.622680   -0.212660    2.618737
  H      0.812737    0.397716    4.260566
  H      0.689254    1.317315    2.750778
  H     -0.401044   -0.044152    3.044856
  H     -0.407598    1.324232   -2.432790
  H      1.144811    1.880179   -1.703477
  H     -3.239771    0.685787    2.595774
  H     -2.104520    1.961285    2.074502
  H     -5.153529    2.232763    2.141344
  H     -4.039614    2.932513    3.329574
  H     -4.019202    3.493481    1.649299
  H     -1.644527   -2.156224   -0.970542
  H     -0.599890   -2.412666    0.453418
  H     -2.359447   -4.172901    0.313648
  H     -2.612471   -3.170181    1.752433
  H     -3.618598   -2.928381    0.316357

 Total Charge           Charge          ....    0
 Multiplicity           Mult            ....    1
 Number of Electrons    NEL             ....  202
 Basis Dimension        Dim             ....  539

ORBITAL ENERGIES
----------------

  NO   OCC          E(Eh)            E(eV)
   0   2.0000     -88.579970     -2410.3835
   1   2.0000     -88.575956     -2410.2743
   2   2.0000     -88.531668     -2409.0692
   3   2.0000     -88.528750     -2408.9898
   4   2.0000     -76.920924     -2093.1248
   5   2.0000     -76.918818     -2093.0674
   6   2.0000     -18.996483      -516.9206
   7   2.0000     -18.994817      -516.8753
   8   2.0000     -18.991835      -516.7941
   9   2.0000     -18.989763      -516.7377
  10   2.0000     -10.105232      -274.9773
  11   2.0000     -10.095930      -274.7242
  12   2.0000     -10.089037      -274.5367
  13   2.0000     -10.088937      -274.5339
  14   2.0000     -10.085835      -274.4495
  15   2.0000     -10.021229      -272.6915
  16   2.0000     -10.018489      -272.6169
  17   2.0000     -10.017104      -272.5793
  18   2.0000     -10.016706      -272.5684
  19   2.0000      -7.874418      -214.2738
  20   2.0000      -7.870344      -214.1630
  21   2.0000      -7.826878      -212.9802
  22   2.0000      -7.823769      -212.8956
  23   2.0000      -6.599222      -179.5740
  24   2.0000      -6.597379      -179.5238
  25   2.0000      -5.821292      -158.4054
  26   2.0000      -5.818337      -158.3250
  27   2.0000      -5.817260      -158.2957
  28   2.0000      -5.814160      -158.2113
  29   2.0000      -5.811462      -158.1379
  30   2.0000      -5.807440      -158.0285
  31   2.0000      -5.774509      -157.1324
  32   2.0000      -5.771317      -157.0455
  33   2.0000      -5.767141      -156.9319
  34   2.0000      -5.766818      -156.9231
  35   2.0000      -5.764147      -156.8504
  36   2.0000      -5.763733      -156.8391
  37   2.0000      -4.744993      -129.1178
  38   2.0000      -4.743930      -129.0889
  39   2.0000      -4.742992      -129.0634
  40   2.0000      -4.742793      -129.0580
  41   2.0000      -4.742256      -129.0433
  42   2.0000      -4.741265      -129.0164
  43   2.0000      -1.052717       -28.6459
  44   2.0000      -1.050724       -28.5917
  45   2.0000      -1.011127       -27.5142
  46   2.0000      -1.009897       -27.4807
  47   2.0000      -0.804665       -21.8960
  48   2.0000      -0.758129       -20.6297
  49   2.0000      -0.745822       -20.2949
  50   2.0000      -0.725955       -19.7542
  51   2.0000      -0.721830       -19.6420
  52   2.0000      -0.708409       -19.2768
  53   2.0000      -0.689426       -18.7602
  54   2.0000      -0.676895       -18.4192
  55   2.0000      -0.628993       -17.1158
  56   2.0000      -0.612690       -16.6721
  57   2.0000      -0.601384       -16.3645
  58   2.0000      -0.598823       -16.2948
  59   2.0000      -0.588669       -16.0185
  60   2.0000      -0.531098       -14.4519
  61   2.0000      -0.520781       -14.1712
  62   2.0000      -0.500345       -13.6151
  63   2.0000      -0.487283       -13.2596
  64   2.0000      -0.477864       -13.0033
  65   2.0000      -0.456957       -12.4344
  66   2.0000      -0.455847       -12.4042
  67   2.0000      -0.448904       -12.2153
  68   2.0000      -0.442550       -12.0424
  69   2.0000      -0.428658       -11.6644
  70   2.0000      -0.420383       -11.4392
  71   2.0000      -0.409260       -11.1365
  72   2.0000      -0.404971       -11.0198
  73   2.0000      -0.398179       -10.8350
  74   2.0000      -0.391964       -10.6659
  75   2.0000      -0.389120       -10.5885
  76   2.0000      -0.380611       -10.3570
  77   2.0000      -0.367045        -9.9878
  78   2.0000      -0.363825        -9.9002
  79   2.0000      -0.358861        -9.7651
  80   2.0000      -0.354693        -9.6517
  81   2.0000      -0.353552        -9.6206
  82   2.0000      -0.349311        -9.5052
  83   2.0000      -0.346974        -9.4416
  84   2.0000      -0.346282        -9.4228
  85   2.0000      -0.329552        -8.9676
  86   2.0000      -0.322666        -8.7802
  87   2.0000      -0.313471        -8.5300
  88   2.0000      -0.305500        -8.3131
  89   2.0000      -0.304344        -8.2816
  90   2.0000      -0.300583        -8.1793
  91   2.0000      -0.292147        -7.9497
  92   2.0000      -0.285673        -7.7736
  93   2.0000      -0.279631        -7.6091
  94   2.0000      -0.272063        -7.4032
  95   2.0000      -0.249070        -6.7775
  96   2.0000      -0.238910        -6.5011
  97   2.0000      -0.234779        -6.3887
  98   2.0000      -0.228717        -6.2237
  99   2.0000      -0.224313        -6.1039
 100   2.0000      -0.218478        -5.9451
 101   0.0000      -0.053767        -1.4631
 102   0.0000      -0.034065        -0.9270
 103   0.0000      -0.006490        -0.1766
 104   0.0000      -0.001479        -0.0402
 105   0.0000       0.007475         0.2034

MULLIKEN ATOMIC CHARGES
-----------------------
   0 C :   -0.483810
   1 C :   -0.153623
   2 O :   -0.323544
   3 P :    0.706013
   4 S :   -0.520416
   5 O :   -0.282696
   6 C :   -0.118219
   7 C :   -0.507799
   8 S :   -0.130974
   9 C :   -0.251858
  10 S :   -0.172637
  11 P :    0.673656
  12 S :   -0.503547
  13 O :   -0.322192
  14 C :   -0.105898
  15 C :   -0.495408
  16 O :   -0.278394
  17 C :   -0.088345
  18 C :   -0.526054
  19 H :    0.171465
  20 H :    0.172713
  21 H :    0.169126
  22 H :    0.177887
  23 H :    0.174348
  24 H :    0.174370
  25 H :    0.168557
  26 H :    0.167720
  27 H :    0.171465
  28 H :    0.168728
  29 H :    0.229865
  30 H :    0.235573
  31 H :    0.182953
  32 H :    0.160291
  33 H :    0.169136
  34 H :    0.171722
  35 H :    0.168827
  36 H :    0.172757
  37 H :    0.176301
  38 H :    0.168949
  39 H :    0.167258
  40 H :    0.165736
Sum of atomic charges:   -0.0000000

LOEWDIN ATOMIC CHARGES
----------------------
   0 C :   -0.409693
   1 C :    0.024213
   2 O :   -0.671963
   3 P :    0.383627
   4 S :   -0.156554
   5 O :   -0.692526
   6 C :    0.031219
   7 C :   -0.401776
   8 S :    0.171534
   9 C :   -0.416300
  10 S :    0.136120
  11 P :    0.385542
  12 S :   -0.138636
  13 O :   -0.676207
  14 C :    0.033015
  15 C :   -0.386681
  16 O :   -0.676225
  17 C :    0.009208
  18 C :   -0.394648
  19 H :    0.161248
  20 H :    0.168281
  21 H :    0.163516
  22 H :    0.181323
  23 H :    0.190534
  24 H :    0.185730
  25 H :    0.182075
  26 H :    0.165951
  27 H :    0.162770
  28 H :    0.164303
  29 H :    0.196930
  30 H :    0.197279
  31 H :    0.184751
  32 H :    0.181383
  33 H :    0.165385
  34 H :    0.170457
  35 H :    0.164202
  36 H :    0.182362
  37 H :    0.186240
  38 H :    0.167731
  39 H :    0.162428
  40 H :    0.161850

  Mayer bond orders larger than 0.100000
B(  0-C ,  1-C ) :   0.9105 B(  0-C , 19-H ) :   0.9637 B(  0-C , 20-H ) :   0.9538
B(  0-C , 21-H ) :   0.9656 B(  1-C ,  2-O ) :   0.8054 B(  1-C , 22-H ) :   0.9659
B(  1-C , 23-H ) :   0.9488 B(  2-O ,  3-P ) :   1.0699 B(  3-P ,  4-S ) :   1.7127
B(  3-P ,  5-O ) :   1.1601 B(  3-P ,  8-S ) :   1.1053 B(  5-O ,  6-C ) :   0.7424
B(  6-C ,  7-C ) :   0.9420 B(  6-C , 24-H ) :   0.9476 B(  6-C , 25-H ) :   0.9571
B(  7-C , 26-H ) :   0.9593 B(  7-C , 27-H ) :   0.9669 B(  7-C , 28-H ) :   0.9650
B(  8-S ,  9-C ) :   0.8825 B(  9-C , 10-S ) :   0.8945 B(  9-C , 29-H ) :   0.9038
B(  9-C , 30-H ) :   0.9065 B( 10-S , 11-P ) :   1.0070 B( 11-P , 12-S ) :   1.8209
B( 11-P , 13-O ) :   1.1990 B( 11-P , 16-O ) :   1.0344 B( 13-O , 14-C ) :   0.7289
B( 14-C , 15-C ) :   0.9545 B( 14-C , 31-H ) :   0.9347 B( 14-C , 32-H ) :   0.9314
B( 15-C , 33-H ) :   0.9696 B( 15-C , 34-H ) :   0.9564 B( 15-C , 35-H ) :   0.9698
B( 16-O , 17-C ) :   0.7132 B( 17-C , 18-C ) :   0.9368 B( 17-C , 36-H ) :   0.9474
B( 17-C , 37-H ) :   0.9412 B( 18-C , 38-H ) :   0.9614 B( 18-C , 39-H ) :   0.9741
B( 18-C , 40-H ) :   0.9722

Dispersion correction           -0.021902860
FINAL SINGLE POINT ENERGY     -2932.471952640287

DIPOLE MOMENT
-------------

Method             : SCF
Type of density    : Electron Density
Multiplicity       :   1
Irrep              :   0
Energy             : -2932.4965035968211851 Eh
Relativity type    :
Basis              : AO
                                X                 Y                 Z
Electronic contribution:      2.055630550       6.651793278     -13.356794609
Nuclear contribution   :     -1.154938787      -7.759319233      15.215266583
                        -----------------------------------------
Total Dipole Moment    :      0.900691763      -1.107525955       1.858471974
                        -----------------------------------------
Magnitude (a.u.)       :      2.343454175
Magnitude (Debye)      :      5.956587135

Rotational constants in cm-1:             0.011841             0.005324             0.004949
Rotational constants in MHz :           354.975083           159.614877           148.365670

                             ****ORCA TERMINATED NORMALLY****
TOTAL RUN TIME: 0 days 0 hours 1 minutes 58 seconds 530 msec
