                         Program Version 6.0.0  -   RELEASE  -
|  1> ! pbe def2-sv(p) def2/J RI DEFGRID1 loosescf d4 GCP(DFT/SV(P)) printgap
|  2> %output
|  3>     printlevel normal
|  4> end
|  5> * xyz 0 1
|  6> C 2.6110364794 1.157947988 -2.3371594469
|  7> C 1.9669233562 -0.1992375774 -2.1357514543
|  8> O 2.5716147428 -0.9189306643 -1.0496879958
|  9> P 2.2115573321 -0.7477845544 0.490889657
| 10> S 2.5267164591 0.9930023374 1.3475852619
| 11> O 3.0579434115 -1.9318943672 1.1129831981
| 12> C 4.3896008057 -1.7366926749 1.6285161734
| 13> C 5.3796464218 -1.4497354888 0.5197305619
| 14> S 0.2863980044 -1.5892284492 0.6509145734
| 15> C -0.4660757611 -0.441320258 1.8617654819
| 16> S -2.2024751734 -0.1556498761 1.4920784735
| 17> P -1.9494836404 0.74147503 -0.430649496
| 18> S -0.4880170337 2.0439467176 -0.5077213052
| 19> O -3.4006494881 1.3007992198 -0.7407578358
| 20> C -3.9441401158 2.4162860604 -0.0034083237
| 21> C -5.1885673534 2.8859428774 -0.7287216573
| 22> O -1.7723433698 -0.3707377429 -1.5301469219
| 23> C -2.8060413482 -1.2545525974 -2.0362207788
| 24> C -3.2861402148 -2.2416313504 -0.9933224246
| 25> H 2.1883422729 1.6252140084 -3.220791099
| 26> H 2.41452036 1.8009218328 -1.4809879008
| 27> H 3.6851521794 1.0508650372 -2.4613545314
| 28> H 2.1254095391 -0.8464424886 -3.000562223
| 29> H 0.8926304866 -0.0939663994 -1.9521918919
| 30> H 4.3650486685 -0.9113289278 2.3474022317
| 31> H 4.6107580063 -2.6732254707 2.1416776
| 32> H 6.3813814023 -1.3924523565 0.9337743625
| 33> H 5.3393797792 -2.2333030216 -0.232196004
| 34> H 5.1344478952 -0.498199712 0.0489996451
| 35> H 0.0852523187 0.5035827412 1.830682764
| 36> H -0.4311053723 -0.8872857905 2.8524589306
| 37> H -4.1740002628 2.0761559197 1.0097109807
| 38> H -3.1846289669 3.2032033303 0.0466468045
| 39> H -5.6184936462 3.7236068179 -0.1896390176
| 40> H -4.9369103032 3.2007413813 -1.7375794932
| 41> H -5.9152044649 2.0805691877 -0.7800222653
| 42> H -3.6269898106 -0.6409060846 -2.4097231983
| 43> H -2.3084607348 -1.760041614 -2.8652451896
| 44> H -3.8522115971 -1.7341949032 -0.2157223754
| 45> H -3.9249351707 -2.9766448242 -1.4729989262
| 46> H -2.4377682074 -2.7477192512 -0.5372134908
| 47> *
| 48>
| 49>                          ****END OF INPUT****

CARTESIAN COORDINATES (ANGSTROEM)
---------------------------------
  C      2.611036    1.157948   -2.337159
  C      1.966923   -0.199238   -2.135751
  O      2.571615   -0.918931   -1.049688
  P      2.211557   -0.747785    0.490890
  S      2.526716    0.993002    1.347585
  O      3.057943   -1.931894    1.112983
  C      4.389601   -1.736693    1.628516
  C      5.379646   -1.449735    0.519731
  S      0.286398   -1.589228    0.650915
  C     -0.466076   -0.441320    1.861765
  S     -2.202475   -0.155650    1.492078
  P     -1.949484    0.741475   -0.430649
  S     -0.488017    2.043947   -0.507721
  O     -3.400649    1.300799   -0.740758
  C     -3.944140    2.416286   -0.003408
  C     -5.188567    2.885943   -0.728722
  O     -1.772343   -0.370738   -1.530147
  C     -2.806041   -1.254553   -2.036221
  C     -3.286140   -2.241631   -0.993322
  H      2.188342    1.625214   -3.220791
  H      2.414520    1.800922   -1.480988
  H      3.685152    1.050865   -2.461355
  H      2.125410   -0.846442   -3.000562
  H      0.892630   -0.093966   -1.952192
  H      4.365049   -0.911329    2.347402
  H      4.610758   -2.673225    2.141678
  H      6.381381   -1.392452    0.933774
  H      5.339380   -2.233303   -0.232196
  H      5.134448   -0.498200    0.049000
  H      0.085252    0.503583    1.830683
  H     -0.431105   -0.887286    2.852459
  H     -4.174000    2.076156    1.009711
  H     -3.184629    3.203203    0.046647
  H     -5.618494    3.723607   -0.189639
  H     -4.936910    3.200741   -1.737579
  H     -5.915204    2.080569   -0.780022
  H     -3.626990   -0.640906   -2.409723
  H     -2.308461   -1.760042   -2.865245
  H     -3.852212   -1.734195   -0.215722
  H     -3.924935   -2.976645   -1.472999
  H     -2.437768   -2.747719   -0.537213

 Total Charge           Charge          ....    0
 Multiplicity           Mult            ....    1
 Number of Electrons    NEL             ....  202
 Basis Dimension        Dim             ....  334

ORBITAL ENERGIES
----------------

  NO   OCC          E(Eh)            E(eV)
   0   2.0000     -88.044749     -2395.8194
   1   2.0000     -88.037304     -2395.6168
   2   2.0000     -87.981721     -2394.1043
   3   2.0000     -87.981012     -2394.0851
   4   2.0000     -76.428104     -2079.7144
   5   2.0000     -76.419615     -2079.4834
   6   2.0000     -18.800628      -511.5911
   7   2.0000     -18.795620      -511.4548
   8   2.0000     -18.784238      -511.1451
   9   2.0000     -18.780066      -511.0316
  10   2.0000      -9.960174      -271.0301
  11   2.0000      -9.958973      -270.9974
  12   2.0000      -9.951159      -270.7848
  13   2.0000      -9.944247      -270.5967
  14   2.0000      -9.939045      -270.4552
  15   2.0000      -9.893716      -269.2217
  16   2.0000      -9.889297      -269.1015
  17   2.0000      -9.877326      -268.7757
  18   2.0000      -9.866938      -268.4930
  19   2.0000      -7.689712      -209.2477
  20   2.0000      -7.682360      -209.0476
  21   2.0000      -7.626567      -207.5295
  22   2.0000      -7.625963      -207.5130
  23   2.0000      -6.425257      -174.8401
  24   2.0000      -6.417203      -174.6210
  25   2.0000      -5.717580      -155.5833
  26   2.0000      -5.714126      -155.4893
  27   2.0000      -5.710264      -155.3842
  28   2.0000      -5.706966      -155.2945
  29   2.0000      -5.706838      -155.2910
  30   2.0000      -5.699166      -155.0822
  31   2.0000      -5.655373      -153.8905
  32   2.0000      -5.654940      -153.8787
  33   2.0000      -5.647379      -153.6730
  34   2.0000      -5.646644      -153.6530
  35   2.0000      -5.646621      -153.6524
  36   2.0000      -5.645991      -153.6352
  37   2.0000      -4.648323      -126.4873
  38   2.0000      -4.646976      -126.4506
  39   2.0000      -4.645306      -126.4052
  40   2.0000      -4.639528      -126.2480
  41   2.0000      -4.638966      -126.2327
  42   2.0000      -4.637918      -126.2042
  43   2.0000      -0.993773       -27.0419
  44   2.0000      -0.978016       -26.6132
  45   2.0000      -0.949865       -25.8471
  46   2.0000      -0.935904       -25.4672
  47   2.0000      -0.761227       -20.7140
  48   2.0000      -0.722370       -19.6567
  49   2.0000      -0.707601       -19.2548
  50   2.0000      -0.697336       -18.9755
  51   2.0000      -0.676221       -18.4009
  52   2.0000      -0.670855       -18.2549
  53   2.0000      -0.648274       -17.6404
  54   2.0000      -0.631546       -17.1852
  55   2.0000      -0.594889       -16.1878
  56   2.0000      -0.589388       -16.0381
  57   2.0000      -0.578223       -15.7342
  58   2.0000      -0.562594       -15.3090
  59   2.0000      -0.558609       -15.2005
  60   2.0000      -0.511270       -13.9124
  61   2.0000      -0.489153       -13.3105
  62   2.0000      -0.478940       -13.0326
  63   2.0000      -0.464097       -12.6287
  64   2.0000      -0.450933       -12.2705
  65   2.0000      -0.447100       -12.1662
  66   2.0000      -0.442421       -12.0389
  67   2.0000      -0.433466       -11.7952
  68   2.0000      -0.427729       -11.6391
  69   2.0000      -0.413380       -11.2487
  70   2.0000      -0.403767       -10.9871
  71   2.0000      -0.398996       -10.8572
  72   2.0000      -0.394278       -10.7289
  73   2.0000      -0.383795       -10.4436
  74   2.0000      -0.380063       -10.3421
  75   2.0000      -0.370206       -10.0738
  76   2.0000      -0.364601        -9.9213
  77   2.0000      -0.358250        -9.7485
  78   2.0000      -0.353503        -9.6193
  79   2.0000      -0.347775        -9.4634
  80   2.0000      -0.346352        -9.4247
  81   2.0000      -0.342343        -9.3156
  82   2.0000      -0.334912        -9.1134
  83   2.0000      -0.332191        -9.0394
  84   2.0000      -0.324205        -8.8221
  85   2.0000      -0.322049        -8.7634
  86   2.0000      -0.309911        -8.4331
  87   2.0000      -0.305894        -8.3238
  88   2.0000      -0.296150        -8.0586
  89   2.0000      -0.285658        -7.7732
  90   2.0000      -0.278277        -7.5723
  91   2.0000      -0.277087        -7.5399
  92   2.0000      -0.266790        -7.2597
  93   2.0000      -0.262249        -7.1362
  94   2.0000      -0.255017        -6.9394
  95   2.0000      -0.234497        -6.3810
  96   2.0000      -0.218214        -5.9379
  97   2.0000      -0.209569        -5.7027
  98   2.0000      -0.199600        -5.4314
  99   2.0000      -0.192945        -5.2503
 100   2.0000      -0.186318        -5.0700
 101   0.0000      -0.044521        -1.2115
 102   0.0000      -0.032758        -0.8914
 103   0.0000      -0.005609        -0.1526
 104   0.0000       0.013996         0.3809
 105   0.0000       0.017575         0.4782

MULLIKEN ATOMIC CHARGES
-----------------------
   0 C :   -0.300567
   1 C :   -0.026967
   2 O :   -0.374411
   3 P :    0.628913
   4 S :   -0.318387
   5 O :   -0.368472
   6 C :   -0.004583
   7 C :   -0.306393
   8 S :   -0.108602
   9 C :   -0.351089
  10 S :   -0.120892
  11 P :    0.610268
  12 S :   -0.304075
  13 O :   -0.386873
  14 C :   -0.013784
  15 C :   -0.280982
  16 O :   -0.351000
  17 C :    0.001436
  18 C :   -0.318787
  19 H :    0.104441
  20 H :    0.140838
  21 H :    0.106830
  22 H :    0.096032
  23 H :    0.127699
  24 H :    0.108962
  25 H :    0.102169
  26 H :    0.108574
  27 H :    0.115296
  28 H :    0.125786
  29 H :    0.217070
  30 H :    0.181631
  31 H :    0.107868
  32 H :    0.110751
  33 H :    0.115492
  34 H :    0.122565
  35 H :    0.114282
  36 H :    0.111675
  37 H :    0.110183
  38 H :    0.123128
  39 H :    0.113331
  40 H :    0.130646
Sum of atomic charges:   -0.0000000

LOEWDIN ATOMIC CHARGES
----------------------
   0 C :   -0.364638
   1 C :   -0.121352
   2 O :   -0.241432
   3 P :    0.568382
   4 S :   -0.296666
   5 O :   -0.246755
   6 C :   -0.118441
   7 C :   -0.364893
   8 S :    0.076228
   9 C :   -0.478268
  10 S :    0.070321
  11 P :    0.563766
  12 S :   -0.296507
  13 O :   -0.250834
  14 C :   -0.118989
  15 C :   -0.350237
  16 O :   -0.231925
  17 C :   -0.107463
  18 C :   -0.369652
  19 H :    0.128367
  20 H :    0.123847
  21 H :    0.120652
  22 H :    0.114156
  23 H :    0.106884
  24 H :    0.108435
  25 H :    0.117316
  26 H :    0.128594
  27 H :    0.125818
  28 H :    0.123239
  29 H :    0.124080
  30 H :    0.134878
  31 H :    0.109532
  32 H :    0.112988
  33 H :    0.132835
  34 H :    0.129837
  35 H :    0.125666
  36 H :    0.114667
  37 H :    0.122563
  38 H :    0.117367
  39 H :    0.130940
  40 H :    0.126695

  Mayer bond orders larger than 0.100000
B(  0-C ,  1-C ) :   1.1705 B(  0-C , 19-H ) :   0.9393 B(  0-C , 20-H ) :   0.9303
B(  0-C , 21-H ) :   0.9461 B(  1-C ,  2-O ) :   0.9022 B(  1-C , 22-H ) :   0.9356
B(  1-C , 23-H ) :   0.9024 B(  2-O ,  3-P ) :   1.1161 B(  3-P ,  4-S ) :   1.6112
B(  3-P ,  5-O ) :   1.1275 B(  3-P ,  8-S ) :   0.9578 B(  4-S ,  8-S ) :   0.1192
B(  5-O ,  6-C ) :   0.9138 B(  6-C ,  7-C ) :   1.1635 B(  6-C , 24-H ) :   0.9142
B(  6-C , 25-H ) :   0.9347 B(  7-C , 26-H ) :   0.9387 B(  7-C , 27-H ) :   0.9466
B(  7-C , 28-H ) :   0.9353 B(  8-S ,  9-C ) :   0.9942 B(  9-C , 10-S ) :   1.0109
B(  9-C , 29-H ) :   0.8430 B(  9-C , 30-H ) :   0.9094 B( 10-S , 11-P ) :   0.9323
B( 10-S , 12-S ) :   0.1095 B( 11-P , 12-S ) :   1.6616 B( 11-P , 13-O ) :   1.0793
B( 11-P , 16-O ) :   1.1247 B( 13-O , 14-C ) :   0.8992 B( 14-C , 15-C ) :   1.1600
B( 14-C , 31-H ) :   0.9276 B( 14-C , 32-H ) :   0.9122 B( 15-C , 33-H ) :   0.9415
B( 15-C , 34-H ) :   0.9507 B( 15-C , 35-H ) :   0.9511 B( 16-O , 17-C ) :   0.8959
B( 17-C , 18-C ) :   1.1702 B( 17-C , 36-H ) :   0.9272 B( 17-C , 37-H ) :   0.9344
B( 18-C , 38-H ) :   0.9393 B( 18-C , 39-H ) :   0.9354 B( 18-C , 40-H ) :   0.9404

Dispersion correction           -0.065531638
FINAL SINGLE POINT ENERGY     -2929.519246848402

DIPOLE MOMENT
-------------

Method             : SCF
Type of density    : Electron Density
Multiplicity       :   1
Irrep              :   0
Energy             : -2929.6382598433342537 Eh
Relativity type    :
Basis              : AO
                                X                 Y                 Z
Electronic contribution:      1.997695593      -0.524031556      10.342859035
Nuclear contribution   :     -3.222205539      -0.182971504     -10.816306640
                        -----------------------------------------
Total Dipole Moment    :     -1.224509946      -0.707003060      -0.473447605
                        -----------------------------------------
Magnitude (a.u.)       :      1.491117222
Magnitude (Debye)      :      3.790118771

Rotational constants in cm-1:             0.014400             0.004604             0.004450
Rotational constants in MHz :           431.714267           138.038312           133.401929

                             ****ORCA TERMINATED NORMALLY****
TOTAL RUN TIME: 0 days 0 hours 0 minutes 21 seconds 380 msec
