                         Program Version 6.0.1  -  RELEASE   -
|  1> ! pbe def2-sv(p) def2/J RI DEFGRID1 loosescf d4 GCP(DFT/SV(P)) printgap
|  2> %output
|  3>     printlevel normal
|  4> end
|  5> * xyz 0 1
|  6> C 5.5476276621 -2.1899092662 -1.454969614
|  7> C 4.9101861513 -1.093827281 -0.6161098773
|  8> O 3.6125197527 -1.4972645905 -0.1369076866
|  9> C 2.5687725276 -1.3023017879 -0.9162494925
| 10> O 2.6084903294 -0.787279062 -2.0111741795
| 11> C 1.2928122882 -1.8100979423 -0.2665264592
| 12> C 0.2239645696 -0.727067533 -0.351692403
| 13> H 0.1333639615 -0.3783427702 -1.3883028624
| 14> C 0.542525326 0.4792356481 0.5087791442
| 15> O -0.3070391489 1.041341161 1.1705824176
| 16> O 1.7950568127 0.8336552731 0.4296141734
| 17> C 2.2365081359 1.9804417737 1.1923990055
| 18> C 2.6333650304 1.5663397803 2.599320168
| 19> S -1.3979468817 -1.3597853518 0.1821739462
| 20> P -2.5360936787 0.4193323743 -0.1291335788
| 21> S -1.8459703684 1.8262671351 -1.3039584872
| 22> O -3.8275853012 -0.1914796091 -0.8308302076
| 23> C -4.6243330745 -1.2309789308 -0.2364703422
| 24> O -3.1890584874 0.8466813437 1.2638542561
| 25> C -2.752659747 1.8608028936 2.1681063093
| 26> H 4.960940886 -2.3609207913 -2.3546535358
| 27> H 6.5491269705 -1.8861061551 -1.7412099961
| 28> H 5.6016617602 -3.1137091429 -0.8857039387
| 29> H 4.7943301775 -0.1766893479 -1.2003346031
| 30> H 5.487450132 -0.9010363117 0.2881872921
| 31> H 1.4919835524 -2.0918384519 0.7661670818
| 32> H 0.9485413483 -2.6860903795 -0.8190306964
| 33> H 3.088101161 2.3634052742 0.6301587124
| 34> H 1.4296649737 2.7178911468 1.2068407095
| 35> H 3.3882620309 0.7858145905 2.5598144645
| 36> H 3.0343368519 2.4276915097 3.1228921654
| 37> H 1.766808072 1.1955180442 3.1413550747
| 38> H -3.9926922445 -2.0806397182 0.0257361475
| 39> H -5.3444867987 -1.5091842374 -1.0016332535
| 40> H -5.1275869235 -0.8502256792 0.6501806085
| 41> H -2.2750820844 2.6747809048 1.6231242348
| 42> H -2.0501148974 1.4371540843 2.8826036325
| 43> H -3.6534121798 2.2115348464 2.6673833761
| 44> *
| 45>
| 46>                          ****END OF INPUT****

CARTESIAN COORDINATES (ANGSTROEM)
---------------------------------
  C      5.547628   -2.189909   -1.454970
  C      4.910186   -1.093827   -0.616110
  O      3.612520   -1.497265   -0.136908
  C      2.568773   -1.302302   -0.916249
  O      2.608490   -0.787279   -2.011174
  C      1.292812   -1.810098   -0.266526
  C      0.223965   -0.727068   -0.351692
  H      0.133364   -0.378343   -1.388303
  C      0.542525    0.479236    0.508779
  O     -0.307039    1.041341    1.170582
  O      1.795057    0.833655    0.429614
  C      2.236508    1.980442    1.192399
  C      2.633365    1.566340    2.599320
  S     -1.397947   -1.359785    0.182174
  P     -2.536094    0.419332   -0.129134
  S     -1.845970    1.826267   -1.303958
  O     -3.827585   -0.191480   -0.830830
  C     -4.624333   -1.230979   -0.236470
  O     -3.189058    0.846681    1.263854
  C     -2.752660    1.860803    2.168106
  H      4.960941   -2.360921   -2.354654
  H      6.549127   -1.886106   -1.741210
  H      5.601662   -3.113709   -0.885704
  H      4.794330   -0.176689   -1.200335
  H      5.487450   -0.901036    0.288187
  H      1.491984   -2.091838    0.766167
  H      0.948541   -2.686090   -0.819031
  H      3.088101    2.363405    0.630159
  H      1.429665    2.717891    1.206841
  H      3.388262    0.785815    2.559814
  H      3.034337    2.427692    3.122892
  H      1.766808    1.195518    3.141355
  H     -3.992692   -2.080640    0.025736
  H     -5.344487   -1.509184   -1.001633
  H     -5.127587   -0.850226    0.650181
  H     -2.275082    2.674781    1.623124
  H     -2.050115    1.437154    2.882604
  H     -3.653412    2.211535    2.667383

 Total Charge           Charge          ....    0
 Multiplicity           Mult            ....    1
 Number of Electrons    NEL             ....  174
 Basis Dimension        Dim             ....  316

ORBITAL ENERGIES
----------------

  NO   OCC          E(Eh)            E(eV)
   0   2.0000     -88.031140     -2395.4491
   1   2.0000     -87.967898     -2393.7282
   2   2.0000     -76.415702     -2079.3770
   3   2.0000     -18.824815      -512.2493
   4   2.0000     -18.807756      -511.7851
   5   2.0000     -18.781466      -511.0697
   6   2.0000     -18.773061      -510.8410
   7   2.0000     -18.754290      -510.3302
   8   2.0000     -18.742168      -510.0003
   9   2.0000     -10.026493      -272.8347
  10   2.0000     -10.015869      -272.5457
  11   2.0000      -9.961319      -271.0613
  12   2.0000      -9.954142      -270.8660
  13   2.0000      -9.946750      -270.6648
  14   2.0000      -9.938988      -270.4536
  15   2.0000      -9.933671      -270.3089
  16   2.0000      -9.917993      -269.8823
  17   2.0000      -9.898835      -269.3610
  18   2.0000      -9.892207      -269.1806
  19   2.0000      -7.676277      -208.8821
  20   2.0000      -7.613260      -207.1673
  21   2.0000      -6.411827      -174.4747
  22   2.0000      -5.704159      -155.2181
  23   2.0000      -5.701159      -155.1364
  24   2.0000      -5.692868      -154.9108
  25   2.0000      -5.642673      -153.5449
  26   2.0000      -5.633962      -153.3079
  27   2.0000      -5.632804      -153.2764
  28   2.0000      -4.634634      -126.1148
  29   2.0000      -4.633696      -126.0893
  30   2.0000      -4.632309      -126.0515
  31   2.0000      -1.033269       -28.1167
  32   2.0000      -1.015169       -27.6241
  33   2.0000      -0.971371       -26.4323
  34   2.0000      -0.936009       -25.4701
  35   2.0000      -0.926024       -25.1984
  36   2.0000      -0.920032       -25.0354
  37   2.0000      -0.767097       -20.8738
  38   2.0000      -0.717148       -19.5146
  39   2.0000      -0.714457       -19.4414
  40   2.0000      -0.690125       -18.7792
  41   2.0000      -0.657210       -17.8836
  42   2.0000      -0.628921       -17.1138
  43   2.0000      -0.627857       -17.0848
  44   2.0000      -0.606776       -16.5112
  45   2.0000      -0.600874       -16.3506
  46   2.0000      -0.568901       -15.4806
  47   2.0000      -0.513261       -13.9665
  48   2.0000      -0.508858       -13.8467
  49   2.0000      -0.502179       -13.6650
  50   2.0000      -0.475449       -12.9376
  51   2.0000      -0.473279       -12.8786
  52   2.0000      -0.466165       -12.6850
  53   2.0000      -0.448839       -12.2135
  54   2.0000      -0.444059       -12.0835
  55   2.0000      -0.433970       -11.8089
  56   2.0000      -0.426101       -11.5948
  57   2.0000      -0.422244       -11.4898
  58   2.0000      -0.413319       -11.2470
  59   2.0000      -0.410753       -11.1771
  60   2.0000      -0.402982       -10.9657
  61   2.0000      -0.398411       -10.8413
  62   2.0000      -0.391547       -10.6545
  63   2.0000      -0.385860       -10.4998
  64   2.0000      -0.380911       -10.3651
  65   2.0000      -0.370905       -10.0928
  66   2.0000      -0.364815        -9.9271
  67   2.0000      -0.357643        -9.7320
  68   2.0000      -0.353294        -9.6136
  69   2.0000      -0.343378        -9.3438
  70   2.0000      -0.339088        -9.2270
  71   2.0000      -0.333827        -9.0839
  72   2.0000      -0.327187        -8.9032
  73   2.0000      -0.309797        -8.4300
  74   2.0000      -0.306976        -8.3532
  75   2.0000      -0.299240        -8.1427
  76   2.0000      -0.291832        -7.9411
  77   2.0000      -0.285943        -7.7809
  78   2.0000      -0.281110        -7.6494
  79   2.0000      -0.263937        -7.1821
  80   2.0000      -0.259372        -7.0579
  81   2.0000      -0.251179        -6.8349
  82   2.0000      -0.242781        -6.6064
  83   2.0000      -0.228646        -6.2218
  84   2.0000      -0.207981        -5.6594
  85   2.0000      -0.190547        -5.1851
  86   2.0000      -0.181426        -4.9369
  87   0.0000      -0.046106        -1.2546
  88   0.0000      -0.035247        -0.9591
  89   0.0000      -0.021875        -0.5953
  90   0.0000       0.008532         0.2322
  91   0.0000       0.022142         0.6025

MULLIKEN ATOMIC CHARGES
-----------------------
   0 C :   -0.305098
   1 C :   -0.016190
   2 O :   -0.231453
   3 C :    0.117652
   4 O :   -0.200606
   5 C :   -0.061567
   6 C :   -0.317686
   7 H :    0.178509
   8 C :    0.222950
   9 O :   -0.192887
  10 O :   -0.217828
  11 C :   -0.008288
  12 C :   -0.309622
  13 S :   -0.124332
  14 P :    0.641672
  15 S :   -0.332204
  16 O :   -0.366573
  17 C :   -0.110986
  18 O :   -0.398912
  19 C :   -0.078433
  20 H :    0.130009
  21 H :    0.114671
  22 H :    0.114837
  23 H :    0.111035
  24 H :    0.101250
  25 H :    0.103314
  26 H :    0.129776
  27 H :    0.112185
  28 H :    0.120585
  29 H :    0.118242
  30 H :    0.119060
  31 H :    0.127092
  32 H :    0.118124
  33 H :    0.129028
  34 H :    0.118585
  35 H :    0.115515
  36 H :    0.113938
  37 H :    0.114635
Sum of atomic charges:    0.0000000

LOEWDIN ATOMIC CHARGES
----------------------
   0 C :   -0.355669
   1 C :   -0.111414
   2 O :   -0.057400
   3 C :    0.027596
   4 O :   -0.165396
   5 C :   -0.245240
   6 C :   -0.269199
   7 H :    0.154136
   8 C :    0.027018
   9 O :   -0.157805
  10 O :   -0.027622
  11 C :   -0.103868
  12 C :   -0.355689
  13 S :    0.079452
  14 P :    0.584754
  15 S :   -0.326336
  16 O :   -0.253133
  17 C :   -0.213460
  18 O :   -0.253953
  19 C :   -0.205683
  20 H :    0.131947
  21 H :    0.131592
  22 H :    0.125230
  23 H :    0.120824
  24 H :    0.116383
  25 H :    0.133224
  26 H :    0.150102
  27 H :    0.122616
  28 H :    0.126465
  29 H :    0.126358
  30 H :    0.133829
  31 H :    0.130348
  32 H :    0.103769
  33 H :    0.124695
  34 H :    0.113059
  35 H :    0.111753
  36 H :    0.111749
  37 H :    0.114967

  Mayer bond orders larger than 0.100000
B(  0-C ,  1-C ) :   1.1748 B(  0-C , 20-H ) :   0.9458 B(  0-C , 21-H ) :   0.9440
B(  0-C , 22-H ) :   0.9487 B(  1-C ,  2-O ) :   0.9167 B(  1-C , 23-H ) :   0.9134
B(  1-C , 24-H ) :   0.9362 B(  2-O ,  3-C ) :   1.2316 B(  3-C ,  4-O ) :   2.0433
B(  3-C ,  5-C ) :   1.0065 B(  5-C ,  6-C ) :   1.0529 B(  5-C , 25-H ) :   0.9038
B(  5-C , 26-H ) :   0.8815 B(  6-C ,  7-H ) :   0.8364 B(  6-C ,  8-C ) :   0.8981
B(  6-C , 13-S ) :   1.0443 B(  8-C ,  9-O ) :   1.9592 B(  8-C , 10-O ) :   1.2748
B( 10-O , 11-C ) :   0.8969 B( 11-C , 12-C ) :   1.1731 B( 11-C , 27-H ) :   0.9357
B( 11-C , 28-H ) :   0.9152 B( 12-C , 29-H ) :   0.9469 B( 12-C , 30-H ) :   0.9432
B( 12-C , 31-H ) :   0.9455 B( 13-S , 14-P ) :   0.9173 B( 13-S , 15-S ) :   0.1110
B( 14-P , 15-S ) :   1.6126 B( 14-P , 16-O ) :   1.1083 B( 14-P , 18-O ) :   1.0884
B( 16-O , 17-C ) :   0.9338 B( 17-C , 32-H ) :   0.9359 B( 17-C , 33-H ) :   0.9607
B( 17-C , 34-H ) :   0.9467 B( 18-O , 19-C ) :   0.9280 B( 19-C , 35-H ) :   0.9413
B( 19-C , 36-H ) :   0.9531 B( 19-C , 37-H ) :   0.9538

Dispersion correction           -0.050746840
FINAL SINGLE POINT ENERGY     -1979.010088805300

DIPOLE MOMENT
-------------

Method             : SCF
Type of density    : Electron Density
Multiplicity       :   1
Irrep              :   0
Energy             : -1979.1427354542961439 Eh
Relativity type    :
Basis              : AO
                                X                 Y                 Z
Electronic contribution:    -19.930217819       1.878498837      -7.959288722
Nuclear contribution   :     21.350506268      -2.468213728       9.690710945
                        -----------------------------------------
Total Dipole Moment    :      1.420288449      -0.589714892       1.731422223
                        -----------------------------------------
Magnitude (a.u.)       :      2.315773272
Magnitude (Debye)      :      5.886227871

Rotational constants in cm-1:             0.017518             0.005539             0.004869
Rotational constants in MHz :           525.175092           166.047495           145.958651

                             ****ORCA TERMINATED NORMALLY****
TOTAL RUN TIME: 0 days 0 hours 0 minutes 29 seconds 854 msec
