                         Program Version 6.0.0  -   RELEASE  -
|  1> ! pbe def2-sv(p) def2/J RI DEFGRID1 loosescf d4 GCP(DFT/SV(P)) printgap
|  2> %output
|  3>     printlevel normal
|  4> end
|  5> * xyz 0 1
|  6> C 5.2731780378 0.0969326515 1.2024691296
|  7> C 4.3989583383 0.8704446457 0.2353577828
|  8> O 3.560363851 -0.0001333699 -0.5483057501
|  9> P 2.1831277439 -0.6085638625 -0.0393013859
| 10> S 2.2489137886 -1.880418626 1.450506404
| 11> O 1.6391100503 -1.3060308132 -1.3429208132
| 12> C 1.9385323954 -0.9145286263 -2.7067384066
| 13> C 1.5374487049 0.5106139478 -3.020883565
| 14> S 0.994066078 1.1221137729 0.3454349684
| 15> C 0.0489131349 0.492727984 1.7525327652
| 16> S -1.1203565052 -0.8280654665 1.3297443219
| 17> P -2.4336815294 0.2567628775 0.050325631
| 18> S -1.9730578605 0.4884432525 -1.8421214764
| 19> O -2.6778995198 1.6078573017 0.8351219124
| 20> C -2.6519748968 2.9231378717 0.2389126622
| 21> C -1.5275752406 3.7513195081 0.8280111237
| 22> O -3.8275610312 -0.4623676219 0.3116483235
| 23> C -4.0366463763 -1.8835989066 0.3433395631
| 24> C -3.4617275616 -2.5905357662 -0.8675487297
| 25> H 4.6622527427 -0.4269341552 1.9340203732
| 26> H 5.8703737671 -0.634896155 0.6651817566
| 27> H 5.9317156652 0.7881964309 1.7184245885
| 28> H 5.0027199518 1.3922099424 -0.5099911735
| 29> H 3.767448646 1.5904690059 0.7636060374
| 30> H 3.0075663054 -1.0660213427 -2.868286685
| 31> H 1.3647027794 -1.628081898 -3.2998831256
| 32> H 1.7507356214 0.7120000565 -4.0658897121
| 33> H 0.4739963933 0.6569577276 -2.8457888006
| 34> H 2.0961460669 1.21164209 -2.4039953412
| 35> H -0.4888738565 1.3355718616 2.1788892828
| 36> H 0.7304237875 0.0423332263 2.4747588781
| 37> H -2.5374601601 2.8192454715 -0.845461717
| 38> H -3.6267042704 3.3600342133 0.4628242587
| 39> H -1.5878275927 4.7571579152 0.4253280379
| 40> H -1.619214656 3.7958283744 1.9098298417
| 41> H -0.5612341512 3.3245516389 0.5644045373
| 42> H -3.5925632803 -2.2743030077 1.2638585604
| 43> H -5.1227240112 -1.9840412677 0.3854774633
| 44> H -3.7204786116 -3.6438654918 -0.8286289138
| 45> H -3.8551964887 -2.1552159915 -1.7834802989
| 46> H -2.3752747729 -2.4948593447 -0.8762718271
| 47> *
| 48>
| 49>                          ****END OF INPUT****

CARTESIAN COORDINATES (ANGSTROEM)
---------------------------------
  C      5.273178    0.096933    1.202469
  C      4.398958    0.870445    0.235358
  O      3.560364   -0.000133   -0.548306
  P      2.183128   -0.608564   -0.039301
  S      2.248914   -1.880419    1.450506
  O      1.639110   -1.306031   -1.342921
  C      1.938532   -0.914529   -2.706738
  C      1.537449    0.510614   -3.020884
  S      0.994066    1.122114    0.345435
  C      0.048913    0.492728    1.752533
  S     -1.120357   -0.828065    1.329744
  P     -2.433682    0.256763    0.050326
  S     -1.973058    0.488443   -1.842121
  O     -2.677900    1.607857    0.835122
  C     -2.651975    2.923138    0.238913
  C     -1.527575    3.751320    0.828011
  O     -3.827561   -0.462368    0.311648
  C     -4.036646   -1.883599    0.343340
  C     -3.461728   -2.590536   -0.867549
  H      4.662253   -0.426934    1.934020
  H      5.870374   -0.634896    0.665182
  H      5.931716    0.788196    1.718425
  H      5.002720    1.392210   -0.509991
  H      3.767449    1.590469    0.763606
  H      3.007566   -1.066021   -2.868287
  H      1.364703   -1.628082   -3.299883
  H      1.750736    0.712000   -4.065890
  H      0.473996    0.656958   -2.845789
  H      2.096146    1.211642   -2.403995
  H     -0.488874    1.335572    2.178889
  H      0.730424    0.042333    2.474759
  H     -2.537460    2.819245   -0.845462
  H     -3.626704    3.360034    0.462824
  H     -1.587828    4.757158    0.425328
  H     -1.619215    3.795828    1.909830
  H     -0.561234    3.324552    0.564405
  H     -3.592563   -2.274303    1.263859
  H     -5.122724   -1.984041    0.385477
  H     -3.720479   -3.643865   -0.828629
  H     -3.855196   -2.155216   -1.783480
  H     -2.375275   -2.494859   -0.876272

 Total Charge           Charge          ....    0
 Multiplicity           Mult            ....    1
 Number of Electrons    NEL             ....  202
 Basis Dimension        Dim             ....  334

ORBITAL ENERGIES
----------------

  NO   OCC          E(Eh)            E(eV)
   0   2.0000     -88.044822     -2395.8214
   1   2.0000     -88.039111     -2395.6660
   2   2.0000     -87.984132     -2394.1700
   3   2.0000     -87.981410     -2394.0959
   4   2.0000     -76.427481     -2079.6975
   5   2.0000     -76.424613     -2079.6194
   6   2.0000     -18.798066      -511.5214
   7   2.0000     -18.792557      -511.3715
   8   2.0000     -18.786927      -511.2183
   9   2.0000     -18.784851      -511.1618
  10   2.0000      -9.958462      -270.9835
  11   2.0000      -9.957470      -270.9565
  12   2.0000      -9.953965      -270.8612
  13   2.0000      -9.951802      -270.8023
  14   2.0000      -9.950589      -270.7693
  15   2.0000      -9.889699      -269.1124
  16   2.0000      -9.882397      -268.9137
  17   2.0000      -9.880348      -268.8579
  18   2.0000      -9.877472      -268.7797
  19   2.0000      -7.689036      -209.2293
  20   2.0000      -7.683990      -209.0920
  21   2.0000      -7.629289      -207.6035
  22   2.0000      -7.626333      -207.5231
  23   2.0000      -6.424626      -174.8230
  24   2.0000      -6.421902      -174.7488
  25   2.0000      -5.716856      -155.5635
  26   2.0000      -5.713502      -155.4723
  27   2.0000      -5.712070      -155.4333
  28   2.0000      -5.708496      -155.3361
  29   2.0000      -5.706246      -155.2748
  30   2.0000      -5.700805      -155.1268
  31   2.0000      -5.658353      -153.9716
  32   2.0000      -5.655050      -153.8817
  33   2.0000      -5.649604      -153.7335
  34   2.0000      -5.649565      -153.7325
  35   2.0000      -5.646986      -153.6623
  36   2.0000      -5.646641      -153.6529
  37   2.0000      -4.647623      -126.4683
  38   2.0000      -4.646358      -126.4338
  39   2.0000      -4.644813      -126.3918
  40   2.0000      -4.644624      -126.3866
  41   2.0000      -4.643991      -126.3694
  42   2.0000      -4.641946      -126.3138
  43   2.0000      -0.988798       -26.9066
  44   2.0000      -0.984234       -26.7824
  45   2.0000      -0.943368       -25.6704
  46   2.0000      -0.942710       -25.6525
  47   2.0000      -0.762936       -20.7605
  48   2.0000      -0.720463       -19.6048
  49   2.0000      -0.710351       -19.3296
  50   2.0000      -0.689652       -18.7664
  51   2.0000      -0.685853       -18.6630
  52   2.0000      -0.673579       -18.3290
  53   2.0000      -0.650916       -17.7123
  54   2.0000      -0.637646       -17.3512
  55   2.0000      -0.594722       -16.1832
  56   2.0000      -0.589911       -16.0523
  57   2.0000      -0.578560       -15.7434
  58   2.0000      -0.572358       -15.5747
  59   2.0000      -0.564425       -15.3588
  60   2.0000      -0.501856       -13.6562
  61   2.0000      -0.498186       -13.5563
  62   2.0000      -0.471773       -12.8376
  63   2.0000      -0.468897       -12.7593
  64   2.0000      -0.460938       -12.5428
  65   2.0000      -0.448107       -12.1936
  66   2.0000      -0.436347       -11.8736
  67   2.0000      -0.433554       -11.7976
  68   2.0000      -0.423776       -11.5315
  69   2.0000      -0.417706       -11.3663
  70   2.0000      -0.413832       -11.2609
  71   2.0000      -0.401921       -10.9368
  72   2.0000      -0.395733       -10.7684
  73   2.0000      -0.387082       -10.5330
  74   2.0000      -0.383143       -10.4258
  75   2.0000      -0.377113       -10.2618
  76   2.0000      -0.363380        -9.8881
  77   2.0000      -0.354249        -9.6396
  78   2.0000      -0.351284        -9.5589
  79   2.0000      -0.348057        -9.4711
  80   2.0000      -0.343613        -9.3502
  81   2.0000      -0.342403        -9.3172
  82   2.0000      -0.340316        -9.2605
  83   2.0000      -0.337461        -9.1828
  84   2.0000      -0.333216        -9.0673
  85   2.0000      -0.326477        -8.8839
  86   2.0000      -0.308854        -8.4044
  87   2.0000      -0.298938        -8.1345
  88   2.0000      -0.295186        -8.0324
  89   2.0000      -0.288210        -7.8426
  90   2.0000      -0.285584        -7.7711
  91   2.0000      -0.277188        -7.5427
  92   2.0000      -0.276238        -7.5168
  93   2.0000      -0.261717        -7.1217
  94   2.0000      -0.253289        -6.8923
  95   2.0000      -0.239880        -6.5275
  96   2.0000      -0.216646        -5.8953
  97   2.0000      -0.203629        -5.5410
  98   2.0000      -0.200492        -5.4557
  99   2.0000      -0.196072        -5.3354
 100   2.0000      -0.189641        -5.1604
 101   0.0000      -0.048477        -1.3191
 102   0.0000      -0.026537        -0.7221
 103   0.0000      -0.016969        -0.4617
 104   0.0000      -0.004241        -0.1154
 105   0.0000       0.014976         0.4075

MULLIKEN ATOMIC CHARGES
-----------------------
   0 C :   -0.296545
   1 C :   -0.010797
   2 O :   -0.383109
   3 P :    0.637217
   4 S :   -0.312866
   5 O :   -0.358319
   6 C :    0.016688
   7 C :   -0.347620
   8 S :   -0.119742
   9 C :   -0.351630
  10 S :   -0.085127
  11 P :    0.603685
  12 S :   -0.325261
  13 O :   -0.368521
  14 C :   -0.006903
  15 C :   -0.316850
  16 O :   -0.366022
  17 C :   -0.012265
  18 C :   -0.319153
  19 H :    0.129373
  20 H :    0.116093
  21 H :    0.107382
  22 H :    0.105817
  23 H :    0.101569
  24 H :    0.105333
  25 H :    0.111164
  26 H :    0.108406
  27 H :    0.159272
  28 H :    0.111817
  29 H :    0.190219
  30 H :    0.189976
  31 H :    0.115241
  32 H :    0.106368
  33 H :    0.114515
  34 H :    0.119245
  35 H :    0.131898
  36 H :    0.115852
  37 H :    0.109925
  38 H :    0.112463
  39 H :    0.127021
  40 H :    0.134192
Sum of atomic charges:    0.0000000

LOEWDIN ATOMIC CHARGES
----------------------
   0 C :   -0.365796
   1 C :   -0.117310
   2 O :   -0.243332
   3 P :    0.574139
   4 S :   -0.302932
   5 O :   -0.232410
   6 C :   -0.103993
   7 C :   -0.377986
   8 S :    0.079682
   9 C :   -0.480126
  10 S :    0.084389
  11 P :    0.567086
  12 S :   -0.306403
  13 O :   -0.241410
  14 C :   -0.118629
  15 C :   -0.362235
  16 O :   -0.244935
  17 C :   -0.117001
  18 C :   -0.371252
  19 H :    0.123084
  20 H :    0.127592
  21 H :    0.128740
  22 H :    0.118258
  23 H :    0.103036
  24 H :    0.112714
  25 H :    0.124470
  26 H :    0.130601
  27 H :    0.122549
  28 H :    0.113377
  29 H :    0.132368
  30 H :    0.129820
  31 H :    0.107689
  32 H :    0.118228
  33 H :    0.133270
  34 H :    0.124452
  35 H :    0.116054
  36 H :    0.108982
  37 H :    0.122000
  38 H :    0.130420
  39 H :    0.129536
  40 H :    0.123218

  Mayer bond orders larger than 0.100000
B(  0-C ,  1-C ) :   1.1677 B(  0-C , 19-H ) :   0.9297 B(  0-C , 20-H ) :   0.9472
B(  0-C , 21-H ) :   0.9380 B(  1-C ,  2-O ) :   0.9080 B(  1-C , 22-H ) :   0.9353
B(  1-C , 23-H ) :   0.9139 B(  2-O ,  3-P ) :   1.0751 B(  3-P ,  4-S ) :   1.6401
B(  3-P ,  5-O ) :   1.1547 B(  3-P ,  8-S ) :   0.9289 B(  4-S ,  8-S ) :   0.1119
B(  5-O ,  6-C ) :   0.8919 B(  6-C ,  7-C ) :   1.1711 B(  6-C , 24-H ) :   0.9312
B(  6-C , 25-H ) :   0.9323 B(  7-C , 26-H ) :   0.9343 B(  7-C , 27-H ) :   0.9166
B(  7-C , 28-H ) :   0.9387 B(  8-S ,  9-C ) :   1.0138 B(  9-C , 10-S ) :   1.0112
B(  9-C , 29-H ) :   0.8915 B(  9-C , 30-H ) :   0.8774 B( 10-S , 11-P ) :   0.9464
B( 10-S , 12-S ) :   0.1060 B( 11-P , 12-S ) :   1.6263 B( 11-P , 13-O ) :   1.1162
B( 11-P , 16-O ) :   1.1162 B( 13-O , 14-C ) :   0.9052 B( 14-C , 15-C ) :   1.1663
B( 14-C , 31-H ) :   0.8955 B( 14-C , 32-H ) :   0.9327 B( 15-C , 33-H ) :   0.9375
B( 15-C , 34-H ) :   0.9433 B( 15-C , 35-H ) :   0.9313 B( 16-O , 17-C ) :   0.9212
B( 17-C , 18-C ) :   1.1631 B( 17-C , 36-H ) :   0.9232 B( 17-C , 37-H ) :   0.9340
B( 18-C , 38-H ) :   0.9349 B( 18-C , 39-H ) :   0.9412 B( 18-C , 40-H ) :   0.9334

Dispersion correction           -0.065968498
FINAL SINGLE POINT ENERGY     -2929.512864070444

DIPOLE MOMENT
-------------

Method             : SCF
Type of density    : Electron Density
Multiplicity       :   1
Irrep              :   0
Energy             : -2929.6318137743678562 Eh
Relativity type    :
Basis              : AO
                                X                 Y                 Z
Electronic contribution:     -5.181433941      -8.135377333       5.218300988
Nuclear contribution   :      5.426313752       9.235711238      -5.294037708
                        -----------------------------------------
Total Dipole Moment    :      0.244879811       1.100333904      -0.075736720
                        -----------------------------------------
Magnitude (a.u.)       :      1.129795058
Magnitude (Debye)      :      2.871710819

Rotational constants in cm-1:             0.011794             0.005154             0.004908
Rotational constants in MHz :           353.561036           154.525491           147.132086

                             ****ORCA TERMINATED NORMALLY****
TOTAL RUN TIME: 0 days 0 hours 0 minutes 21 seconds 127 msec
