                         Program Version 6.0.0  -   RELEASE  -
|  1> ! r2scan-3c def2/J RI DEFGRID2 scfconv6 printgap
|  2> %output
|  3>     printlevel normal
|  4> end
|  5> * xyz 0 1
|  6> C 3.1924136116 2.3482936468 -1.3911031121
|  7> C 3.8910770826 1.8154157932 -0.1565343646
|  8> O 3.6133787085 0.4216105301 0.0464230829
|  9> P 2.1690617835 -0.0965943566 0.4699655119
| 10> S 1.3109367231 1.0465046436 1.8172677588
| 11> O 2.4541221442 -1.5938940912 0.8930407409
| 12> C 2.698246075 -1.9609959522 2.267654197
| 13> C 4.0429325513 -1.4580888473 2.7478361341
| 14> S 1.2418523889 -0.4655085933 -1.4082843741
| 15> C 0.2085444441 -1.8949548137 -0.9824511481
| 16> S -0.8966627102 -1.5936945839 0.4239211199
| 17> P -2.0495458254 -0.0857612689 -0.5012964358
| 18> S -2.4253216821 -0.340259505 -2.4109186698
| 19> O -1.2445127117 1.2100443125 -0.0990226292
| 20> C -1.3358241022 2.4448614418 -0.8382552931
| 21> C -2.7147596272 3.0587568238 -0.7322056947
| 22> O -3.3284303546 0.015202096 0.4315256783
| 23> C -4.4250286353 -0.9160533249 0.3243359077
| 24> C -5.6597273503 -0.2540681643 0.9019556148
| 25> H 2.1117562919 2.2824158495 -1.2573859802
| 26> H 3.4672068991 3.3863659995 -1.5474138769
| 27> H 3.4671422737 1.7629902886 -2.2648528563
| 28> H 3.5710027186 2.365643469 0.7349865015
| 29> H 4.9764197678 1.86021274 -0.2533214058
| 30> H 1.8885850897 -1.5567930327 2.883872605
| 31> H 2.649324684 -3.0505814562 2.2603668115
| 32> H 4.2338671466 -1.8381435678 3.7464751686
| 33> H 4.8296433257 -1.7895565142 2.0753819377
| 34> H 4.0401410162 -0.3692585949 2.7772303048
| 35> H 0.8374687988 -2.7404847904 -0.7180115412
| 36> H -0.3867601719 -2.1021519724 -1.8727238794
| 37> H -0.5727788283 3.0755124903 -0.3782434315
| 38> H -1.0757482635 2.2414293373 -1.8825016719
| 39> H -2.9887790604 3.1822791017 0.3123504314
| 40> H -2.7184807013 4.024867121 -1.2269501696
| 41> H -3.4437979035 2.4086184726 -1.215180361
| 42> H -4.5633405211 -1.1722166742 -0.7317157213
| 43> H -4.1582245566 -1.8185843677 0.8805388037
| 44> H -6.4871390864 -0.9551601647 0.8685657028
| 45> H -5.4747006514 0.0375365041 1.9317274518
| 46> H -5.9161240457 0.630806611 0.3262777619
| 47> *
| 48>
| 49>                          ****END OF INPUT****

CARTESIAN COORDINATES (ANGSTROEM)
---------------------------------
  C      3.192414    2.348294   -1.391103
  C      3.891077    1.815416   -0.156534
  O      3.613379    0.421611    0.046423
  P      2.169062   -0.096594    0.469966
  S      1.310937    1.046505    1.817268
  O      2.454122   -1.593894    0.893041
  C      2.698246   -1.960996    2.267654
  C      4.042933   -1.458089    2.747836
  S      1.241852   -0.465509   -1.408284
  C      0.208544   -1.894955   -0.982451
  S     -0.896663   -1.593695    0.423921
  P     -2.049546   -0.085761   -0.501296
  S     -2.425322   -0.340260   -2.410919
  O     -1.244513    1.210044   -0.099023
  C     -1.335824    2.444861   -0.838255
  C     -2.714760    3.058757   -0.732206
  O     -3.328430    0.015202    0.431526
  C     -4.425029   -0.916053    0.324336
  C     -5.659727   -0.254068    0.901956
  H      2.111756    2.282416   -1.257386
  H      3.467207    3.386366   -1.547414
  H      3.467142    1.762990   -2.264853
  H      3.571003    2.365643    0.734987
  H      4.976420    1.860213   -0.253321
  H      1.888585   -1.556793    2.883873
  H      2.649325   -3.050581    2.260367
  H      4.233867   -1.838144    3.746475
  H      4.829643   -1.789557    2.075382
  H      4.040141   -0.369259    2.777230
  H      0.837469   -2.740485   -0.718012
  H     -0.386760   -2.102152   -1.872724
  H     -0.572779    3.075512   -0.378243
  H     -1.075748    2.241429   -1.882502
  H     -2.988779    3.182279    0.312350
  H     -2.718481    4.024867   -1.226950
  H     -3.443798    2.408618   -1.215180
  H     -4.563341   -1.172217   -0.731716
  H     -4.158225   -1.818584    0.880539
  H     -6.487139   -0.955160    0.868566
  H     -5.474701    0.037537    1.931727
  H     -5.916124    0.630807    0.326278

 Total Charge           Charge          ....    0
 Multiplicity           Mult            ....    1
 Number of Electrons    NEL             ....  202
 Basis Dimension        Dim             ....  539

ORBITAL ENERGIES
----------------

  NO   OCC          E(Eh)            E(eV)
   0   2.0000     -88.572755     -2410.1872
   1   2.0000     -88.570205     -2410.1178
   2   2.0000     -88.517254     -2408.6769
   3   2.0000     -88.513198     -2408.5666
   4   2.0000     -76.910849     -2092.8506
   5   2.0000     -76.910249     -2092.8343
   6   2.0000     -18.992175      -516.8034
   7   2.0000     -18.990552      -516.7592
   8   2.0000     -18.988082      -516.6920
   9   2.0000     -18.982352      -516.5361
  10   2.0000     -10.105200      -274.9765
  11   2.0000     -10.097914      -274.7782
  12   2.0000     -10.097208      -274.7590
  13   2.0000     -10.096890      -274.7503
  14   2.0000     -10.091346      -274.5995
  15   2.0000     -10.031939      -272.9829
  16   2.0000     -10.031326      -272.9663
  17   2.0000     -10.027877      -272.8724
  18   2.0000     -10.023590      -272.7557
  19   2.0000      -7.867132      -214.0755
  20   2.0000      -7.864525      -214.0046
  21   2.0000      -7.812152      -212.5795
  22   2.0000      -7.807896      -212.4637
  23   2.0000      -6.589260      -179.3029
  24   2.0000      -6.588858      -179.2920
  25   2.0000      -5.814015      -158.2074
  26   2.0000      -5.811763      -158.1461
  27   2.0000      -5.811014      -158.1257
  28   2.0000      -5.808261      -158.0508
  29   2.0000      -5.804207      -157.9405
  30   2.0000      -5.801383      -157.8637
  31   2.0000      -5.759695      -156.7293
  32   2.0000      -5.755575      -156.6172
  33   2.0000      -5.752507      -156.5337
  34   2.0000      -5.752154      -156.5241
  35   2.0000      -5.748379      -156.4214
  36   2.0000      -5.747697      -156.4028
  37   2.0000      -4.734891      -128.8429
  38   2.0000      -4.734295      -128.8267
  39   2.0000      -4.734197      -128.8240
  40   2.0000      -4.733781      -128.8127
  41   2.0000      -4.732741      -128.7844
  42   2.0000      -4.732736      -128.7843
  43   2.0000      -1.049168       -28.5493
  44   2.0000      -1.046100       -28.4658
  45   2.0000      -1.011524       -27.5250
  46   2.0000      -1.006906       -27.3993
  47   2.0000      -0.799216       -21.7478
  48   2.0000      -0.756395       -20.5826
  49   2.0000      -0.747062       -20.3286
  50   2.0000      -0.731679       -19.9100
  51   2.0000      -0.728880       -19.8338
  52   2.0000      -0.705852       -19.2072
  53   2.0000      -0.683451       -18.5977
  54   2.0000      -0.666318       -18.1314
  55   2.0000      -0.630178       -17.1480
  56   2.0000      -0.623779       -16.9739
  57   2.0000      -0.605863       -16.4864
  58   2.0000      -0.597733       -16.2651
  59   2.0000      -0.590295       -16.0628
  60   2.0000      -0.526042       -14.3143
  61   2.0000      -0.516751       -14.0615
  62   2.0000      -0.493676       -13.4336
  63   2.0000      -0.490704       -13.3527
  64   2.0000      -0.475010       -12.9257
  65   2.0000      -0.460886       -12.5414
  66   2.0000      -0.456837       -12.4312
  67   2.0000      -0.450081       -12.2473
  68   2.0000      -0.441853       -12.0234
  69   2.0000      -0.431793       -11.7497
  70   2.0000      -0.422562       -11.4985
  71   2.0000      -0.411056       -11.1854
  72   2.0000      -0.408378       -11.1125
  73   2.0000      -0.405539       -11.0353
  74   2.0000      -0.393253       -10.7010
  75   2.0000      -0.387732       -10.5507
  76   2.0000      -0.384620       -10.4661
  77   2.0000      -0.373189       -10.1550
  78   2.0000      -0.371141       -10.0993
  79   2.0000      -0.366830        -9.9820
  80   2.0000      -0.362443        -9.8626
  81   2.0000      -0.359527        -9.7832
  82   2.0000      -0.355971        -9.6865
  83   2.0000      -0.353177        -9.6104
  84   2.0000      -0.343055        -9.3350
  85   2.0000      -0.331719        -9.0265
  86   2.0000      -0.318993        -8.6802
  87   2.0000      -0.312978        -8.5166
  88   2.0000      -0.308589        -8.3971
  89   2.0000      -0.299969        -8.1626
  90   2.0000      -0.295571        -8.0429
  91   2.0000      -0.287618        -7.8265
  92   2.0000      -0.284909        -7.7528
  93   2.0000      -0.274844        -7.4789
  94   2.0000      -0.274275        -7.4634
  95   2.0000      -0.247040        -6.7223
  96   2.0000      -0.228339        -6.2134
  97   2.0000      -0.219800        -5.9811
  98   2.0000      -0.215950        -5.8763
  99   2.0000      -0.207236        -5.6392
 100   2.0000      -0.202389        -5.5073
 101   0.0000      -0.047370        -1.2890
 102   0.0000      -0.021563        -0.5867
 103   0.0000      -0.014234        -0.3873
 104   0.0000       0.010520         0.2863
 105   0.0000       0.019063         0.5187

MULLIKEN ATOMIC CHARGES
-----------------------
   0 C :   -0.470749
   1 C :   -0.146220
   2 O :   -0.290531
   3 P :    0.730173
   4 S :   -0.461081
   5 O :   -0.337464
   6 C :   -0.150989
   7 C :   -0.445526
   8 S :   -0.148456
   9 C :   -0.191870
  10 S :   -0.155685
  11 P :    0.719772
  12 S :   -0.497138
  13 O :   -0.241631
  14 C :   -0.167734
  15 C :   -0.453638
  16 O :   -0.286596
  17 C :   -0.154218
  18 C :   -0.441418
  19 H :    0.168239
  20 H :    0.151213
  21 H :    0.164865
  22 H :    0.175667
  23 H :    0.148138
  24 H :    0.176968
  25 H :    0.146889
  26 H :    0.146760
  27 H :    0.155487
  28 H :    0.171716
  29 H :    0.187212
  30 H :    0.210085
  31 H :    0.160827
  32 H :    0.174085
  33 H :    0.159307
  34 H :    0.145723
  35 H :    0.168644
  36 H :    0.171561
  37 H :    0.150815
  38 H :    0.146381
  39 H :    0.155330
  40 H :    0.155085
Sum of atomic charges:    0.0000000

LOEWDIN ATOMIC CHARGES
----------------------
   0 C :   -0.405275
   1 C :    0.016219
   2 O :   -0.667124
   3 P :    0.390086
   4 S :   -0.098705
   5 O :   -0.683367
   6 C :    0.021043
   7 C :   -0.399189
   8 S :    0.169379
   9 C :   -0.412772
  10 S :    0.168419
  11 P :    0.375893
  12 S :   -0.138663
  13 O :   -0.675302
  14 C :    0.015796
  15 C :   -0.400603
  16 O :   -0.660720
  17 C :    0.019891
  18 C :   -0.386041
  19 H :    0.163889
  20 H :    0.160309
  21 H :    0.161830
  22 H :    0.179988
  23 H :    0.179526
  24 H :    0.182254
  25 H :    0.178209
  26 H :    0.159557
  27 H :    0.160884
  28 H :    0.166533
  29 H :    0.183951
  30 H :    0.192108
  31 H :    0.183736
  32 H :    0.179955
  33 H :    0.161768
  34 H :    0.158836
  35 H :    0.164771
  36 H :    0.180952
  37 H :    0.171589
  38 H :    0.159731
  39 H :    0.160570
  40 H :    0.160089

  Mayer bond orders larger than 0.100000
B(  0-C ,  1-C ) :   0.9096 B(  0-C , 19-H ) :   0.9646 B(  0-C , 20-H ) :   0.9589
B(  0-C , 21-H ) :   0.9680 B(  1-C ,  2-O ) :   0.8179 B(  1-C , 22-H ) :   0.9657
B(  1-C , 23-H ) :   0.9555 B(  2-O ,  3-P ) :   1.0693 B(  3-P ,  4-S ) :   1.7594
B(  3-P ,  5-O ) :   1.1582 B(  3-P ,  8-S ) :   1.0493 B(  5-O ,  6-C ) :   0.8004
B(  6-C ,  7-C ) :   0.9315 B(  6-C , 24-H ) :   0.9618 B(  6-C , 25-H ) :   0.9598
B(  7-C , 26-H ) :   0.9623 B(  7-C , 27-H ) :   0.9707 B(  7-C , 28-H ) :   0.9592
B(  8-S ,  9-C ) :   0.8937 B(  9-C , 10-S ) :   0.9144 B(  9-C , 29-H ) :   0.9166
B(  9-C , 30-H ) :   0.9101 B( 10-S , 11-P ) :   1.0563 B( 11-P , 12-S ) :   1.7246
B( 11-P , 13-O ) :   1.1858 B( 11-P , 16-O ) :   1.0909 B( 13-O , 14-C ) :   0.7793
B( 14-C , 15-C ) :   0.9228 B( 14-C , 31-H ) :   0.9576 B( 14-C , 32-H ) :   0.9656
B( 15-C , 33-H ) :   0.9720 B( 15-C , 34-H ) :   0.9618 B( 15-C , 35-H ) :   0.9612
B( 16-O , 17-C ) :   0.7762 B( 17-C , 18-C ) :   0.9582 B( 17-C , 36-H ) :   0.9530
B( 17-C , 37-H ) :   0.9470 B( 18-C , 38-H ) :   0.9647 B( 18-C , 39-H ) :   0.9714
B( 18-C , 40-H ) :   0.9710

Dispersion correction           -0.021696758
FINAL SINGLE POINT ENERGY     -2932.458931500390

DIPOLE MOMENT
-------------

Method             : SCF
Type of density    : Electron Density
Multiplicity       :   1
Irrep              :   0
Energy             : -2932.4836216257453998 Eh
Relativity type    :
Basis              : AO
                                X                 Y                 Z
Electronic contribution:      1.955758074      -9.495918696      -4.755134554
Nuclear contribution   :     -1.669771932       9.458650019       5.205053095
                        -----------------------------------------
Total Dipole Moment    :      0.285986142      -0.037268678       0.449918540
                        -----------------------------------------
Magnitude (a.u.)       :      0.534419049
Magnitude (Debye)      :      1.358385271

Rotational constants in cm-1:             0.012788             0.005105             0.004637
Rotational constants in MHz :           383.366720           153.050125           139.014967

                             ****ORCA TERMINATED NORMALLY****
TOTAL RUN TIME: 0 days 0 hours 1 minutes 19 seconds 263 msec
