                         Program Version 6.0.0  -   RELEASE  -
|  1> ! r2scan-3c def2/J RI DEFGRID2 scfconv6 printgap
|  2> %output
|  3>     printlevel normal
|  4> end
|  5> %cpcm
|  6>     smd true
|  7>     smdsolvent "water"
|  8> end
|  9> * xyz 0 1
| 10> C 3.1924136116 2.3482936468 -1.3911031121
| 11> C 3.8910770826 1.8154157932 -0.1565343646
| 12> O 3.6133787085 0.4216105301 0.0464230829
| 13> P 2.1690617835 -0.0965943566 0.4699655119
| 14> S 1.3109367231 1.0465046436 1.8172677588
| 15> O 2.4541221442 -1.5938940912 0.8930407409
| 16> C 2.698246075 -1.9609959522 2.267654197
| 17> C 4.0429325513 -1.4580888473 2.7478361341
| 18> S 1.2418523889 -0.4655085933 -1.4082843741
| 19> C 0.2085444441 -1.8949548137 -0.9824511481
| 20> S -0.8966627102 -1.5936945839 0.4239211199
| 21> P -2.0495458254 -0.0857612689 -0.5012964358
| 22> S -2.4253216821 -0.340259505 -2.4109186698
| 23> O -1.2445127117 1.2100443125 -0.0990226292
| 24> C -1.3358241022 2.4448614418 -0.8382552931
| 25> C -2.7147596272 3.0587568238 -0.7322056947
| 26> O -3.3284303546 0.015202096 0.4315256783
| 27> C -4.4250286353 -0.9160533249 0.3243359077
| 28> C -5.6597273503 -0.2540681643 0.9019556148
| 29> H 2.1117562919 2.2824158495 -1.2573859802
| 30> H 3.4672068991 3.3863659995 -1.5474138769
| 31> H 3.4671422737 1.7629902886 -2.2648528563
| 32> H 3.5710027186 2.365643469 0.7349865015
| 33> H 4.9764197678 1.86021274 -0.2533214058
| 34> H 1.8885850897 -1.5567930327 2.883872605
| 35> H 2.649324684 -3.0505814562 2.2603668115
| 36> H 4.2338671466 -1.8381435678 3.7464751686
| 37> H 4.8296433257 -1.7895565142 2.0753819377
| 38> H 4.0401410162 -0.3692585949 2.7772303048
| 39> H 0.8374687988 -2.7404847904 -0.7180115412
| 40> H -0.3867601719 -2.1021519724 -1.8727238794
| 41> H -0.5727788283 3.0755124903 -0.3782434315
| 42> H -1.0757482635 2.2414293373 -1.8825016719
| 43> H -2.9887790604 3.1822791017 0.3123504314
| 44> H -2.7184807013 4.024867121 -1.2269501696
| 45> H -3.4437979035 2.4086184726 -1.215180361
| 46> H -4.5633405211 -1.1722166742 -0.7317157213
| 47> H -4.1582245566 -1.8185843677 0.8805388037
| 48> H -6.4871390864 -0.9551601647 0.8685657028
| 49> H -5.4747006514 0.0375365041 1.9317274518
| 50> H -5.9161240457 0.630806611 0.3262777619
| 51> *
| 52>
| 53>                          ****END OF INPUT****

CARTESIAN COORDINATES (ANGSTROEM)
---------------------------------
  C      3.192414    2.348294   -1.391103
  C      3.891077    1.815416   -0.156534
  O      3.613379    0.421611    0.046423
  P      2.169062   -0.096594    0.469966
  S      1.310937    1.046505    1.817268
  O      2.454122   -1.593894    0.893041
  C      2.698246   -1.960996    2.267654
  C      4.042933   -1.458089    2.747836
  S      1.241852   -0.465509   -1.408284
  C      0.208544   -1.894955   -0.982451
  S     -0.896663   -1.593695    0.423921
  P     -2.049546   -0.085761   -0.501296
  S     -2.425322   -0.340260   -2.410919
  O     -1.244513    1.210044   -0.099023
  C     -1.335824    2.444861   -0.838255
  C     -2.714760    3.058757   -0.732206
  O     -3.328430    0.015202    0.431526
  C     -4.425029   -0.916053    0.324336
  C     -5.659727   -0.254068    0.901956
  H      2.111756    2.282416   -1.257386
  H      3.467207    3.386366   -1.547414
  H      3.467142    1.762990   -2.264853
  H      3.571003    2.365643    0.734987
  H      4.976420    1.860213   -0.253321
  H      1.888585   -1.556793    2.883873
  H      2.649325   -3.050581    2.260367
  H      4.233867   -1.838144    3.746475
  H      4.829643   -1.789557    2.075382
  H      4.040141   -0.369259    2.777230
  H      0.837469   -2.740485   -0.718012
  H     -0.386760   -2.102152   -1.872724
  H     -0.572779    3.075512   -0.378243
  H     -1.075748    2.241429   -1.882502
  H     -2.988779    3.182279    0.312350
  H     -2.718481    4.024867   -1.226950
  H     -3.443798    2.408618   -1.215180
  H     -4.563341   -1.172217   -0.731716
  H     -4.158225   -1.818584    0.880539
  H     -6.487139   -0.955160    0.868566
  H     -5.474701    0.037537    1.931727
  H     -5.916124    0.630807    0.326278

 Total Charge           Charge          ....    0
 Multiplicity           Mult            ....    1
 Number of Electrons    NEL             ....  202
 Basis Dimension        Dim             ....  539

ORBITAL ENERGIES
----------------

  NO   OCC          E(Eh)            E(eV)
   0   2.0000     -88.578175     -2410.3347
   1   2.0000     -88.575393     -2410.2590
   2   2.0000     -88.526333     -2408.9240
   3   2.0000     -88.521243     -2408.7855
   4   2.0000     -76.917263     -2093.0251
   5   2.0000     -76.916829     -2093.0133
   6   2.0000     -18.995294      -516.8882
   7   2.0000     -18.994598      -516.8693
   8   2.0000     -18.992215      -516.8045
   9   2.0000     -18.988594      -516.7059
  10   2.0000     -10.104438      -274.9557
  11   2.0000     -10.089979      -274.5623
  12   2.0000     -10.089330      -274.5446
  13   2.0000     -10.088674      -274.5268
  14   2.0000     -10.088338      -274.5176
  15   2.0000     -10.020737      -272.6781
  16   2.0000     -10.019569      -272.6463
  17   2.0000     -10.018391      -272.6143
  18   2.0000     -10.018118      -272.6069
  19   2.0000      -7.872537      -214.2226
  20   2.0000      -7.869736      -214.1464
  21   2.0000      -7.821501      -212.8339
  22   2.0000      -7.816242      -212.6908
  23   2.0000      -6.595956      -179.4851
  24   2.0000      -6.595284      -179.4668
  25   2.0000      -5.819386      -158.3536
  26   2.0000      -5.816931      -158.2867
  27   2.0000      -5.816407      -158.2725
  28   2.0000      -5.813425      -158.1913
  29   2.0000      -5.809673      -158.0892
  30   2.0000      -5.806692      -158.0081
  31   2.0000      -5.768990      -156.9822
  32   2.0000      -5.763868      -156.8428
  33   2.0000      -5.761825      -156.7872
  34   2.0000      -5.761538      -156.7794
  35   2.0000      -5.756680      -156.6472
  36   2.0000      -5.756087      -156.6311
  37   2.0000      -4.741271      -129.0165
  38   2.0000      -4.740878      -129.0059
  39   2.0000      -4.740858      -129.0053
  40   2.0000      -4.740309      -128.9904
  41   2.0000      -4.739881      -128.9787
  42   2.0000      -4.738859      -128.9509
  43   2.0000      -1.052126       -28.6298
  44   2.0000      -1.051366       -28.6091
  45   2.0000      -1.013795       -27.5868
  46   2.0000      -1.011695       -27.5296
  47   2.0000      -0.802037       -21.8245
  48   2.0000      -0.754656       -20.5352
  49   2.0000      -0.742399       -20.2017
  50   2.0000      -0.724159       -19.7054
  51   2.0000      -0.723391       -19.6845
  52   2.0000      -0.706708       -19.2305
  53   2.0000      -0.687910       -18.7190
  54   2.0000      -0.673539       -18.3279
  55   2.0000      -0.630386       -17.1537
  56   2.0000      -0.621966       -16.9246
  57   2.0000      -0.599773       -16.3206
  58   2.0000      -0.593317       -16.1450
  59   2.0000      -0.589506       -16.0413
  60   2.0000      -0.525317       -14.2946
  61   2.0000      -0.513851       -13.9826
  62   2.0000      -0.493340       -13.4245
  63   2.0000      -0.489455       -13.3187
  64   2.0000      -0.474958       -12.9243
  65   2.0000      -0.458963       -12.4890
  66   2.0000      -0.453327       -12.3356
  67   2.0000      -0.446494       -12.1497
  68   2.0000      -0.441107       -12.0031
  69   2.0000      -0.429137       -11.6774
  70   2.0000      -0.422107       -11.4861
  71   2.0000      -0.408947       -11.1280
  72   2.0000      -0.406578       -11.0635
  73   2.0000      -0.404429       -11.0051
  74   2.0000      -0.393941       -10.7197
  75   2.0000      -0.386569       -10.5191
  76   2.0000      -0.382769       -10.4157
  77   2.0000      -0.369166       -10.0455
  78   2.0000      -0.364889        -9.9291
  79   2.0000      -0.362332        -9.8596
  80   2.0000      -0.354216        -9.6387
  81   2.0000      -0.352833        -9.6011
  82   2.0000      -0.350400        -9.5349
  83   2.0000      -0.347753        -9.4628
  84   2.0000      -0.340837        -9.2746
  85   2.0000      -0.329113        -8.9556
  86   2.0000      -0.317760        -8.6467
  87   2.0000      -0.311870        -8.4864
  88   2.0000      -0.304501        -8.2859
  89   2.0000      -0.299823        -8.1586
  90   2.0000      -0.297127        -8.0852
  91   2.0000      -0.288029        -7.8377
  92   2.0000      -0.286561        -7.7977
  93   2.0000      -0.277204        -7.5431
  94   2.0000      -0.276584        -7.5262
  95   2.0000      -0.252883        -6.8813
  96   2.0000      -0.235141        -6.3985
  97   2.0000      -0.229111        -6.2344
  98   2.0000      -0.225752        -6.1430
  99   2.0000      -0.214918        -5.8482
 100   2.0000      -0.211230        -5.7479
 101   0.0000      -0.052876        -1.4388
 102   0.0000      -0.028657        -0.7798
 103   0.0000      -0.018532        -0.5043
 104   0.0000       0.004802         0.1307
 105   0.0000       0.015145         0.4121

MULLIKEN ATOMIC CHARGES
-----------------------
   0 C :   -0.499688
   1 C :   -0.146634
   2 O :   -0.321053
   3 P :    0.766707
   4 S :   -0.514117
   5 O :   -0.358228
   6 C :   -0.144456
   7 C :   -0.487028
   8 S :   -0.171025
   9 C :   -0.199741
  10 S :   -0.163547
  11 P :    0.739220
  12 S :   -0.543118
  13 O :   -0.265624
  14 C :   -0.162508
  15 C :   -0.488699
  16 O :   -0.312958
  17 C :   -0.146400
  18 C :   -0.483867
  19 H :    0.168286
  20 H :    0.177023
  21 H :    0.175481
  22 H :    0.178316
  23 H :    0.174871
  24 H :    0.177513
  25 H :    0.176389
  26 H :    0.172380
  27 H :    0.169162
  28 H :    0.169032
  29 H :    0.222685
  30 H :    0.226429
  31 H :    0.179055
  32 H :    0.177939
  33 H :    0.170205
  34 H :    0.172335
  35 H :    0.168932
  36 H :    0.172610
  37 H :    0.172061
  38 H :    0.169686
  39 H :    0.166263
  40 H :    0.166114
Sum of atomic charges:    0.0000000

LOEWDIN ATOMIC CHARGES
----------------------
   0 C :   -0.406617
   1 C :    0.021490
   2 O :   -0.682211
   3 P :    0.394897
   4 S :   -0.131530
   5 O :   -0.690858
   6 C :    0.026596
   7 C :   -0.403143
   8 S :    0.158991
   9 C :   -0.404565
  10 S :    0.165133
  11 P :    0.377943
  12 S :   -0.167607
  13 O :   -0.689997
  14 C :    0.019722
  15 C :   -0.403648
  16 O :   -0.675989
  17 C :    0.024641
  18 C :   -0.389716
  19 H :    0.161943
  20 H :    0.170196
  21 H :    0.164213
  22 H :    0.181145
  23 H :    0.190721
  24 H :    0.182525
  25 H :    0.190424
  26 H :    0.169027
  27 H :    0.164059
  28 H :    0.162846
  29 H :    0.196885
  30 H :    0.197479
  31 H :    0.190889
  32 H :    0.181724
  33 H :    0.164172
  34 H :    0.168660
  35 H :    0.162821
  36 H :    0.181970
  37 H :    0.180012
  38 H :    0.168939
  39 H :    0.163381
  40 H :    0.162437

  Mayer bond orders larger than 0.100000
B(  0-C ,  1-C ) :   0.9005 B(  0-C , 19-H ) :   0.9614 B(  0-C , 20-H ) :   0.9525
B(  0-C , 21-H ) :   0.9657 B(  1-C ,  2-O ) :   0.8066 B(  1-C , 22-H ) :   0.9633
B(  1-C , 23-H ) :   0.9462 B(  2-O ,  3-P ) :   1.0755 B(  3-P ,  4-S ) :   1.7114
B(  3-P ,  5-O ) :   1.1687 B(  3-P ,  8-S ) :   1.0657 B(  5-O ,  6-C ) :   0.7890
B(  6-C ,  7-C ) :   0.9179 B(  6-C , 24-H ) :   0.9590 B(  6-C , 25-H ) :   0.9502
B(  7-C , 26-H ) :   0.9563 B(  7-C , 27-H ) :   0.9700 B(  7-C , 28-H ) :   0.9598
B(  8-S ,  9-C ) :   0.8836 B(  9-C , 10-S ) :   0.9115 B(  9-C , 29-H ) :   0.9065
B(  9-C , 30-H ) :   0.9066 B( 10-S , 11-P ) :   1.0769 B( 11-P , 12-S ) :   1.6859
B( 11-P , 13-O ) :   1.1907 B( 11-P , 16-O ) :   1.0955 B( 13-O , 14-C ) :   0.7722
B( 14-C , 15-C ) :   0.9113 B( 14-C , 31-H ) :   0.9508 B( 14-C , 32-H ) :   0.9610
B( 15-C , 33-H ) :   0.9707 B( 15-C , 34-H ) :   0.9559 B( 15-C , 35-H ) :   0.9600
B( 16-O , 17-C ) :   0.7681 B( 17-C , 18-C ) :   0.9534 B( 17-C , 36-H ) :   0.9493
B( 17-C , 37-H ) :   0.9380 B( 18-C , 38-H ) :   0.9584 B( 18-C , 39-H ) :   0.9690
B( 18-C , 40-H ) :   0.9687

Dispersion correction           -0.021696758
FINAL SINGLE POINT ENERGY     -2932.467468166753

DIPOLE MOMENT
-------------

Method             : SCF
Type of density    : Electron Density
Multiplicity       :   1
Irrep              :   0
Energy             : -2932.4921582921087975 Eh
Relativity type    :
Basis              : AO
                                X                 Y                 Z
Electronic contribution:      2.109038836      -9.653450202      -4.708395464
Nuclear contribution   :     -1.669771932       9.458650019       5.205053095
                        -----------------------------------------
Total Dipole Moment    :      0.439266905      -0.194800183       0.496657631
                        -----------------------------------------
Magnitude (a.u.)       :      0.691065357
Magnitude (Debye)      :      1.756548541

Rotational constants in cm-1:             0.012788             0.005105             0.004637
Rotational constants in MHz :           383.366720           153.050125           139.014967

                             ****ORCA TERMINATED NORMALLY****
TOTAL RUN TIME: 0 days 0 hours 1 minutes 50 seconds 474 msec
