                         Program Version 6.0.0  -   RELEASE  -
|  1> ! pbe def2-sv(p) def2/J RI DEFGRID1 loosescf d4 GCP(DFT/SV(P)) printgap
|  2> %output
|  3>     printlevel normal
|  4> end
|  5> * xyz 0 1
|  6> C 6.094719009 0.1689899809 -1.5115714099
|  7> C 4.6892765166 0.6453212042 -1.2056094781
|  8> O 3.9723392077 -0.4540065904 -0.6050891718
|  9> P 2.6371734152 -0.1964721661 0.1954919899
| 10> S 2.7270053828 1.1513595248 1.6216581341
| 11> O 2.4448966408 -1.693845362 0.6578344329
| 12> C 1.4246349561 -2.1110842022 1.5860063806
| 13> C 0.3371949688 -2.8796354713 0.8601749323
| 14> S 1.2119017644 0.2218187715 -1.3394207881
| 15> C 0.2023581582 1.4326694658 -0.4390707219
| 16> S -0.8578345951 0.7004213444 0.8336893906
| 17> P -2.4636879047 0.1413526834 -0.466786897
| 18> S -2.032818451 -1.1005646663 -1.914351044
| 19> O -3.0112567882 1.5140425455 -1.0139815111
| 20> C -3.5424027776 2.565006676 -0.1652439624
| 21> C -5.0492040042 2.45810363 -0.0566055795
| 22> O -3.6027352966 -0.340581408 0.5271821931
| 23> C -3.594235906 -1.6470614151 1.1348037053
| 24> C -2.9648023176 -1.5981390034 2.5132616418
| 25> H 6.6500791622 0.9738349171 -1.9817599149
| 26> H 6.5952526779 -0.1267077144 -0.5940274496
| 27> H 6.0571706323 -0.6847945501 -2.1817253236
| 28> H 4.1616957597 0.9425430619 -2.1166470256
| 29> H 4.6963560328 1.4863173077 -0.5031475735
| 30> H 1.9397324131 -2.750833163 2.3055237824
| 31> H 1.0240899997 -1.2340695678 2.1071838409
| 32> H 0.774942229 -3.7095782438 0.3130028421
| 33> H -0.3754985212 -3.2620230024 1.5836675776
| 34> H -0.183896382 -2.2421719368 0.1474162508
| 35> H -0.4104221554 1.9346759605 -1.1844671417
| 36> H 0.8603213107 2.1299940798 0.0797844836
| 37> H -3.068190324 2.5020788736 0.8177188378
| 38> H -3.2464040153 3.490770364 -0.6623525847
| 39> H -5.327619235 1.533987693 0.4419307087
| 40> H -5.4233505126 3.3016394592 0.5152316379
| 41> H -5.4953548949 2.4701160131 -1.047329944
| 42> H -4.6463994083 -1.931996913 1.190833838
| 43> H -3.0660442407 -2.3407044621 0.4728157326
| 44> H -3.5042906076 -0.8984973715 3.1451448193
| 45> H -3.0069012347 -2.586716695 2.9589432527
| 46> H -1.9271651858 -1.2778536993 2.4485222911
| 47> *
| 48>
| 49>                          ****END OF INPUT****

CARTESIAN COORDINATES (ANGSTROEM)
---------------------------------
  C      6.094719    0.168990   -1.511571
  C      4.689277    0.645321   -1.205609
  O      3.972339   -0.454007   -0.605089
  P      2.637173   -0.196472    0.195492
  S      2.727005    1.151360    1.621658
  O      2.444897   -1.693845    0.657834
  C      1.424635   -2.111084    1.586006
  C      0.337195   -2.879635    0.860175
  S      1.211902    0.221819   -1.339421
  C      0.202358    1.432669   -0.439071
  S     -0.857835    0.700421    0.833689
  P     -2.463688    0.141353   -0.466787
  S     -2.032818   -1.100565   -1.914351
  O     -3.011257    1.514043   -1.013982
  C     -3.542403    2.565007   -0.165244
  C     -5.049204    2.458104   -0.056606
  O     -3.602735   -0.340581    0.527182
  C     -3.594236   -1.647061    1.134804
  C     -2.964802   -1.598139    2.513262
  H      6.650079    0.973835   -1.981760
  H      6.595253   -0.126708   -0.594027
  H      6.057171   -0.684795   -2.181725
  H      4.161696    0.942543   -2.116647
  H      4.696356    1.486317   -0.503148
  H      1.939732   -2.750833    2.305524
  H      1.024090   -1.234070    2.107184
  H      0.774942   -3.709578    0.313003
  H     -0.375499   -3.262023    1.583668
  H     -0.183896   -2.242172    0.147416
  H     -0.410422    1.934676   -1.184467
  H      0.860321    2.129994    0.079784
  H     -3.068190    2.502079    0.817719
  H     -3.246404    3.490770   -0.662353
  H     -5.327619    1.533988    0.441931
  H     -5.423351    3.301639    0.515232
  H     -5.495355    2.470116   -1.047330
  H     -4.646399   -1.931997    1.190834
  H     -3.066044   -2.340704    0.472816
  H     -3.504291   -0.898497    3.145145
  H     -3.006901   -2.586717    2.958943
  H     -1.927165   -1.277854    2.448522

 Total Charge           Charge          ....    0
 Multiplicity           Mult            ....    1
 Number of Electrons    NEL             ....  202
 Basis Dimension        Dim             ....  334

ORBITAL ENERGIES
----------------

  NO   OCC          E(Eh)            E(eV)
   0   2.0000     -88.046752     -2395.8739
   1   2.0000     -88.039354     -2395.6726
   2   2.0000     -87.988025     -2394.2759
   3   2.0000     -87.986647     -2394.2384
   4   2.0000     -76.430529     -2079.7804
   5   2.0000     -76.423949     -2079.6014
   6   2.0000     -18.802321      -511.6372
   7   2.0000     -18.800490      -511.5873
   8   2.0000     -18.789286      -511.2825
   9   2.0000     -18.786498      -511.2066
  10   2.0000      -9.961759      -271.0733
  11   2.0000      -9.961282      -271.0603
  12   2.0000      -9.956644      -270.9341
  13   2.0000      -9.951247      -270.7872
  14   2.0000      -9.947934      -270.6970
  15   2.0000      -9.894958      -269.2555
  16   2.0000      -9.890680      -269.1391
  17   2.0000      -9.885630      -269.0017
  18   2.0000      -9.875616      -268.7292
  19   2.0000      -7.690982      -209.2823
  20   2.0000      -7.684145      -209.0962
  21   2.0000      -7.633043      -207.7057
  22   2.0000      -7.631687      -207.6688
  23   2.0000      -6.428005      -174.9149
  24   2.0000      -6.421572      -174.7399
  25   2.0000      -5.718594      -155.6108
  26   2.0000      -5.715574      -155.5287
  27   2.0000      -5.711974      -155.4307
  28   2.0000      -5.708622      -155.3395
  29   2.0000      -5.708268      -155.3299
  30   2.0000      -5.701262      -155.1392
  31   2.0000      -5.661778      -154.0648
  32   2.0000      -5.660725      -154.0362
  33   2.0000      -5.653820      -153.8483
  34   2.0000      -5.653236      -153.8324
  35   2.0000      -5.652364      -153.8086
  36   2.0000      -5.651680      -153.7900
  37   2.0000      -4.651101      -126.5629
  38   2.0000      -4.649816      -126.5279
  39   2.0000      -4.647895      -126.4757
  40   2.0000      -4.643796      -126.3641
  41   2.0000      -4.643581      -126.3583
  42   2.0000      -4.642026      -126.3160
  43   2.0000      -0.996530       -27.1170
  44   2.0000      -0.987448       -26.8698
  45   2.0000      -0.954351       -25.9692
  46   2.0000      -0.942567       -25.6486
  47   2.0000      -0.763088       -20.7647
  48   2.0000      -0.724308       -19.7094
  49   2.0000      -0.714206       -19.4345
  50   2.0000      -0.698893       -19.0178
  51   2.0000      -0.682023       -18.5588
  52   2.0000      -0.675047       -18.3690
  53   2.0000      -0.650473       -17.7003
  54   2.0000      -0.638213       -17.3667
  55   2.0000      -0.599695       -16.3185
  56   2.0000      -0.594029       -16.1643
  57   2.0000      -0.580969       -15.8090
  58   2.0000      -0.564646       -15.3648
  59   2.0000      -0.556024       -15.1302
  60   2.0000      -0.510945       -13.9035
  61   2.0000      -0.502932       -13.6855
  62   2.0000      -0.487914       -13.2768
  63   2.0000      -0.474759       -12.9189
  64   2.0000      -0.464079       -12.6282
  65   2.0000      -0.451900       -12.2968
  66   2.0000      -0.440169       -11.9776
  67   2.0000      -0.437436       -11.9032
  68   2.0000      -0.431536       -11.7427
  69   2.0000      -0.417231       -11.3534
  70   2.0000      -0.406674       -11.0662
  71   2.0000      -0.398101       -10.8329
  72   2.0000      -0.394685       -10.7399
  73   2.0000      -0.390124       -10.6158
  74   2.0000      -0.379659       -10.3310
  75   2.0000      -0.371742       -10.1156
  76   2.0000      -0.366064        -9.9611
  77   2.0000      -0.363913        -9.9026
  78   2.0000      -0.361031        -9.8242
  79   2.0000      -0.355182        -9.6650
  80   2.0000      -0.354429        -9.6445
  81   2.0000      -0.348457        -9.4820
  82   2.0000      -0.343426        -9.3451
  83   2.0000      -0.334479        -9.1016
  84   2.0000      -0.331387        -9.0175
  85   2.0000      -0.326067        -8.8727
  86   2.0000      -0.315274        -8.5790
  87   2.0000      -0.302656        -8.2357
  88   2.0000      -0.299646        -8.1538
  89   2.0000      -0.298777        -8.1301
  90   2.0000      -0.290047        -7.8926
  91   2.0000      -0.279388        -7.6025
  92   2.0000      -0.267983        -7.2922
  93   2.0000      -0.265304        -7.2193
  94   2.0000      -0.257600        -7.0096
  95   2.0000      -0.242480        -6.5982
  96   2.0000      -0.217736        -5.9249
  97   2.0000      -0.211187        -5.7467
  98   2.0000      -0.207130        -5.6363
  99   2.0000      -0.202249        -5.5035
 100   2.0000      -0.193357        -5.2615
 101   0.0000      -0.042821        -1.1652
 102   0.0000      -0.030525        -0.8306
 103   0.0000      -0.009632        -0.2621
 104   0.0000       0.003429         0.0933
 105   0.0000       0.011509         0.3132

MULLIKEN ATOMIC CHARGES
-----------------------
   0 C :   -0.278390
   1 C :   -0.010588
   2 O :   -0.360019
   3 P :    0.590942
   4 S :   -0.337557
   5 O :   -0.351493
   6 C :   -0.011728
   7 C :   -0.315185
   8 S :   -0.073099
   9 C :   -0.347958
  10 S :   -0.104145
  11 P :    0.586855
  12 S :   -0.287854
  13 O :   -0.361601
  14 C :   -0.014145
  15 C :   -0.290273
  16 O :   -0.378828
  17 C :   -0.012151
  18 C :   -0.320461
  19 H :    0.110829
  20 H :    0.121092
  21 H :    0.119212
  22 H :    0.102272
  23 H :    0.103169
  24 H :    0.104748
  25 H :    0.111272
  26 H :    0.114230
  27 H :    0.103317
  28 H :    0.136171
  29 H :    0.184851
  30 H :    0.194218
  31 H :    0.104146
  32 H :    0.109617
  33 H :    0.123422
  34 H :    0.111491
  35 H :    0.121676
  36 H :    0.111016
  37 H :    0.112888
  38 H :    0.117842
  39 H :    0.117589
  40 H :    0.142611
Sum of atomic charges:    0.0000000

LOEWDIN ATOMIC CHARGES
----------------------
   0 C :   -0.349776
   1 C :   -0.120780
   2 O :   -0.236418
   3 P :    0.565305
   4 S :   -0.323545
   5 O :   -0.231703
   6 C :   -0.116585
   7 C :   -0.368539
   8 S :    0.084402
   9 C :   -0.484445
  10 S :    0.080229
  11 P :    0.562811
  12 S :   -0.298494
  13 O :   -0.237856
  14 C :   -0.115926
  15 C :   -0.358981
  16 O :   -0.244049
  17 C :   -0.116685
  18 C :   -0.364466
  19 H :    0.130278
  20 H :    0.129413
  21 H :    0.128311
  22 H :    0.108450
  23 H :    0.107536
  24 H :    0.117926
  25 H :    0.100900
  26 H :    0.127347
  27 H :    0.123334
  28 H :    0.114640
  29 H :    0.133195
  30 H :    0.128650
  31 H :    0.105334
  32 H :    0.120584
  33 H :    0.126553
  34 H :    0.130590
  35 H :    0.129669
  36 H :    0.121369
  37 H :    0.111105
  38 H :    0.127426
  39 H :    0.132824
  40 H :    0.120064

  Mayer bond orders larger than 0.100000
B(  0-C ,  1-C ) :   1.1618 B(  0-C , 19-H ) :   0.9419 B(  0-C , 20-H ) :   0.9509
B(  0-C , 21-H ) :   0.9506 B(  1-C ,  2-O ) :   0.9077 B(  1-C , 22-H ) :   0.9261
B(  1-C , 23-H ) :   0.9105 B(  2-O ,  3-P ) :   1.1311 B(  3-P ,  4-S ) :   1.6025
B(  3-P ,  5-O ) :   1.1432 B(  3-P ,  8-S ) :   0.9444 B(  4-S ,  8-S ) :   0.1230
B(  5-O ,  6-C ) :   0.9049 B(  6-C ,  7-C ) :   1.1651 B(  6-C , 24-H ) :   0.9340
B(  6-C , 25-H ) :   0.9028 B(  7-C , 26-H ) :   0.9437 B(  7-C , 27-H ) :   0.9345
B(  7-C , 28-H ) :   0.9198 B(  8-S ,  9-C ) :   1.0174 B(  9-C , 10-S ) :   0.9850
B(  9-C , 29-H ) :   0.8921 B(  9-C , 30-H ) :   0.8704 B( 10-S , 11-P ) :   0.9470
B( 10-S , 12-S ) :   0.1097 B( 11-P , 12-S ) :   1.6778 B( 11-P , 13-O ) :   1.1204
B( 11-P , 16-O ) :   1.0806 B( 13-O , 14-C ) :   0.8882 B( 14-C , 15-C ) :   1.1685
B( 14-C , 31-H ) :   0.9096 B( 14-C , 32-H ) :   0.9351 B( 15-C , 33-H ) :   0.9415
B( 15-C , 34-H ) :   0.9394 B( 15-C , 35-H ) :   0.9469 B( 16-O , 17-C ) :   0.9015
B( 17-C , 18-C ) :   1.1691 B( 17-C , 36-H ) :   0.9334 B( 17-C , 37-H ) :   0.9054
B( 18-C , 38-H ) :   0.9455 B( 18-C , 39-H ) :   0.9379 B( 18-C , 40-H ) :   0.9278

Dispersion correction           -0.064144263
FINAL SINGLE POINT ENERGY     -2929.523493044253

DIPOLE MOMENT
-------------

Method             : SCF
Type of density    : Electron Density
Multiplicity       :   1
Irrep              :   0
Energy             : -2929.6434454923446538 Eh
Relativity type    :
Basis              : AO
                                X                 Y                 Z
Electronic contribution:      5.866404311       2.573890379      -7.395354652
Nuclear contribution   :     -6.682196404      -2.132370007       8.004880279
                        -----------------------------------------
Total Dipole Moment    :     -0.815792093       0.441520372       0.609525627
                        -----------------------------------------
Magnitude (a.u.)       :      1.109945254
Magnitude (Debye)      :      2.821256628

Rotational constants in cm-1:             0.013596             0.004397             0.004107
Rotational constants in MHz :           407.587502           131.806124           123.111051

                             ****ORCA TERMINATED NORMALLY****
TOTAL RUN TIME: 0 days 0 hours 0 minutes 20 seconds 844 msec
