                         Program Version 6.0.0  -   RELEASE  -
|  1> ! r2scan-3c def2/J RI DEFGRID2 scfconv6 printgap
|  2> %output
|  3>     printlevel normal
|  4> end
|  5> * xyz 0 1
|  6> C 5.388701893 -1.4171377426 -1.2710501146
|  7> C 3.9741282912 -1.7004533674 -1.7384315839
|  8> O 3.0575937495 -1.7206756607 -0.6242155562
|  9> P 2.2221938855 -0.4408333605 -0.1804708331
| 10> S 3.2585164605 1.1874880052 0.1757909745
| 11> O 1.4154001376 -1.0492058967 1.03343316
| 12> C 1.8050143811 -0.8739654167 2.4158827324
| 13> C 0.914755966 0.1486609226 3.0933506945
| 14> S 0.7540259875 -0.3168869697 -1.6946150359
| 15> C 0.297171767 1.4206425825 -1.4432497775
| 16> S -0.4457199965 1.7311533753 0.1801309879
| 17> P -2.076055659 0.4023766351 -0.026655206
| 18> S -2.8995136516 0.3144256228 -1.8072608
| 19> O -3.0444412711 0.8480005819 1.1488020643
| 20> C -3.8666261552 2.028457712 1.0416312066
| 21> C -4.9321681792 1.9518880081 2.1162251732
| 22> O -1.4892645761 -0.9412869621 0.56333488
| 23> C -1.9302079105 -2.2372215685 0.114834697
| 24> C -3.3092359254 -2.5600891834 0.6495513932
| 25> H 5.4498091978 -0.4233354524 -0.8332000246
| 26> H 5.6883734456 -2.148071589 -0.5253189521
| 27> H 6.0625677144 -1.4719448635 -2.1198864346
| 28> H 3.8920737406 -2.6959581406 -2.1786525315
| 29> H 3.6424748956 -0.9535098612 -2.4653470771
| 30> H 1.6919367729 -1.8626436127 2.8633727823
| 31> H 2.8537455215 -0.5667274029 2.4587403767
| 32> H 1.097259388 1.139452612 2.6822557827
| 33> H -0.1309163853 -0.105481986 2.9362597536
| 34> H 1.1288314553 0.1595599286 4.1572174887
| 35> H -0.4172462887 1.6648528879 -2.2285851829
| 36> H 1.1865285782 2.0475766011 -1.4996872381
| 37> H -3.2260882795 2.9045236256 1.1752095183
| 38> H -4.3063118051 2.0562414098 0.0389173257
| 39> H -4.4657928248 1.8826497604 3.0945595304
| 40> H -5.5461741008 2.8453491381 2.072140481
| 41> H -5.5589023131 1.078266638 1.9617016051
| 42> H -1.9232665882 -2.2501484578 -0.9803815039
| 43> H -1.1692446004 -2.9207501979 0.4943133427
| 44> H -3.586333309 -3.5665488001 0.3522413835
| 45> H -3.3202237206 -2.4838558524 1.7334260477
| 46> H -4.0328633212 -1.8563992056 0.2392720471
| 47> *
| 48>
| 49>                          ****END OF INPUT****

CARTESIAN COORDINATES (ANGSTROEM)
---------------------------------
  C      5.388702   -1.417138   -1.271050
  C      3.974128   -1.700453   -1.738432
  O      3.057594   -1.720676   -0.624216
  P      2.222194   -0.440833   -0.180471
  S      3.258516    1.187488    0.175791
  O      1.415400   -1.049206    1.033433
  C      1.805014   -0.873965    2.415883
  C      0.914756    0.148661    3.093351
  S      0.754026   -0.316887   -1.694615
  C      0.297172    1.420643   -1.443250
  S     -0.445720    1.731153    0.180131
  P     -2.076056    0.402377   -0.026655
  S     -2.899514    0.314426   -1.807261
  O     -3.044441    0.848001    1.148802
  C     -3.866626    2.028458    1.041631
  C     -4.932168    1.951888    2.116225
  O     -1.489265   -0.941287    0.563335
  C     -1.930208   -2.237222    0.114835
  C     -3.309236   -2.560089    0.649551
  H      5.449809   -0.423335   -0.833200
  H      5.688373   -2.148072   -0.525319
  H      6.062568   -1.471945   -2.119886
  H      3.892074   -2.695958   -2.178653
  H      3.642475   -0.953510   -2.465347
  H      1.691937   -1.862644    2.863373
  H      2.853746   -0.566727    2.458740
  H      1.097259    1.139453    2.682256
  H     -0.130916   -0.105482    2.936260
  H      1.128831    0.159560    4.157217
  H     -0.417246    1.664853   -2.228585
  H      1.186529    2.047577   -1.499687
  H     -3.226088    2.904524    1.175210
  H     -4.306312    2.056241    0.038917
  H     -4.465793    1.882650    3.094560
  H     -5.546174    2.845349    2.072140
  H     -5.558902    1.078267    1.961702
  H     -1.923267   -2.250148   -0.980382
  H     -1.169245   -2.920750    0.494313
  H     -3.586333   -3.566549    0.352241
  H     -3.320224   -2.483856    1.733426
  H     -4.032863   -1.856399    0.239272

 Total Charge           Charge          ....    0
 Multiplicity           Mult            ....    1
 Number of Electrons    NEL             ....  202
 Basis Dimension        Dim             ....  539

ORBITAL ENERGIES
----------------

  NO   OCC          E(Eh)            E(eV)
   0   2.0000     -88.575882     -2410.2723
   1   2.0000     -88.573815     -2410.2160
   2   2.0000     -88.520239     -2408.7582
   3   2.0000     -88.520124     -2408.7550
   4   2.0000     -76.913075     -2092.9112
   5   2.0000     -76.912693     -2092.9008
   6   2.0000     -18.993157      -516.8301
   7   2.0000     -18.989639      -516.7344
   8   2.0000     -18.987224      -516.6686
   9   2.0000     -18.985636      -516.6254
  10   2.0000     -10.105348      -274.9805
  11   2.0000     -10.099510      -274.8216
  12   2.0000     -10.099067      -274.8096
  13   2.0000     -10.095841      -274.7218
  14   2.0000     -10.094231      -274.6780
  15   2.0000     -10.034314      -273.0476
  16   2.0000     -10.026703      -272.8405
  17   2.0000     -10.024671      -272.7852
  18   2.0000     -10.020793      -272.6796
  19   2.0000      -7.870113      -214.1567
  20   2.0000      -7.868221      -214.1052
  21   2.0000      -7.815027      -212.6577
  22   2.0000      -7.815018      -212.6574
  23   2.0000      -6.591397      -179.3610
  24   2.0000      -6.591358      -179.3600
  25   2.0000      -5.817005      -158.2887
  26   2.0000      -5.815105      -158.2371
  27   2.0000      -5.813925      -158.2049
  28   2.0000      -5.812071      -158.1545
  29   2.0000      -5.807276      -158.0240
  30   2.0000      -5.805315      -157.9707
  31   2.0000      -5.762628      -156.8091
  32   2.0000      -5.762623      -156.8089
  33   2.0000      -5.755395      -156.6122
  34   2.0000      -5.755278      -156.6091
  35   2.0000      -5.755080      -156.6037
  36   2.0000      -5.754978      -156.6009
  37   2.0000      -4.736807      -128.8951
  38   2.0000      -4.736685      -128.8917
  39   2.0000      -4.736332      -128.8822
  40   2.0000      -4.736309      -128.8815
  41   2.0000      -4.735246      -128.8526
  42   2.0000      -4.735204      -128.8514
  43   2.0000      -1.049927       -28.5700
  44   2.0000      -1.046473       -28.4760
  45   2.0000      -1.010567       -27.4989
  46   2.0000      -1.006294       -27.3827
  47   2.0000      -0.802292       -21.8315
  48   2.0000      -0.758700       -20.6453
  49   2.0000      -0.748474       -20.3670
  50   2.0000      -0.731355       -19.9012
  51   2.0000      -0.726679       -19.7740
  52   2.0000      -0.707913       -19.2633
  53   2.0000      -0.684125       -18.6160
  54   2.0000      -0.669293       -18.2124
  55   2.0000      -0.630080       -17.1453
  56   2.0000      -0.621695       -16.9172
  57   2.0000      -0.604451       -16.4480
  58   2.0000      -0.598710       -16.2917
  59   2.0000      -0.590493       -16.0681
  60   2.0000      -0.530646       -14.4396
  61   2.0000      -0.524404       -14.2698
  62   2.0000      -0.496394       -13.5076
  63   2.0000      -0.492447       -13.4002
  64   2.0000      -0.472514       -12.8577
  65   2.0000      -0.458902       -12.4874
  66   2.0000      -0.456754       -12.4289
  67   2.0000      -0.451710       -12.2916
  68   2.0000      -0.444277       -12.0894
  69   2.0000      -0.429247       -11.6804
  70   2.0000      -0.419228       -11.4078
  71   2.0000      -0.415606       -11.3092
  72   2.0000      -0.410483       -11.1698
  73   2.0000      -0.399684       -10.8760
  74   2.0000      -0.392913       -10.6917
  75   2.0000      -0.387559       -10.5460
  76   2.0000      -0.384593       -10.4653
  77   2.0000      -0.373431       -10.1616
  78   2.0000      -0.368572       -10.0293
  79   2.0000      -0.362031        -9.8514
  80   2.0000      -0.361666        -9.8414
  81   2.0000      -0.359280        -9.7765
  82   2.0000      -0.356927        -9.7125
  83   2.0000      -0.350809        -9.5460
  84   2.0000      -0.345277        -9.3955
  85   2.0000      -0.333244        -9.0680
  86   2.0000      -0.318881        -8.6772
  87   2.0000      -0.315375        -8.5818
  88   2.0000      -0.311247        -8.4695
  89   2.0000      -0.303733        -8.2650
  90   2.0000      -0.297284        -8.0895
  91   2.0000      -0.293500        -7.9865
  92   2.0000      -0.281813        -7.6685
  93   2.0000      -0.278715        -7.5842
  94   2.0000      -0.272324        -7.4103
  95   2.0000      -0.245239        -6.6733
  96   2.0000      -0.230911        -6.2834
  97   2.0000      -0.226989        -6.1767
  98   2.0000      -0.219598        -5.9756
  99   2.0000      -0.213837        -5.8188
 100   2.0000      -0.210649        -5.7320
 101   0.0000      -0.047248        -1.2857
 102   0.0000      -0.024719        -0.6726
 103   0.0000      -0.000098        -0.0027
 104   0.0000       0.004233         0.1152
 105   0.0000       0.011823         0.3217

MULLIKEN ATOMIC CHARGES
-----------------------
   0 C :   -0.450182
   1 C :   -0.132948
   2 O :   -0.297955
   3 P :    0.682866
   4 S :   -0.480840
   5 O :   -0.257857
   6 C :   -0.119674
   7 C :   -0.475341
   8 S :   -0.136793
   9 C :   -0.232645
  10 S :   -0.137910
  11 P :    0.710796
  12 S :   -0.487899
  13 O :   -0.289058
  14 C :   -0.158721
  15 C :   -0.439329
  16 O :   -0.256886
  17 C :   -0.160354
  18 C :   -0.444197
  19 H :    0.180567
  20 H :    0.150778
  21 H :    0.144332
  22 H :    0.149883
  23 H :    0.152502
  24 H :    0.146705
  25 H :    0.159941
  26 H :    0.176684
  27 H :    0.165538
  28 H :    0.140532
  29 H :    0.209003
  30 H :    0.206809
  31 H :    0.152854
  32 H :    0.170759
  33 H :    0.153714
  34 H :    0.147406
  35 H :    0.155337
  36 H :    0.174807
  37 H :    0.158926
  38 H :    0.146803
  39 H :    0.153071
  40 H :    0.167973
Sum of atomic charges:   -0.0000000

LOEWDIN ATOMIC CHARGES
----------------------
   0 C :   -0.401569
   1 C :    0.020707
   2 O :   -0.661043
   3 P :    0.379062
   4 S :   -0.131021
   5 O :   -0.657454
   6 C :    0.027752
   7 C :   -0.403932
   8 S :    0.177065
   9 C :   -0.418798
  10 S :    0.167458
  11 P :    0.373542
  12 S :   -0.132007
  13 O :   -0.663359
  14 C :    0.019500
  15 C :   -0.385522
  16 O :   -0.668156
  17 C :    0.017163
  18 C :   -0.399164
  19 H :    0.168649
  20 H :    0.158164
  21 H :    0.157671
  22 H :    0.178289
  23 H :    0.175393
  24 H :    0.176348
  25 H :    0.178110
  26 H :    0.166255
  27 H :    0.165100
  28 H :    0.155688
  29 H :    0.189175
  30 H :    0.190305
  31 H :    0.172205
  32 H :    0.180442
  33 H :    0.159989
  34 H :    0.160173
  35 H :    0.160385
  36 H :    0.182031
  37 H :    0.181989
  38 H :    0.159388
  39 H :    0.159089
  40 H :    0.164938

  Mayer bond orders larger than 0.100000
B(  0-C ,  1-C ) :   0.9571 B(  0-C , 19-H ) :   0.9566 B(  0-C , 20-H ) :   0.9747
B(  0-C , 21-H ) :   0.9653 B(  1-C ,  2-O ) :   0.7773 B(  1-C , 22-H ) :   0.9640
B(  1-C , 23-H ) :   0.9620 B(  2-O ,  3-P ) :   1.0737 B(  3-P ,  4-S ) :   1.7416
B(  3-P ,  5-O ) :   1.1777 B(  3-P ,  8-S ) :   1.0875 B(  5-O ,  6-C ) :   0.7608
B(  6-C ,  7-C ) :   0.9459 B(  6-C , 24-H ) :   0.9599 B(  6-C , 25-H ) :   0.9660
B(  7-C , 26-H ) :   0.9635 B(  7-C , 27-H ) :   0.9676 B(  7-C , 28-H ) :   0.9633
B(  8-S ,  9-C ) :   0.9010 B(  9-C , 10-S ) :   0.9053 B(  9-C , 29-H ) :   0.9101
B(  9-C , 30-H ) :   0.9100 B( 10-S , 11-P ) :   1.0519 B( 11-P , 12-S ) :   1.7383
B( 11-P , 13-O ) :   1.0901 B( 11-P , 16-O ) :   1.1556 B( 13-O , 14-C ) :   0.7799
B( 14-C , 15-C ) :   0.9562 B( 14-C , 31-H ) :   0.9453 B( 14-C , 32-H ) :   0.9517
B( 15-C , 33-H ) :   0.9717 B( 15-C , 34-H ) :   0.9644 B( 15-C , 35-H ) :   0.9714
B( 16-O , 17-C ) :   0.7781 B( 17-C , 18-C ) :   0.9239 B( 17-C , 36-H ) :   0.9622
B( 17-C , 37-H ) :   0.9627 B( 18-C , 38-H ) :   0.9639 B( 18-C , 39-H ) :   0.9731
B( 18-C , 40-H ) :   0.9612

Dispersion correction           -0.021650761
FINAL SINGLE POINT ENERGY     -2932.465770161840

DIPOLE MOMENT
-------------

Method             : SCF
Type of density    : Electron Density
Multiplicity       :   1
Irrep              :   0
Energy             : -2932.4903565257104674 Eh
Relativity type    :
Basis              : AO
                                X                 Y                 Z
Electronic contribution:      4.629147419       6.516284434     -12.214749549
Nuclear contribution   :     -4.832045908      -7.153986117      12.905856791
                        -----------------------------------------
Total Dipole Moment    :     -0.202898488      -0.637701683       0.691107243
                        -----------------------------------------
Magnitude (a.u.)       :      0.962008552
Magnitude (Debye)      :      2.445231413

Rotational constants in cm-1:             0.013727             0.004812             0.004668
Rotational constants in MHz :           411.535311           144.274744           139.942664

                             ****ORCA TERMINATED NORMALLY****
TOTAL RUN TIME: 0 days 0 hours 1 minutes 25 seconds 947 msec
