                         Program Version 6.0.0  -   RELEASE  -
|  1> ! r2scan-3c def2/J RI DEFGRID2 scfconv6 printgap
|  2> %output
|  3>     printlevel normal
|  4> end
|  5> %cpcm
|  6>     smd true
|  7>     smdsolvent "water"
|  8> end
|  9> * xyz 0 1
| 10> C 5.388701893 -1.4171377426 -1.2710501146
| 11> C 3.9741282912 -1.7004533674 -1.7384315839
| 12> O 3.0575937495 -1.7206756607 -0.6242155562
| 13> P 2.2221938855 -0.4408333605 -0.1804708331
| 14> S 3.2585164605 1.1874880052 0.1757909745
| 15> O 1.4154001376 -1.0492058967 1.03343316
| 16> C 1.8050143811 -0.8739654167 2.4158827324
| 17> C 0.914755966 0.1486609226 3.0933506945
| 18> S 0.7540259875 -0.3168869697 -1.6946150359
| 19> C 0.297171767 1.4206425825 -1.4432497775
| 20> S -0.4457199965 1.7311533753 0.1801309879
| 21> P -2.076055659 0.4023766351 -0.026655206
| 22> S -2.8995136516 0.3144256228 -1.8072608
| 23> O -3.0444412711 0.8480005819 1.1488020643
| 24> C -3.8666261552 2.028457712 1.0416312066
| 25> C -4.9321681792 1.9518880081 2.1162251732
| 26> O -1.4892645761 -0.9412869621 0.56333488
| 27> C -1.9302079105 -2.2372215685 0.114834697
| 28> C -3.3092359254 -2.5600891834 0.6495513932
| 29> H 5.4498091978 -0.4233354524 -0.8332000246
| 30> H 5.6883734456 -2.148071589 -0.5253189521
| 31> H 6.0625677144 -1.4719448635 -2.1198864346
| 32> H 3.8920737406 -2.6959581406 -2.1786525315
| 33> H 3.6424748956 -0.9535098612 -2.4653470771
| 34> H 1.6919367729 -1.8626436127 2.8633727823
| 35> H 2.8537455215 -0.5667274029 2.4587403767
| 36> H 1.097259388 1.139452612 2.6822557827
| 37> H -0.1309163853 -0.105481986 2.9362597536
| 38> H 1.1288314553 0.1595599286 4.1572174887
| 39> H -0.4172462887 1.6648528879 -2.2285851829
| 40> H 1.1865285782 2.0475766011 -1.4996872381
| 41> H -3.2260882795 2.9045236256 1.1752095183
| 42> H -4.3063118051 2.0562414098 0.0389173257
| 43> H -4.4657928248 1.8826497604 3.0945595304
| 44> H -5.5461741008 2.8453491381 2.072140481
| 45> H -5.5589023131 1.078266638 1.9617016051
| 46> H -1.9232665882 -2.2501484578 -0.9803815039
| 47> H -1.1692446004 -2.9207501979 0.4943133427
| 48> H -3.586333309 -3.5665488001 0.3522413835
| 49> H -3.3202237206 -2.4838558524 1.7334260477
| 50> H -4.0328633212 -1.8563992056 0.2392720471
| 51> *
| 52>
| 53>                          ****END OF INPUT****

CARTESIAN COORDINATES (ANGSTROEM)
---------------------------------
  C      5.388702   -1.417138   -1.271050
  C      3.974128   -1.700453   -1.738432
  O      3.057594   -1.720676   -0.624216
  P      2.222194   -0.440833   -0.180471
  S      3.258516    1.187488    0.175791
  O      1.415400   -1.049206    1.033433
  C      1.805014   -0.873965    2.415883
  C      0.914756    0.148661    3.093351
  S      0.754026   -0.316887   -1.694615
  C      0.297172    1.420643   -1.443250
  S     -0.445720    1.731153    0.180131
  P     -2.076056    0.402377   -0.026655
  S     -2.899514    0.314426   -1.807261
  O     -3.044441    0.848001    1.148802
  C     -3.866626    2.028458    1.041631
  C     -4.932168    1.951888    2.116225
  O     -1.489265   -0.941287    0.563335
  C     -1.930208   -2.237222    0.114835
  C     -3.309236   -2.560089    0.649551
  H      5.449809   -0.423335   -0.833200
  H      5.688373   -2.148072   -0.525319
  H      6.062568   -1.471945   -2.119886
  H      3.892074   -2.695958   -2.178653
  H      3.642475   -0.953510   -2.465347
  H      1.691937   -1.862644    2.863373
  H      2.853746   -0.566727    2.458740
  H      1.097259    1.139453    2.682256
  H     -0.130916   -0.105482    2.936260
  H      1.128831    0.159560    4.157217
  H     -0.417246    1.664853   -2.228585
  H      1.186529    2.047577   -1.499687
  H     -3.226088    2.904524    1.175210
  H     -4.306312    2.056241    0.038917
  H     -4.465793    1.882650    3.094560
  H     -5.546174    2.845349    2.072140
  H     -5.558902    1.078267    1.961702
  H     -1.923267   -2.250148   -0.980382
  H     -1.169245   -2.920750    0.494313
  H     -3.586333   -3.566549    0.352241
  H     -3.320224   -2.483856    1.733426
  H     -4.032863   -1.856399    0.239272

 Total Charge           Charge          ....    0
 Multiplicity           Mult            ....    1
 Number of Electrons    NEL             ....  202
 Basis Dimension        Dim             ....  539

ORBITAL ENERGIES
----------------

  NO   OCC          E(Eh)            E(eV)
   0   2.0000     -88.580377     -2410.3946
   1   2.0000     -88.578098     -2410.3326
   2   2.0000     -88.527926     -2408.9673
   3   2.0000     -88.527566     -2408.9575
   4   2.0000     -76.919171     -2093.0770
   5   2.0000     -76.918533     -2093.0597
   6   2.0000     -18.995905      -516.9049
   7   2.0000     -18.993543      -516.8406
   8   2.0000     -18.992178      -516.8034
   9   2.0000     -18.990925      -516.7694
  10   2.0000     -10.105342      -274.9803
  11   2.0000     -10.090614      -274.5796
  12   2.0000     -10.090479      -274.5759
  13   2.0000     -10.089719      -274.5552
  14   2.0000     -10.089020      -274.5362
  15   2.0000     -10.019828      -272.6534
  16   2.0000     -10.018241      -272.6102
  17   2.0000     -10.016362      -272.5591
  18   2.0000     -10.015482      -272.5351
  19   2.0000      -7.874648      -214.2801
  20   2.0000      -7.872516      -214.2221
  21   2.0000      -7.822986      -212.8743
  22   2.0000      -7.822717      -212.8670
  23   2.0000      -6.597531      -179.5279
  24   2.0000      -6.597234      -179.5199
  25   2.0000      -5.821530      -158.4119
  26   2.0000      -5.819379      -158.3534
  27   2.0000      -5.818450      -158.3281
  28   2.0000      -5.816358      -158.2712
  29   2.0000      -5.811834      -158.1480
  30   2.0000      -5.809646      -158.0885
  31   2.0000      -5.770537      -157.0243
  32   2.0000      -5.770278      -157.0172
  33   2.0000      -5.763230      -156.8255
  34   2.0000      -5.763075      -156.8212
  35   2.0000      -5.763065      -156.8210
  36   2.0000      -5.762671      -156.8102
  37   2.0000      -4.742909      -129.0611
  38   2.0000      -4.742530      -129.0508
  39   2.0000      -4.742473      -129.0492
  40   2.0000      -4.742192      -129.0416
  41   2.0000      -4.741424      -129.0207
  42   2.0000      -4.741130      -129.0127
  43   2.0000      -1.053541       -28.6683
  44   2.0000      -1.050733       -28.5919
  45   2.0000      -1.013623       -27.5821
  46   2.0000      -1.009940       -27.4819
  47   2.0000      -0.805075       -21.9072
  48   2.0000      -0.756742       -20.5920
  49   2.0000      -0.744052       -20.2467
  50   2.0000      -0.723762       -19.6946
  51   2.0000      -0.720890       -19.6164
  52   2.0000      -0.708681       -19.2842
  53   2.0000      -0.688502       -18.7351
  54   2.0000      -0.675522       -18.3819
  55   2.0000      -0.629284       -17.1237
  56   2.0000      -0.619797       -16.8655
  57   2.0000      -0.600649       -16.3445
  58   2.0000      -0.592018       -16.1096
  59   2.0000      -0.589005       -16.0276
  60   2.0000      -0.528529       -14.3820
  61   2.0000      -0.522101       -14.2071
  62   2.0000      -0.495861       -13.4931
  63   2.0000      -0.491238       -13.3673
  64   2.0000      -0.473260       -12.8780
  65   2.0000      -0.456857       -12.4317
  66   2.0000      -0.455003       -12.3813
  67   2.0000      -0.446937       -12.1618
  68   2.0000      -0.441329       -12.0092
  69   2.0000      -0.429691       -11.6925
  70   2.0000      -0.418568       -11.3898
  71   2.0000      -0.414868       -11.2891
  72   2.0000      -0.407899       -11.0995
  73   2.0000      -0.399459       -10.8698
  74   2.0000      -0.391238       -10.6461
  75   2.0000      -0.384345       -10.4586
  76   2.0000      -0.383034       -10.4229
  77   2.0000      -0.368255       -10.0207
  78   2.0000      -0.362565        -9.8659
  79   2.0000      -0.357281        -9.7221
  80   2.0000      -0.355503        -9.6737
  81   2.0000      -0.353318        -9.6143
  82   2.0000      -0.349878        -9.5207
  83   2.0000      -0.347601        -9.4587
  84   2.0000      -0.343004        -9.3336
  85   2.0000      -0.330503        -8.9934
  86   2.0000      -0.317896        -8.6504
  87   2.0000      -0.313647        -8.5348
  88   2.0000      -0.307252        -8.3608
  89   2.0000      -0.303315        -8.2536
  90   2.0000      -0.297766        -8.1026
  91   2.0000      -0.294402        -8.0111
  92   2.0000      -0.282476        -7.6866
  93   2.0000      -0.280371        -7.6293
  94   2.0000      -0.274412        -7.4671
  95   2.0000      -0.249622        -6.7926
  96   2.0000      -0.237176        -6.4539
  97   2.0000      -0.234898        -6.3919
  98   2.0000      -0.226795        -6.1714
  99   2.0000      -0.221663        -6.0318
 100   2.0000      -0.218053        -5.9335
 101   0.0000      -0.052479        -1.4280
 102   0.0000      -0.031254        -0.8505
 103   0.0000      -0.005153        -0.1402
 104   0.0000      -0.000715        -0.0195
 105   0.0000       0.010048         0.2734

MULLIKEN ATOMIC CHARGES
-----------------------
   0 C :   -0.490326
   1 C :   -0.126619
   2 O :   -0.328436
   3 P :    0.710849
   4 S :   -0.518806
   5 O :   -0.288120
   6 C :   -0.122293
   7 C :   -0.498481
   8 S :   -0.148573
   9 C :   -0.244690
  10 S :   -0.146532
  11 P :    0.740084
  12 S :   -0.531147
  13 O :   -0.317865
  14 C :   -0.149878
  15 C :   -0.482321
  16 O :   -0.286214
  17 C :   -0.149607
  18 C :   -0.486374
  19 H :    0.170923
  20 H :    0.166404
  21 H :    0.169331
  22 H :    0.176044
  23 H :    0.163760
  24 H :    0.174077
  25 H :    0.169910
  26 H :    0.170867
  27 H :    0.165958
  28 H :    0.166618
  29 H :    0.231771
  30 H :    0.228407
  31 H :    0.171204
  32 H :    0.172976
  33 H :    0.166134
  34 H :    0.169930
  35 H :    0.166236
  36 H :    0.176761
  37 H :    0.179919
  38 H :    0.171927
  39 H :    0.169134
  40 H :    0.167057
Sum of atomic charges:   -0.0000000

LOEWDIN ATOMIC CHARGES
----------------------
   0 C :   -0.405901
   1 C :    0.026052
   2 O :   -0.675360
   3 P :    0.382969
   4 S :   -0.154735
   5 O :   -0.674140
   6 C :    0.032283
   7 C :   -0.405975
   8 S :    0.171317
   9 C :   -0.412220
  10 S :    0.163803
  11 P :    0.377536
  12 S :   -0.159480
  13 O :   -0.676379
  14 C :    0.024232
  15 C :   -0.389036
  16 O :   -0.684437
  17 C :    0.020772
  18 C :   -0.402022
  19 H :    0.162636
  20 H :    0.162237
  21 H :    0.167177
  22 H :    0.189484
  23 H :    0.179806
  24 H :    0.187858
  25 H :    0.181793
  26 H :    0.162279
  27 H :    0.164088
  28 H :    0.165289
  29 H :    0.196235
  30 H :    0.197211
  31 H :    0.179612
  32 H :    0.181649
  33 H :    0.163403
  34 H :    0.169084
  35 H :    0.162806
  36 H :    0.182611
  37 H :    0.190601
  38 H :    0.168750
  39 H :    0.163677
  40 H :    0.162435

  Mayer bond orders larger than 0.100000
B(  0-C ,  1-C ) :   0.9461 B(  0-C , 19-H ) :   0.9611 B(  0-C , 20-H ) :   0.9723
B(  0-C , 21-H ) :   0.9598 B(  1-C ,  2-O ) :   0.7650 B(  1-C , 22-H ) :   0.9537
B(  1-C , 23-H ) :   0.9549 B(  2-O ,  3-P ) :   1.0776 B(  3-P ,  4-S ) :   1.7137
B(  3-P ,  5-O ) :   1.1788 B(  3-P ,  8-S ) :   1.0984 B(  5-O ,  6-C ) :   0.7490
B(  6-C ,  7-C ) :   0.9367 B(  6-C , 24-H ) :   0.9494 B(  6-C , 25-H ) :   0.9631
B(  7-C , 26-H ) :   0.9653 B(  7-C , 27-H ) :   0.9660 B(  7-C , 28-H ) :   0.9589
B(  8-S ,  9-C ) :   0.8931 B(  9-C , 10-S ) :   0.8964 B(  9-C , 29-H ) :   0.9039
B(  9-C , 30-H ) :   0.9044 B( 10-S , 11-P ) :   1.0678 B( 11-P , 12-S ) :   1.7033
B( 11-P , 13-O ) :   1.0954 B( 11-P , 16-O ) :   1.1581 B( 13-O , 14-C ) :   0.7732
B( 14-C , 15-C ) :   0.9524 B( 14-C , 31-H ) :   0.9365 B( 14-C , 32-H ) :   0.9480
B( 15-C , 33-H ) :   0.9689 B( 15-C , 34-H ) :   0.9582 B( 15-C , 35-H ) :   0.9691
B( 16-O , 17-C ) :   0.7659 B( 17-C , 18-C ) :   0.9173 B( 17-C , 36-H ) :   0.9573
B( 17-C , 37-H ) :   0.9523 B( 18-C , 38-H ) :   0.9578 B( 18-C , 39-H ) :   0.9712
B( 18-C , 40-H ) :   0.9610

Dispersion correction           -0.021650761
FINAL SINGLE POINT ENERGY     -2932.473087299061

DIPOLE MOMENT
-------------

Method             : SCF
Type of density    : Electron Density
Multiplicity       :   1
Irrep              :   0
Energy             : -2932.4976736629319021 Eh
Relativity type    :
Basis              : AO
                                X                 Y                 Z
Electronic contribution:      4.659126024       6.384664045     -12.127978611
Nuclear contribution   :     -4.832045908      -7.153986117      12.905856791
                        -----------------------------------------
Total Dipole Moment    :     -0.172919884      -0.769322072       0.777878181
                        -----------------------------------------
Magnitude (a.u.)       :      1.107633604
Magnitude (Debye)      :      2.815380879

Rotational constants in cm-1:             0.013727             0.004812             0.004668
Rotational constants in MHz :           411.535311           144.274744           139.942664

                             ****ORCA TERMINATED NORMALLY****
TOTAL RUN TIME: 0 days 0 hours 1 minutes 49 seconds 563 msec
