                         Program Version 6.0.0  -   RELEASE  -
|  1> ! pbe def2-sv(p) def2/J RI DEFGRID1 loosescf d4 GCP(DFT/SV(P)) printgap
|  2> %output
|  3>     printlevel normal
|  4> end
|  5> * xyz 0 1
|  6> C 5.2911175517 -0.1068765318 -0.0640892179
|  7> C 4.2415846411 -1.0080025926 -0.6801570294
|  8> O 3.1050663215 -0.2650338409 -1.1750287223
|  9> P 2.1220816463 0.5678783001 -0.2484467255
| 10> S 2.6599794566 2.3301122011 0.417136276
| 11> O 1.7886768221 -0.4965620209 0.8871433885
| 12> C 1.4019919577 -0.1662140196 2.2298068041
| 13> C 2.2632334548 -0.9629802473 3.1898387734
| 14> S 0.4910706019 0.6708417672 -1.5823749916
| 15> C 0.0567256886 -1.0875761781 -1.7244487713
| 16> S -0.731667475 -1.7756196086 -0.2375571406
| 17> P -2.2279524559 -0.3173550959 -0.0124238327
| 18> S -3.091305861 0.39971667 -1.6251173052
| 19> O -1.446030563 0.7016778462 0.9265081878
| 20> C -2.0038992994 1.9864012959 1.2830336712
| 21> C -1.4145372489 3.0858504848 0.4220406628
| 22> O -3.2495808627 -0.9432755571 1.0347094231
| 23> C -4.3987226158 -1.7074728858 0.6270885518
| 24> C -4.0058392891 -3.0420056312 0.0275536247
| 25> H 5.6059543986 0.6503469337 -0.7781650849
| 26> H 4.8872748376 0.3986771683 0.8120519618
| 27> H 6.1496984461 -0.7015548923 0.231721182
| 28> H 3.8837623147 -1.7440917786 0.0432822397
| 29> H 4.6218759386 -1.5126304554 -1.5699179708
| 30> H 1.5304136485 0.9114791991 2.3795377095
| 31> H 0.3455513564 -0.4251537201 2.3330328498
| 32> H 2.1618059125 -2.025011728 2.9850057153
| 33> H 3.306812279 -0.6769445263 3.0850101772
| 34> H 1.9406552059 -0.761086984 4.205928945
| 35> H 0.9477942184 -1.6799736279 -1.9140660226
| 36> H -0.6413606266 -1.1414235516 -2.5584194164
| 37> H -3.0915243776 1.9469718829 1.1760851994
| 38> H -1.7429867828 2.1217775156 2.3340551884
| 39> H -1.6763186124 2.9306124584 -0.6228633899
| 40> H -1.8038668251 4.0448559987 0.7479398116
| 41> H -0.3296317007 3.095217336 0.5072565389
| 42> H -4.9720521332 -1.8290320173 1.5469521074
| 43> H -4.9695649404 -1.1142206746 -0.0944123824
| 44> H -3.348189856 -3.5815536504 0.7042136487
| 45> H -4.8991069238 -3.630484452 -0.1554360417
| 46> H -3.4864357712 -2.8853418251 -0.9168965375
| 47> *
| 48>
| 49>                          ****END OF INPUT****

CARTESIAN COORDINATES (ANGSTROEM)
---------------------------------
  C      5.291118   -0.106877   -0.064089
  C      4.241585   -1.008003   -0.680157
  O      3.105066   -0.265034   -1.175029
  P      2.122082    0.567878   -0.248447
  S      2.659979    2.330112    0.417136
  O      1.788677   -0.496562    0.887143
  C      1.401992   -0.166214    2.229807
  C      2.263233   -0.962980    3.189839
  S      0.491071    0.670842   -1.582375
  C      0.056726   -1.087576   -1.724449
  S     -0.731667   -1.775620   -0.237557
  P     -2.227952   -0.317355   -0.012424
  S     -3.091306    0.399717   -1.625117
  O     -1.446031    0.701678    0.926508
  C     -2.003899    1.986401    1.283034
  C     -1.414537    3.085850    0.422041
  O     -3.249581   -0.943276    1.034709
  C     -4.398723   -1.707473    0.627089
  C     -4.005839   -3.042006    0.027554
  H      5.605954    0.650347   -0.778165
  H      4.887275    0.398677    0.812052
  H      6.149698   -0.701555    0.231721
  H      3.883762   -1.744092    0.043282
  H      4.621876   -1.512630   -1.569918
  H      1.530414    0.911479    2.379538
  H      0.345551   -0.425154    2.333033
  H      2.161806   -2.025012    2.985006
  H      3.306812   -0.676945    3.085010
  H      1.940655   -0.761087    4.205929
  H      0.947794   -1.679974   -1.914066
  H     -0.641361   -1.141424   -2.558419
  H     -3.091524    1.946972    1.176085
  H     -1.742987    2.121778    2.334055
  H     -1.676319    2.930612   -0.622863
  H     -1.803867    4.044856    0.747940
  H     -0.329632    3.095217    0.507257
  H     -4.972052   -1.829032    1.546952
  H     -4.969565   -1.114221   -0.094412
  H     -3.348190   -3.581554    0.704214
  H     -4.899107   -3.630484   -0.155436
  H     -3.486436   -2.885342   -0.916897

 Total Charge           Charge          ....    0
 Multiplicity           Mult            ....    1
 Number of Electrons    NEL             ....  202
 Basis Dimension        Dim             ....  334

ORBITAL ENERGIES
----------------

  NO   OCC          E(Eh)            E(eV)
   0   2.0000     -88.045489     -2395.8396
   1   2.0000     -88.039573     -2395.6786
   2   2.0000     -87.989781     -2394.3237
   3   2.0000     -87.987170     -2394.2526
   4   2.0000     -76.429095     -2079.7414
   5   2.0000     -76.426278     -2079.6648
   6   2.0000     -18.795516      -511.4520
   7   2.0000     -18.794388      -511.4213
   8   2.0000     -18.794218      -511.4167
   9   2.0000     -18.788545      -511.2623
  10   2.0000      -9.959751      -271.0186
  11   2.0000      -9.957968      -270.9701
  12   2.0000      -9.953627      -270.8520
  13   2.0000      -9.948759      -270.7195
  14   2.0000      -9.945627      -270.6343
  15   2.0000      -9.886876      -269.0356
  16   2.0000      -9.886346      -269.0212
  17   2.0000      -9.885901      -269.0090
  18   2.0000      -9.868833      -268.5446
  19   2.0000      -7.690803      -209.2774
  20   2.0000      -7.684410      -209.1034
  21   2.0000      -7.634702      -207.7508
  22   2.0000      -7.632132      -207.6809
  23   2.0000      -6.426333      -174.8694
  24   2.0000      -6.423883      -174.8027
  25   2.0000      -5.718734      -155.6147
  26   2.0000      -5.715391      -155.5237
  27   2.0000      -5.712714      -155.4509
  28   2.0000      -5.708709      -155.3419
  29   2.0000      -5.707535      -155.3099
  30   2.0000      -5.701134      -155.1357
  31   2.0000      -5.663557      -154.1132
  32   2.0000      -5.661037      -154.0446
  33   2.0000      -5.655478      -153.8934
  34   2.0000      -5.654823      -153.8756
  35   2.0000      -5.652680      -153.8172
  36   2.0000      -5.652382      -153.8091
  37   2.0000      -4.648874      -126.5023
  38   2.0000      -4.648068      -126.4804
  39   2.0000      -4.646917      -126.4491
  40   2.0000      -4.646733      -126.4440
  41   2.0000      -4.645603      -126.4133
  42   2.0000      -4.644181      -126.3746
  43   2.0000      -0.988928       -26.9101
  44   2.0000      -0.987075       -26.8597
  45   2.0000      -0.945029       -25.7155
  46   2.0000      -0.943984       -25.6871
  47   2.0000      -0.766001       -20.8439
  48   2.0000      -0.724143       -19.7049
  49   2.0000      -0.707817       -19.2607
  50   2.0000      -0.689861       -18.7721
  51   2.0000      -0.684409       -18.6237
  52   2.0000      -0.671941       -18.2844
  53   2.0000      -0.655057       -17.8250
  54   2.0000      -0.639475       -17.4010
  55   2.0000      -0.597926       -16.2704
  56   2.0000      -0.591636       -16.0992
  57   2.0000      -0.575049       -15.6479
  58   2.0000      -0.573518       -15.6062
  59   2.0000      -0.559190       -15.2163
  60   2.0000      -0.503989       -13.7142
  61   2.0000      -0.499103       -13.5813
  62   2.0000      -0.477283       -12.9875
  63   2.0000      -0.469254       -12.7690
  64   2.0000      -0.461396       -12.5552
  65   2.0000      -0.443170       -12.0593
  66   2.0000      -0.440568       -11.9885
  67   2.0000      -0.436824       -11.8866
  68   2.0000      -0.425941       -11.5904
  69   2.0000      -0.418192       -11.3796
  70   2.0000      -0.412455       -11.2235
  71   2.0000      -0.397860       -10.8263
  72   2.0000      -0.395230       -10.7548
  73   2.0000      -0.385660       -10.4943
  74   2.0000      -0.377942       -10.2843
  75   2.0000      -0.374952       -10.2030
  76   2.0000      -0.366969        -9.9857
  77   2.0000      -0.357438        -9.7264
  78   2.0000      -0.352904        -9.6030
  79   2.0000      -0.348809        -9.4916
  80   2.0000      -0.348689        -9.4883
  81   2.0000      -0.345035        -9.3889
  82   2.0000      -0.342603        -9.3227
  83   2.0000      -0.335756        -9.1364
  84   2.0000      -0.332264        -9.0414
  85   2.0000      -0.325574        -8.8593
  86   2.0000      -0.304497        -8.2858
  87   2.0000      -0.297479        -8.0948
  88   2.0000      -0.295494        -8.0408
  89   2.0000      -0.291230        -7.9248
  90   2.0000      -0.286567        -7.7979
  91   2.0000      -0.280380        -7.6295
  92   2.0000      -0.274653        -7.4737
  93   2.0000      -0.265816        -7.2332
  94   2.0000      -0.258566        -7.0359
  95   2.0000      -0.231363        -6.2957
  96   2.0000      -0.220000        -5.9865
  97   2.0000      -0.208298        -5.6681
  98   2.0000      -0.206145        -5.6095
  99   2.0000      -0.203497        -5.5374
 100   2.0000      -0.198082        -5.3901
 101   0.0000      -0.046309        -1.2601
 102   0.0000      -0.017184        -0.4676
 103   0.0000      -0.008662        -0.2357
 104   0.0000       0.001601         0.0436
 105   0.0000       0.007405         0.2015

MULLIKEN ATOMIC CHARGES
-----------------------
   0 C :   -0.318320
   1 C :   -0.007836
   2 O :   -0.379128
   3 P :    0.630009
   4 S :   -0.314219
   5 O :   -0.381390
   6 C :   -0.016989
   7 C :   -0.290579
   8 S :   -0.053093
   9 C :   -0.347129
  10 S :   -0.081633
  11 P :    0.608043
  12 S :   -0.327876
  13 O :   -0.365545
  14 C :   -0.003250
  15 C :   -0.300659
  16 O :   -0.373921
  17 C :   -0.004817
  18 C :   -0.315429
  19 H :    0.125820
  20 H :    0.132871
  21 H :    0.110167
  22 H :    0.107851
  23 H :    0.107733
  24 H :    0.106463
  25 H :    0.112503
  26 H :    0.113725
  27 H :    0.113705
  28 H :    0.111057
  29 H :    0.180437
  30 H :    0.192325
  31 H :    0.099065
  32 H :    0.103326
  33 H :    0.127852
  34 H :    0.102557
  35 H :    0.122689
  36 H :    0.104955
  37 H :    0.112657
  38 H :    0.116602
  39 H :    0.113970
  40 H :    0.125432
Sum of atomic charges:    0.0000000

LOEWDIN ATOMIC CHARGES
----------------------
   0 C :   -0.367204
   1 C :   -0.114015
   2 O :   -0.248263
   3 P :    0.564922
   4 S :   -0.310183
   5 O :   -0.241598
   6 C :   -0.126851
   7 C :   -0.354356
   8 S :    0.115723
   9 C :   -0.474435
  10 S :    0.096550
  11 P :    0.568252
  12 S :   -0.323148
  13 O :   -0.242188
  14 C :   -0.111563
  15 C :   -0.367517
  16 O :   -0.247120
  17 C :   -0.120637
  18 C :   -0.369107
  19 H :    0.131494
  20 H :    0.120664
  21 H :    0.129363
  22 H :    0.110684
  23 H :    0.120186
  24 H :    0.104255
  25 H :    0.108850
  26 H :    0.124347
  27 H :    0.122503
  28 H :    0.130634
  29 H :    0.133162
  30 H :    0.136272
  31 H :    0.107578
  32 H :    0.116813
  33 H :    0.124642
  34 H :    0.126331
  35 H :    0.119894
  36 H :    0.118538
  37 H :    0.110525
  38 H :    0.123881
  39 H :    0.131442
  40 H :    0.120681

  Mayer bond orders larger than 0.100000
B(  0-C ,  1-C ) :   1.1684 B(  0-C , 19-H ) :   0.9448 B(  0-C , 20-H ) :   0.9316
B(  0-C , 21-H ) :   0.9365 B(  1-C ,  2-O ) :   0.9071 B(  1-C , 22-H ) :   0.9262
B(  1-C , 23-H ) :   0.9348 B(  2-O ,  3-P ) :   1.0972 B(  3-P ,  4-S ) :   1.6437
B(  3-P ,  5-O ) :   1.0848 B(  3-P ,  8-S ) :   0.9790 B(  5-O ,  6-C ) :   0.9014
B(  6-C ,  7-C ) :   1.1556 B(  6-C , 24-H ) :   0.9033 B(  6-C , 25-H ) :   0.9164
B(  7-C , 26-H ) :   0.9496 B(  7-C , 27-H ) :   0.9472 B(  7-C , 28-H ) :   0.9421
B(  8-S ,  9-C ) :   0.9980 B(  9-C , 10-S ) :   0.9864 B(  9-C , 29-H ) :   0.9012
B(  9-C , 30-H ) :   0.8955 B( 10-S , 11-P ) :   0.9717 B( 10-S , 12-S ) :   0.1132
B( 11-P , 12-S ) :   1.5951 B( 11-P , 13-O ) :   1.1096 B( 11-P , 16-O ) :   1.1073
B( 13-O , 14-C ) :   0.8900 B( 14-C , 15-C ) :   1.1732 B( 14-C , 31-H ) :   0.9161
B( 14-C , 32-H ) :   0.9332 B( 15-C , 33-H ) :   0.9365 B( 15-C , 34-H ) :   0.9387
B( 15-C , 35-H ) :   0.9283 B( 16-O , 17-C ) :   0.9083 B( 17-C , 18-C ) :   1.1650
B( 17-C , 36-H ) :   0.9336 B( 17-C , 37-H ) :   0.9141 B( 18-C , 38-H ) :   0.9453
B( 18-C , 39-H ) :   0.9381 B( 18-C , 40-H ) :   0.9354

Dispersion correction           -0.067134730
FINAL SINGLE POINT ENERGY     -2929.523284629186

DIPOLE MOMENT
-------------

Method             : SCF
Type of density    : Electron Density
Multiplicity       :   1
Irrep              :   0
Energy             : -2929.6418850994550667 Eh
Relativity type    :
Basis              : AO
                                X                 Y                 Z
Electronic contribution:     -4.198558601       5.895035633     -12.989597515
Nuclear contribution   :      4.264225481      -7.423883475      13.932028183
                        -----------------------------------------
Total Dipole Moment    :      0.065666880      -1.528847843       0.942430668
                        -----------------------------------------
Magnitude (a.u.)       :      1.797182080
Magnitude (Debye)      :      4.568073817

Rotational constants in cm-1:             0.013141             0.005131             0.004890
Rotational constants in MHz :           393.970895           153.816231           146.592106

                             ****ORCA TERMINATED NORMALLY****
TOTAL RUN TIME: 0 days 0 hours 0 minutes 21 seconds 675 msec
