                         Program Version 6.0.0  -   RELEASE  -
|  1> ! pbe def2-sv(p) def2/J RI DEFGRID1 loosescf d4 GCP(DFT/SV(P)) printgap
|  2> %output
|  3>     printlevel normal
|  4> end
|  5> * xyz 0 1
|  6> C 4.4218913596 -0.9437366058 -2.1480358669
|  7> C 3.4569147805 -2.0214466578 -1.6983679033
|  8> O 2.869583923 -1.7452512775 -0.4134253771
|  9> P 2.0985220979 -0.417490993 -0.0179009253
| 10> S 3.1556533693 1.1815279071 0.4108531169
| 11> O 1.2491093589 -0.995006316 1.1874538075
| 12> C 1.3271826025 -0.4933580365 2.5311770907
| 13> C 2.4311143427 -1.1967993097 3.2934533639
| 14> S 0.6939938972 -0.2046323437 -1.5959055451
| 15> C 0.204513911 1.4950140232 -1.221156669
| 16> S -0.5611863423 1.6783142529 0.4167062854
| 17> P -2.2078107882 0.406609024 0.0777888927
| 18> S -2.966196503 0.3276411888 -1.7311889202
| 19> O -3.261375504 0.8035209726 1.2034199477
| 20> C -4.2818909041 1.7947881332 0.9916738837
| 21> C -3.7038380425 3.1904551469 0.8766345103
| 22> O -1.6307831271 -0.9388127742 0.6813908997
| 23> C -2.2193696585 -2.2326265839 0.4166039134
| 24> C -1.3346533824 -3.0204295298 -0.5294367403
| 25> H 5.1799758908 -0.7719374071 -1.3875297247
| 26> H 4.9020239113 -1.2526211458 -3.0709818023
| 27> H 3.8891055199 -0.0097441392 -2.3209961214
| 28> H 3.9661756569 -2.974853701 -1.5462027993
| 29> H 2.6487175398 -2.1451098056 -2.4248842296
| 30> H 1.5023886755 0.5877736855 2.5031819276
| 31> H 0.3419019696 -0.6912749487 2.9569404619
| 32> H 2.2726339064 -2.271457835 3.2782209388
| 33> H 3.391256951 -0.9762813472 2.8291223283
| 34> H 2.4428843331 -0.8446014883 4.3199134555
| 35> H -0.5050237944 1.7871925912 -1.9941163029
| 36> H 1.0825403327 2.1404721861 -1.2172880855
| 37> H -4.835230613 1.5313137092 0.0845072791
| 38> H -4.928502124 1.6955931205 1.8644676411
| 39> H -3.1113610895 3.2744622866 -0.0335824605
| 40> H -4.5131037468 3.9124820804 0.8373894394
| 41> H -3.0659677539 3.4073443002 1.7298899084
| 42> H -2.2941787474 -2.7164751192 1.3918055969
| 43> H -3.2199005477 -2.0957623652 -0.0039291177
| 44> H -0.3196551131 -3.0580929489 -0.1402244298
| 45> H -1.7224804729 -4.0291336881 -0.6283711568
| 46> H -1.3157641253 -2.546415868 -1.5088086285
| 47> *
| 48>
| 49>                          ****END OF INPUT****

CARTESIAN COORDINATES (ANGSTROEM)
---------------------------------
  C      4.421891   -0.943737   -2.148036
  C      3.456915   -2.021447   -1.698368
  O      2.869584   -1.745251   -0.413425
  P      2.098522   -0.417491   -0.017901
  S      3.155653    1.181528    0.410853
  O      1.249109   -0.995006    1.187454
  C      1.327183   -0.493358    2.531177
  C      2.431114   -1.196799    3.293453
  S      0.693994   -0.204632   -1.595906
  C      0.204514    1.495014   -1.221157
  S     -0.561186    1.678314    0.416706
  P     -2.207811    0.406609    0.077789
  S     -2.966197    0.327641   -1.731189
  O     -3.261376    0.803521    1.203420
  C     -4.281891    1.794788    0.991674
  C     -3.703838    3.190455    0.876635
  O     -1.630783   -0.938813    0.681391
  C     -2.219370   -2.232627    0.416604
  C     -1.334653   -3.020430   -0.529437
  H      5.179976   -0.771937   -1.387530
  H      4.902024   -1.252621   -3.070982
  H      3.889106   -0.009744   -2.320996
  H      3.966176   -2.974854   -1.546203
  H      2.648718   -2.145110   -2.424884
  H      1.502389    0.587774    2.503182
  H      0.341902   -0.691275    2.956940
  H      2.272634   -2.271458    3.278221
  H      3.391257   -0.976281    2.829122
  H      2.442884   -0.844601    4.319913
  H     -0.505024    1.787193   -1.994116
  H      1.082540    2.140472   -1.217288
  H     -4.835231    1.531314    0.084507
  H     -4.928502    1.695593    1.864468
  H     -3.111361    3.274462   -0.033582
  H     -4.513104    3.912482    0.837389
  H     -3.065968    3.407344    1.729890
  H     -2.294179   -2.716475    1.391806
  H     -3.219901   -2.095762   -0.003929
  H     -0.319655   -3.058093   -0.140224
  H     -1.722480   -4.029134   -0.628371
  H     -1.315764   -2.546416   -1.508809

 Total Charge           Charge          ....    0
 Multiplicity           Mult            ....    1
 Number of Electrons    NEL             ....  202
 Basis Dimension        Dim             ....  334

ORBITAL ENERGIES
----------------

  NO   OCC          E(Eh)            E(eV)
   0   2.0000     -88.045550     -2395.8412
   1   2.0000     -88.043698     -2395.7908
   2   2.0000     -87.990291     -2394.3375
   3   2.0000     -87.987582     -2394.2638
   4   2.0000     -76.426890     -2079.6814
   5   2.0000     -76.426801     -2079.6790
   6   2.0000     -18.794465      -511.4234
   7   2.0000     -18.793172      -511.3882
   8   2.0000     -18.786320      -511.2018
   9   2.0000     -18.784682      -511.1572
  10   2.0000      -9.958653      -270.9887
  11   2.0000      -9.956948      -270.9423
  12   2.0000      -9.952062      -270.8094
  13   2.0000      -9.950243      -270.7599
  14   2.0000      -9.942879      -270.5595
  15   2.0000      -9.884462      -268.9699
  16   2.0000      -9.883808      -268.9521
  17   2.0000      -9.877959      -268.7929
  18   2.0000      -9.876663      -268.7577
  19   2.0000      -7.690379      -209.2659
  20   2.0000      -7.688363      -209.2110
  21   2.0000      -7.635230      -207.7652
  22   2.0000      -7.632472      -207.6901
  23   2.0000      -6.424391      -174.8166
  24   2.0000      -6.423933      -174.8041
  25   2.0000      -5.718231      -155.6010
  26   2.0000      -5.716160      -155.5446
  27   2.0000      -5.715030      -155.5139
  28   2.0000      -5.712873      -155.4552
  29   2.0000      -5.707214      -155.3012
  30   2.0000      -5.705431      -155.2527
  31   2.0000      -5.664036      -154.1263
  32   2.0000      -5.661354      -154.0533
  33   2.0000      -5.656030      -153.9084
  34   2.0000      -5.655363      -153.8902
  35   2.0000      -5.653079      -153.8281
  36   2.0000      -5.652711      -153.8181
  37   2.0000      -4.646792      -126.4456
  38   2.0000      -4.646291      -126.4320
  39   2.0000      -4.646106      -126.4270
  40   2.0000      -4.645905      -126.4215
  41   2.0000      -4.645058      -126.3984
  42   2.0000      -4.644456      -126.3821
  43   2.0000      -0.986484       -26.8436
  44   2.0000      -0.984912       -26.8008
  45   2.0000      -0.943825       -25.6828
  46   2.0000      -0.942253       -25.6400
  47   2.0000      -0.767137       -20.8749
  48   2.0000      -0.720838       -19.6150
  49   2.0000      -0.708354       -19.2753
  50   2.0000      -0.685689       -18.6586
  51   2.0000      -0.682951       -18.5840
  52   2.0000      -0.673102       -18.3160
  53   2.0000      -0.652093       -17.7443
  54   2.0000      -0.641141       -17.4463
  55   2.0000      -0.600510       -16.3407
  56   2.0000      -0.593897       -16.1608
  57   2.0000      -0.573543       -15.6069
  58   2.0000      -0.568437       -15.4680
  59   2.0000      -0.559640       -15.2286
  60   2.0000      -0.500979       -13.6323
  61   2.0000      -0.494104       -13.4453
  62   2.0000      -0.470225       -12.7955
  63   2.0000      -0.468701       -12.7540
  64   2.0000      -0.460043       -12.5184
  65   2.0000      -0.440821       -11.9954
  66   2.0000      -0.439709       -11.9651
  67   2.0000      -0.433406       -11.7936
  68   2.0000      -0.427489       -11.6326
  69   2.0000      -0.417405       -11.3582
  70   2.0000      -0.411698       -11.2029
  71   2.0000      -0.393672       -10.7124
  72   2.0000      -0.390198       -10.6178
  73   2.0000      -0.384773       -10.4702
  74   2.0000      -0.380128       -10.3438
  75   2.0000      -0.376898       -10.2559
  76   2.0000      -0.372114       -10.1257
  77   2.0000      -0.354520        -9.6470
  78   2.0000      -0.349599        -9.5131
  79   2.0000      -0.347111        -9.4454
  80   2.0000      -0.346467        -9.4279
  81   2.0000      -0.345338        -9.3971
  82   2.0000      -0.340271        -9.2592
  83   2.0000      -0.338720        -9.2170
  84   2.0000      -0.333699        -9.0804
  85   2.0000      -0.318793        -8.6748
  86   2.0000      -0.305352        -8.3090
  87   2.0000      -0.296695        -8.0735
  88   2.0000      -0.296117        -8.0577
  89   2.0000      -0.287293        -7.8176
  90   2.0000      -0.280336        -7.6283
  91   2.0000      -0.278245        -7.5714
  92   2.0000      -0.272307        -7.4098
  93   2.0000      -0.264364        -7.1937
  94   2.0000      -0.254705        -6.9309
  95   2.0000      -0.233064        -6.3420
  96   2.0000      -0.219445        -5.9714
  97   2.0000      -0.215038        -5.8515
  98   2.0000      -0.208301        -5.6682
  99   2.0000      -0.201170        -5.4741
 100   2.0000      -0.199195        -5.4204
 101   0.0000      -0.047789        -1.3004
 102   0.0000      -0.026111        -0.7105
 103   0.0000      -0.004388        -0.1194
 104   0.0000       0.000333         0.0091
 105   0.0000       0.006413         0.1745

MULLIKEN ATOMIC CHARGES
-----------------------
   0 C :   -0.309039
   1 C :   -0.013535
   2 O :   -0.369862
   3 P :    0.620323
   4 S :   -0.333326
   5 O :   -0.353042
   6 C :   -0.010554
   7 C :   -0.287890
   8 S :   -0.092761
   9 C :   -0.350988
  10 S :   -0.076790
  11 P :    0.613063
  12 S :   -0.339307
  13 O :   -0.372583
  14 C :   -0.004170
  15 C :   -0.314217
  16 O :   -0.356942
  17 C :   -0.001540
  18 C :   -0.295841
  19 H :    0.126055
  20 H :    0.111682
  21 H :    0.124965
  22 H :    0.110044
  23 H :    0.115852
  24 H :    0.113360
  25 H :    0.101003
  26 H :    0.110642
  27 H :    0.117208
  28 H :    0.107857
  29 H :    0.189796
  30 H :    0.191657
  31 H :    0.111205
  32 H :    0.104930
  33 H :    0.124519
  34 H :    0.113250
  35 H :    0.118155
  36 H :    0.103883
  37 H :    0.102050
  38 H :    0.121466
  39 H :    0.103357
  40 H :    0.126064
Sum of atomic charges:    0.0000000

LOEWDIN ATOMIC CHARGES
----------------------
   0 C :   -0.369114
   1 C :   -0.114923
   2 O :   -0.240892
   3 P :    0.571859
   4 S :   -0.318615
   5 O :   -0.226887
   6 C :   -0.124417
   7 C :   -0.360105
   8 S :    0.091601
   9 C :   -0.479011
  10 S :    0.104529
  11 P :    0.570064
  12 S :   -0.328022
  13 O :   -0.248416
  14 C :   -0.120238
  15 C :   -0.368706
  16 O :   -0.236181
  17 C :   -0.110515
  18 C :   -0.362608
  19 H :    0.129900
  20 H :    0.130134
  21 H :    0.121027
  22 H :    0.121868
  23 H :    0.109245
  24 H :    0.104134
  25 H :    0.114910
  26 H :    0.123490
  27 H :    0.123190
  28 H :    0.128423
  29 H :    0.131323
  30 H :    0.130870
  31 H :    0.109953
  32 H :    0.118560
  33 H :    0.120289
  34 H :    0.131059
  35 H :    0.124712
  36 H :    0.116980
  37 H :    0.107737
  38 H :    0.124094
  39 H :    0.125611
  40 H :    0.123087

  Mayer bond orders larger than 0.100000
B(  0-C ,  1-C ) :   1.1647 B(  0-C , 19-H ) :   0.9431 B(  0-C , 20-H ) :   0.9354
B(  0-C , 21-H ) :   0.9336 B(  1-C ,  2-O ) :   0.9147 B(  1-C , 22-H ) :   0.9339
B(  1-C , 23-H ) :   0.9260 B(  2-O ,  3-P ) :   1.1198 B(  3-P ,  4-S ) :   1.5872
B(  3-P ,  5-O ) :   1.1235 B(  3-P ,  8-S ) :   0.9400 B(  4-S ,  8-S ) :   0.1071
B(  5-O ,  6-C ) :   0.9005 B(  6-C ,  7-C ) :   1.1616 B(  6-C , 24-H ) :   0.9052
B(  6-C , 25-H ) :   0.9308 B(  7-C , 26-H ) :   0.9482 B(  7-C , 27-H ) :   0.9411
B(  7-C , 28-H ) :   0.9417 B(  8-S ,  9-C ) :   1.0138 B(  9-C , 10-S ) :   0.9995
B(  9-C , 29-H ) :   0.8876 B(  9-C , 30-H ) :   0.8822 B( 10-S , 11-P ) :   0.9558
B( 10-S , 12-S ) :   0.1089 B( 11-P , 12-S ) :   1.5836 B( 11-P , 13-O ) :   1.1117
B( 11-P , 16-O ) :   1.1385 B( 13-O , 14-C ) :   0.9106 B( 14-C , 15-C ) :   1.1644
B( 14-C , 31-H ) :   0.9149 B( 14-C , 32-H ) :   0.9338 B( 15-C , 33-H ) :   0.9361
B( 15-C , 34-H ) :   0.9382 B( 15-C , 35-H ) :   0.9451 B( 16-O , 17-C ) :   0.8933
B( 17-C , 18-C ) :   1.1721 B( 17-C , 36-H ) :   0.9340 B( 17-C , 37-H ) :   0.9127
B( 18-C , 38-H ) :   0.9419 B( 18-C , 39-H ) :   0.9394 B( 18-C , 40-H ) :   0.9394

Dispersion correction           -0.067980091
FINAL SINGLE POINT ENERGY     -2929.525832759515

DIPOLE MOMENT
-------------

Method             : SCF
Type of density    : Electron Density
Multiplicity       :   1
Irrep              :   0
Energy             : -2929.6427223309433430 Eh
Relativity type    :
Basis              : AO
                                X                 Y                 Z
Electronic contribution:     -2.064293513       7.071825261      -4.911737176
Nuclear contribution   :      1.754726861      -7.668798055       5.235546029
                        -----------------------------------------
Total Dipole Moment    :     -0.309566652      -0.596972794       0.323808853
                        -----------------------------------------
Magnitude (a.u.)       :      0.746364657
Magnitude (Debye)      :      1.897108194

Rotational constants in cm-1:             0.012593             0.005274             0.005095
Rotational constants in MHz :           377.524251           158.101623           152.745349

                             ****ORCA TERMINATED NORMALLY****
TOTAL RUN TIME: 0 days 0 hours 0 minutes 21 seconds 542 msec
