                         Program Version 6.0.0  -   RELEASE  -
|  1> ! pbe def2-sv(p) def2/J RI DEFGRID1 loosescf d4 GCP(DFT/SV(P)) printgap
|  2> %output
|  3>     printlevel normal
|  4> end
|  5> * xyz 0 1
|  6> C 5.2202204976 -2.5025883028 -0.8392651753
|  7> C 4.1486618653 -1.5267293657 -1.2807080901
|  8> O 3.3921593049 -1.1445110969 -0.1115359965
|  9> P 2.4205545756 0.1093735613 -0.1380482089
| 10> S 3.2068834324 1.7963500891 -0.7316188753
| 11> O 1.8945049307 0.1699876084 1.3424752527
| 12> C 1.401436118 -0.995120493 2.0508346228
| 13> C 2.4465421184 -1.4959738643 3.0253675491
| 14> S 0.7973161025 -0.6038759963 -1.339515733
| 15> C 0.0889520391 1.022262533 -1.6818078871
| 16> S -0.5608658551 1.8213862217 -0.1880744436
| 17> P -2.2643538741 0.5838432768 3.73281e-05
| 18> S -3.177695662 0.142056595 -1.6803658021
| 19> O -2.9851568788 1.5067668315 1.0665112683
| 20> C -4.0983097622 1.0634628147 1.8738317906
| 21> C -5.4025345041 1.0936042512 1.1017303729
| 22> O -1.8164680592 -0.6876233417 0.8528033598
| 23> C -1.9404781792 -2.0474175627 0.3898396504
| 24> C -3.248753506 -2.6492902451 0.862163714
| 25> H 5.7957867933 -2.812697527 -1.7050849452
| 26> H 5.8832339261 -2.0295775948 -0.1203574428
| 27> H 4.7638141801 -3.3746737006 -0.3803775957
| 28> H 3.460265302 -1.9829274086 -1.9970223837
| 29> H 4.5820561801 -0.6244365943 -1.7237557113
| 30> H 0.5008585955 -0.6502296403 2.5635902967
| 31> H 1.1412507723 -1.7662695648 1.3206071433
| 32> H 2.0395438888 -2.3306671972 3.5874262495
| 33> H 3.3327625202 -1.8210045711 2.486696891
| 34> H 2.7255741173 -0.7014187658 3.711745929
| 35> H -0.7166605309 0.8765975636 -2.4027014758
| 36> H 0.8663843993 1.6762379745 -2.0765886161
| 37> H -3.8837978873 0.0594744668 2.2488438124
| 38> H -4.1132067717 1.7711230276 2.7047637944
| 39> H -5.5850920272 2.0922159055 0.7135751414
| 40> H -5.3660471937 0.4014693595 0.2625901103
| 41> H -6.2166455702 0.810314763 1.7614126242
| 42> H -1.8787950142 -2.0631337821 -0.7021032593
| 43> H -1.0822432811 -2.5699300733 0.8132127619
| 44> H -3.2930251556 -3.6884861048 0.5530328224
| 45> H -3.3238727574 -2.5944257512 1.9448146435
| 46> H -4.0853928007 -2.1147438263 0.4161865045
| 47> *
| 48>
| 49>                          ****END OF INPUT****

CARTESIAN COORDINATES (ANGSTROEM)
---------------------------------
  C      5.220220   -2.502588   -0.839265
  C      4.148662   -1.526729   -1.280708
  O      3.392159   -1.144511   -0.111536
  P      2.420555    0.109374   -0.138048
  S      3.206883    1.796350   -0.731619
  O      1.894505    0.169988    1.342475
  C      1.401436   -0.995120    2.050835
  C      2.446542   -1.495974    3.025368
  S      0.797316   -0.603876   -1.339516
  C      0.088952    1.022263   -1.681808
  S     -0.560866    1.821386   -0.188074
  P     -2.264354    0.583843    0.000037
  S     -3.177696    0.142057   -1.680366
  O     -2.985157    1.506767    1.066511
  C     -4.098310    1.063463    1.873832
  C     -5.402535    1.093604    1.101730
  O     -1.816468   -0.687623    0.852803
  C     -1.940478   -2.047418    0.389840
  C     -3.248754   -2.649290    0.862164
  H      5.795787   -2.812698   -1.705085
  H      5.883234   -2.029578   -0.120357
  H      4.763814   -3.374674   -0.380378
  H      3.460265   -1.982927   -1.997022
  H      4.582056   -0.624437   -1.723756
  H      0.500859   -0.650230    2.563590
  H      1.141251   -1.766270    1.320607
  H      2.039544   -2.330667    3.587426
  H      3.332763   -1.821005    2.486697
  H      2.725574   -0.701419    3.711746
  H     -0.716661    0.876598   -2.402701
  H      0.866384    1.676238   -2.076589
  H     -3.883798    0.059474    2.248844
  H     -4.113207    1.771123    2.704764
  H     -5.585092    2.092216    0.713575
  H     -5.366047    0.401469    0.262590
  H     -6.216646    0.810315    1.761413
  H     -1.878795   -2.063134   -0.702103
  H     -1.082243   -2.569930    0.813213
  H     -3.293025   -3.688486    0.553033
  H     -3.323873   -2.594426    1.944815
  H     -4.085393   -2.114744    0.416187

 Total Charge           Charge          ....    0
 Multiplicity           Mult            ....    1
 Number of Electrons    NEL             ....  202
 Basis Dimension        Dim             ....  334

ORBITAL ENERGIES
----------------

  NO   OCC          E(Eh)            E(eV)
   0   2.0000     -88.040815     -2395.7124
   1   2.0000     -88.036802     -2395.6032
   2   2.0000     -87.990840     -2394.3525
   3   2.0000     -87.985163     -2394.1980
   4   2.0000     -76.428121     -2079.7149
   5   2.0000     -76.426574     -2079.6728
   6   2.0000     -18.799349      -511.5563
   7   2.0000     -18.796942      -511.4908
   8   2.0000     -18.795907      -511.4626
   9   2.0000     -18.792500      -511.3699
  10   2.0000      -9.960788      -271.0468
  11   2.0000      -9.957527      -270.9581
  12   2.0000      -9.956678      -270.9350
  13   2.0000      -9.955295      -270.8974
  14   2.0000      -9.948588      -270.7148
  15   2.0000      -9.893069      -269.2041
  16   2.0000      -9.891139      -269.1516
  17   2.0000      -9.888397      -269.0770
  18   2.0000      -9.886437      -269.0236
  19   2.0000      -7.685605      -209.1359
  20   2.0000      -7.682127      -209.0413
  21   2.0000      -7.635771      -207.7799
  22   2.0000      -7.630517      -207.6369
  23   2.0000      -6.425825      -174.8556
  24   2.0000      -6.424184      -174.8109
  25   2.0000      -5.713222      -155.4647
  26   2.0000      -5.710194      -155.3823
  27   2.0000      -5.710037      -155.3780
  28   2.0000      -5.706880      -155.2921
  29   2.0000      -5.702840      -155.1822
  30   2.0000      -5.698779      -155.0717
  31   2.0000      -5.664544      -154.1401
  32   2.0000      -5.659524      -154.0035
  33   2.0000      -5.656712      -153.9270
  34   2.0000      -5.655745      -153.9006
  35   2.0000      -5.650998      -153.7715
  36   2.0000      -5.650676      -153.7627
  37   2.0000      -4.648681      -126.4970
  38   2.0000      -4.647197      -126.4567
  39   2.0000      -4.647130      -126.4548
  40   2.0000      -4.646368      -126.4341
  41   2.0000      -4.645942      -126.4225
  42   2.0000      -4.644279      -126.3772
  43   2.0000      -0.992484       -27.0069
  44   2.0000      -0.989954       -26.9380
  45   2.0000      -0.948614       -25.8131
  46   2.0000      -0.948076       -25.7985
  47   2.0000      -0.762982       -20.7618
  48   2.0000      -0.725425       -19.7398
  49   2.0000      -0.713364       -19.4116
  50   2.0000      -0.695907       -18.9366
  51   2.0000      -0.692617       -18.8471
  52   2.0000      -0.673747       -18.3336
  53   2.0000      -0.651288       -17.7224
  54   2.0000      -0.637934       -17.3591
  55   2.0000      -0.598662       -16.2904
  56   2.0000      -0.589771       -16.0485
  57   2.0000      -0.582133       -15.8407
  58   2.0000      -0.572365       -15.5748
  59   2.0000      -0.561193       -15.2708
  60   2.0000      -0.513054       -13.9609
  61   2.0000      -0.501321       -13.6416
  62   2.0000      -0.485111       -13.2005
  63   2.0000      -0.480942       -13.0871
  64   2.0000      -0.459947       -12.5158
  65   2.0000      -0.447927       -12.1887
  66   2.0000      -0.443580       -12.0704
  67   2.0000      -0.439526       -11.9601
  68   2.0000      -0.433353       -11.7921
  69   2.0000      -0.414271       -11.2729
  70   2.0000      -0.407740       -11.0952
  71   2.0000      -0.398627       -10.8472
  72   2.0000      -0.392936       -10.6923
  73   2.0000      -0.384696       -10.4681
  74   2.0000      -0.380499       -10.3539
  75   2.0000      -0.376096       -10.2341
  76   2.0000      -0.369032       -10.0419
  77   2.0000      -0.361349        -9.8328
  78   2.0000      -0.357286        -9.7222
  79   2.0000      -0.355121        -9.6633
  80   2.0000      -0.353592        -9.6217
  81   2.0000      -0.350108        -9.5269
  82   2.0000      -0.345953        -9.4139
  83   2.0000      -0.343182        -9.3385
  84   2.0000      -0.338227        -9.2036
  85   2.0000      -0.325709        -8.8630
  86   2.0000      -0.313175        -8.5219
  87   2.0000      -0.304943        -8.2979
  88   2.0000      -0.300624        -8.1804
  89   2.0000      -0.296003        -8.0547
  90   2.0000      -0.294240        -8.0067
  91   2.0000      -0.281738        -7.6665
  92   2.0000      -0.275944        -7.5088
  93   2.0000      -0.267730        -7.2853
  94   2.0000      -0.258490        -7.0339
  95   2.0000      -0.233331        -6.3493
  96   2.0000      -0.218075        -5.9341
  97   2.0000      -0.213592        -5.8121
  98   2.0000      -0.204398        -5.5619
  99   2.0000      -0.200252        -5.4491
 100   2.0000      -0.198867        -5.4115
 101   0.0000      -0.044874        -1.2211
 102   0.0000      -0.022475        -0.6116
 103   0.0000       0.000233         0.0063
 104   0.0000       0.001710         0.0465
 105   0.0000       0.012720         0.3461

MULLIKEN ATOMIC CHARGES
-----------------------
   0 C :   -0.282288
   1 C :   -0.012014
   2 O :   -0.385434
   3 P :    0.598279
   4 S :   -0.307516
   5 O :   -0.344247
   6 C :   -0.026553
   7 C :   -0.283724
   8 S :   -0.115071
   9 C :   -0.380296
  10 S :   -0.051431
  11 P :    0.637615
  12 S :   -0.333317
  13 O :   -0.373683
  14 C :   -0.018340
  15 C :   -0.309886
  16 O :   -0.381452
  17 C :   -0.014788
  18 C :   -0.298966
  19 H :    0.114995
  20 H :    0.123370
  21 H :    0.114503
  22 H :    0.105530
  23 H :    0.108847
  24 H :    0.117048
  25 H :    0.107153
  26 H :    0.106936
  27 H :    0.118489
  28 H :    0.122188
  29 H :    0.193173
  30 H :    0.196535
  31 H :    0.107004
  32 H :    0.112212
  33 H :    0.123128
  34 H :    0.135683
  35 H :    0.109169
  36 H :    0.114091
  37 H :    0.103584
  38 H :    0.112962
  39 H :    0.115742
  40 H :    0.120769
Sum of atomic charges:   -0.0000000

LOEWDIN ATOMIC CHARGES
----------------------
   0 C :   -0.350499
   1 C :   -0.119425
   2 O :   -0.250561
   3 P :    0.567448
   4 S :   -0.305264
   5 O :   -0.227590
   6 C :   -0.114091
   7 C :   -0.357175
   8 S :    0.056321
   9 C :   -0.489375
  10 S :    0.104892
  11 P :    0.571925
  12 S :   -0.313129
  13 O :   -0.244060
  14 C :   -0.111838
  15 C :   -0.364928
  16 O :   -0.246495
  17 C :   -0.124715
  18 C :   -0.362086
  19 H :    0.132445
  20 H :    0.129799
  21 H :    0.125374
  22 H :    0.109264
  23 H :    0.111749
  24 H :    0.120790
  25 H :    0.102098
  26 H :    0.128145
  27 H :    0.125664
  28 H :    0.130002
  29 H :    0.127367
  30 H :    0.129938
  31 H :    0.109021
  32 H :    0.122577
  33 H :    0.131105
  34 H :    0.122526
  35 H :    0.129282
  36 H :    0.105515
  37 H :    0.111120
  38 H :    0.132033
  39 H :    0.121732
  40 H :    0.123100

  Mayer bond orders larger than 0.100000
B(  0-C ,  1-C ) :   1.1596 B(  0-C , 19-H ) :   0.9416 B(  0-C , 20-H ) :   0.9506
B(  0-C , 21-H ) :   0.9510 B(  1-C ,  2-O ) :   0.9020 B(  1-C , 22-H ) :   0.9273
B(  1-C , 23-H ) :   0.9116 B(  2-O ,  3-P ) :   1.0760 B(  3-P ,  4-S ) :   1.6581
B(  3-P ,  5-O ) :   1.1481 B(  3-P ,  8-S ) :   0.9396 B(  4-S ,  8-S ) :   0.1095
B(  5-O ,  6-C ) :   0.8899 B(  6-C ,  7-C ) :   1.1590 B(  6-C , 24-H ) :   0.9309
B(  6-C , 25-H ) :   0.9051 B(  7-C , 26-H ) :   0.9406 B(  7-C , 27-H ) :   0.9429
B(  7-C , 28-H ) :   0.9467 B(  8-S ,  9-C ) :   0.9974 B(  9-C , 10-S ) :   1.0108
B(  9-C , 29-H ) :   0.8709 B(  9-C , 30-H ) :   0.8763 B( 10-S , 11-P ) :   0.9695
B( 10-S , 12-S ) :   0.1082 B( 11-P , 12-S ) :   1.6012 B( 11-P , 13-O ) :   1.1284
B( 11-P , 16-O ) :   1.0757 B( 13-O , 14-C ) :   0.9089 B( 14-C , 15-C ) :   1.1645
B( 14-C , 31-H ) :   0.9199 B( 14-C , 32-H ) :   0.9351 B( 15-C , 33-H ) :   0.9455
B( 15-C , 34-H ) :   0.9327 B( 15-C , 35-H ) :   0.9382 B( 16-O , 17-C ) :   0.9019
B( 17-C , 18-C ) :   1.1663 B( 17-C , 36-H ) :   0.9030 B( 17-C , 37-H ) :   0.9245
B( 18-C , 38-H ) :   0.9387 B( 18-C , 39-H ) :   0.9420 B( 18-C , 40-H ) :   0.9371

Dispersion correction           -0.064460008
FINAL SINGLE POINT ENERGY     -2929.523478259684

DIPOLE MOMENT
-------------

Method             : SCF
Type of density    : Electron Density
Multiplicity       :   1
Irrep              :   0
Energy             : -2929.6439285491292139 Eh
Relativity type    :
Basis              : AO
                                X                 Y                 Z
Electronic contribution:      4.020090573      20.744372451     -12.328087583
Nuclear contribution   :     -4.317984122     -22.701159030      13.400126816
                        -----------------------------------------
Total Dipole Moment    :     -0.297893549      -1.956786580       1.072039233
                        -----------------------------------------
Magnitude (a.u.)       :      2.251004754
Magnitude (Debye)      :      5.721599382

Rotational constants in cm-1:             0.013622             0.004542             0.004278
Rotational constants in MHz :           408.366994           136.173515           128.263654

                             ****ORCA TERMINATED NORMALLY****
TOTAL RUN TIME: 0 days 0 hours 0 minutes 21 seconds 78 msec
