                         Program Version 6.0.0  -   RELEASE  -
|  1> ! pbe def2-sv(p) def2/J RI DEFGRID1 loosescf d4 GCP(DFT/SV(P)) printgap
|  2> %output
|  3>     printlevel normal
|  4> end
|  5> * xyz 0 1
|  6> C 2.5717817612 2.3106545738 -1.2783857433
|  7> C 3.4270919727 2.0125228552 -0.064110436
|  8> O 3.3655286063 0.6255392066 0.3091566603
|  9> P 2.0216606776 -0.0365376298 0.8488471779
| 10> S 1.0254869705 1.0977289017 2.0897683485
| 11> O 2.5100041506 -1.3641113073 1.5462849793
| 12> C 3.4570712449 -2.2920055654 0.9565670086
| 13> C 4.8639498247 -1.9970318475 1.4346305369
| 14> S 1.1449099387 -0.7309913775 -0.983827651
| 15> C 0.014361 -1.9893197178 -0.3360934872
| 16> S -1.2367937001 -1.3301946966 0.8024748442
| 17> P -2.0825568871 0.0621775349 -0.5484869727
| 18> S -2.251344057 -0.5688393613 -2.4006970169
| 19> O -1.150562293 1.3126677579 -0.2721954646
| 20> C -1.5419391507 2.6915732092 -0.4443785718
| 21> C -1.7170551524 3.0487246681 -1.9058761522
| 22> O -3.4487974464 0.5169231341 0.120414311
| 23> C -4.6906975949 -0.1580689541 -0.1498692252
| 24> C -4.7373663112 -1.5330127368 0.483693775
| 25> H 2.8436864818 1.658816426 -2.105293561
| 26> H 1.5220191702 2.1451056281 -1.036281539
| 27> H 2.7075743481 3.3463795167 -1.5726417146
| 28> H 3.1034729473 2.6134658732 0.7917721618
| 29> H 4.4854092764 2.1858570101 -0.2632292014
| 30> H 3.1236357867 -3.274276008 1.2974796402
| 31> H 3.3893686441 -2.2283134113 -0.1327699474
| 32> H 5.1846853331 -1.020212919 1.083510954
| 33> H 4.8972718539 -2.0078065336 2.5206426665
| 34> H 5.5359937687 -2.7564374168 1.047133311
| 35> H 0.5610023886 -2.749424205 0.2166954234
| 36> H -0.4786036313 -2.4133375557 -1.2114016615
| 37> H -2.4608564618 2.8630088207 0.1200094202
| 38> H -0.7221867034 3.2453465581 0.0183358066
| 39> H -1.9319840324 4.1089535293 -1.9930735059
| 40> H -0.8131884642 2.8160687651 -2.4642442107
| 41> H -2.5416678004 2.480275647 -2.3340201629
| 42> H -5.4469338501 0.5065292672 0.2698791239
| 43> H -4.8148025003 -0.230243297 -1.2353287065
| 44> H -5.7304515611 -1.9524666003 0.3592919277
| 45> H -4.0130048031 -2.1888175638 0.0025777816
| 46> H -4.5007841863 -1.4691934858 1.5429950754
| 47> *
| 48>
| 49>                          ****END OF INPUT****

CARTESIAN COORDINATES (ANGSTROEM)
---------------------------------
  C      2.571782    2.310655   -1.278386
  C      3.427092    2.012523   -0.064110
  O      3.365529    0.625539    0.309157
  P      2.021661   -0.036538    0.848847
  S      1.025487    1.097729    2.089768
  O      2.510004   -1.364111    1.546285
  C      3.457071   -2.292006    0.956567
  C      4.863950   -1.997032    1.434631
  S      1.144910   -0.730991   -0.983828
  C      0.014361   -1.989320   -0.336093
  S     -1.236794   -1.330195    0.802475
  P     -2.082557    0.062178   -0.548487
  S     -2.251344   -0.568839   -2.400697
  O     -1.150562    1.312668   -0.272195
  C     -1.541939    2.691573   -0.444379
  C     -1.717055    3.048725   -1.905876
  O     -3.448797    0.516923    0.120414
  C     -4.690698   -0.158069   -0.149869
  C     -4.737366   -1.533013    0.483694
  H      2.843686    1.658816   -2.105294
  H      1.522019    2.145106   -1.036282
  H      2.707574    3.346380   -1.572642
  H      3.103473    2.613466    0.791772
  H      4.485409    2.185857   -0.263229
  H      3.123636   -3.274276    1.297480
  H      3.389369   -2.228313   -0.132770
  H      5.184685   -1.020213    1.083511
  H      4.897272   -2.007807    2.520643
  H      5.535994   -2.756437    1.047133
  H      0.561002   -2.749424    0.216695
  H     -0.478604   -2.413338   -1.211402
  H     -2.460856    2.863009    0.120009
  H     -0.722187    3.245347    0.018336
  H     -1.931984    4.108954   -1.993074
  H     -0.813188    2.816069   -2.464244
  H     -2.541668    2.480276   -2.334020
  H     -5.446934    0.506529    0.269879
  H     -4.814803   -0.230243   -1.235329
  H     -5.730452   -1.952467    0.359292
  H     -4.013005   -2.188818    0.002578
  H     -4.500784   -1.469193    1.542995

 Total Charge           Charge          ....    0
 Multiplicity           Mult            ....    1
 Number of Electrons    NEL             ....  202
 Basis Dimension        Dim             ....  334

ORBITAL ENERGIES
----------------

  NO   OCC          E(Eh)            E(eV)
   0   2.0000     -88.038125     -2395.6392
   1   2.0000     -88.036632     -2395.5985
   2   2.0000     -87.983841     -2394.1620
   3   2.0000     -87.976617     -2393.9654
   4   2.0000     -76.424571     -2079.6183
   5   2.0000     -76.421995     -2079.5482
   6   2.0000     -18.795211      -511.4437
   7   2.0000     -18.792063      -511.3580
   8   2.0000     -18.791639      -511.3465
   9   2.0000     -18.781458      -511.0695
  10   2.0000      -9.957349      -270.9532
  11   2.0000      -9.956044      -270.9177
  12   2.0000      -9.952494      -270.8211
  13   2.0000      -9.952302      -270.8159
  14   2.0000      -9.947989      -270.6985
  15   2.0000      -9.886499      -269.0253
  16   2.0000      -9.885836      -269.0073
  17   2.0000      -9.883152      -268.9342
  18   2.0000      -9.879354      -268.8309
  19   2.0000      -7.682448      -209.0500
  20   2.0000      -7.681856      -209.0339
  21   2.0000      -7.628900      -207.5929
  22   2.0000      -7.621880      -207.4019
  23   2.0000      -6.421718      -174.7438
  24   2.0000      -6.419340      -174.6791
  25   2.0000      -5.710339      -155.3862
  26   2.0000      -5.709865      -155.3733
  27   2.0000      -5.707000      -155.2954
  28   2.0000      -5.706539      -155.2828
  29   2.0000      -5.699471      -155.0905
  30   2.0000      -5.698446      -155.0626
  31   2.0000      -5.657668      -153.9530
  32   2.0000      -5.651004      -153.7716
  33   2.0000      -5.649710      -153.7364
  34   2.0000      -5.649046      -153.7184
  35   2.0000      -5.642436      -153.5385
  36   2.0000      -5.641862      -153.5229
  37   2.0000      -4.644796      -126.3913
  38   2.0000      -4.643197      -126.3478
  39   2.0000      -4.642589      -126.3313
  40   2.0000      -4.642057      -126.3168
  41   2.0000      -4.641075      -126.2901
  42   2.0000      -4.639221      -126.2396
  43   2.0000      -0.987032       -26.8585
  44   2.0000      -0.985513       -26.8172
  45   2.0000      -0.945743       -25.7350
  46   2.0000      -0.940543       -25.5935
  47   2.0000      -0.761164       -20.7123
  48   2.0000      -0.717535       -19.5251
  49   2.0000      -0.707436       -19.2503
  50   2.0000      -0.690923       -18.8010
  51   2.0000      -0.686088       -18.6694
  52   2.0000      -0.670202       -18.2371
  53   2.0000      -0.648414       -17.6442
  54   2.0000      -0.636132       -17.3100
  55   2.0000      -0.595707       -16.2100
  56   2.0000      -0.588278       -16.0078
  57   2.0000      -0.576522       -15.6880
  58   2.0000      -0.574771       -15.6403
  59   2.0000      -0.557541       -15.1715
  60   2.0000      -0.502002       -13.6602
  61   2.0000      -0.494835       -13.4652
  62   2.0000      -0.474911       -12.9230
  63   2.0000      -0.468505       -12.7487
  64   2.0000      -0.457436       -12.4475
  65   2.0000      -0.448375       -12.2009
  66   2.0000      -0.437574       -11.9070
  67   2.0000      -0.429959       -11.6998
  68   2.0000      -0.426170       -11.5967
  69   2.0000      -0.416921       -11.3450
  70   2.0000      -0.410037       -11.1577
  71   2.0000      -0.403231       -10.9725
  72   2.0000      -0.393106       -10.6969
  73   2.0000      -0.378972       -10.3124
  74   2.0000      -0.374908       -10.2018
  75   2.0000      -0.371388       -10.1060
  76   2.0000      -0.363792        -9.8993
  77   2.0000      -0.361167        -9.8279
  78   2.0000      -0.353881        -9.6296
  79   2.0000      -0.352421        -9.5899
  80   2.0000      -0.348618        -9.4864
  81   2.0000      -0.347205        -9.4479
  82   2.0000      -0.339745        -9.2449
  83   2.0000      -0.338639        -9.2148
  84   2.0000      -0.330805        -9.0016
  85   2.0000      -0.320882        -8.7316
  86   2.0000      -0.309631        -8.4255
  87   2.0000      -0.297590        -8.0978
  88   2.0000      -0.294869        -8.0238
  89   2.0000      -0.290907        -7.9160
  90   2.0000      -0.285554        -7.7703
  91   2.0000      -0.273407        -7.4398
  92   2.0000      -0.267595        -7.2816
  93   2.0000      -0.257674        -7.0117
  94   2.0000      -0.257329        -7.0023
  95   2.0000      -0.237802        -6.4709
  96   2.0000      -0.213154        -5.8002
  97   2.0000      -0.205646        -5.5959
  98   2.0000      -0.198882        -5.4119
  99   2.0000      -0.190769        -5.1911
 100   2.0000      -0.184038        -5.0079
 101   0.0000      -0.046218        -1.2576
 102   0.0000      -0.023359        -0.6356
 103   0.0000      -0.007028        -0.1913
 104   0.0000       0.001656         0.0451
 105   0.0000       0.020809         0.5662

MULLIKEN ATOMIC CHARGES
-----------------------
   0 C :   -0.364897
   1 C :    0.005579
   2 O :   -0.384034
   3 P :    0.598283
   4 S :   -0.293116
   5 O :   -0.363853
   6 C :   -0.025526
   7 C :   -0.282758
   8 S :   -0.098733
   9 C :   -0.349537
  10 S :   -0.070666
  11 P :    0.637059
  12 S :   -0.341430
  13 O :   -0.356277
  14 C :   -0.000835
  15 C :   -0.311407
  16 O :   -0.379082
  17 C :   -0.005627
  18 C :   -0.315015
  19 H :    0.122983
  20 H :    0.166257
  21 H :    0.114848
  22 H :    0.109355
  23 H :    0.103543
  24 H :    0.108055
  25 H :    0.104524
  26 H :    0.124062
  27 H :    0.120565
  28 H :    0.108394
  29 H :    0.182330
  30 H :    0.191264
  31 H :    0.110330
  32 H :    0.108027
  33 H :    0.106745
  34 H :    0.122759
  35 H :    0.122768
  36 H :    0.104425
  37 H :    0.111742
  38 H :    0.113076
  39 H :    0.125835
  40 H :    0.119983
Sum of atomic charges:    0.0000000

LOEWDIN ATOMIC CHARGES
----------------------
   0 C :   -0.376380
   1 C :   -0.119003
   2 O :   -0.250496
   3 P :    0.566725
   4 S :   -0.299409
   5 O :   -0.240405
   6 C :   -0.118584
   7 C :   -0.357767
   8 S :    0.080880
   9 C :   -0.479261
  10 S :    0.095525
  11 P :    0.576344
  12 S :   -0.328447
  13 O :   -0.234889
  14 C :   -0.111261
  15 C :   -0.365085
  16 O :   -0.242337
  17 C :   -0.120402
  18 C :   -0.369130
  19 H :    0.125594
  20 H :    0.125993
  21 H :    0.131791
  22 H :    0.110514
  23 H :    0.117608
  24 H :    0.117738
  25 H :    0.105174
  26 H :    0.127422
  27 H :    0.129172
  28 H :    0.129288
  29 H :    0.129869
  30 H :    0.131312
  31 H :    0.112435
  32 H :    0.116541
  33 H :    0.127354
  34 H :    0.127887
  35 H :    0.121639
  36 H :    0.117997
  37 H :    0.109995
  38 H :    0.131267
  39 H :    0.120862
  40 H :    0.125929

  Mayer bond orders larger than 0.100000
B(  0-C ,  1-C ) :   1.1625 B(  0-C , 19-H ) :   0.9410 B(  0-C , 20-H ) :   0.9187
B(  0-C , 21-H ) :   0.9374 B(  1-C ,  2-O ) :   0.9096 B(  1-C , 22-H ) :   0.9140
B(  1-C , 23-H ) :   0.9325 B(  2-O ,  3-P ) :   1.0641 B(  3-P ,  4-S ) :   1.6802
B(  3-P ,  5-O ) :   1.1191 B(  3-P ,  8-S ) :   0.9384 B(  4-S ,  8-S ) :   0.1134
B(  5-O ,  6-C ) :   0.8937 B(  6-C ,  7-C ) :   1.1693 B(  6-C , 24-H ) :   0.9327
B(  6-C , 25-H ) :   0.9069 B(  7-C , 26-H ) :   0.9416 B(  7-C , 27-H ) :   0.9472
B(  7-C , 28-H ) :   0.9393 B(  8-S ,  9-C ) :   1.0007 B(  9-C , 10-S ) :   1.0086
B(  9-C , 29-H ) :   0.9020 B(  9-C , 30-H ) :   0.8854 B( 10-S , 11-P ) :   0.9525
B( 10-S , 12-S ) :   0.1181 B( 11-P , 12-S ) :   1.5979 B( 11-P , 13-O ) :   1.1289
B( 11-P , 16-O ) :   1.0930 B( 13-O , 14-C ) :   0.9001 B( 14-C , 15-C ) :   1.1671
B( 14-C , 31-H ) :   0.9292 B( 14-C , 32-H ) :   0.9248 B( 15-C , 33-H ) :   0.9380
B( 15-C , 34-H ) :   0.9480 B( 15-C , 35-H ) :   0.9352 B( 16-O , 17-C ) :   0.9059
B( 17-C , 18-C ) :   1.1668 B( 17-C , 36-H ) :   0.9328 B( 17-C , 37-H ) :   0.9126
B( 18-C , 38-H ) :   0.9378 B( 18-C , 39-H ) :   0.9343 B( 18-C , 40-H ) :   0.9453

Dispersion correction           -0.067523275
FINAL SINGLE POINT ENERGY     -2929.513458653166

DIPOLE MOMENT
-------------

Method             : SCF
Type of density    : Electron Density
Multiplicity       :   1
Irrep              :   0
Energy             : -2929.6312808044249323 Eh
Relativity type    :
Basis              : AO
                                X                 Y                 Z
Electronic contribution:     -3.400482482      -5.373472294       4.737952131
Nuclear contribution   :      3.770003620       5.365743154      -4.992891427
                        -----------------------------------------
Total Dipole Moment    :      0.369521139      -0.007729140      -0.254939297
                        -----------------------------------------
Magnitude (a.u.)       :      0.448998504
Magnitude (Debye)      :      1.141263499

Rotational constants in cm-1:             0.012909             0.005385             0.004733
Rotational constants in MHz :           386.990157           161.429595           141.904274

                             ****ORCA TERMINATED NORMALLY****
TOTAL RUN TIME: 0 days 0 hours 0 minutes 21 seconds 375 msec
