                         Program Version 6.0.0  -   RELEASE  -
|  1> ! pbe def2-sv(p) def2/J RI DEFGRID1 loosescf d4 GCP(DFT/SV(P)) printgap
|  2> %output
|  3>     printlevel normal
|  4> end
|  5> * xyz 0 1
|  6> C 5.2336667832 -1.250708203 -0.8267524482
|  7> C 3.8630237802 -1.8301341242 -1.1199075416
|  8> O 2.9283363536 -1.5178289918 -0.0678263166
|  9> P 2.0319818772 -0.2077570929 -0.0649280968
| 10> S 2.9469481952 1.528663293 -0.1264818981
| 11> O 1.1455569698 -0.486069578 1.212855995
| 12> C 1.3152667945 0.2417154806 2.4449033278
| 13> C 2.5574634015 -0.2170634055 3.1786678231
| 14> S 0.6814185801 -0.5810743657 -1.6585277386
| 15> C 0.0590647577 1.1148238437 -1.8004620715
| 16> S -0.7592737529 1.7054545715 -0.2978694041
| 17> P -2.3290098871 0.2765971455 -0.2910454708
| 18> S -3.0635082884 -0.2054762185 -2.0334832685
| 19> O -3.4303958384 0.9020042334 0.6570226283
| 20> C -3.2387546834 1.1676673216 2.0693730442
| 21> C -2.8273662286 2.6068662054 2.3050596121
| 22> O -1.6729827189 -0.9081753493 0.5588080904
| 23> C -1.7848850301 -2.2955315512 0.1971840314
| 24> C -3.0990570519 -2.8723378418 0.6825468395
| 25> H 5.9233032833 -1.552184675 -1.6085719694
| 26> H 5.1872372635 -0.1644356058 -0.7951151081
| 27> H 5.5957473933 -1.6136883104 0.1311077564
| 28> H 3.8899586082 -2.9212671415 -1.1417367409
| 29> H 3.4724119911 -1.4578111369 -2.0715985843
| 30> H 1.3682461121 1.3116528794 2.2179900917
| 31> H 0.405442546 0.0278158484 3.007386151
| 32> H 2.5201017285 -1.2898052822 3.347824401
| 33> H 3.4387989024 0.0139164579 2.5813329785
| 34> H 2.6286336356 0.3000534035 4.1302317424
| 35> H -0.6513772975 1.1152740148 -2.6266060942
| 36> H 0.8896002468 1.7958563476 -1.9850915692
| 37> H -4.2145535221 0.959423691 2.5116049157
| 38> H -2.4960443359 0.4700005006 2.4624797415
| 39> H -1.8497478422 2.8047608812 1.8697607812
| 40> H -3.5510109854 3.2789819883 1.8523381749
| 41> H -2.7849496092 2.7927585954 3.3737041177
| 42> H -1.6993799702 -2.3874572867 -0.8902946941
| 43> H -0.924540282 -2.7691982699 0.6734308977
| 44> H -3.9260037643 -2.3512096501 0.2011821476
| 45> H -3.1467463521 -3.9252286872 0.4237522919
| 46> H -3.1892850585 -2.7606853281 1.7597099875
| 47> *
| 48>
| 49>                          ****END OF INPUT****

CARTESIAN COORDINATES (ANGSTROEM)
---------------------------------
  C      5.233667   -1.250708   -0.826752
  C      3.863024   -1.830134   -1.119908
  O      2.928336   -1.517829   -0.067826
  P      2.031982   -0.207757   -0.064928
  S      2.946948    1.528663   -0.126482
  O      1.145557   -0.486070    1.212856
  C      1.315267    0.241715    2.444903
  C      2.557463   -0.217063    3.178668
  S      0.681419   -0.581074   -1.658528
  C      0.059065    1.114824   -1.800462
  S     -0.759274    1.705455   -0.297869
  P     -2.329010    0.276597   -0.291045
  S     -3.063508   -0.205476   -2.033483
  O     -3.430396    0.902004    0.657023
  C     -3.238755    1.167667    2.069373
  C     -2.827366    2.606866    2.305060
  O     -1.672983   -0.908175    0.558808
  C     -1.784885   -2.295532    0.197184
  C     -3.099057   -2.872338    0.682547
  H      5.923303   -1.552185   -1.608572
  H      5.187237   -0.164436   -0.795115
  H      5.595747   -1.613688    0.131108
  H      3.889959   -2.921267   -1.141737
  H      3.472412   -1.457811   -2.071599
  H      1.368246    1.311653    2.217990
  H      0.405443    0.027816    3.007386
  H      2.520102   -1.289805    3.347824
  H      3.438799    0.013916    2.581333
  H      2.628634    0.300053    4.130232
  H     -0.651377    1.115274   -2.626606
  H      0.889600    1.795856   -1.985092
  H     -4.214554    0.959424    2.511605
  H     -2.496044    0.470001    2.462480
  H     -1.849748    2.804761    1.869761
  H     -3.551011    3.278982    1.852338
  H     -2.784950    2.792759    3.373704
  H     -1.699380   -2.387457   -0.890295
  H     -0.924540   -2.769198    0.673431
  H     -3.926004   -2.351210    0.201182
  H     -3.146746   -3.925229    0.423752
  H     -3.189285   -2.760685    1.759710

 Total Charge           Charge          ....    0
 Multiplicity           Mult            ....    1
 Number of Electrons    NEL             ....  202
 Basis Dimension        Dim             ....  334

ORBITAL ENERGIES
----------------

  NO   OCC          E(Eh)            E(eV)
   0   2.0000     -88.043568     -2395.7873
   1   2.0000     -88.040751     -2395.7106
   2   2.0000     -87.991579     -2394.3726
   3   2.0000     -87.985649     -2394.2112
   4   2.0000     -76.429278     -2079.7464
   5   2.0000     -76.425181     -2079.6349
   6   2.0000     -18.796584      -511.4811
   7   2.0000     -18.795325      -511.4468
   8   2.0000     -18.790465      -511.3145
   9   2.0000     -18.786466      -511.2057
  10   2.0000      -9.960969      -271.0517
  11   2.0000      -9.957973      -270.9702
  12   2.0000      -9.953671      -270.8532
  13   2.0000      -9.952594      -270.8238
  14   2.0000      -9.945759      -270.6379
  15   2.0000      -9.891987      -269.1746
  16   2.0000      -9.884828      -268.9799
  17   2.0000      -9.883535      -268.9447
  18   2.0000      -9.881772      -268.8967
  19   2.0000      -7.688327      -209.2100
  20   2.0000      -7.685557      -209.1346
  21   2.0000      -7.636459      -207.7986
  22   2.0000      -7.630928      -207.6481
  23   2.0000      -6.426653      -174.8781
  24   2.0000      -6.422780      -174.7727
  25   2.0000      -5.716153      -155.5444
  26   2.0000      -5.713410      -155.4698
  27   2.0000      -5.712857      -155.4547
  28   2.0000      -5.710205      -155.3826
  29   2.0000      -5.705349      -155.2504
  30   2.0000      -5.702430      -155.1710
  31   2.0000      -5.665215      -154.1583
  32   2.0000      -5.659943      -154.0149
  33   2.0000      -5.657030      -153.9356
  34   2.0000      -5.656840      -153.9304
  35   2.0000      -5.651465      -153.7842
  36   2.0000      -5.651017      -153.7720
  37   2.0000      -4.649024      -126.5064
  38   2.0000      -4.648501      -126.4921
  39   2.0000      -4.647238      -126.4578
  40   2.0000      -4.645685      -126.4155
  41   2.0000      -4.644127      -126.3731
  42   2.0000      -4.643366      -126.3524
  43   2.0000      -0.989992       -26.9391
  44   2.0000      -0.984674       -26.7943
  45   2.0000      -0.948127       -25.7998
  46   2.0000      -0.942038       -25.6341
  47   2.0000      -0.765339       -20.8259
  48   2.0000      -0.722839       -19.6695
  49   2.0000      -0.711399       -19.3581
  50   2.0000      -0.690628       -18.7929
  51   2.0000      -0.687635       -18.7115
  52   2.0000      -0.673825       -18.3357
  53   2.0000      -0.653253       -17.7759
  54   2.0000      -0.640011       -17.4156
  55   2.0000      -0.599894       -16.3239
  56   2.0000      -0.590724       -16.0744
  57   2.0000      -0.579138       -15.7591
  58   2.0000      -0.571394       -15.5484
  59   2.0000      -0.562441       -15.3048
  60   2.0000      -0.504815       -13.7367
  61   2.0000      -0.497407       -13.5351
  62   2.0000      -0.478145       -13.0110
  63   2.0000      -0.477128       -12.9833
  64   2.0000      -0.454444       -12.3661
  65   2.0000      -0.447876       -12.1873
  66   2.0000      -0.442121       -12.0307
  67   2.0000      -0.437687       -11.9101
  68   2.0000      -0.426976       -11.6186
  69   2.0000      -0.412072       -11.2130
  70   2.0000      -0.407130       -11.0786
  71   2.0000      -0.397803       -10.8248
  72   2.0000      -0.393970       -10.7205
  73   2.0000      -0.389987       -10.6121
  74   2.0000      -0.378748       -10.3062
  75   2.0000      -0.375636       -10.2216
  76   2.0000      -0.370393       -10.0789
  77   2.0000      -0.360239        -9.8026
  78   2.0000      -0.358400        -9.7526
  79   2.0000      -0.353789        -9.6271
  80   2.0000      -0.349911        -9.5216
  81   2.0000      -0.348691        -9.4884
  82   2.0000      -0.344301        -9.3689
  83   2.0000      -0.337668        -9.1884
  84   2.0000      -0.333309        -9.0698
  85   2.0000      -0.323707        -8.8085
  86   2.0000      -0.312731        -8.5098
  87   2.0000      -0.302970        -8.2442
  88   2.0000      -0.299656        -8.1540
  89   2.0000      -0.288714        -7.8563
  90   2.0000      -0.281105        -7.6493
  91   2.0000      -0.278939        -7.5903
  92   2.0000      -0.271368        -7.3843
  93   2.0000      -0.268138        -7.2964
  94   2.0000      -0.255879        -6.9628
  95   2.0000      -0.232508        -6.3269
  96   2.0000      -0.217549        -5.9198
  97   2.0000      -0.214256        -5.8302
  98   2.0000      -0.208756        -5.6806
  99   2.0000      -0.201117        -5.4727
 100   2.0000      -0.198583        -5.4037
 101   0.0000      -0.045984        -1.2513
 102   0.0000      -0.022611        -0.6153
 103   0.0000      -0.004075        -0.1109
 104   0.0000       0.002303         0.0627
 105   0.0000       0.006919         0.1883

MULLIKEN ATOMIC CHARGES
-----------------------
   0 C :   -0.296286
   1 C :   -0.013046
   2 O :   -0.368686
   3 P :    0.614016
   4 S :   -0.335320
   5 O :   -0.351009
   6 C :   -0.014117
   7 C :   -0.299426
   8 S :   -0.085639
   9 C :   -0.344716
  10 S :   -0.110951
  11 P :    0.631203
  12 S :   -0.315347
  13 O :   -0.365544
  14 C :   -0.031562
  15 C :   -0.306420
  16 O :   -0.381177
  17 C :   -0.007143
  18 C :   -0.296653
  19 H :    0.108813
  20 H :    0.131105
  21 H :    0.113657
  22 H :    0.108573
  23 H :    0.104890
  24 H :    0.115084
  25 H :    0.104340
  26 H :    0.114175
  27 H :    0.123094
  28 H :    0.110152
  29 H :    0.192291
  30 H :    0.192075
  31 H :    0.112113
  32 H :    0.116603
  33 H :    0.137490
  34 H :    0.126333
  35 H :    0.111867
  36 H :    0.114156
  37 H :    0.101452
  38 H :    0.123261
  39 H :    0.110109
  40 H :    0.106189
Sum of atomic charges:    0.0000000

LOEWDIN ATOMIC CHARGES
----------------------
   0 C :   -0.364379
   1 C :   -0.116283
   2 O :   -0.243868
   3 P :    0.571008
   4 S :   -0.318287
   5 O :   -0.228665
   6 C :   -0.119849
   7 C :   -0.363859
   8 S :    0.090963
   9 C :   -0.480314
  10 S :    0.082586
  11 P :    0.572323
  12 S :   -0.308372
  13 O :   -0.242836
  14 C :   -0.115716
  15 C :   -0.362199
  16 O :   -0.246687
  17 C :   -0.123490
  18 C :   -0.362706
  19 H :    0.129428
  20 H :    0.124489
  21 H :    0.125602
  22 H :    0.119540
  23 H :    0.107067
  24 H :    0.108403
  25 H :    0.114646
  26 H :    0.125363
  27 H :    0.122876
  28 H :    0.129622
  29 H :    0.131831
  30 H :    0.130596
  31 H :    0.122431
  32 H :    0.110311
  33 H :    0.119046
  34 H :    0.132148
  35 H :    0.131145
  36 H :    0.105861
  37 H :    0.115409
  38 H :    0.124586
  39 H :    0.129786
  40 H :    0.120446

  Mayer bond orders larger than 0.100000
B(  0-C ,  1-C ) :   1.1664 B(  0-C , 19-H ) :   0.9391 B(  0-C , 20-H ) :   0.9316
B(  0-C , 21-H ) :   0.9473 B(  1-C ,  2-O ) :   0.9055 B(  1-C , 22-H ) :   0.9360
B(  1-C , 23-H ) :   0.9159 B(  2-O ,  3-P ) :   1.1203 B(  3-P ,  4-S ) :   1.5897
B(  3-P ,  5-O ) :   1.1328 B(  3-P ,  8-S ) :   0.9525 B(  4-S ,  8-S ) :   0.1090
B(  5-O ,  6-C ) :   0.9033 B(  6-C ,  7-C ) :   1.1636 B(  6-C , 24-H ) :   0.9115
B(  6-C , 25-H ) :   0.9303 B(  7-C , 26-H ) :   0.9465 B(  7-C , 27-H ) :   0.9353
B(  7-C , 28-H ) :   0.9401 B(  8-S ,  9-C ) :   1.0024 B(  9-C , 10-S ) :   1.0077
B(  9-C , 29-H ) :   0.8824 B(  9-C , 30-H ) :   0.8833 B( 10-S , 11-P ) :   0.9455
B( 10-S , 12-S ) :   0.1017 B( 11-P , 12-S ) :   1.6305 B( 11-P , 13-O ) :   1.1325
B( 11-P , 16-O ) :   1.0764 B( 13-O , 14-C ) :   0.9023 B( 14-C , 15-C ) :   1.1673
B( 14-C , 31-H ) :   0.9337 B( 14-C , 32-H ) :   0.9138 B( 15-C , 33-H ) :   0.9320
B( 15-C , 34-H ) :   0.9458 B( 15-C , 35-H ) :   0.9382 B( 16-O , 17-C ) :   0.8992
B( 17-C , 18-C ) :   1.1613 B( 17-C , 36-H ) :   0.9081 B( 17-C , 37-H ) :   0.9319
B( 18-C , 38-H ) :   0.9389 B( 18-C , 39-H ) :   0.9413 B( 18-C , 40-H ) :   0.9485

Dispersion correction           -0.066991778
FINAL SINGLE POINT ENERGY     -2929.523595880394

DIPOLE MOMENT
-------------

Method             : SCF
Type of density    : Electron Density
Multiplicity       :   1
Irrep              :   0
Energy             : -2929.6417078508370651 Eh
Relativity type    :
Basis              : AO
                                X                 Y                 Z
Electronic contribution:     -6.239872048       7.221133846     -17.309355269
Nuclear contribution   :      6.715880424      -7.970041809      18.696006045
                        -----------------------------------------
Total Dipole Moment    :      0.476008376      -0.748907963       1.386650776
                        -----------------------------------------
Magnitude (a.u.)       :      1.646282930
Magnitude (Debye)      :      4.184518659

Rotational constants in cm-1:             0.012036             0.005393             0.005012
Rotational constants in MHz :           360.832645           161.675284           150.265230

                             ****ORCA TERMINATED NORMALLY****
TOTAL RUN TIME: 0 days 0 hours 0 minutes 21 seconds 880 msec
