                         Program Version 6.0.1  -  RELEASE   -
|  1> ! pbe def2-sv(p) def2/J RI DEFGRID1 loosescf d4 GCP(DFT/SV(P)) printgap
|  2> %output
|  3>     printlevel normal
|  4> end
|  5> * xyz 0 1
|  6> C 2.3912735058 -4.5028022187 -1.0870902814
|  7> C 3.5665762017 -3.5432248441 -1.1862986745
|  8> O 3.3186680228 -2.3577637999 -0.4059992113
|  9> C 2.638584091 -1.3745605836 -0.9569665039
| 10> O 2.2393972106 -1.3629556797 -2.1003420105
| 11> C 2.4177708546 -0.2379186294 0.0257655455
| 12> C 0.9844120302 0.2586831972 -0.1033806473
| 13> H 0.7610291881 0.4553783184 -1.1600962106
| 14> C 0.6945837386 1.5263950427 0.6737798191
| 15> O -0.3226243204 1.6586944212 1.3249211373
| 16> O 1.6299719513 2.423043308 0.5405244195
| 17> C 1.4099011022 3.7307743019 1.1165607388
| 18> C 0.6524930863 4.6151015283 0.1401842582
| 19> S -0.1851524227 -1.0171239022 0.476886081
| 20> P -1.997220181 0.0398366509 0.0746983496
| 21> S -1.9987309025 1.5558607946 -1.1632062834
| 22> O -2.8566887937 -1.1184928235 -0.6013862222
| 23> C -3.1180559199 -2.3764646872 0.0431356824
| 24> O -2.8069619977 0.1791850337 1.443085764
| 25> C -2.8788215515 1.3081737119 2.3138584306
| 26> H 2.622331417 -5.4134675909 -1.6295235569
| 27> H 2.1914711324 -4.7425309617 -0.0465183802
| 28> H 1.5025100707 -4.0483494883 -1.5195469248
| 29> H 3.7406534788 -3.2488936354 -2.2251218811
| 30> H 4.4704046327 -3.9717234365 -0.7535005282
| 31> H 3.0945576936 0.5809580039 -0.2263965338
| 32> H 2.6261605559 -0.5932948849 1.0339597326
| 33> H 0.8538986031 3.6121857222 2.0497895681
| 34> H 2.4118781284 4.1127755305 1.3101128843
| 35> H 0.4968339193 5.5923437729 0.5844604489
| 36> H 1.2144801152 4.7248286561 -0.782974054
| 37> H -0.3149914711 4.1744630458 -0.0960708229
| 38> H -3.5869526019 -2.9948885916 -0.7179818165
| 39> H -3.786962488 -2.2262938058 0.8884335384
| 40> H -2.1824260791 -2.8243945114 0.3806050107
| 41> H -2.814751951 2.2328826521 1.7410218895
| 42> H -2.0656103152 1.2674328931 3.0354345744
| 43> H -3.8446000547 1.2301859726 2.8086227998
| 44> *
| 45>
| 46>                          ****END OF INPUT****

CARTESIAN COORDINATES (ANGSTROEM)
---------------------------------
  C      2.391274   -4.502802   -1.087090
  C      3.566576   -3.543225   -1.186299
  O      3.318668   -2.357764   -0.405999
  C      2.638584   -1.374561   -0.956967
  O      2.239397   -1.362956   -2.100342
  C      2.417771   -0.237919    0.025766
  C      0.984412    0.258683   -0.103381
  H      0.761029    0.455378   -1.160096
  C      0.694584    1.526395    0.673780
  O     -0.322624    1.658694    1.324921
  O      1.629972    2.423043    0.540524
  C      1.409901    3.730774    1.116561
  C      0.652493    4.615102    0.140184
  S     -0.185152   -1.017124    0.476886
  P     -1.997220    0.039837    0.074698
  S     -1.998731    1.555861   -1.163206
  O     -2.856689   -1.118493   -0.601386
  C     -3.118056   -2.376465    0.043136
  O     -2.806962    0.179185    1.443086
  C     -2.878822    1.308174    2.313858
  H      2.622331   -5.413468   -1.629524
  H      2.191471   -4.742531   -0.046518
  H      1.502510   -4.048349   -1.519547
  H      3.740653   -3.248894   -2.225122
  H      4.470405   -3.971723   -0.753501
  H      3.094558    0.580958   -0.226397
  H      2.626161   -0.593295    1.033960
  H      0.853899    3.612186    2.049790
  H      2.411878    4.112776    1.310113
  H      0.496834    5.592344    0.584460
  H      1.214480    4.724829   -0.782974
  H     -0.314991    4.174463   -0.096071
  H     -3.586953   -2.994889   -0.717982
  H     -3.786962   -2.226294    0.888434
  H     -2.182426   -2.824395    0.380605
  H     -2.814752    2.232883    1.741022
  H     -2.065610    1.267433    3.035435
  H     -3.844600    1.230186    2.808623

 Total Charge           Charge          ....    0
 Multiplicity           Mult            ....    1
 Number of Electrons    NEL             ....  174
 Basis Dimension        Dim             ....  316

ORBITAL ENERGIES
----------------

  NO   OCC          E(Eh)            E(eV)
   0   2.0000     -88.031525     -2395.4596
   1   2.0000     -87.970686     -2393.8041
   2   2.0000     -76.417682     -2079.4309
   3   2.0000     -18.823078      -512.2020
   4   2.0000     -18.807487      -511.7777
   5   2.0000     -18.782934      -511.1096
   6   2.0000     -18.773708      -510.8586
   7   2.0000     -18.753435      -510.3069
   8   2.0000     -18.741583      -509.9844
   9   2.0000     -10.025688      -272.8128
  10   2.0000     -10.013909      -272.4923
  11   2.0000      -9.958640      -270.9884
  12   2.0000      -9.950892      -270.7775
  13   2.0000      -9.945829      -270.6398
  14   2.0000      -9.939477      -270.4669
  15   2.0000      -9.934280      -270.3255
  16   2.0000      -9.917058      -269.8569
  17   2.0000      -9.888945      -269.0919
  18   2.0000      -9.888044      -269.0674
  19   2.0000      -7.676479      -208.8876
  20   2.0000      -7.616042      -207.2430
  21   2.0000      -6.413743      -174.5268
  22   2.0000      -5.704332      -155.2228
  23   2.0000      -5.701412      -155.1433
  24   2.0000      -5.693099      -154.9171
  25   2.0000      -5.645371      -153.6183
  26   2.0000      -5.636743      -153.3836
  27   2.0000      -5.635629      -153.3533
  28   2.0000      -4.636568      -126.1674
  29   2.0000      -4.635626      -126.1418
  30   2.0000      -4.634223      -126.1036
  31   2.0000      -1.031504       -28.0687
  32   2.0000      -1.015081       -27.6218
  33   2.0000      -0.972400       -26.4604
  34   2.0000      -0.935169       -25.4472
  35   2.0000      -0.926790       -25.2192
  36   2.0000      -0.919445       -25.0194
  37   2.0000      -0.765612       -20.8334
  38   2.0000      -0.715119       -19.4594
  39   2.0000      -0.710644       -19.3376
  40   2.0000      -0.689690       -18.7674
  41   2.0000      -0.655213       -17.8293
  42   2.0000      -0.629719       -17.1355
  43   2.0000      -0.626282       -17.0420
  44   2.0000      -0.607983       -16.5441
  45   2.0000      -0.598461       -16.2850
  46   2.0000      -0.565455       -15.3868
  47   2.0000      -0.511446       -13.9172
  48   2.0000      -0.504966       -13.7408
  49   2.0000      -0.501005       -13.6330
  50   2.0000      -0.481371       -13.0988
  51   2.0000      -0.466716       -12.7000
  52   2.0000      -0.465397       -12.6641
  53   2.0000      -0.450366       -12.2551
  54   2.0000      -0.443244       -12.0613
  55   2.0000      -0.428480       -11.6595
  56   2.0000      -0.426679       -11.6105
  57   2.0000      -0.418305       -11.3827
  58   2.0000      -0.417600       -11.3635
  59   2.0000      -0.406902       -11.0724
  60   2.0000      -0.401584       -10.9277
  61   2.0000      -0.399475       -10.8703
  62   2.0000      -0.391940       -10.6652
  63   2.0000      -0.384417       -10.4605
  64   2.0000      -0.373924       -10.1750
  65   2.0000      -0.371311       -10.1039
  66   2.0000      -0.362444        -9.8626
  67   2.0000      -0.355486        -9.6733
  68   2.0000      -0.348610        -9.4862
  69   2.0000      -0.338616        -9.2142
  70   2.0000      -0.334370        -9.0987
  71   2.0000      -0.330504        -8.9935
  72   2.0000      -0.327846        -8.9211
  73   2.0000      -0.307846        -8.3769
  74   2.0000      -0.306524        -8.3410
  75   2.0000      -0.297246        -8.0885
  76   2.0000      -0.292251        -7.9526
  77   2.0000      -0.287309        -7.8181
  78   2.0000      -0.278566        -7.5802
  79   2.0000      -0.264026        -7.1845
  80   2.0000      -0.259563        -7.0631
  81   2.0000      -0.251725        -6.8498
  82   2.0000      -0.242166        -6.5897
  83   2.0000      -0.228320        -6.2129
  84   2.0000      -0.207643        -5.6503
  85   2.0000      -0.193034        -5.2527
  86   2.0000      -0.184138        -5.0107
  87   0.0000      -0.046455        -1.2641
  88   0.0000      -0.037679        -1.0253
  89   0.0000      -0.018156        -0.4941
  90   0.0000       0.003909         0.1064
  91   0.0000       0.034049         0.9265

MULLIKEN ATOMIC CHARGES
-----------------------
   0 C :   -0.306306
   1 C :   -0.014208
   2 O :   -0.223793
   3 C :    0.128376
   4 O :   -0.196557
   5 C :   -0.104497
   6 C :   -0.309178
   7 H :    0.173136
   8 C :    0.232433
   9 O :   -0.192047
  10 O :   -0.221127
  11 C :   -0.012606
  12 C :   -0.311590
  13 S :   -0.128841
  14 P :    0.645263
  15 S :   -0.329803
  16 O :   -0.366687
  17 C :   -0.109074
  18 O :   -0.398818
  19 C :   -0.078131
  20 H :    0.113740
  21 H :    0.114600
  22 H :    0.133661
  23 H :    0.110606
  24 H :    0.104152
  25 H :    0.136672
  26 H :    0.107555
  27 H :    0.110287
  28 H :    0.107120
  29 H :    0.113839
  30 H :    0.118332
  31 H :    0.143452
  32 H :    0.129138
  33 H :    0.118333
  34 H :    0.116802
  35 H :    0.114907
  36 H :    0.115983
  37 H :    0.114876
Sum of atomic charges:   -0.0000000

LOEWDIN ATOMIC CHARGES
----------------------
   0 C :   -0.355867
   1 C :   -0.110685
   2 O :   -0.055254
   3 C :    0.027675
   4 O :   -0.160870
   5 C :   -0.250417
   6 C :   -0.264607
   7 H :    0.153245
   8 C :    0.022635
   9 O :   -0.159582
  10 O :   -0.036477
  11 C :   -0.106088
  12 C :   -0.357622
  13 S :    0.080292
  14 P :    0.588849
  15 S :   -0.323301
  16 O :   -0.252974
  17 C :   -0.212857
  18 O :   -0.253114
  19 C :   -0.205339
  20 H :    0.130938
  21 H :    0.125301
  22 H :    0.133246
  23 H :    0.121165
  24 H :    0.118281
  25 H :    0.154456
  26 H :    0.134369
  27 H :    0.120920
  28 H :    0.119773
  29 H :    0.131579
  30 H :    0.127717
  31 H :    0.133995
  32 H :    0.124692
  33 H :    0.113081
  34 H :    0.103208
  35 H :    0.111515
  36 H :    0.112974
  37 H :    0.115149

  Mayer bond orders larger than 0.100000
B(  0-C ,  1-C ) :   1.1755 B(  0-C , 20-H ) :   0.9438 B(  0-C , 21-H ) :   0.9485
B(  0-C , 22-H ) :   0.9440 B(  1-C ,  2-O ) :   0.9112 B(  1-C , 23-H ) :   0.9135
B(  1-C , 24-H ) :   0.9374 B(  2-O ,  3-C ) :   1.2481 B(  3-C ,  4-O ) :   2.0428
B(  3-C ,  5-C ) :   0.9969 B(  5-C ,  6-C ) :   1.0964 B(  5-C , 25-H ) :   0.8693
B(  5-C , 26-H ) :   0.9059 B(  6-C ,  7-H ) :   0.8293 B(  6-C ,  8-C ) :   0.9089
B(  6-C , 13-S ) :   1.0307 B(  8-C ,  9-O ) :   1.9581 B(  8-C , 10-O ) :   1.2782
B( 10-O , 11-C ) :   0.8965 B( 11-C , 12-C ) :   1.1791 B( 11-C , 27-H ) :   0.9133
B( 11-C , 28-H ) :   0.9361 B( 12-C , 29-H ) :   0.9417 B( 12-C , 30-H ) :   0.9481
B( 12-C , 31-H ) :   0.9338 B( 13-S , 14-P ) :   0.9191 B( 13-S , 15-S ) :   0.1096
B( 14-P , 15-S ) :   1.6031 B( 14-P , 16-O ) :   1.1082 B( 14-P , 18-O ) :   1.0910
B( 16-O , 17-C ) :   0.9341 B( 17-C , 32-H ) :   0.9606 B( 17-C , 33-H ) :   0.9472
B( 17-C , 34-H ) :   0.9357 B( 18-O , 19-C ) :   0.9270 B( 19-C , 35-H ) :   0.9423
B( 19-C , 36-H ) :   0.9528 B( 19-C , 37-H ) :   0.9538

Dispersion correction           -0.050307722
FINAL SINGLE POINT ENERGY     -1979.012546565258

DIPOLE MOMENT
-------------

Method             : SCF
Type of density    : Electron Density
Multiplicity       :   1
Irrep              :   0
Energy             : -1979.1445609038451039 Eh
Relativity type    :
Basis              : AO
                                X                 Y                 Z
Electronic contribution:     -7.651820536       1.750063839      -2.864969267
Nuclear contribution   :      8.798553354      -2.011528433       4.341777326
                        -----------------------------------------
Total Dipole Moment    :      1.146732818      -0.261464593       1.476808059
                        -----------------------------------------
Magnitude (a.u.)       :      1.887941189
Magnitude (Debye)      :      4.798765138

Rotational constants in cm-1:             0.011527             0.007286             0.005164
Rotational constants in MHz :           345.570213           218.440061           154.809827

                             ****ORCA TERMINATED NORMALLY****
TOTAL RUN TIME: 0 days 0 hours 0 minutes 31 seconds 188 msec
