                         Program Version 6.0.0  -   RELEASE  -
|  1> ! pbe def2-sv(p) def2/J RI DEFGRID1 loosescf d4 GCP(DFT/SV(P)) printgap
|  2> %output
|  3>     printlevel normal
|  4> end
|  5> * xyz 0 1
|  6> C 2.7521865129 -0.7175642758 -3.0699608144
|  7> C 2.7512430176 0.5416776274 -2.2242386529
|  8> O 3.2574545495 0.2776309551 -0.9039536637
|  9> P 2.3287935464 0.0523219956 0.3618998714
| 10> S 1.0192516458 1.4847179522 0.696945672
| 11> O 3.5070082389 -0.0465644241 1.4061591822
| 12> C 3.2938957401 0.1755895763 2.8133220082
| 13> C 2.4323079806 -0.9009612383 3.4427924838
| 14> S 1.6306160719 -1.9506378819 0.2598817666
| 15> C -0.0375565938 -1.7866954892 -0.4436171015
| 16> S -1.2678756731 -1.076469788 0.6931805835
| 17> P -2.0056907748 0.5343004883 -0.4970983409
| 18> S -1.0932130401 0.8168034734 -2.2081026128
| 19> O -2.0393243589 1.8289090222 0.3974253641
| 20> C -2.9826969254 2.0975900657 1.4619878091
| 21> C -2.8619498627 1.1104247233 2.6029511159
| 22> O -3.568221717 0.2366896923 -0.6441790664
| 23> C -4.1272028786 -0.5684907129 -1.6946352695
| 24> C -3.6851994212 -2.015974638 -1.6210250068
| 25> H 2.4240033233 -0.4658121647 -4.0734264388
| 26> H 3.7540866929 -1.1353586854 -3.1076166575
| 27> H 2.0775946648 -1.4636707598 -2.6572420487
| 28> H 1.7475292887 0.9771055112 -2.1564035346
| 29> H 3.4299539605 1.2901420608 -2.6382577779
| 30> H 4.3020778945 0.1803071043 3.2298095275
| 31> H 2.834177747 1.1610189462 2.9414980815
| 32> H 2.836650806 -1.8856748308 3.2225313586
| 33> H 2.4040743471 -0.7534516587 4.5176934165
| 34> H 1.4165777778 -0.8426991009 3.0525165375
| 35> H -0.3357003646 -2.8077763348 -0.6682697224
| 36> H -0.0145710261 -1.1671775007 -1.3451417193
| 37> H -2.7150594507 3.1079912739 1.7754825196
| 38> H -3.9889150944 2.0900494901 1.0376088333
| 39> H -1.8341466115 1.0734260565 2.9563671766
| 40> H -3.5095730526 1.4246396727 3.4154557184
| 41> H -3.1577277317 0.114618621 2.276069364
| 42> H -5.2038847022 -0.4690444069 -1.548224353
| 43> H -3.8409548792 -0.1284747663 -2.655110786
| 44> H -3.8502497917 -2.4135761562 -0.6229681917
| 45> H -4.2538222203 -2.5974654831 -2.3396177358
| 46> H -2.6272430877 -2.09268289 -1.8662712481
| 47> *
| 48>
| 49>                          ****END OF INPUT****

CARTESIAN COORDINATES (ANGSTROEM)
---------------------------------
  C      2.752187   -0.717564   -3.069961
  C      2.751243    0.541678   -2.224239
  O      3.257455    0.277631   -0.903954
  P      2.328794    0.052322    0.361900
  S      1.019252    1.484718    0.696946
  O      3.507008   -0.046564    1.406159
  C      3.293896    0.175590    2.813322
  C      2.432308   -0.900961    3.442792
  S      1.630616   -1.950638    0.259882
  C     -0.037557   -1.786695   -0.443617
  S     -1.267876   -1.076470    0.693181
  P     -2.005691    0.534300   -0.497098
  S     -1.093213    0.816803   -2.208103
  O     -2.039324    1.828909    0.397425
  C     -2.982697    2.097590    1.461988
  C     -2.861950    1.110425    2.602951
  O     -3.568222    0.236690   -0.644179
  C     -4.127203   -0.568491   -1.694635
  C     -3.685199   -2.015975   -1.621025
  H      2.424003   -0.465812   -4.073426
  H      3.754087   -1.135359   -3.107617
  H      2.077595   -1.463671   -2.657242
  H      1.747529    0.977106   -2.156404
  H      3.429954    1.290142   -2.638258
  H      4.302078    0.180307    3.229810
  H      2.834178    1.161019    2.941498
  H      2.836651   -1.885675    3.222531
  H      2.404074   -0.753452    4.517693
  H      1.416578   -0.842699    3.052517
  H     -0.335700   -2.807776   -0.668270
  H     -0.014571   -1.167178   -1.345142
  H     -2.715059    3.107991    1.775483
  H     -3.988915    2.090049    1.037609
  H     -1.834147    1.073426    2.956367
  H     -3.509573    1.424640    3.415456
  H     -3.157728    0.114619    2.276069
  H     -5.203885   -0.469044   -1.548224
  H     -3.840955   -0.128475   -2.655111
  H     -3.850250   -2.413576   -0.622968
  H     -4.253822   -2.597465   -2.339618
  H     -2.627243   -2.092683   -1.866271

 Total Charge           Charge          ....    0
 Multiplicity           Mult            ....    1
 Number of Electrons    NEL             ....  202
 Basis Dimension        Dim             ....  334

ORBITAL ENERGIES
----------------

  NO   OCC          E(Eh)            E(eV)
   0   2.0000     -88.041102     -2395.7202
   1   2.0000     -88.041052     -2395.7188
   2   2.0000     -87.987828     -2394.2705
   3   2.0000     -87.979142     -2394.0342
   4   2.0000     -76.428522     -2079.7258
   5   2.0000     -76.418942     -2079.4651
   6   2.0000     -18.791350      -511.3386
   7   2.0000     -18.790867      -511.3255
   8   2.0000     -18.783949      -511.1372
   9   2.0000     -18.777150      -510.9522
  10   2.0000      -9.956805      -270.9384
  11   2.0000      -9.955521      -270.9035
  12   2.0000      -9.954865      -270.8856
  13   2.0000      -9.948073      -270.7008
  14   2.0000      -9.941404      -270.5193
  15   2.0000      -9.889282      -269.1011
  16   2.0000      -9.888141      -269.0700
  17   2.0000      -9.879563      -268.8366
  18   2.0000      -9.877883      -268.7909
  19   2.0000      -7.686016      -209.1471
  20   2.0000      -7.685412      -209.1307
  21   2.0000      -7.632690      -207.6960
  22   2.0000      -7.623636      -207.4497
  23   2.0000      -6.425364      -174.8431
  24   2.0000      -6.416330      -174.5972
  25   2.0000      -5.713848      -155.4817
  26   2.0000      -5.713404      -155.4696
  27   2.0000      -5.710426      -155.3886
  28   2.0000      -5.710091      -155.3795
  29   2.0000      -5.703129      -155.1900
  30   2.0000      -5.702228      -155.1655
  31   2.0000      -5.661598      -154.0599
  32   2.0000      -5.653329      -153.8349
  33   2.0000      -5.652769      -153.8197
  34   2.0000      -5.652521      -153.8129
  35   2.0000      -5.644458      -153.5935
  36   2.0000      -5.643744      -153.5741
  37   2.0000      -4.648320      -126.4872
  38   2.0000      -4.646783      -126.4454
  39   2.0000      -4.645933      -126.4223
  40   2.0000      -4.638642      -126.2239
  41   2.0000      -4.638389      -126.2170
  42   2.0000      -4.636694      -126.1709
  43   2.0000      -0.987914       -26.8825
  44   2.0000      -0.980894       -26.6915
  45   2.0000      -0.942727       -25.6529
  46   2.0000      -0.936058       -25.4714
  47   2.0000      -0.758240       -20.6328
  48   2.0000      -0.718687       -19.5565
  49   2.0000      -0.708044       -19.2669
  50   2.0000      -0.692274       -18.8377
  51   2.0000      -0.678709       -18.4686
  52   2.0000      -0.676792       -18.4165
  53   2.0000      -0.649939       -17.6857
  54   2.0000      -0.631741       -17.1905
  55   2.0000      -0.600913       -16.3517
  56   2.0000      -0.591695       -16.1008
  57   2.0000      -0.581645       -15.8274
  58   2.0000      -0.561819       -15.2879
  59   2.0000      -0.558126       -15.1874
  60   2.0000      -0.496858       -13.5202
  61   2.0000      -0.490581       -13.3494
  62   2.0000      -0.469908       -12.7868
  63   2.0000      -0.463169       -12.6035
  64   2.0000      -0.452868       -12.3232
  65   2.0000      -0.449783       -12.2392
  66   2.0000      -0.445363       -12.1189
  67   2.0000      -0.430351       -11.7104
  68   2.0000      -0.427569       -11.6347
  69   2.0000      -0.415362       -11.3026
  70   2.0000      -0.412595       -11.2273
  71   2.0000      -0.401940       -10.9373
  72   2.0000      -0.388703       -10.5771
  73   2.0000      -0.384641       -10.4666
  74   2.0000      -0.381272       -10.3749
  75   2.0000      -0.371679       -10.1139
  76   2.0000      -0.365295        -9.9402
  77   2.0000      -0.357421        -9.7259
  78   2.0000      -0.354727        -9.6526
  79   2.0000      -0.350305        -9.5323
  80   2.0000      -0.345943        -9.4136
  81   2.0000      -0.344955        -9.3867
  82   2.0000      -0.339834        -9.2474
  83   2.0000      -0.334022        -9.0892
  84   2.0000      -0.330015        -8.9802
  85   2.0000      -0.313408        -8.5283
  86   2.0000      -0.310334        -8.4446
  87   2.0000      -0.298169        -8.1136
  88   2.0000      -0.295273        -8.0348
  89   2.0000      -0.291195        -7.9238
  90   2.0000      -0.281063        -7.6481
  91   2.0000      -0.272795        -7.4231
  92   2.0000      -0.263047        -7.1579
  93   2.0000      -0.261665        -7.1203
  94   2.0000      -0.252024        -6.8579
  95   2.0000      -0.232539        -6.3277
  96   2.0000      -0.222702        -6.0600
  97   2.0000      -0.212305        -5.7771
  98   2.0000      -0.202144        -5.5006
  99   2.0000      -0.186927        -5.0865
 100   2.0000      -0.185651        -5.0518
 101   0.0000      -0.041038        -1.1167
 102   0.0000      -0.035686        -0.9711
 103   0.0000      -0.017515        -0.4766
 104   0.0000       0.002455         0.0668
 105   0.0000       0.010511         0.2860

MULLIKEN ATOMIC CHARGES
-----------------------
   0 C :   -0.295300
   1 C :   -0.026981
   2 O :   -0.355617
   3 P :    0.594894
   4 S :   -0.314777
   5 O :   -0.359041
   6 C :    0.002720
   7 C :   -0.322516
   8 S :   -0.107340
   9 C :   -0.359259
  10 S :   -0.097885
  11 P :    0.630275
  12 S :   -0.306483
  13 O :   -0.354197
  14 C :    0.005867
  15 C :   -0.335143
  16 O :   -0.388407
  17 C :    0.006030
  18 C :   -0.322551
  19 H :    0.109773
  20 H :    0.113379
  21 H :    0.118200
  22 H :    0.130621
  23 H :    0.105098
  24 H :    0.105930
  25 H :    0.110139
  26 H :    0.118054
  27 H :    0.109818
  28 H :    0.130418
  29 H :    0.182394
  30 H :    0.196338
  31 H :    0.113481
  32 H :    0.110250
  33 H :    0.138137
  34 H :    0.116309
  35 H :    0.126939
  36 H :    0.103069
  37 H :    0.111719
  38 H :    0.120305
  39 H :    0.113207
  40 H :    0.122134
Sum of atomic charges:   -0.0000000

LOEWDIN ATOMIC CHARGES
----------------------
   0 C :   -0.359550
   1 C :   -0.121769
   2 O :   -0.238272
   3 P :    0.561607
   4 S :   -0.308021
   5 O :   -0.234923
   6 C :   -0.116302
   7 C :   -0.372343
   8 S :    0.076922
   9 C :   -0.487173
  10 S :    0.079381
  11 P :    0.583638
  12 S :   -0.294264
  13 O :   -0.227193
  14 C :   -0.107013
  15 C :   -0.371130
  16 O :   -0.254341
  17 C :   -0.115806
  18 C :   -0.370905
  19 H :    0.129944
  20 H :    0.125742
  21 H :    0.117453
  22 H :    0.106357
  23 H :    0.119184
  24 H :    0.119123
  25 H :    0.110679
  26 H :    0.123763
  27 H :    0.129360
  28 H :    0.119771
  29 H :    0.135051
  30 H :    0.116398
  31 H :    0.124661
  32 H :    0.114075
  33 H :    0.132246
  34 H :    0.133009
  35 H :    0.116406
  36 H :    0.117964
  37 H :    0.111662
  38 H :    0.124307
  39 H :    0.130936
  40 H :    0.119365

  Mayer bond orders larger than 0.100000
B(  0-C ,  1-C ) :   1.1660 B(  0-C , 19-H ) :   0.9407 B(  0-C , 20-H ) :   0.9467
B(  0-C , 21-H ) :   0.9373 B(  1-C ,  2-O ) :   0.9109 B(  1-C , 22-H ) :   0.8977
B(  1-C , 23-H ) :   0.9350 B(  2-O ,  3-P ) :   1.1258 B(  3-P ,  4-S ) :   1.6306
B(  3-P ,  5-O ) :   1.1296 B(  3-P ,  8-S ) :   0.9379 B(  4-S ,  8-S ) :   0.1254
B(  5-O ,  6-C ) :   0.9097 B(  6-C ,  7-C ) :   1.1647 B(  6-C , 24-H ) :   0.9344
B(  6-C , 25-H ) :   0.9160 B(  7-C , 26-H ) :   0.9434 B(  7-C , 27-H ) :   0.9375
B(  7-C , 28-H ) :   0.9328 B(  8-S ,  9-C ) :   0.9904 B(  9-C , 10-S ) :   1.0072
B(  9-C , 29-H ) :   0.9042 B(  9-C , 30-H ) :   0.8378 B( 10-S , 11-P ) :   0.9457
B( 10-S , 12-S ) :   0.1173 B( 11-P , 12-S ) :   1.5941 B( 11-P , 13-O ) :   1.1423
B( 11-P , 16-O ) :   1.0594 B( 12-S , 30-H ) :   0.1318 B( 13-O , 14-C ) :   0.9004
B( 14-C , 15-C ) :   1.1703 B( 14-C , 31-H ) :   0.9324 B( 14-C , 32-H ) :   0.9259
B( 15-C , 33-H ) :   0.9402 B( 15-C , 34-H ) :   0.9355 B( 15-C , 35-H ) :   0.9320
B( 16-O , 17-C ) :   0.9177 B( 17-C , 18-C ) :   1.1645 B( 17-C , 36-H ) :   0.9345
B( 17-C , 37-H ) :   0.9178 B( 18-C , 38-H ) :   0.9414 B( 18-C , 39-H ) :   0.9363
B( 18-C , 40-H ) :   0.9363

Dispersion correction           -0.067954621
FINAL SINGLE POINT ENERGY     -2929.513333143575

DIPOLE MOMENT
-------------

Method             : SCF
Type of density    : Electron Density
Multiplicity       :   1
Irrep              :   0
Energy             : -2929.6300223885336891 Eh
Relativity type    :
Basis              : AO
                                X                 Y                 Z
Electronic contribution:      6.822857559       6.106110317      -2.231844398
Nuclear contribution   :     -7.883915688      -6.852046208       2.717411477
                        -----------------------------------------
Total Dipole Moment    :     -1.061058129      -0.745935891       0.485567079
                        -----------------------------------------
Magnitude (a.u.)       :      1.384933246
Magnitude (Debye)      :      3.520220554

Rotational constants in cm-1:             0.011323             0.005843             0.005051
Rotational constants in MHz :           339.464188           175.166310           151.435872

                             ****ORCA TERMINATED NORMALLY****
TOTAL RUN TIME: 0 days 0 hours 0 minutes 21 seconds 461 msec
