                         Program Version 6.0.0  -   RELEASE  -
|  1> ! pbe def2-sv(p) def2/J RI DEFGRID1 loosescf d4 GCP(DFT/SV(P)) printgap
|  2> %output
|  3>     printlevel normal
|  4> end
|  5> * xyz 0 1
|  6> C -0.6651711849 -2.1761696119 -3.9909e-06
|  7> C 0.2171880088 -0.969358881 -1.883e-06
|  8> C 1.6024910685 -1.0831346234 4.9383e-06
|  9> C 2.4186466999 0.034276064 3.6989e-06
| 10> C 1.8601567606 1.3005976719 -9.755e-07
| 11> C 0.4832831116 1.444765129 -4.3979e-06
| 12> C -0.316006567 0.3159894886 -5.6536e-06
| 13> Cl -2.0497963355 0.5254318439 2.8667e-06
| 14> H -1.3089347543 -2.1712171932 0.8783273841
| 15> H -1.3090727053 -2.1711055968 -0.8782319331
| 16> H -0.0723281074 -3.0855676628 -0.0001051114
| 17> H 2.0426982258 -2.0686287485 2.1212e-06
| 18> H 3.4908571757 -0.0839071507 1.45644e-05
| 19> H 2.4883038431 2.1770851745 -2.19765e-05
| 20> H 0.0300210489 2.4233648622 1.25878e-05
| 21> *
| 22>
| 23>                          ****END OF INPUT****

CARTESIAN COORDINATES (ANGSTROEM)
---------------------------------
  C     -0.665171   -2.176170   -0.000004
  C      0.217188   -0.969359   -0.000002
  C      1.602491   -1.083135    0.000005
  C      2.418647    0.034276    0.000004
  C      1.860157    1.300598   -0.000001
  C      0.483283    1.444765   -0.000004
  C     -0.316007    0.315989   -0.000006
  Cl    -2.049796    0.525432    0.000003
  H     -1.308935   -2.171217    0.878327
  H     -1.309073   -2.171106   -0.878232
  H     -0.072328   -3.085568   -0.000105
  H      2.042698   -2.068629    0.000002
  H      3.490857   -0.083907    0.000015
  H      2.488304    2.177085   -0.000022
  H      0.030021    2.423365    0.000013

 Total Charge           Charge          ....    0
 Multiplicity           Mult            ....    1
 Number of Electrons    NEL             ....   66
 Basis Dimension        Dim             ....  130

ORBITAL ENERGIES
----------------

  NO   OCC          E(Eh)            E(eV)
   0   2.0000    -100.638129     -2738.5027
   1   2.0000      -9.947710      -270.6910
   2   2.0000      -9.912610      -269.7358
   3   2.0000      -9.899826      -269.3880
   4   2.0000      -9.898982      -269.3650
   5   2.0000      -9.898903      -269.3628
   6   2.0000      -9.897375      -269.3213
   7   2.0000      -9.886264      -269.0189
   8   2.0000      -9.173804      -249.6319
   9   2.0000      -7.004985      -190.6153
  10   2.0000      -6.993975      -190.3157
  11   2.0000      -6.993227      -190.2954
  12   2.0000      -0.813230       -22.1291
  13   2.0000      -0.758628       -20.6433
  14   2.0000      -0.704165       -19.1613
  15   2.0000      -0.660913       -17.9844
  16   2.0000      -0.619542       -16.8586
  17   2.0000      -0.549428       -14.9507
  18   2.0000      -0.526832       -14.3358
  19   2.0000      -0.465042       -12.6544
  20   2.0000      -0.431783       -11.7494
  21   2.0000      -0.408223       -11.1083
  22   2.0000      -0.388144       -10.5619
  23   2.0000      -0.384806       -10.4711
  24   2.0000      -0.372790       -10.1441
  25   2.0000      -0.350189        -9.5291
  26   2.0000      -0.337653        -9.1880
  27   2.0000      -0.315538        -8.5862
  28   2.0000      -0.312023        -8.4906
  29   2.0000      -0.294745        -8.0204
  30   2.0000      -0.265138        -7.2148
  31   2.0000      -0.231324        -6.2946
  32   2.0000      -0.215906        -5.8751
  33   0.0000      -0.041185        -1.1207
  34   0.0000      -0.039137        -1.0650
  35   0.0000       0.012243         0.3332
  36   0.0000       0.054143         1.4733
  37   0.0000       0.067024         1.8238

MULLIKEN ATOMIC CHARGES
-----------------------
   0 C :   -0.205057
   1 C :    0.014009
   2 C :   -0.149179
   3 C :   -0.028731
   4 C :   -0.056098
   5 C :   -0.075471
   6 C :    0.047949
   7 Cl:   -0.089086
   8 H :    0.119089
   9 H :    0.119086
  10 H :    0.100539
  11 H :    0.042849
  12 H :    0.053622
  13 H :    0.058614
  14 H :    0.047865
Sum of atomic charges:   -0.0000000

LOEWDIN ATOMIC CHARGES
----------------------
   0 C :   -0.328121
   1 C :   -0.062788
   2 C :   -0.119273
   3 C :   -0.126467
   4 C :   -0.123047
   5 C :   -0.137620
   6 C :   -0.124709
   7 Cl:    0.122758
   8 H :    0.133544
   9 H :    0.133541
  10 H :    0.125120
  11 H :    0.124861
  12 H :    0.125587
  13 H :    0.126913
  14 H :    0.129702

  Mayer bond orders larger than 0.100000
B(  0-C ,  1-C ) :   1.1278 B(  0-C ,  8-H ) :   0.9250 B(  0-C ,  9-H ) :   0.9250
B(  0-C , 10-H ) :   0.9357 B(  1-C ,  2-C ) :   1.3996 B(  1-C ,  6-C ) :   1.4138
B(  2-C ,  3-C ) :   1.3609 B(  2-C , 11-H ) :   0.9583 B(  3-C ,  4-C ) :   1.3683
B(  3-C , 12-H ) :   0.9651 B(  4-C ,  5-C ) :   1.3645 B(  4-C , 13-H ) :   0.9628
B(  5-C ,  6-C ) :   1.4017 B(  5-C , 14-H ) :   0.9638 B(  6-C ,  7-Cl) :   1.0075

Dispersion correction           -0.016863100
FINAL SINGLE POINT ENERGY      -730.224164422554

DIPOLE MOMENT
-------------

Method             : SCF
Type of density    : Electron Density
Multiplicity       :   1
Irrep              :   0
Energy             :  -730.2614768424734848 Eh
Relativity type    :
Basis              : AO
                                X                 Y                 Z
Electronic contribution:     -7.359351754       5.198937737       0.000012590
Nuclear contribution   :      7.781257840      -5.377311690      -0.000006065
                        -----------------------------------------
Total Dipole Moment    :      0.421906086      -0.178373953       0.000006525
                        -----------------------------------------
Magnitude (a.u.)       :      0.458063328
Magnitude (Debye)      :      1.164304451

Rotational constants in cm-1:             0.096705             0.051199             0.033684
Rotational constants in MHz :          2899.136566          1534.892635          1009.807763

                             ****ORCA TERMINATED NORMALLY****
TOTAL RUN TIME: 0 days 0 hours 0 minutes 7 seconds 623 msec
