                         Program Version 6.0.1  -  RELEASE   -
|  1> ! pbe def2-sv(p) def2/J RI DEFGRID1 loosescf d4 GCP(DFT/SV(P)) printgap
|  2> %output
|  3>     printlevel normal
|  4> end
|  5> * xyz 0 1
|  6> C 4.5175523826 0.8927365762 -0.6214359148
|  7> C 4.1906622944 0.1702026702 -1.9177989698
|  8> O 2.8236734977 -0.2834841363 -1.9214157452
|  9> C 2.5499235007 -1.4691203834 -1.4122189425
| 10> O 3.371545026 -2.2421018658 -0.9767203009
| 11> C 1.0620996385 -1.7701465252 -1.4879014757
| 12> C 0.2532699179 -0.6675175616 -0.8105765475
| 13> H 0.5050971681 0.3054357204 -1.2455459858
| 14> C 0.5061436109 -0.6006676734 0.6832472277
| 15> O -0.3984218695 -0.6114698835 1.4941324548
| 16> O 1.7761488535 -0.5302127182 0.969693205
| 17> C 2.1551993449 -0.38962871 2.3577445353
| 18> C 2.2402905236 1.0787616754 2.7387969734
| 19> S -1.5316444709 -0.9538216737 -1.050521044
| 20> P -2.2511026303 0.7090034228 0.0794372895
| 21> S -1.0393042487 2.1857252518 0.5013646566
| 22> O -3.3678777305 1.2680912884 -0.9060652332
| 23> C -4.4479204609 0.4593407578 -1.4032155719
| 24> O -3.1936319286 0.1568578659 1.2445167042
| 25> C -2.8676736483 -0.0227081304 2.6222853429
| 26> H 5.5260789909 1.2892744496 -0.6741433903
| 27> H 3.8175991883 1.7095158323 -0.4637568461
| 28> H 4.4489282383 0.2009863106 0.214175913
| 29> H 4.8451020219 -0.6949801734 -2.0562073565
| 30> H 4.2577076414 0.8406970597 -2.7749002633
| 31> H 0.8720180997 -2.7357028979 -1.0192872244
| 32> H 0.7725336256 -1.8196681741 -2.5388614588
| 33> H 1.4163863565 -0.9110393351 2.9716386278
| 34> H 3.1242943288 -0.8844082939 2.4279534902
| 35> H 1.2845989649 1.5688163581 2.5594788544
| 36> H 2.4891949289 1.1611130856 3.791381403
| 37> H 3.0014841278 1.5813505275 2.1493116966
| 38> H -4.0535585193 -0.4484905128 -1.8614219793
| 39> H -4.9482095487 1.0773979164 -2.1442971413
| 40> H -5.1244948008 0.2045933762 -0.5896824046
| 41> H -3.8045858207 0.1014032784 3.1611063308
| 42> H -2.1413320213 0.7252255932 2.9404344834
| 43> H -2.4570723885 -1.0184105814 2.77620624
| 44> *
| 45>
| 46>                          ****END OF INPUT****

CARTESIAN COORDINATES (ANGSTROEM)
---------------------------------
  C      4.517552    0.892737   -0.621436
  C      4.190662    0.170203   -1.917799
  O      2.823673   -0.283484   -1.921416
  C      2.549924   -1.469120   -1.412219
  O      3.371545   -2.242102   -0.976720
  C      1.062100   -1.770147   -1.487901
  C      0.253270   -0.667518   -0.810577
  H      0.505097    0.305436   -1.245546
  C      0.506144   -0.600668    0.683247
  O     -0.398422   -0.611470    1.494132
  O      1.776149   -0.530213    0.969693
  C      2.155199   -0.389629    2.357745
  C      2.240291    1.078762    2.738797
  S     -1.531644   -0.953822   -1.050521
  P     -2.251103    0.709003    0.079437
  S     -1.039304    2.185725    0.501365
  O     -3.367878    1.268091   -0.906065
  C     -4.447920    0.459341   -1.403216
  O     -3.193632    0.156858    1.244517
  C     -2.867674   -0.022708    2.622285
  H      5.526079    1.289274   -0.674143
  H      3.817599    1.709516   -0.463757
  H      4.448928    0.200986    0.214176
  H      4.845102   -0.694980   -2.056207
  H      4.257708    0.840697   -2.774900
  H      0.872018   -2.735703   -1.019287
  H      0.772534   -1.819668   -2.538861
  H      1.416386   -0.911039    2.971639
  H      3.124294   -0.884408    2.427953
  H      1.284599    1.568816    2.559479
  H      2.489195    1.161113    3.791381
  H      3.001484    1.581351    2.149312
  H     -4.053559   -0.448491   -1.861422
  H     -4.948210    1.077398   -2.144297
  H     -5.124495    0.204593   -0.589682
  H     -3.804586    0.101403    3.161106
  H     -2.141332    0.725226    2.940434
  H     -2.457072   -1.018411    2.776206

 Total Charge           Charge          ....    0
 Multiplicity           Mult            ....    1
 Number of Electrons    NEL             ....  174
 Basis Dimension        Dim             ....  316

ORBITAL ENERGIES
----------------

  NO   OCC          E(Eh)            E(eV)
   0   2.0000     -88.033832     -2395.5224
   1   2.0000     -87.976005     -2393.9488
   2   2.0000     -76.421088     -2079.5235
   3   2.0000     -18.823503      -512.2136
   4   2.0000     -18.805821      -511.7324
   5   2.0000     -18.785436      -511.1777
   6   2.0000     -18.778558      -510.9905
   7   2.0000     -18.753359      -510.3049
   8   2.0000     -18.741223      -509.9746
   9   2.0000     -10.026512      -272.8353
  10   2.0000     -10.015344      -272.5314
  11   2.0000      -9.957140      -270.9476
  12   2.0000      -9.951648      -270.7981
  13   2.0000      -9.949173      -270.7308
  14   2.0000      -9.942978      -270.5622
  15   2.0000      -9.935519      -270.3592
  16   2.0000      -9.918565      -269.8979
  17   2.0000      -9.890442      -269.1326
  18   2.0000      -9.889029      -269.0942
  19   2.0000      -7.678916      -208.9539
  20   2.0000      -7.621342      -207.3873
  21   2.0000      -6.417344      -174.6248
  22   2.0000      -5.706821      -155.2905
  23   2.0000      -5.703824      -155.2089
  24   2.0000      -5.695484      -154.9820
  25   2.0000      -5.650585      -153.7602
  26   2.0000      -5.642017      -153.5271
  27   2.0000      -5.641032      -153.5003
  28   2.0000      -4.640157      -126.2651
  29   2.0000      -4.639201      -126.2391
  30   2.0000      -4.637831      -126.2018
  31   2.0000      -1.032150       -28.0862
  32   2.0000      -1.013612       -27.5818
  33   2.0000      -0.975868       -26.5547
  34   2.0000      -0.935509       -25.4565
  35   2.0000      -0.930216       -25.3125
  36   2.0000      -0.918567       -24.9955
  37   2.0000      -0.769328       -20.9345
  38   2.0000      -0.713723       -19.4214
  39   2.0000      -0.712752       -19.3950
  40   2.0000      -0.691766       -18.8239
  41   2.0000      -0.658304       -17.9134
  42   2.0000      -0.632048       -17.1989
  43   2.0000      -0.623892       -16.9770
  44   2.0000      -0.613075       -16.6826
  45   2.0000      -0.597898       -16.2696
  46   2.0000      -0.569707       -15.5025
  47   2.0000      -0.513724       -13.9791
  48   2.0000      -0.505639       -13.7591
  49   2.0000      -0.503550       -13.7023
  50   2.0000      -0.482017       -13.1164
  51   2.0000      -0.471095       -12.8191
  52   2.0000      -0.469100       -12.7648
  53   2.0000      -0.450048       -12.2464
  54   2.0000      -0.441172       -12.0049
  55   2.0000      -0.433198       -11.7879
  56   2.0000      -0.425034       -11.5658
  57   2.0000      -0.422042       -11.4843
  58   2.0000      -0.412925       -11.2363
  59   2.0000      -0.409978       -11.1561
  60   2.0000      -0.403810       -10.9882
  61   2.0000      -0.396802       -10.7975
  62   2.0000      -0.391951       -10.6655
  63   2.0000      -0.387882       -10.5548
  64   2.0000      -0.378873       -10.3096
  65   2.0000      -0.370314       -10.0768
  66   2.0000      -0.361319        -9.8320
  67   2.0000      -0.355170        -9.6647
  68   2.0000      -0.352114        -9.5815
  69   2.0000      -0.342546        -9.3212
  70   2.0000      -0.339115        -9.2278
  71   2.0000      -0.330883        -9.0038
  72   2.0000      -0.328006        -8.9255
  73   2.0000      -0.313790        -8.5387
  74   2.0000      -0.303969        -8.2714
  75   2.0000      -0.298940        -8.1346
  76   2.0000      -0.295983        -8.0541
  77   2.0000      -0.290187        -7.8964
  78   2.0000      -0.279199        -7.5974
  79   2.0000      -0.263735        -7.1766
  80   2.0000      -0.261823        -7.1246
  81   2.0000      -0.255025        -6.9396
  82   2.0000      -0.242004        -6.5853
  83   2.0000      -0.225082        -6.1248
  84   2.0000      -0.210511        -5.7283
  85   2.0000      -0.198116        -5.3910
  86   2.0000      -0.190429        -5.1818
  87   0.0000      -0.044414        -1.2086
  88   0.0000      -0.042511        -1.1568
  89   0.0000      -0.021310        -0.5799
  90   0.0000       0.006747         0.1836
  91   0.0000       0.029049         0.7905

MULLIKEN ATOMIC CHARGES
-----------------------
   0 C :   -0.321829
   1 C :   -0.009789
   2 O :   -0.239399
   3 C :    0.113530
   4 O :   -0.194192
   5 C :   -0.050571
   6 C :   -0.325744
   7 H :    0.170797
   8 C :    0.217448
   9 O :   -0.194133
  10 O :   -0.218995
  11 C :   -0.013513
  12 C :   -0.317764
  13 S :   -0.117077
  14 P :    0.642447
  15 S :   -0.333177
  16 O :   -0.366503
  17 C :   -0.111309
  18 O :   -0.397110
  19 C :   -0.081709
  20 H :    0.113035
  21 H :    0.127618
  22 H :    0.130903
  23 H :    0.109268
  24 H :    0.105843
  25 H :    0.107930
  26 H :    0.128574
  27 H :    0.112070
  28 H :    0.117116
  29 H :    0.142356
  30 H :    0.113318
  31 H :    0.119494
  32 H :    0.119983
  33 H :    0.129950
  34 H :    0.120534
  35 H :    0.115219
  36 H :    0.114567
  37 H :    0.120816
Sum of atomic charges:    0.0000000

LOEWDIN ATOMIC CHARGES
----------------------
   0 C :   -0.357140
   1 C :   -0.108421
   2 O :   -0.060508
   3 C :    0.026582
   4 O :   -0.161716
   5 C :   -0.239345
   6 C :   -0.271593
   7 H :    0.146969
   8 C :    0.021594
   9 O :   -0.161748
  10 O :   -0.027022
  11 C :   -0.105601
  12 C :   -0.358010
  13 S :    0.082613
  14 P :    0.587891
  15 S :   -0.322350
  16 O :   -0.252378
  17 C :   -0.212743
  18 O :   -0.252589
  19 C :   -0.206053
  20 H :    0.130624
  21 H :    0.127699
  22 H :    0.127723
  23 H :    0.120389
  24 H :    0.119321
  25 H :    0.139171
  26 H :    0.147637
  27 H :    0.122118
  28 H :    0.121979
  29 H :    0.132511
  30 H :    0.131782
  31 H :    0.125489
  32 H :    0.104758
  33 H :    0.125209
  34 H :    0.114212
  35 H :    0.115393
  36 H :    0.110831
  37 H :    0.114721

  Mayer bond orders larger than 0.100000
B(  0-C ,  1-C ) :   1.1762 B(  0-C , 20-H ) :   0.9411 B(  0-C , 21-H ) :   0.9430
B(  0-C , 22-H ) :   0.9399 B(  1-C ,  2-O ) :   0.9166 B(  1-C , 23-H ) :   0.9130
B(  1-C , 24-H ) :   0.9367 B(  2-O ,  3-C ) :   1.2060 B(  3-C ,  4-O ) :   2.0732
B(  3-C ,  5-C ) :   1.0249 B(  5-C ,  6-C ) :   1.0520 B(  5-C , 25-H ) :   0.9017
B(  5-C , 26-H ) :   0.8843 B(  6-C ,  7-H ) :   0.8512 B(  6-C ,  8-C ) :   0.8821
B(  6-C , 13-S ) :   1.0408 B(  8-C ,  9-O ) :   1.9691 B(  8-C , 10-O ) :   1.2719
B( 10-O , 11-C ) :   0.8869 B( 11-C , 12-C ) :   1.1816 B( 11-C , 27-H ) :   0.9116
B( 11-C , 28-H ) :   0.9297 B( 12-C , 29-H ) :   0.9318 B( 12-C , 30-H ) :   0.9411
B( 12-C , 31-H ) :   0.9460 B( 13-S , 14-P ) :   0.9251 B( 13-S , 15-S ) :   0.1099
B( 14-P , 15-S ) :   1.5984 B( 14-P , 16-O ) :   1.1132 B( 14-P , 18-O ) :   1.0937
B( 16-O , 17-C ) :   0.9314 B( 17-C , 32-H ) :   0.9356 B( 17-C , 33-H ) :   0.9605
B( 17-C , 34-H ) :   0.9470 B( 18-O , 19-C ) :   0.9256 B( 19-C , 35-H ) :   0.9536
B( 19-C , 36-H ) :   0.9420 B( 19-C , 37-H ) :   0.9518

Dispersion correction           -0.052435097
FINAL SINGLE POINT ENERGY     -1979.012304290534

DIPOLE MOMENT
-------------

Method             : SCF
Type of density    : Electron Density
Multiplicity       :   1
Irrep              :   0
Energy             : -1979.1443845287581098 Eh
Relativity type    :
Basis              : AO
                                X                 Y                 Z
Electronic contribution:    -14.750010091      -1.774279369      -6.870172235
Nuclear contribution   :     15.077350319       1.411432637       7.095726932
                        -----------------------------------------
Total Dipole Moment    :      0.327340227      -0.362846732       0.225554697
                        -----------------------------------------
Magnitude (a.u.)       :      0.538223278
Magnitude (Debye)      :      1.368054851

Rotational constants in cm-1:             0.016077             0.006394             0.005650
Rotational constants in MHz :           481.967314           191.678416           169.386283

                             ****ORCA TERMINATED NORMALLY****
TOTAL RUN TIME: 0 days 0 hours 0 minutes 42 seconds 185 msec
