                         Program Version 6.0.0  -   RELEASE  -
|  1> ! pbe def2-sv(p) def2/J RI DEFGRID1 loosescf d4 GCP(DFT/SV(P)) printgap
|  2> %output
|  3>     printlevel normal
|  4> end
|  5> * xyz 0 1
|  6> C 3.3421266144 -0.2154022291 -2.5321833283
|  7> C 1.9208783625 0.2174178963 -2.2456322933
|  8> O 1.327899053 -0.5565466619 -1.1857274843
|  9> P 1.8387449075 -0.4759069727 0.3068643617
| 10> S 2.5073359705 1.2456353207 0.9772757869
| 11> O 2.9177121805 -1.6445296954 0.3178952469
| 12> C 3.7348093126 -1.9065929733 1.4753939107
| 13> C 4.9266998944 -2.7297092478 1.0300427084
| 14> S 0.2621068607 -1.3523713781 1.3865431457
| 15> C -0.5521759917 0.1251489583 2.0840340378
| 16> S -2.2815345572 0.2566944639 1.5919489574
| 17> P -1.9512902175 0.7832234862 -0.4425287508
| 18> S -0.570788292 2.1350674278 -0.7590546958
| 19> O -3.4196692665 1.0771509263 -0.9716171204
| 20> C -4.3882590647 1.9223510418 -0.3206012409
| 21> C -3.8619181352 3.3151911048 -0.046881681
| 22> O -1.5966639981 -0.5345891285 -1.2284824362
| 23> C -2.4381376839 -1.7188515971 -1.2159813246
| 24> C -1.577881699 -2.903839694 -1.6013394675
| 25> H 3.975525155 0.0140387897 -1.6759455767
| 26> H 3.3768639163 -1.2850218668 -2.7216209177
| 27> H 3.7124768598 0.3222518796 -3.3994357065
| 28> H 1.2571577762 0.0438860461 -3.0941348911
| 29> H 1.8793653146 1.2761116805 -1.9670757411
| 30> H 4.0443256015 -0.948444173 1.9068164621
| 31> H 3.1270696961 -2.447648592 2.2058084778
| 32> H 4.586574306 -3.6501589013 0.5647788877
| 33> H 5.5220096555 -2.1714095769 0.3131016585
| 34> H 5.5375788763 -2.966624121 1.8948090192
| 35> H -0.0012122287 1.0136357085 1.761880768
| 36> H -0.5497933177 0.0318281755 3.1668650077
| 37> H -5.2227624047 1.9416561103 -1.0236449977
| 38> H -4.693638266 1.4342935828 0.6088300813
| 39> H -3.5021401157 3.7732933277 -0.9653062461
| 40> H -4.6552365663 3.9248870856 0.3731896752
| 41> H -3.0346561151 3.2727532034 0.6604508628
| 42> H -2.8576736341 -1.8405318229 -0.2127435748
| 43> H -3.2461987889 -1.5546231332 -1.9310070077
| 44> H -1.1452776058 -2.7473473681 -2.5853153054
| 45> H -0.7713573169 -3.0309527456 -0.8832109969
| 46> H -2.1913591769 -3.7988292398 -1.6136511556
| 47> *
| 48>
| 49>                          ****END OF INPUT****

CARTESIAN COORDINATES (ANGSTROEM)
---------------------------------
  C      3.342127   -0.215402   -2.532183
  C      1.920878    0.217418   -2.245632
  O      1.327899   -0.556547   -1.185727
  P      1.838745   -0.475907    0.306864
  S      2.507336    1.245635    0.977276
  O      2.917712   -1.644530    0.317895
  C      3.734809   -1.906593    1.475394
  C      4.926700   -2.729709    1.030043
  S      0.262107   -1.352371    1.386543
  C     -0.552176    0.125149    2.084034
  S     -2.281535    0.256694    1.591949
  P     -1.951290    0.783223   -0.442529
  S     -0.570788    2.135067   -0.759055
  O     -3.419669    1.077151   -0.971617
  C     -4.388259    1.922351   -0.320601
  C     -3.861918    3.315191   -0.046882
  O     -1.596664   -0.534589   -1.228482
  C     -2.438138   -1.718852   -1.215981
  C     -1.577882   -2.903840   -1.601339
  H      3.975525    0.014039   -1.675946
  H      3.376864   -1.285022   -2.721621
  H      3.712477    0.322252   -3.399436
  H      1.257158    0.043886   -3.094135
  H      1.879365    1.276112   -1.967076
  H      4.044326   -0.948444    1.906816
  H      3.127070   -2.447649    2.205808
  H      4.586574   -3.650159    0.564779
  H      5.522010   -2.171410    0.313102
  H      5.537579   -2.966624    1.894809
  H     -0.001212    1.013636    1.761881
  H     -0.549793    0.031828    3.166865
  H     -5.222762    1.941656   -1.023645
  H     -4.693638    1.434294    0.608830
  H     -3.502140    3.773293   -0.965306
  H     -4.655237    3.924887    0.373190
  H     -3.034656    3.272753    0.660451
  H     -2.857674   -1.840532   -0.212744
  H     -3.246199   -1.554623   -1.931007
  H     -1.145278   -2.747347   -2.585315
  H     -0.771357   -3.030953   -0.883211
  H     -2.191359   -3.798829   -1.613651

 Total Charge           Charge          ....    0
 Multiplicity           Mult            ....    1
 Number of Electrons    NEL             ....  202
 Basis Dimension        Dim             ....  334

ORBITAL ENERGIES
----------------

  NO   OCC          E(Eh)            E(eV)
   0   2.0000     -88.046316     -2395.8620
   1   2.0000     -88.041054     -2395.7189
   2   2.0000     -87.980380     -2394.0679
   3   2.0000     -87.978191     -2394.0083
   4   2.0000     -76.423123     -2079.5789
   5   2.0000     -76.420091     -2079.4964
   6   2.0000     -18.794232      -511.4171
   7   2.0000     -18.788219      -511.2534
   8   2.0000     -18.786026      -511.1937
   9   2.0000     -18.780400      -511.0407
  10   2.0000      -9.959712      -271.0176
  11   2.0000      -9.955604      -270.9058
  12   2.0000      -9.950043      -270.7544
  13   2.0000      -9.947990      -270.6986
  14   2.0000      -9.938682      -270.4453
  15   2.0000      -9.885884      -269.0086
  16   2.0000      -9.882886      -268.9270
  17   2.0000      -9.881437      -268.8876
  18   2.0000      -9.875448      -268.7246
  19   2.0000      -7.691374      -209.2929
  20   2.0000      -7.686265      -209.1539
  21   2.0000      -7.625288      -207.4946
  22   2.0000      -7.623158      -207.4367
  23   2.0000      -6.420420      -174.7085
  24   2.0000      -6.417749      -174.6358
  25   2.0000      -5.719075      -155.6239
  26   2.0000      -5.715651      -155.5308
  27   2.0000      -5.714110      -155.4888
  28   2.0000      -5.710734      -155.3970
  29   2.0000      -5.708764      -155.3434
  30   2.0000      -5.703232      -155.1928
  31   2.0000      -5.654192      -153.8584
  32   2.0000      -5.652229      -153.8050
  33   2.0000      -5.646045      -153.6367
  34   2.0000      -5.645343      -153.6176
  35   2.0000      -5.643671      -153.5721
  36   2.0000      -5.643250      -153.5606
  37   2.0000      -4.643234      -126.3488
  38   2.0000      -4.642560      -126.3305
  39   2.0000      -4.640331      -126.2698
  40   2.0000      -4.640003      -126.2609
  41   2.0000      -4.639448      -126.2458
  42   2.0000      -4.638523      -126.2206
  43   2.0000      -0.986553       -26.8455
  44   2.0000      -0.980669       -26.6854
  45   2.0000      -0.942016       -25.6336
  46   2.0000      -0.938100       -25.5270
  47   2.0000      -0.763110       -20.7653
  48   2.0000      -0.719655       -19.5828
  49   2.0000      -0.708705       -19.2848
  50   2.0000      -0.688759       -18.7421
  51   2.0000      -0.682999       -18.5853
  52   2.0000      -0.672438       -18.2980
  53   2.0000      -0.646927       -17.6038
  54   2.0000      -0.631449       -17.1826
  55   2.0000      -0.594767       -16.1844
  56   2.0000      -0.586424       -15.9574
  57   2.0000      -0.568586       -15.4720
  58   2.0000      -0.565545       -15.3893
  59   2.0000      -0.558009       -15.1842
  60   2.0000      -0.506134       -13.7726
  61   2.0000      -0.497185       -13.5291
  62   2.0000      -0.473597       -12.8872
  63   2.0000      -0.468176       -12.7397
  64   2.0000      -0.453805       -12.3487
  65   2.0000      -0.446211       -12.1420
  66   2.0000      -0.434316       -11.8183
  67   2.0000      -0.432017       -11.7558
  68   2.0000      -0.426323       -11.6008
  69   2.0000      -0.416357       -11.3297
  70   2.0000      -0.412078       -11.2132
  71   2.0000      -0.396375       -10.7859
  72   2.0000      -0.391722       -10.6593
  73   2.0000      -0.381769       -10.3885
  74   2.0000      -0.379902       -10.3377
  75   2.0000      -0.369856       -10.0643
  76   2.0000      -0.356459        -9.6997
  77   2.0000      -0.353173        -9.6103
  78   2.0000      -0.349235        -9.5032
  79   2.0000      -0.346184        -9.4202
  80   2.0000      -0.344181        -9.3656
  81   2.0000      -0.339594        -9.2408
  82   2.0000      -0.337819        -9.1925
  83   2.0000      -0.336200        -9.1485
  84   2.0000      -0.330678        -8.9982
  85   2.0000      -0.317968        -8.6524
  86   2.0000      -0.307682        -8.3725
  87   2.0000      -0.296984        -8.0813
  88   2.0000      -0.296215        -8.0604
  89   2.0000      -0.293327        -7.9818
  90   2.0000      -0.275752        -7.5036
  91   2.0000      -0.271819        -7.3966
  92   2.0000      -0.265778        -7.2322
  93   2.0000      -0.259508        -7.0616
  94   2.0000      -0.255846        -6.9619
  95   2.0000      -0.238563        -6.4916
  96   2.0000      -0.221502        -6.0274
  97   2.0000      -0.211603        -5.7580
  98   2.0000      -0.199790        -5.4366
  99   2.0000      -0.191334        -5.2065
 100   2.0000      -0.182551        -4.9675
 101   0.0000      -0.039514        -1.0752
 102   0.0000      -0.028912        -0.7867
 103   0.0000      -0.011431        -0.3111
 104   0.0000       0.013340         0.3630
 105   0.0000       0.022338         0.6078

MULLIKEN ATOMIC CHARGES
-----------------------
   0 C :   -0.303428
   1 C :   -0.002456
   2 O :   -0.349418
   3 P :    0.615933
   4 S :   -0.320703
   5 O :   -0.379658
   6 C :   -0.008569
   7 C :   -0.281669
   8 S :   -0.104796
   9 C :   -0.351375
  10 S :   -0.119722
  11 P :    0.589826
  12 S :   -0.292469
  13 O :   -0.382310
  14 C :   -0.013923
  15 C :   -0.308116
  16 O :   -0.344507
  17 C :   -0.010288
  18 C :   -0.277667
  19 H :    0.120404
  20 H :    0.111633
  21 H :    0.109243
  22 H :    0.102522
  23 H :    0.123345
  24 H :    0.103268
  25 H :    0.097932
  26 H :    0.115424
  27 H :    0.120022
  28 H :    0.110646
  29 H :    0.212794
  30 H :    0.182708
  31 H :    0.109423
  32 H :    0.113378
  33 H :    0.127437
  34 H :    0.110842
  35 H :    0.127959
  36 H :    0.096682
  37 H :    0.104345
  38 H :    0.115777
  39 H :    0.125125
  40 H :    0.104406
Sum of atomic charges:    0.0000000

LOEWDIN ATOMIC CHARGES
----------------------
   0 C :   -0.366376
   1 C :   -0.117812
   2 O :   -0.226455
   3 P :    0.569733
   4 S :   -0.313789
   5 O :   -0.249196
   6 C :   -0.123217
   7 C :   -0.350450
   8 S :    0.078145
   9 C :   -0.477745
  10 S :    0.064371
  11 P :    0.560939
  12 S :   -0.286622
  13 O :   -0.248183
  14 C :   -0.114541
  15 C :   -0.369057
  16 O :   -0.229159
  17 C :   -0.117344
  18 C :   -0.351783
  19 H :    0.120261
  20 H :    0.123623
  21 H :    0.129202
  22 H :    0.118444
  23 H :    0.109887
  24 H :    0.106516
  25 H :    0.107392
  26 H :    0.126314
  27 H :    0.127844
  28 H :    0.130148
  29 H :    0.127574
  30 H :    0.137350
  31 H :    0.121410
  32 H :    0.107638
  33 H :    0.131049
  34 H :    0.129856
  35 H :    0.122376
  36 H :    0.100804
  37 H :    0.113246
  38 H :    0.127329
  39 H :    0.123145
  40 H :    0.127133

  Mayer bond orders larger than 0.100000
B(  0-C ,  1-C ) :   1.1582 B(  0-C , 19-H ) :   0.9353 B(  0-C , 20-H ) :   0.9449
B(  0-C , 21-H ) :   0.9389 B(  1-C ,  2-O ) :   0.8999 B(  1-C , 22-H ) :   0.9355
B(  1-C , 23-H ) :   0.9127 B(  2-O ,  3-P ) :   1.1559 B(  3-P ,  4-S ) :   1.6057
B(  3-P ,  5-O ) :   1.0924 B(  3-P ,  8-S ) :   0.9590 B(  4-S ,  8-S ) :   0.1150
B(  5-O ,  6-C ) :   0.9078 B(  6-C ,  7-C ) :   1.1596 B(  6-C , 24-H ) :   0.9070
B(  6-C , 25-H ) :   0.9278 B(  7-C , 26-H ) :   0.9504 B(  7-C , 27-H ) :   0.9517
B(  7-C , 28-H ) :   0.9423 B(  8-S ,  9-C ) :   0.9928 B(  9-C , 10-S ) :   1.0046
B(  9-C , 29-H ) :   0.8448 B(  9-C , 30-H ) :   0.9114 B( 10-S , 11-P ) :   0.9343
B( 10-S , 12-S ) :   0.1053 B( 11-P , 12-S ) :   1.6583 B( 11-P , 13-O ) :   1.0816
B( 11-P , 16-O ) :   1.1443 B( 13-O , 14-C ) :   0.9153 B( 14-C , 15-C ) :   1.1662
B( 14-C , 31-H ) :   0.9336 B( 14-C , 32-H ) :   0.9266 B( 15-C , 33-H ) :   0.9431
B( 15-C , 34-H ) :   0.9349 B( 15-C , 35-H ) :   0.9318 B( 16-O , 17-C ) :   0.8883
B( 17-C , 18-C ) :   1.1666 B( 17-C , 36-H ) :   0.9100 B( 17-C , 37-H ) :   0.9314
B( 18-C , 38-H ) :   0.9493 B( 18-C , 39-H ) :   0.9432 B( 18-C , 40-H ) :   0.9408

Dispersion correction           -0.067216762
FINAL SINGLE POINT ENERGY     -2929.520056932010

DIPOLE MOMENT
-------------

Method             : SCF
Type of density    : Electron Density
Multiplicity       :   1
Irrep              :   0
Energy             : -2929.6382948221462357 Eh
Relativity type    :
Basis              : AO
                                X                 Y                 Z
Electronic contribution:     -5.768505079       8.074619688       8.131463482
Nuclear contribution   :      4.920916471      -9.177503369      -8.100570555
                        -----------------------------------------
Total Dipole Moment    :     -0.847588608      -1.102883682       0.030892927
                        -----------------------------------------
Magnitude (a.u.)       :      1.391299118
Magnitude (Debye)      :      3.536401317

Rotational constants in cm-1:             0.013228             0.005108             0.005013
Rotational constants in MHz :           396.578212           153.122906           150.295873

                             ****ORCA TERMINATED NORMALLY****
TOTAL RUN TIME: 0 days 0 hours 0 minutes 21 seconds 533 msec
