                         Program Version 6.0.1  -  RELEASE   -
|  1> ! pbe def2-sv(p) def2/J RI DEFGRID1 loosescf d4 GCP(DFT/SV(P)) printgap
|  2> %output
|  3>     printlevel normal
|  4> end
|  5> * xyz 0 1
|  6> C 4.8328352458 0.2913940985 -1.9087284841
|  7> C 4.5312959716 -0.9034271228 -1.0209578764
|  8> O 3.1214115725 -1.192204607 -1.0966350583
|  9> C 2.4252983558 -1.3200514519 0.0128038742
| 10> O 2.8866464805 -1.2901725883 1.1312427675
| 11> C 0.9493519248 -1.5158016705 -0.2919571242
| 12> C 0.4029787714 -0.2870916651 -1.026262019
| 13> H 0.9414575992 -0.149728444 -1.9673003132
| 14> C 0.5427377606 0.955804919 -0.1709372583
| 15> O -0.4144378529 1.5504710481 0.2857519548
| 16> O 1.7893258608 1.2868192571 0.0173763396
| 17> C 2.0878776829 2.3726963794 0.9263431507
| 18> C 3.4585078772 2.1264197224 1.5259577978
| 19> S -1.3460667247 -0.4808636793 -1.48074682
| 20> P -2.3858458486 -0.034676968 0.3279853973
| 21> S -1.6196669655 -0.5068592226 2.0717951648
| 22> O -3.046172992 1.3996353628 0.2487607176
| 23> C -3.8406614849 1.8235534195 -0.8756332692
| 24> O -3.7076185221 -0.90970684 0.0292376402
| 25> C -3.6937854868 -2.3369156466 0.0888119459
| 26> H 4.2508105929 1.1507174838 -1.586520046
| 27> H 5.8895323156 0.5288359209 -1.8445477309
| 28> H 4.5792233336 0.0636146335 -2.9396423968
| 29> H 4.7908014158 -0.7110677681 0.0235238723
| 30> H 5.0553808635 -1.7966634719 -1.3688413889
| 31> H 0.4184039874 -1.6733848389 0.6495334945
| 32> H 0.8292403426 -2.3880865606 -0.9349939596
| 33> H 2.0557133411 3.301653322 0.3505941315
| 34> H 1.3072687363 2.3999850209 1.6923373477
| 35> H 4.2234932866 2.1678838104 0.7566656982
| 36> H 3.6610210497 2.8861499157 2.2732699545
| 37> H 3.4836904768 1.1464970124 1.9971479664
| 38> H -3.2763375953 1.7028459247 -1.8005187319
| 39> H -4.0527715251 2.8731664282 -0.6891238115
| 40> H -4.7594110246 1.241372235 -0.9196298092
| 41> H -3.196786907 -2.7396680699 -0.7935454801
| 42> H -4.737109727 -2.6409819928 0.1135422385
| 43> H -3.180017683 -2.6689556936 0.9929364016
| 44> *
| 45>
| 46>                          ****END OF INPUT****

CARTESIAN COORDINATES (ANGSTROEM)
---------------------------------
  C      4.832835    0.291394   -1.908728
  C      4.531296   -0.903427   -1.020958
  O      3.121412   -1.192205   -1.096635
  C      2.425298   -1.320051    0.012804
  O      2.886646   -1.290173    1.131243
  C      0.949352   -1.515802   -0.291957
  C      0.402979   -0.287092   -1.026262
  H      0.941458   -0.149728   -1.967300
  C      0.542738    0.955805   -0.170937
  O     -0.414438    1.550471    0.285752
  O      1.789326    1.286819    0.017376
  C      2.087878    2.372696    0.926343
  C      3.458508    2.126420    1.525958
  S     -1.346067   -0.480864   -1.480747
  P     -2.385846   -0.034677    0.327985
  S     -1.619667   -0.506859    2.071795
  O     -3.046173    1.399635    0.248761
  C     -3.840661    1.823553   -0.875633
  O     -3.707619   -0.909707    0.029238
  C     -3.693785   -2.336916    0.088812
  H      4.250811    1.150717   -1.586520
  H      5.889532    0.528836   -1.844548
  H      4.579223    0.063615   -2.939642
  H      4.790801   -0.711068    0.023524
  H      5.055381   -1.796663   -1.368841
  H      0.418404   -1.673385    0.649533
  H      0.829240   -2.388087   -0.934994
  H      2.055713    3.301653    0.350594
  H      1.307269    2.399985    1.692337
  H      4.223493    2.167884    0.756666
  H      3.661021    2.886150    2.273270
  H      3.483690    1.146497    1.997148
  H     -3.276338    1.702846   -1.800519
  H     -4.052772    2.873166   -0.689124
  H     -4.759411    1.241372   -0.919630
  H     -3.196787   -2.739668   -0.793545
  H     -4.737110   -2.640982    0.113542
  H     -3.180018   -2.668956    0.992936

 Total Charge           Charge          ....    0
 Multiplicity           Mult            ....    1
 Number of Electrons    NEL             ....  174
 Basis Dimension        Dim             ....  316

ORBITAL ENERGIES
----------------

  NO   OCC          E(Eh)            E(eV)
   0   2.0000     -88.038127     -2395.6392
   1   2.0000     -87.969748     -2393.7786
   2   2.0000     -76.419203     -2079.4722
   3   2.0000     -18.824384      -512.2375
   4   2.0000     -18.806238      -511.7438
   5   2.0000     -18.779546      -511.0174
   6   2.0000     -18.777815      -510.9703
   7   2.0000     -18.755373      -510.3597
   8   2.0000     -18.739654      -509.9319
   9   2.0000     -10.027317      -272.8572
  10   2.0000     -10.012449      -272.4526
  11   2.0000      -9.956781      -270.9378
  12   2.0000      -9.955079      -270.8915
  13   2.0000      -9.952127      -270.8111
  14   2.0000      -9.940881      -270.5051
  15   2.0000      -9.933415      -270.3020
  16   2.0000      -9.907894      -269.6075
  17   2.0000      -9.894959      -269.2555
  18   2.0000      -9.890584      -269.1365
  19   2.0000      -7.682979      -209.0645
  20   2.0000      -7.614926      -207.2127
  21   2.0000      -6.414845      -174.5568
  22   2.0000      -5.710917      -155.4020
  23   2.0000      -5.707356      -155.3051
  24   2.0000      -5.700014      -155.1053
  25   2.0000      -5.644266      -153.5883
  26   2.0000      -5.635642      -153.3536
  27   2.0000      -5.634520      -153.3231
  28   2.0000      -4.637785      -126.2006
  29   2.0000      -4.636939      -126.1775
  30   2.0000      -4.635092      -126.1273
  31   2.0000      -1.033116       -28.1125
  32   2.0000      -1.013361       -27.5749
  33   2.0000      -0.974455       -26.5163
  34   2.0000      -0.935958       -25.4687
  35   2.0000      -0.927483       -25.2381
  36   2.0000      -0.917307       -24.9612
  37   2.0000      -0.769703       -20.9447
  38   2.0000      -0.716550       -19.4983
  39   2.0000      -0.715336       -19.4653
  40   2.0000      -0.687390       -18.7048
  41   2.0000      -0.658459       -17.9176
  42   2.0000      -0.626295       -17.0424
  43   2.0000      -0.622180       -16.9304
  44   2.0000      -0.609825       -16.5942
  45   2.0000      -0.593690       -16.1551
  46   2.0000      -0.565623       -15.3914
  47   2.0000      -0.520907       -14.1746
  48   2.0000      -0.511709       -13.9243
  49   2.0000      -0.504781       -13.7358
  50   2.0000      -0.484292       -13.1782
  51   2.0000      -0.467080       -12.7099
  52   2.0000      -0.465095       -12.6559
  53   2.0000      -0.453199       -12.3322
  54   2.0000      -0.450840       -12.2680
  55   2.0000      -0.434893       -11.8340
  56   2.0000      -0.421147       -11.4600
  57   2.0000      -0.416850       -11.3431
  58   2.0000      -0.412281       -11.2187
  59   2.0000      -0.404920       -11.0184
  60   2.0000      -0.404644       -11.0109
  61   2.0000      -0.390756       -10.6330
  62   2.0000      -0.385999       -10.5036
  63   2.0000      -0.384034       -10.4501
  64   2.0000      -0.380602       -10.3567
  65   2.0000      -0.369852       -10.0642
  66   2.0000      -0.364849        -9.9280
  67   2.0000      -0.360542        -9.8109
  68   2.0000      -0.348156        -9.4738
  69   2.0000      -0.343004        -9.3336
  70   2.0000      -0.337911        -9.1950
  71   2.0000      -0.330216        -8.9856
  72   2.0000      -0.327637        -8.9155
  73   2.0000      -0.316867        -8.6224
  74   2.0000      -0.307223        -8.3600
  75   2.0000      -0.300299        -8.1716
  76   2.0000      -0.290474        -7.9042
  77   2.0000      -0.287049        -7.8110
  78   2.0000      -0.277652        -7.5553
  79   2.0000      -0.262764        -7.1502
  80   2.0000      -0.261607        -7.1187
  81   2.0000      -0.249542        -6.7904
  82   2.0000      -0.240759        -6.5514
  83   2.0000      -0.231766        -6.3067
  84   2.0000      -0.216956        -5.9037
  85   2.0000      -0.189599        -5.1592
  86   2.0000      -0.182044        -4.9537
  87   0.0000      -0.043410        -1.1812
  88   0.0000      -0.037819        -1.0291
  89   0.0000      -0.021560        -0.5867
  90   0.0000       0.008249         0.2245
  91   0.0000       0.024808         0.6751

MULLIKEN ATOMIC CHARGES
-----------------------
   0 C :   -0.299084
   1 C :   -0.026665
   2 O :   -0.242883
   3 C :    0.100402
   4 O :   -0.188634
   5 C :   -0.041141
   6 C :   -0.324384
   7 H :    0.153636
   8 C :    0.219006
   9 O :   -0.178174
  10 O :   -0.226305
  11 C :   -0.027688
  12 C :   -0.309418
  13 S :   -0.096160
  14 P :    0.622523
  15 S :   -0.317095
  16 O :   -0.358337
  17 C :   -0.100794
  18 O :   -0.401002
  19 C :   -0.098782
  20 H :    0.120417
  21 H :    0.113270
  22 H :    0.113760
  23 H :    0.119775
  24 H :    0.107663
  25 H :    0.122548
  26 H :    0.117254
  27 H :    0.108357
  28 H :    0.132951
  29 H :    0.113963
  30 H :    0.115236
  31 H :    0.151537
  32 H :    0.112116
  33 H :    0.128001
  34 H :    0.122737
  35 H :    0.107659
  36 H :    0.119517
  37 H :    0.114216
Sum of atomic charges:    0.0000000

LOEWDIN ATOMIC CHARGES
----------------------
   0 C :   -0.354122
   1 C :   -0.110084
   2 O :   -0.063286
   3 C :    0.022863
   4 O :   -0.158578
   5 C :   -0.248643
   6 C :   -0.266953
   7 H :    0.147661
   8 C :    0.023940
   9 O :   -0.143422
  10 O :   -0.035980
  11 C :   -0.101697
  12 C :   -0.356296
  13 S :    0.094385
  14 P :    0.588346
  15 S :   -0.317852
  16 O :   -0.234804
  17 C :   -0.208839
  18 O :   -0.270183
  19 C :   -0.221310
  20 H :    0.123263
  21 H :    0.130600
  22 H :    0.125413
  23 H :    0.121336
  24 H :    0.118792
  25 H :    0.134252
  26 H :    0.141317
  27 H :    0.118479
  28 H :    0.129567
  29 H :    0.121980
  30 H :    0.133131
  31 H :    0.138886
  32 H :    0.106854
  33 H :    0.124500
  34 H :    0.114995
  35 H :    0.103948
  36 H :    0.119557
  37 H :    0.107984

  Mayer bond orders larger than 0.100000
B(  0-C ,  1-C ) :   1.1678 B(  0-C , 20-H ) :   0.9404 B(  0-C , 21-H ) :   0.9447
B(  0-C , 22-H ) :   0.9476 B(  1-C ,  2-O ) :   0.9089 B(  1-C , 23-H ) :   0.9067
B(  1-C , 24-H ) :   0.9358 B(  2-O ,  3-C ) :   1.1948 B(  3-C ,  4-O ) :   2.0614
B(  3-C ,  5-C ) :   1.0106 B(  5-C ,  6-C ) :   1.0288 B(  5-C , 25-H ) :   0.8726
B(  5-C , 26-H ) :   0.8887 B(  6-C ,  7-H ) :   0.8694 B(  6-C ,  8-C ) :   0.9028
B(  6-C , 13-S ) :   1.0290 B(  8-C ,  9-O ) :   1.9815 B(  8-C , 10-O ) :   1.2520
B(  9-O , 14-P ) :   0.1193 B( 10-O , 11-C ) :   0.8784 B( 11-C , 12-C ) :   1.1618
B( 11-C , 27-H ) :   0.9370 B( 11-C , 28-H ) :   0.9181 B( 12-C , 29-H ) :   0.9454
B( 12-C , 30-H ) :   0.9400 B( 12-C , 31-H ) :   0.9345 B( 13-S , 14-P ) :   0.9313
B( 13-S , 15-S ) :   0.1123 B( 14-P , 15-S ) :   1.6061 B( 14-P , 16-O ) :   1.1228
B( 14-P , 18-O ) :   1.0323 B( 16-O , 17-C ) :   0.9256 B( 17-C , 32-H ) :   0.9393
B( 17-C , 33-H ) :   0.9595 B( 17-C , 34-H ) :   0.9470 B( 18-O , 19-C ) :   0.9420
B( 19-C , 35-H ) :   0.9467 B( 19-C , 36-H ) :   0.9589 B( 19-C , 37-H ) :   0.9308

Dispersion correction           -0.052541167
FINAL SINGLE POINT ENERGY     -1979.010960346968

DIPOLE MOMENT
-------------

Method             : SCF
Type of density    : Electron Density
Multiplicity       :   1
Irrep              :   0
Energy             : -1979.1422523358119179 Eh
Relativity type    :
Basis              : AO
                                X                 Y                 Z
Electronic contribution:    -18.423281117      -4.027028744       4.158741396
Nuclear contribution   :     19.380092639       4.476039336      -5.925490905
                        -----------------------------------------
Total Dipole Moment    :      0.956811522       0.449010592      -1.766749509
                        -----------------------------------------
Magnitude (a.u.)       :      2.058762402
Magnitude (Debye)      :      5.232958156

Rotational constants in cm-1:             0.017684             0.005942             0.005548
Rotational constants in MHz :           530.164155           178.144304           166.316204

                             ****ORCA TERMINATED NORMALLY****
TOTAL RUN TIME: 0 days 0 hours 0 minutes 51 seconds 233 msec
