                         Program Version 6.0.0  -   RELEASE  -
|  1> ! pbe def2-sv(p) def2/J RI DEFGRID1 loosescf d4 GCP(DFT/SV(P)) printgap
|  2> %output
|  3>     printlevel normal
|  4> end
|  5> * xyz 0 1
|  6> C 2.804089835 1.8829966564 -2.0138072549
|  7> C 3.4801865272 2.0352203919 -0.6657065018
|  8> O 3.5118343522 0.7920107971 0.057870251
|  9> P 2.2730918912 0.2698428246 0.9067853049
| 10> S 1.3496477529 1.6364903955 1.9551463559
| 11> O 2.9231999757 -0.8267629991 1.8349494232
| 12> C 3.9069071081 -1.8036220683 1.4002104962
| 13> C 3.2677149477 -3.1615899195 1.1868615505
| 14> S 1.1168921889 -0.8056539191 -0.5374867631
| 15> C -0.0739504431 -1.5269829152 0.6240358313
| 16> S -1.4235027187 -0.4057548432 1.0752620912
| 17> P -2.1767282404 -0.1396115502 -0.9046978432
| 18> S -1.9461471083 -1.6505810344 -2.1265037032
| 19> O -1.4758998832 1.1293076201 -1.5234199117
| 20> C -1.146429931 2.3762820817 -0.8652994942
| 21> C -2.317320758 3.0227287209 -0.1584838439
| 22> O -3.6615705032 0.3727319802 -0.6740347628
| 23> C -4.6437600407 -0.249020215 0.1739466972
| 24> C -4.8616079059 -1.7127983152 -0.1474083223
| 25> H 2.8790399772 2.818934342 -2.5579148707
| 26> H 3.2823614796 1.0942554194 -2.5885520715
| 27> H 1.7525031657 1.6297539022 -1.8899647432
| 28> H 2.970130663 2.783600909 -0.0499795793
| 29> H 4.5317568891 2.3041121608 -0.7771323484
| 30> H 4.3907905849 -1.4417625846 0.4922919089
| 31> H 4.6298679354 -1.8326772799 2.2170164183
| 32> H 2.5871354826 -3.1422560923 0.3389513195
| 33> H 4.0495987881 -3.8885818935 0.9903025792
| 34> H 2.7210571139 -3.4633289133 2.076501104
| 35> H 0.4259733127 -1.7992502897 1.5514677127
| 36> H -0.4915187197 -2.3979024219 0.1192656086
| 37> H -0.3341440607 2.1885880542 -0.1553677282
| 38> H -0.7817907096 2.9974094321 -1.685189691
| 39> H -2.0133698473 4.0073546609 0.1837402858
| 40> H -3.1629571777 3.1174240687 -0.834596808
| 41> H -2.612891904 2.4317781321 0.7060359965
| 42> H -4.3252822147 -0.1248954661 1.2130686525
| 43> H -5.5463663504 0.336937808 -0.0084868799
| 44> H -5.1050833107 -1.8375877726 -1.1998340998
| 45> H -3.9590153304 -2.2838531793 0.0645813199
| 46> H -5.6752869783 -2.0971479569 0.4592314549
| 47> *
| 48>
| 49>                          ****END OF INPUT****

CARTESIAN COORDINATES (ANGSTROEM)
---------------------------------
  C      2.804090    1.882997   -2.013807
  C      3.480187    2.035220   -0.665707
  O      3.511834    0.792011    0.057870
  P      2.273092    0.269843    0.906785
  S      1.349648    1.636490    1.955146
  O      2.923200   -0.826763    1.834949
  C      3.906907   -1.803622    1.400210
  C      3.267715   -3.161590    1.186862
  S      1.116892   -0.805654   -0.537487
  C     -0.073950   -1.526983    0.624036
  S     -1.423503   -0.405755    1.075262
  P     -2.176728   -0.139612   -0.904698
  S     -1.946147   -1.650581   -2.126504
  O     -1.475900    1.129308   -1.523420
  C     -1.146430    2.376282   -0.865299
  C     -2.317321    3.022729   -0.158484
  O     -3.661571    0.372732   -0.674035
  C     -4.643760   -0.249020    0.173947
  C     -4.861608   -1.712798   -0.147408
  H      2.879040    2.818934   -2.557915
  H      3.282361    1.094255   -2.588552
  H      1.752503    1.629754   -1.889965
  H      2.970131    2.783601   -0.049980
  H      4.531757    2.304112   -0.777132
  H      4.390791   -1.441763    0.492292
  H      4.629868   -1.832677    2.217016
  H      2.587135   -3.142256    0.338951
  H      4.049599   -3.888582    0.990303
  H      2.721057   -3.463329    2.076501
  H      0.425973   -1.799250    1.551468
  H     -0.491519   -2.397902    0.119266
  H     -0.334144    2.188588   -0.155368
  H     -0.781791    2.997409   -1.685190
  H     -2.013370    4.007355    0.183740
  H     -3.162957    3.117424   -0.834597
  H     -2.612892    2.431778    0.706036
  H     -4.325282   -0.124895    1.213069
  H     -5.546366    0.336938   -0.008487
  H     -5.105083   -1.837588   -1.199834
  H     -3.959015   -2.283853    0.064581
  H     -5.675287   -2.097148    0.459231

 Total Charge           Charge          ....    0
 Multiplicity           Mult            ....    1
 Number of Electrons    NEL             ....  202
 Basis Dimension        Dim             ....  334

ORBITAL ENERGIES
----------------

  NO   OCC          E(Eh)            E(eV)
   0   2.0000     -88.044774     -2395.8201
   1   2.0000     -88.041450     -2395.7297
   2   2.0000     -87.987954     -2394.2739
   3   2.0000     -87.977734     -2393.9958
   4   2.0000     -76.429087     -2079.7412
   5   2.0000     -76.423147     -2079.5795
   6   2.0000     -18.798799      -511.5413
   7   2.0000     -18.796958      -511.4912
   8   2.0000     -18.789966      -511.3010
   9   2.0000     -18.782520      -511.0984
  10   2.0000      -9.961585      -271.0685
  11   2.0000      -9.958593      -270.9871
  12   2.0000      -9.957311      -270.9522
  13   2.0000      -9.956243      -270.9231
  14   2.0000      -9.943940      -270.5884
  15   2.0000      -9.892450      -269.1873
  16   2.0000      -9.888839      -269.0890
  17   2.0000      -9.880889      -268.8727
  18   2.0000      -9.880865      -268.8720
  19   2.0000      -7.688861      -209.2246
  20   2.0000      -7.686125      -209.1501
  21   2.0000      -7.632921      -207.7023
  22   2.0000      -7.623096      -207.4350
  23   2.0000      -6.426627      -174.8774
  24   2.0000      -6.419875      -174.6937
  25   2.0000      -5.716573      -155.5559
  26   2.0000      -5.713828      -155.4812
  27   2.0000      -5.713582      -155.4745
  28   2.0000      -5.710658      -155.3949
  29   2.0000      -5.705952      -155.2668
  30   2.0000      -5.703321      -155.1953
  31   2.0000      -5.661860      -154.0671
  32   2.0000      -5.653645      -153.8435
  33   2.0000      -5.652936      -153.8242
  34   2.0000      -5.652145      -153.8027
  35   2.0000      -5.643699      -153.5729
  36   2.0000      -5.643090      -153.5563
  37   2.0000      -4.649796      -126.5274
  38   2.0000      -4.648294      -126.4865
  39   2.0000      -4.646611      -126.4407
  40   2.0000      -4.642559      -126.3304
  41   2.0000      -4.642139      -126.3190
  42   2.0000      -4.639909      -126.2583
  43   2.0000      -0.993179       -27.0258
  44   2.0000      -0.981650       -26.7120
  45   2.0000      -0.950351       -25.8604
  46   2.0000      -0.938926       -25.5495
  47   2.0000      -0.764267       -20.7968
  48   2.0000      -0.722733       -19.6666
  49   2.0000      -0.710762       -19.3408
  50   2.0000      -0.694989       -18.9116
  51   2.0000      -0.686675       -18.6854
  52   2.0000      -0.676592       -18.4110
  53   2.0000      -0.650674       -17.7058
  54   2.0000      -0.637880       -17.3576
  55   2.0000      -0.596465       -16.2306
  56   2.0000      -0.587656       -15.9909
  57   2.0000      -0.583350       -15.8738
  58   2.0000      -0.573331       -15.6011
  59   2.0000      -0.565171       -15.3791
  60   2.0000      -0.507623       -13.8131
  61   2.0000      -0.490136       -13.3373
  62   2.0000      -0.480812       -13.0836
  63   2.0000      -0.466160       -12.6849
  64   2.0000      -0.462806       -12.5936
  65   2.0000      -0.449621       -12.2348
  66   2.0000      -0.442861       -12.0509
  67   2.0000      -0.434651       -11.8274
  68   2.0000      -0.432880       -11.7793
  69   2.0000      -0.416628       -11.3370
  70   2.0000      -0.409570       -11.1450
  71   2.0000      -0.402190       -10.9441
  72   2.0000      -0.392749       -10.6872
  73   2.0000      -0.387725       -10.5505
  74   2.0000      -0.380796       -10.3620
  75   2.0000      -0.376699       -10.2505
  76   2.0000      -0.366062        -9.9611
  77   2.0000      -0.363496        -9.8912
  78   2.0000      -0.355348        -9.6695
  79   2.0000      -0.351411        -9.5624
  80   2.0000      -0.346701        -9.4342
  81   2.0000      -0.344731        -9.3806
  82   2.0000      -0.341632        -9.2963
  83   2.0000      -0.338740        -9.2176
  84   2.0000      -0.334971        -9.1150
  85   2.0000      -0.323844        -8.8122
  86   2.0000      -0.314266        -8.5516
  87   2.0000      -0.307532        -8.3684
  88   2.0000      -0.295647        -8.0450
  89   2.0000      -0.292157        -7.9500
  90   2.0000      -0.280426        -7.6308
  91   2.0000      -0.275544        -7.4979
  92   2.0000      -0.271133        -7.3779
  93   2.0000      -0.264495        -7.1973
  94   2.0000      -0.257301        -7.0015
  95   2.0000      -0.242249        -6.5919
  96   2.0000      -0.218300        -5.9402
  97   2.0000      -0.209610        -5.7038
  98   2.0000      -0.200625        -5.4593
  99   2.0000      -0.192584        -5.2405
 100   2.0000      -0.190110        -5.1732
 101   0.0000      -0.043301        -1.1783
 102   0.0000      -0.029717        -0.8086
 103   0.0000      -0.005882        -0.1601
 104   0.0000      -0.000866        -0.0236
 105   0.0000       0.015561         0.4234

MULLIKEN ATOMIC CHARGES
-----------------------
   0 C :   -0.338279
   1 C :   -0.005246
   2 O :   -0.381965
   3 P :    0.599586
   4 S :   -0.299692
   5 O :   -0.366715
   6 C :   -0.011087
   7 C :   -0.307920
   8 S :   -0.080242
   9 C :   -0.354246
  10 S :   -0.093874
  11 P :    0.599213
  12 S :   -0.321526
  13 O :   -0.358454
  14 C :   -0.032689
  15 C :   -0.290759
  16 O :   -0.372869
  17 C :   -0.008874
  18 C :   -0.305939
  19 H :    0.115187
  20 H :    0.119314
  21 H :    0.157325
  22 H :    0.108889
  23 H :    0.107309
  24 H :    0.114625
  25 H :    0.113177
  26 H :    0.129358
  27 H :    0.114999
  28 H :    0.121202
  29 H :    0.187150
  30 H :    0.194646
  31 H :    0.123482
  32 H :    0.102955
  33 H :    0.112212
  34 H :    0.118835
  35 H :    0.114063
  36 H :    0.110128
  37 H :    0.108308
  38 H :    0.127191
  39 H :    0.121925
  40 H :    0.109296
Sum of atomic charges:    0.0000000

LOEWDIN ATOMIC CHARGES
----------------------
   0 C :   -0.369187
   1 C :   -0.118465
   2 O :   -0.246529
   3 P :    0.563921
   4 S :   -0.300192
   5 O :   -0.242930
   6 C :   -0.109812
   7 C :   -0.363980
   8 S :    0.090500
   9 C :   -0.480444
  10 S :    0.073100
  11 P :    0.567508
  12 S :   -0.317977
  13 O :   -0.233241
  14 C :   -0.123757
  15 C :   -0.362992
  16 O :   -0.240935
  17 C :   -0.114528
  18 C :   -0.368938
  19 H :    0.132697
  20 H :    0.127652
  21 H :    0.126171
  22 H :    0.108757
  23 H :    0.119607
  24 H :    0.114505
  25 H :    0.123226
  26 H :    0.121658
  27 H :    0.132726
  28 H :    0.127135
  29 H :    0.131844
  30 H :    0.131735
  31 H :    0.100178
  32 H :    0.117928
  33 H :    0.131627
  34 H :    0.125963
  35 H :    0.118082
  36 H :    0.107206
  37 H :    0.120918
  38 H :    0.130485
  39 H :    0.119760
  40 H :    0.129017

  Mayer bond orders larger than 0.100000
B(  0-C ,  1-C ) :   1.1641 B(  0-C , 19-H ) :   0.9387 B(  0-C , 20-H ) :   0.9453
B(  0-C , 21-H ) :   0.9280 B(  1-C ,  2-O ) :   0.9062 B(  1-C , 22-H ) :   0.9093
B(  1-C , 23-H ) :   0.9332 B(  2-O ,  3-P ) :   1.0833 B(  3-P ,  4-S ) :   1.6509
B(  3-P ,  5-O ) :   1.1202 B(  3-P ,  8-S ) :   0.9499 B(  4-S ,  8-S ) :   0.1110
B(  5-O ,  6-C ) :   0.8930 B(  6-C ,  7-C ) :   1.1680 B(  6-C , 24-H ) :   0.9181
B(  6-C , 25-H ) :   0.9351 B(  7-C , 26-H ) :   0.9329 B(  7-C , 27-H ) :   0.9387
B(  7-C , 28-H ) :   0.9438 B(  8-S ,  9-C ) :   0.9899 B(  9-C , 10-S ) :   1.0097
B(  9-C , 29-H ) :   0.8896 B(  9-C , 30-H ) :   0.8818 B( 10-S , 11-P ) :   0.9364
B( 10-S , 12-S ) :   0.1102 B( 11-P , 12-S ) :   1.6187 B( 11-P , 13-O ) :   1.1477
B( 11-P , 16-O ) :   1.0962 B( 13-O , 14-C ) :   0.8900 B( 14-C , 15-C ) :   1.1746
B( 14-C , 31-H ) :   0.8909 B( 14-C , 32-H ) :   0.9326 B( 15-C , 33-H ) :   0.9359
B( 15-C , 34-H ) :   0.9436 B( 15-C , 35-H ) :   0.9409 B( 16-O , 17-C ) :   0.9136
B( 17-C , 18-C ) :   1.1668 B( 17-C , 36-H ) :   0.9258 B( 17-C , 37-H ) :   0.9338
B( 18-C , 38-H ) :   0.9424 B( 18-C , 39-H ) :   0.9338 B( 18-C , 40-H ) :   0.9349

Dispersion correction           -0.066777963
FINAL SINGLE POINT ENERGY     -2929.516807241792

DIPOLE MOMENT
-------------

Method             : SCF
Type of density    : Electron Density
Multiplicity       :   1
Irrep              :   0
Energy             : -2929.6352623237207808 Eh
Relativity type    :
Basis              : AO
                                X                 Y                 Z
Electronic contribution:      0.461727832      -1.200946087       1.622918350
Nuclear contribution   :      0.158628035       1.255132999      -1.269034362
                        -----------------------------------------
Total Dipole Moment    :      0.620355868       0.054186912       0.353883988
                        -----------------------------------------
Magnitude (a.u.)       :      0.716248212
Magnitude (Debye)      :      1.820558273

Rotational constants in cm-1:             0.012233             0.005231             0.004671
Rotational constants in MHz :           366.741995           156.825705           140.037153

                             ****ORCA TERMINATED NORMALLY****
TOTAL RUN TIME: 0 days 0 hours 0 minutes 21 seconds 478 msec
