                         Program Version 6.0.0  -   RELEASE  -
|  1> ! r2scan-3c def2/J RI DEFGRID2 scfconv6 printgap
|  2> %output
|  3>     printlevel normal
|  4> end
|  5> * xyz 0 1
|  6> C 4.1402349263 -0.9476805234 -2.6279205445
|  7> C 4.507988221 -1.4376039192 -1.2422502744
|  8> O 3.3489782729 -1.6531677532 -0.418095036
|  9> P 2.4240854046 -0.4624486015 0.0795743994
| 10> S 3.369350487 1.1808672655 0.5951975386
| 11> O 1.5743335431 -1.1624263777 1.2181311637
| 12> C 1.9665396502 -1.1229712 2.604751701
| 13> C 3.2117204428 -1.9465427792 2.8575415068
| 14> S 0.9325363405 -0.2854343686 -1.4078058012
| 15> C 0.2827837471 1.3066670586 -0.8372398728
| 16> S -0.6694943211 1.1862556104 0.7060675328
| 17> P -2.5249458444 0.6120623145 -0.1206775647
| 18> S -2.7065342383 0.6320597488 -2.0769390288
| 19> O -3.4239527344 1.6378678002 0.6776949001
| 20> C -4.8534886765 1.6947133223 0.4590948335
| 21> C -5.34271722 3.0465874049 0.9354881147
| 22> O -2.9729912522 -0.7664795091 0.5451257844
| 23> C -2.7103497837 -2.0564704353 -0.0328495191
| 24> C -1.480012018 -2.69114841 0.5835950395
| 25> H 3.7150555548 0.0535555309 -2.568684968
| 26> H 5.0312941387 -0.9148231971 -3.246662149
| 27> H 3.4080069918 -1.6106895077 -3.081936923
| 28> H 5.1591733929 -0.7145276391 -0.740609134
| 29> H 4.9913621913 -2.4148528268 -1.2748417754
| 30> H 2.1245089102 -0.0778823364 2.8898389438
| 31> H 1.1000278252 -1.5213052654 3.1337992583
| 32> H 3.4144522841 -1.976285386 3.9234974051
| 33> H 3.0743908813 -2.9580100828 2.4845583955
| 34> H 4.0625058034 -1.4956068241 2.348101634
| 35> H -0.3572661267 1.6844943369 -1.6337331861
| 36> H 1.1146027371 1.9818644979 -0.6364345377
| 37> H -5.048809118 1.5503305196 -0.6091340547
| 38> H -5.3134874548 0.8790284004 1.021709129
| 39> H -4.8696095555 3.8382930515 0.3614706212
| 40> H -6.4186365524 3.1026670485 0.8058784603
| 41> H -5.0968400373 3.1797461729 1.9849250231
| 42> H -3.6054329567 -2.6430789112 0.1831712411
| 43> H -2.6009308051 -1.9432225554 -1.1170158397
| 44> H -1.3562384577 -3.6917776312 0.1823208641
| 45> H -0.5897665859 -2.1093920191 0.3546897464
| 46> H -1.5921973972 -2.746842371 1.6630620963
| 47> *
| 48>
| 49>                          ****END OF INPUT****

CARTESIAN COORDINATES (ANGSTROEM)
---------------------------------
  C      4.140235   -0.947681   -2.627921
  C      4.507988   -1.437604   -1.242250
  O      3.348978   -1.653168   -0.418095
  P      2.424085   -0.462449    0.079574
  S      3.369350    1.180867    0.595198
  O      1.574334   -1.162426    1.218131
  C      1.966540   -1.122971    2.604752
  C      3.211720   -1.946543    2.857542
  S      0.932536   -0.285434   -1.407806
  C      0.282784    1.306667   -0.837240
  S     -0.669494    1.186256    0.706068
  P     -2.524946    0.612062   -0.120678
  S     -2.706534    0.632060   -2.076939
  O     -3.423953    1.637868    0.677695
  C     -4.853489    1.694713    0.459095
  C     -5.342717    3.046587    0.935488
  O     -2.972991   -0.766480    0.545126
  C     -2.710350   -2.056470   -0.032850
  C     -1.480012   -2.691148    0.583595
  H      3.715056    0.053556   -2.568685
  H      5.031294   -0.914823   -3.246662
  H      3.408007   -1.610690   -3.081937
  H      5.159173   -0.714528   -0.740609
  H      4.991362   -2.414853   -1.274842
  H      2.124509   -0.077882    2.889839
  H      1.100028   -1.521305    3.133799
  H      3.414452   -1.976285    3.923497
  H      3.074391   -2.958010    2.484558
  H      4.062506   -1.495607    2.348102
  H     -0.357266    1.684494   -1.633733
  H      1.114603    1.981864   -0.636435
  H     -5.048809    1.550331   -0.609134
  H     -5.313487    0.879028    1.021709
  H     -4.869610    3.838293    0.361471
  H     -6.418637    3.102667    0.805878
  H     -5.096840    3.179746    1.984925
  H     -3.605433   -2.643079    0.183171
  H     -2.600931   -1.943223   -1.117016
  H     -1.356238   -3.691778    0.182321
  H     -0.589767   -2.109392    0.354690
  H     -1.592197   -2.746842    1.663062

 Total Charge           Charge          ....    0
 Multiplicity           Mult            ....    1
 Number of Electrons    NEL             ....  202
 Basis Dimension        Dim             ....  539

ORBITAL ENERGIES
----------------

  NO   OCC          E(Eh)            E(eV)
   0   2.0000     -88.575558     -2410.2635
   1   2.0000     -88.574795     -2410.2427
   2   2.0000     -88.524529     -2408.8749
   3   2.0000     -88.521680     -2408.7974
   4   2.0000     -76.915723     -2092.9832
   5   2.0000     -76.912545     -2092.8967
   6   2.0000     -18.996582      -516.9233
   7   2.0000     -18.991327      -516.7803
   8   2.0000     -18.988811      -516.7118
   9   2.0000     -18.988410      -516.7009
  10   2.0000     -10.102541      -274.9041
  11   2.0000     -10.101644      -274.8797
  12   2.0000     -10.098159      -274.7849
  13   2.0000     -10.097495      -274.7668
  14   2.0000     -10.092715      -274.6367
  15   2.0000     -10.031134      -272.9610
  16   2.0000     -10.030346      -272.9396
  17   2.0000     -10.030255      -272.9371
  18   2.0000     -10.020723      -272.6777
  19   2.0000      -7.869824      -214.1488
  20   2.0000      -7.868930      -214.1245
  21   2.0000      -7.819251      -212.7726
  22   2.0000      -7.816493      -212.6976
  23   2.0000      -6.594454      -179.4442
  24   2.0000      -6.591184      -179.3552
  25   2.0000      -5.816665      -158.2795
  26   2.0000      -5.815892      -158.2585
  27   2.0000      -5.813733      -158.1997
  28   2.0000      -5.812837      -158.1753
  29   2.0000      -5.806940      -158.0149
  30   2.0000      -5.805928      -157.9873
  31   2.0000      -5.766788      -156.9223
  32   2.0000      -5.764065      -156.8482
  33   2.0000      -5.759568      -156.7258
  34   2.0000      -5.759337      -156.7195
  35   2.0000      -5.756905      -156.6534
  36   2.0000      -5.756413      -156.6400
  37   2.0000      -4.739839      -128.9776
  38   2.0000      -4.739315      -128.9633
  39   2.0000      -4.738319      -128.9362
  40   2.0000      -4.736527      -128.8875
  41   2.0000      -4.736033      -128.8740
  42   2.0000      -4.735105      -128.8488
  43   2.0000      -1.053046       -28.6548
  44   2.0000      -1.047704       -28.5095
  45   2.0000      -1.014387       -27.6029
  46   2.0000      -1.006737       -27.3947
  47   2.0000      -0.800798       -21.7908
  48   2.0000      -0.760277       -20.6882
  49   2.0000      -0.748924       -20.3792
  50   2.0000      -0.733346       -19.9554
  51   2.0000      -0.728440       -19.8219
  52   2.0000      -0.711539       -19.3619
  53   2.0000      -0.685325       -18.6486
  54   2.0000      -0.669317       -18.2130
  55   2.0000      -0.636503       -17.3201
  56   2.0000      -0.622211       -16.9312
  57   2.0000      -0.607813       -16.5394
  58   2.0000      -0.602307       -16.3896
  59   2.0000      -0.586127       -15.9493
  60   2.0000      -0.528986       -14.3944
  61   2.0000      -0.519480       -14.1358
  62   2.0000      -0.495499       -13.4832
  63   2.0000      -0.494867       -13.4660
  64   2.0000      -0.475639       -12.9428
  65   2.0000      -0.460949       -12.5431
  66   2.0000      -0.459610       -12.5066
  67   2.0000      -0.455801       -12.4030
  68   2.0000      -0.443411       -12.0658
  69   2.0000      -0.435419       -11.8483
  70   2.0000      -0.421218       -11.4619
  71   2.0000      -0.412932       -11.2364
  72   2.0000      -0.409475       -11.1424
  73   2.0000      -0.403096       -10.9688
  74   2.0000      -0.402353       -10.9486
  75   2.0000      -0.389424       -10.5968
  76   2.0000      -0.377761       -10.2794
  77   2.0000      -0.372548       -10.1376
  78   2.0000      -0.371486       -10.1086
  79   2.0000      -0.365935        -9.9576
  80   2.0000      -0.364789        -9.9264
  81   2.0000      -0.360740        -9.8162
  82   2.0000      -0.355932        -9.6854
  83   2.0000      -0.350110        -9.5270
  84   2.0000      -0.346708        -9.4344
  85   2.0000      -0.334712        -9.1080
  86   2.0000      -0.322938        -8.7876
  87   2.0000      -0.313006        -8.5173
  88   2.0000      -0.309792        -8.4299
  89   2.0000      -0.305296        -8.3075
  90   2.0000      -0.299382        -8.1466
  91   2.0000      -0.291231        -7.9248
  92   2.0000      -0.286564        -7.7978
  93   2.0000      -0.281984        -7.6732
  94   2.0000      -0.274770        -7.4769
  95   2.0000      -0.244407        -6.6507
  96   2.0000      -0.231288        -6.2937
  97   2.0000      -0.228575        -6.2198
  98   2.0000      -0.219884        -5.9834
  99   2.0000      -0.217439        -5.9168
 100   2.0000      -0.216389        -5.8882
 101   0.0000      -0.046444        -1.2638
 102   0.0000      -0.029126        -0.7926
 103   0.0000      -0.004221        -0.1149
 104   0.0000      -0.000110        -0.0030
 105   0.0000       0.015417         0.4195

MULLIKEN ATOMIC CHARGES
-----------------------
   0 C :   -0.452791
   1 C :   -0.149550
   2 O :   -0.306884
   3 P :    0.679019
   4 S :   -0.483097
   5 O :   -0.274299
   6 C :   -0.149332
   7 C :   -0.442031
   8 S :   -0.111566
   9 C :   -0.247617
  10 S :   -0.106017
  11 P :    0.703949
  12 S :   -0.488640
  13 O :   -0.300921
  14 C :   -0.148947
  15 C :   -0.444036
  16 O :   -0.279354
  17 C :   -0.145676
  18 C :   -0.445601
  19 H :    0.178209
  20 H :    0.148705
  21 H :    0.157102
  22 H :    0.170760
  23 H :    0.149021
  24 H :    0.172768
  25 H :    0.153854
  26 H :    0.147678
  27 H :    0.156766
  28 H :    0.166158
  29 H :    0.214660
  30 H :    0.216195
  31 H :    0.165678
  32 H :    0.153130
  33 H :    0.159005
  34 H :    0.145211
  35 H :    0.154270
  36 H :    0.144754
  37 H :    0.170256
  38 H :    0.143344
  39 H :    0.180320
  40 H :    0.145547
Sum of atomic charges:   -0.0000000

LOEWDIN ATOMIC CHARGES
----------------------
   0 C :   -0.406204
   1 C :    0.020691
   2 O :   -0.659951
   3 P :    0.376879
   4 S :   -0.133932
   5 O :   -0.685071
   6 C :    0.020113
   7 C :   -0.398538
   8 S :    0.163599
   9 C :   -0.422587
  10 S :    0.189669
  11 P :    0.383414
  12 S :   -0.135657
  13 O :   -0.669499
  14 C :    0.025142
  15 C :   -0.385158
  16 O :   -0.662781
  17 C :    0.019453
  18 C :   -0.402355
  19 H :    0.166247
  20 H :    0.159894
  21 H :    0.160927
  22 H :    0.179420
  23 H :    0.179942
  24 H :    0.181116
  25 H :    0.180972
  26 H :    0.159671
  27 H :    0.161123
  28 H :    0.164324
  29 H :    0.194436
  30 H :    0.192390
  31 H :    0.180133
  32 H :    0.171985
  33 H :    0.162143
  34 H :    0.159407
  35 H :    0.160496
  36 H :    0.176158
  37 H :    0.181560
  38 H :    0.158614
  39 H :    0.175063
  40 H :    0.156750

  Mayer bond orders larger than 0.100000
B(  0-C ,  1-C ) :   0.9228 B(  0-C , 19-H ) :   0.9614 B(  0-C , 20-H ) :   0.9581
B(  0-C , 21-H ) :   0.9684 B(  1-C ,  2-O ) :   0.8129 B(  1-C , 22-H ) :   0.9662
B(  1-C , 23-H ) :   0.9581 B(  2-O ,  3-P ) :   1.0669 B(  3-P ,  4-S ) :   1.7541
B(  3-P ,  5-O ) :   1.1331 B(  3-P ,  8-S ) :   1.0922 B(  5-O ,  6-C ) :   0.7880
B(  6-C ,  7-C ) :   0.9214 B(  6-C , 24-H ) :   0.9625 B(  6-C , 25-H ) :   0.9627
B(  7-C , 26-H ) :   0.9622 B(  7-C , 27-H ) :   0.9725 B(  7-C , 28-H ) :   0.9601
B(  8-S ,  9-C ) :   0.9093 B(  9-C , 10-S ) :   0.9103 B(  9-C , 29-H ) :   0.9006
B(  9-C , 30-H ) :   0.9047 B( 10-S , 11-P ) :   1.0920 B( 11-P , 12-S ) :   1.7287
B( 11-P , 13-O ) :   1.2151 B( 11-P , 16-O ) :   1.0497 B( 13-O , 14-C ) :   0.7600
B( 14-C , 15-C ) :   0.9629 B( 14-C , 31-H ) :   0.9478 B( 14-C , 32-H ) :   0.9459
B( 15-C , 33-H ) :   0.9711 B( 15-C , 34-H ) :   0.9650 B( 15-C , 35-H ) :   0.9718
B( 16-O , 17-C ) :   0.7781 B( 17-C , 18-C ) :   0.9513 B( 17-C , 36-H ) :   0.9656
B( 17-C , 37-H ) :   0.9580 B( 18-C , 38-H ) :   0.9651 B( 18-C , 39-H ) :   0.9492
B( 18-C , 40-H ) :   0.9736

Dispersion correction           -0.020897344
FINAL SINGLE POINT ENERGY     -2932.465481952194

DIPOLE MOMENT
-------------

Method             : SCF
Type of density    : Electron Density
Multiplicity       :   1
Irrep              :   0
Energy             : -2932.4912129342269509 Eh
Relativity type    :
Basis              : AO
                                X                 Y                 Z
Electronic contribution:     -0.449423016       9.091263047      -5.581167310
Nuclear contribution   :      0.366256417     -10.137163829       6.160430899
                        -----------------------------------------
Total Dipole Moment    :     -0.083166599      -1.045900783       0.579263589
                        -----------------------------------------
Magnitude (a.u.)       :      1.198487144
Magnitude (Debye)      :      3.046312227

Rotational constants in cm-1:             0.013736             0.004226             0.004104
Rotational constants in MHz :           411.796215           126.678039           123.022327

                             ****ORCA TERMINATED NORMALLY****
TOTAL RUN TIME: 0 days 0 hours 1 minutes 21 seconds 112 msec
