                         Program Version 6.0.0  -   RELEASE  -
|  1> ! r2scan-3c def2/J RI DEFGRID2 scfconv6 printgap
|  2> %output
|  3>     printlevel normal
|  4> end
|  5> %cpcm
|  6>     smd true
|  7>     smdsolvent "water"
|  8> end
|  9> * xyz 0 1
| 10> C 4.1402349263 -0.9476805234 -2.6279205445
| 11> C 4.507988221 -1.4376039192 -1.2422502744
| 12> O 3.3489782729 -1.6531677532 -0.418095036
| 13> P 2.4240854046 -0.4624486015 0.0795743994
| 14> S 3.369350487 1.1808672655 0.5951975386
| 15> O 1.5743335431 -1.1624263777 1.2181311637
| 16> C 1.9665396502 -1.1229712 2.604751701
| 17> C 3.2117204428 -1.9465427792 2.8575415068
| 18> S 0.9325363405 -0.2854343686 -1.4078058012
| 19> C 0.2827837471 1.3066670586 -0.8372398728
| 20> S -0.6694943211 1.1862556104 0.7060675328
| 21> P -2.5249458444 0.6120623145 -0.1206775647
| 22> S -2.7065342383 0.6320597488 -2.0769390288
| 23> O -3.4239527344 1.6378678002 0.6776949001
| 24> C -4.8534886765 1.6947133223 0.4590948335
| 25> C -5.34271722 3.0465874049 0.9354881147
| 26> O -2.9729912522 -0.7664795091 0.5451257844
| 27> C -2.7103497837 -2.0564704353 -0.0328495191
| 28> C -1.480012018 -2.69114841 0.5835950395
| 29> H 3.7150555548 0.0535555309 -2.568684968
| 30> H 5.0312941387 -0.9148231971 -3.246662149
| 31> H 3.4080069918 -1.6106895077 -3.081936923
| 32> H 5.1591733929 -0.7145276391 -0.740609134
| 33> H 4.9913621913 -2.4148528268 -1.2748417754
| 34> H 2.1245089102 -0.0778823364 2.8898389438
| 35> H 1.1000278252 -1.5213052654 3.1337992583
| 36> H 3.4144522841 -1.976285386 3.9234974051
| 37> H 3.0743908813 -2.9580100828 2.4845583955
| 38> H 4.0625058034 -1.4956068241 2.348101634
| 39> H -0.3572661267 1.6844943369 -1.6337331861
| 40> H 1.1146027371 1.9818644979 -0.6364345377
| 41> H -5.048809118 1.5503305196 -0.6091340547
| 42> H -5.3134874548 0.8790284004 1.021709129
| 43> H -4.8696095555 3.8382930515 0.3614706212
| 44> H -6.4186365524 3.1026670485 0.8058784603
| 45> H -5.0968400373 3.1797461729 1.9849250231
| 46> H -3.6054329567 -2.6430789112 0.1831712411
| 47> H -2.6009308051 -1.9432225554 -1.1170158397
| 48> H -1.3562384577 -3.6917776312 0.1823208641
| 49> H -0.5897665859 -2.1093920191 0.3546897464
| 50> H -1.5921973972 -2.746842371 1.6630620963
| 51> *
| 52>
| 53>                          ****END OF INPUT****

CARTESIAN COORDINATES (ANGSTROEM)
---------------------------------
  C      4.140235   -0.947681   -2.627921
  C      4.507988   -1.437604   -1.242250
  O      3.348978   -1.653168   -0.418095
  P      2.424085   -0.462449    0.079574
  S      3.369350    1.180867    0.595198
  O      1.574334   -1.162426    1.218131
  C      1.966540   -1.122971    2.604752
  C      3.211720   -1.946543    2.857542
  S      0.932536   -0.285434   -1.407806
  C      0.282784    1.306667   -0.837240
  S     -0.669494    1.186256    0.706068
  P     -2.524946    0.612062   -0.120678
  S     -2.706534    0.632060   -2.076939
  O     -3.423953    1.637868    0.677695
  C     -4.853489    1.694713    0.459095
  C     -5.342717    3.046587    0.935488
  O     -2.972991   -0.766480    0.545126
  C     -2.710350   -2.056470   -0.032850
  C     -1.480012   -2.691148    0.583595
  H      3.715056    0.053556   -2.568685
  H      5.031294   -0.914823   -3.246662
  H      3.408007   -1.610690   -3.081937
  H      5.159173   -0.714528   -0.740609
  H      4.991362   -2.414853   -1.274842
  H      2.124509   -0.077882    2.889839
  H      1.100028   -1.521305    3.133799
  H      3.414452   -1.976285    3.923497
  H      3.074391   -2.958010    2.484558
  H      4.062506   -1.495607    2.348102
  H     -0.357266    1.684494   -1.633733
  H      1.114603    1.981864   -0.636435
  H     -5.048809    1.550331   -0.609134
  H     -5.313487    0.879028    1.021709
  H     -4.869610    3.838293    0.361471
  H     -6.418637    3.102667    0.805878
  H     -5.096840    3.179746    1.984925
  H     -3.605433   -2.643079    0.183171
  H     -2.600931   -1.943223   -1.117016
  H     -1.356238   -3.691778    0.182321
  H     -0.589767   -2.109392    0.354690
  H     -1.592197   -2.746842    1.663062

 Total Charge           Charge          ....    0
 Multiplicity           Mult            ....    1
 Number of Electrons    NEL             ....  202
 Basis Dimension        Dim             ....  539

ORBITAL ENERGIES
----------------

  NO   OCC          E(Eh)            E(eV)
   0   2.0000     -88.582255     -2410.4457
   1   2.0000     -88.580031     -2410.3852
   2   2.0000     -88.531305     -2409.0593
   3   2.0000     -88.530453     -2409.0361
   4   2.0000     -76.920332     -2093.1086
   5   2.0000     -76.919834     -2093.0951
   6   2.0000     -18.997537      -516.9493
   7   2.0000     -18.994548      -516.8679
   8   2.0000     -18.993875      -516.8496
   9   2.0000     -18.993113      -516.8289
  10   2.0000     -10.105359      -274.9808
  11   2.0000     -10.090650      -274.5806
  12   2.0000     -10.090180      -274.5678
  13   2.0000     -10.089319      -274.5443
  14   2.0000     -10.087949      -274.5071
  15   2.0000     -10.019651      -272.6486
  16   2.0000     -10.019105      -272.6337
  17   2.0000     -10.018886      -272.6277
  18   2.0000     -10.015215      -272.5279
  19   2.0000      -7.876454      -214.3292
  20   2.0000      -7.874363      -214.2723
  21   2.0000      -7.826359      -212.9661
  22   2.0000      -7.825437      -212.9410
  23   2.0000      -6.599016      -179.5684
  24   2.0000      -6.598587      -179.5567
  25   2.0000      -5.823382      -158.4623
  26   2.0000      -5.821189      -158.4026
  27   2.0000      -5.820309      -158.3787
  28   2.0000      -5.818278      -158.3234
  29   2.0000      -5.813541      -158.1945
  30   2.0000      -5.811484      -158.1385
  31   2.0000      -5.773883      -157.1154
  32   2.0000      -5.772929      -157.0894
  33   2.0000      -5.766733      -156.9208
  34   2.0000      -5.766321      -156.9096
  35   2.0000      -5.765743      -156.8938
  36   2.0000      -5.765533      -156.8881
  37   2.0000      -4.744332      -129.0998
  38   2.0000      -4.743914      -129.0885
  39   2.0000      -4.743859      -129.0870
  40   2.0000      -4.743448      -129.0758
  41   2.0000      -4.742993      -129.0634
  42   2.0000      -4.742538      -129.0510
  43   2.0000      -1.054040       -28.6819
  44   2.0000      -1.053019       -28.6541
  45   2.0000      -1.014738       -27.6124
  46   2.0000      -1.011433       -27.5225
  47   2.0000      -0.805230       -21.9114
  48   2.0000      -0.758903       -20.6508
  49   2.0000      -0.743828       -20.2406
  50   2.0000      -0.724138       -19.7048
  51   2.0000      -0.723134       -19.6775
  52   2.0000      -0.711322       -19.3561
  53   2.0000      -0.689595       -18.7648
  54   2.0000      -0.676772       -18.4159
  55   2.0000      -0.635189       -17.2844
  56   2.0000      -0.620286       -16.8788
  57   2.0000      -0.600219       -16.3328
  58   2.0000      -0.598549       -16.2873
  59   2.0000      -0.585916       -15.9436
  60   2.0000      -0.528165       -14.3721
  61   2.0000      -0.515317       -14.0225
  62   2.0000      -0.495274       -13.4771
  63   2.0000      -0.491359       -13.3706
  64   2.0000      -0.476766       -12.9735
  65   2.0000      -0.458742       -12.4830
  66   2.0000      -0.455128       -12.3847
  67   2.0000      -0.452776       -12.3207
  68   2.0000      -0.440500       -11.9866
  69   2.0000      -0.432603       -11.7717
  70   2.0000      -0.420313       -11.4373
  71   2.0000      -0.411839       -11.2067
  72   2.0000      -0.406597       -11.0641
  73   2.0000      -0.402950       -10.9648
  74   2.0000      -0.401128       -10.9153
  75   2.0000      -0.388466       -10.5707
  76   2.0000      -0.378393       -10.2966
  77   2.0000      -0.366264        -9.9666
  78   2.0000      -0.365127        -9.9356
  79   2.0000      -0.362297        -9.8586
  80   2.0000      -0.356482        -9.7004
  81   2.0000      -0.353092        -9.6081
  82   2.0000      -0.348800        -9.4913
  83   2.0000      -0.345615        -9.4047
  84   2.0000      -0.343975        -9.3600
  85   2.0000      -0.331882        -9.0310
  86   2.0000      -0.321943        -8.7605
  87   2.0000      -0.312099        -8.4926
  88   2.0000      -0.306221        -8.3327
  89   2.0000      -0.304781        -8.2935
  90   2.0000      -0.297322        -8.0906
  91   2.0000      -0.290364        -7.9012
  92   2.0000      -0.286978        -7.8091
  93   2.0000      -0.281233        -7.6527
  94   2.0000      -0.278285        -7.5725
  95   2.0000      -0.249131        -6.7792
  96   2.0000      -0.239137        -6.5072
  97   2.0000      -0.236210        -6.4276
  98   2.0000      -0.228047        -6.2055
  99   2.0000      -0.227135        -6.1807
 100   2.0000      -0.223211        -6.0739
 101   0.0000      -0.053878        -1.4661
 102   0.0000      -0.036224        -0.9857
 103   0.0000      -0.009180        -0.2498
 104   0.0000      -0.005739        -0.1562
 105   0.0000       0.011924         0.3245

MULLIKEN ATOMIC CHARGES
-----------------------
   0 C :   -0.488755
   1 C :   -0.150287
   2 O :   -0.331150
   3 P :    0.716133
   4 S :   -0.527323
   5 O :   -0.298129
   6 C :   -0.146557
   7 C :   -0.483596
   8 S :   -0.122034
   9 C :   -0.255330
  10 S :   -0.127738
  11 P :    0.726397
  12 S :   -0.525282
  13 O :   -0.332835
  14 C :   -0.137754
  15 C :   -0.487056
  16 O :   -0.304500
  17 C :   -0.132101
  18 C :   -0.489292
  19 H :    0.173021
  20 H :    0.173693
  21 H :    0.170186
  22 H :    0.178367
  23 H :    0.176343
  24 H :    0.176569
  25 H :    0.179349
  26 H :    0.172343
  27 H :    0.170554
  28 H :    0.168095
  29 H :    0.230180
  30 H :    0.234946
  31 H :    0.169855
  32 H :    0.175438
  33 H :    0.166503
  34 H :    0.169927
  35 H :    0.166453
  36 H :    0.172646
  37 H :    0.169406
  38 H :    0.169312
  39 H :    0.167306
  40 H :    0.166697
Sum of atomic charges:   -0.0000000

LOEWDIN ATOMIC CHARGES
----------------------
   0 C :   -0.409467
   1 C :    0.026688
   2 O :   -0.670064
   3 P :    0.382393
   4 S :   -0.160244
   5 O :   -0.696487
   6 C :    0.024051
   7 C :   -0.401774
   8 S :    0.157768
   9 C :   -0.417175
  10 S :    0.176808
  11 P :    0.385563
  12 S :   -0.160356
  13 O :   -0.687218
  14 C :    0.030547
  15 C :   -0.389417
  16 O :   -0.672431
  17 C :    0.024693
  18 C :   -0.406552
  19 H :    0.161733
  20 H :    0.168992
  21 H :    0.163853
  22 H :    0.181942
  23 H :    0.191561
  24 H :    0.182133
  25 H :    0.191036
  26 H :    0.168879
  27 H :    0.164497
  28 H :    0.162702
  29 H :    0.199285
  30 H :    0.197881
  31 H :    0.182374
  32 H :    0.181429
  33 H :    0.162831
  34 H :    0.169317
  35 H :    0.163486
  36 H :    0.187985
  37 H :    0.181739
  38 H :    0.168147
  39 H :    0.168246
  40 H :    0.162628

  Mayer bond orders larger than 0.100000
B(  0-C ,  1-C ) :   0.9083 B(  0-C , 19-H ) :   0.9630 B(  0-C , 20-H ) :   0.9528
B(  0-C , 21-H ) :   0.9656 B(  1-C ,  2-O ) :   0.8007 B(  1-C , 22-H ) :   0.9650
B(  1-C , 23-H ) :   0.9483 B(  2-O ,  3-P ) :   1.0771 B(  3-P ,  4-S ) :   1.7138
B(  3-P ,  5-O ) :   1.1437 B(  3-P ,  8-S ) :   1.0983 B(  5-O ,  6-C ) :   0.7757
B(  6-C ,  7-C ) :   0.9114 B(  6-C , 24-H ) :   0.9585 B(  6-C , 25-H ) :   0.9527
B(  7-C , 26-H ) :   0.9560 B(  7-C , 27-H ) :   0.9713 B(  7-C , 28-H ) :   0.9591
B(  8-S ,  9-C ) :   0.9049 B(  9-C , 10-S ) :   0.9015 B(  9-C , 29-H ) :   0.8972
B(  9-C , 30-H ) :   0.9002 B( 10-S , 11-P ) :   1.0971 B( 11-P , 12-S ) :   1.7072
B( 11-P , 13-O ) :   1.2166 B( 11-P , 16-O ) :   1.0566 B( 13-O , 14-C ) :   0.7528
B( 14-C , 15-C ) :   0.9540 B( 14-C , 31-H ) :   0.9434 B( 14-C , 32-H ) :   0.9365
B( 15-C , 33-H ) :   0.9698 B( 15-C , 34-H ) :   0.9586 B( 15-C , 35-H ) :   0.9691
B( 16-O , 17-C ) :   0.7676 B( 17-C , 18-C ) :   0.9409 B( 17-C , 36-H ) :   0.9556
B( 17-C , 37-H ) :   0.9560 B( 18-C , 38-H ) :   0.9591 B( 18-C , 39-H ) :   0.9544
B( 18-C , 40-H ) :   0.9702

Dispersion correction           -0.020897344
FINAL SINGLE POINT ENERGY     -2932.472089823662

DIPOLE MOMENT
-------------

Method             : SCF
Type of density    : Electron Density
Multiplicity       :   1
Irrep              :   0
Energy             : -2932.4978208056950280 Eh
Relativity type    :
Basis              : AO
                                X                 Y                 Z
Electronic contribution:     -0.490091245       8.676566286      -5.463781219
Nuclear contribution   :      0.366256417     -10.137163829       6.160430899
                        -----------------------------------------
Total Dipole Moment    :     -0.123834828      -1.460597543       0.696649679
                        -----------------------------------------
Magnitude (a.u.)       :      1.622960573
Magnitude (Debye)      :      4.125237940

Rotational constants in cm-1:             0.013736             0.004226             0.004104
Rotational constants in MHz :           411.796215           126.678039           123.022327

                             ****ORCA TERMINATED NORMALLY****
TOTAL RUN TIME: 0 days 0 hours 1 minutes 52 seconds 260 msec
