                         Program Version 6.0.0  -   RELEASE  -
|  1> ! r2scan-3c def2/J RI DEFGRID2 scfconv6 printgap
|  2> %output
|  3>     printlevel normal
|  4> end
|  5> * xyz 0 1
|  6> C -2.5604943254 0.6238286285 0.0002853063
|  7> C -1.2263098195 -0.0573039535 -0.0001346328
|  8> C -1.1500408418 -1.4445895055 -0.0002288098
|  9> C 0.0749551954 -2.0833037468 -5.82329e-05
| 10> C 1.2408577575 -1.3406090289 0.0001981186
| 11> C 1.1788746097 0.0467902442 7.56798e-05
| 12> C -0.0563723255 0.7022499222 -0.000118235
| 13> C -0.109211651 2.2005513621 -0.0001654839
| 14> O 2.3171192738 0.8043385986 6.145e-05
| 15> H -2.6654700211 1.2562341352 0.8804025244
| 16> H -2.664884804 1.2592696329 -0.8777080208
| 17> H -3.3638898077 -0.1075393948 -0.0010532805
| 18> H -2.0592057809 -2.0274752211 -0.0004323255
| 19> H 0.1264354992 -3.1616514107 -0.000139535
| 20> H 2.2012086796 -1.8366413235 0.0003908345
| 21> H -0.6372895252 2.5636364443 -0.8805717017
| 22> H -0.6359840616 2.5637280577 0.8809961068
| 23> H 0.8969893582 2.6086565107 -0.0009568016
| 24> H 3.0962306102 0.229906594 -0.0001599434
| 25> *
| 26>
| 27>                          ****END OF INPUT****

CARTESIAN COORDINATES (ANGSTROEM)
---------------------------------
  C     -2.560494    0.623829    0.000285
  C     -1.226310   -0.057304   -0.000135
  C     -1.150041   -1.444590   -0.000229
  C      0.074955   -2.083304   -0.000058
  C      1.240858   -1.340609    0.000198
  C      1.178875    0.046790    0.000076
  C     -0.056372    0.702250   -0.000118
  C     -0.109212    2.200551   -0.000165
  O      2.317119    0.804339    0.000061
  H     -2.665470    1.256234    0.880403
  H     -2.664885    1.259270   -0.877708
  H     -3.363890   -0.107539   -0.001053
  H     -2.059206   -2.027475   -0.000432
  H      0.126435   -3.161651   -0.000140
  H      2.201209   -1.836641    0.000391
  H     -0.637290    2.563636   -0.880572
  H     -0.635984    2.563728    0.880996
  H      0.896989    2.608657   -0.000957
  H      3.096231    0.229907   -0.000160

 Total Charge           Charge          ....    0
 Multiplicity           Mult            ....    1
 Number of Electrons    NEL             ....   66
 Basis Dimension        Dim             ....  226

ORBITAL ENERGIES
----------------

  NO   OCC          E(Eh)            E(eV)
   0   2.0000     -18.982407      -516.5376
   1   2.0000     -10.090112      -274.5659
   2   2.0000     -10.037568      -273.1361
   3   2.0000     -10.033226      -273.0180
   4   2.0000     -10.029032      -272.9038
   5   2.0000     -10.027595      -272.8647
   6   2.0000     -10.025043      -272.7953
   7   2.0000     -10.019913      -272.6557
   8   2.0000     -10.019150      -272.6349
   9   2.0000      -1.025348       -27.9011
  10   2.0000      -0.823883       -22.4190
  11   2.0000      -0.746685       -20.3183
  12   2.0000      -0.723406       -19.6849
  13   2.0000      -0.662395       -18.0247
  14   2.0000      -0.641015       -17.4429
  15   2.0000      -0.579662       -15.7734
  16   2.0000      -0.548770       -14.9328
  17   2.0000      -0.493123       -13.4186
  18   2.0000      -0.456838       -12.4312
  19   2.0000      -0.447818       -12.1858
  20   2.0000      -0.408887       -11.1264
  21   2.0000      -0.394669       -10.7395
  22   2.0000      -0.373668       -10.1680
  23   2.0000      -0.371957       -10.1215
  24   2.0000      -0.365698        -9.9512
  25   2.0000      -0.358724        -9.7614
  26   2.0000      -0.356665        -9.7054
  27   2.0000      -0.340434        -9.2637
  28   2.0000      -0.311575        -8.4784
  29   2.0000      -0.300539        -8.1781
  30   2.0000      -0.297190        -8.0870
  31   2.0000      -0.218261        -5.9392
  32   2.0000      -0.198533        -5.4024
  33   0.0000      -0.024504        -0.6668
  34   0.0000      -0.008054        -0.2192
  35   0.0000       0.056195         1.5292
  36   0.0000       0.084299         2.2939
  37   0.0000       0.095981         2.6118

MULLIKEN ATOMIC CHARGES
-----------------------
   0 C :   -0.550957
   1 C :    0.239226
   2 C :   -0.289105
   3 C :   -0.128135
   4 C :   -0.355324
   5 C :    0.412425
   6 C :   -0.012884
   7 C :   -0.603857
   8 O :   -0.416178
   9 H :    0.162202
  10 H :    0.161961
  11 H :    0.150713
  12 H :    0.145266
  13 H :    0.144617
  14 H :    0.133342
  15 H :    0.157408
  16 H :    0.157418
  17 H :    0.184014
  18 H :    0.307847
Sum of atomic charges:   -0.0000000

LOEWDIN ATOMIC CHARGES
----------------------
   0 C :   -0.385510
   1 C :   -0.084542
   2 C :   -0.188742
   3 C :   -0.157614
   4 C :   -0.177912
   5 C :    0.189998
   6 C :   -0.077464
   7 C :   -0.375003
   8 O :   -0.522346
   9 H :    0.164156
  10 H :    0.164120
  11 H :    0.159600
  12 H :    0.166246
  13 H :    0.167007
  14 H :    0.166502
  15 H :    0.163467
  16 H :    0.163498
  17 H :    0.180577
  18 H :    0.283963

  Mayer bond orders larger than 0.100000
B(  0-C ,  1-C ) :   0.7857 B(  0-C ,  9-H ) :   0.9799 B(  0-C , 10-H ) :   0.9798
B(  0-C , 11-H ) :   0.9893 B(  1-C ,  2-C ) :   1.3742 B(  1-C ,  6-C ) :   1.4373
B(  2-C ,  3-C ) :   1.4547 B(  2-C , 12-H ) :   0.9234 B(  3-C ,  4-C ) :   1.4014
B(  3-C , 13-H ) :   0.9400 B(  4-C ,  5-C ) :   1.2741 B(  4-C , 14-H ) :   0.9506
B(  5-C ,  6-C ) :   1.5085 B(  5-C ,  8-O ) :   0.9518 B(  6-C ,  7-C ) :   0.7655
B(  7-C , 15-H ) :   0.9821 B(  7-C , 16-H ) :   0.9819 B(  7-C , 17-H ) :   0.9879
B(  8-O , 18-H ) :   0.8856

Dispersion correction           -0.006334779
FINAL SINGLE POINT ENERGY      -386.004655303638

DIPOLE MOMENT
-------------

Method             : SCF
Type of density    : Electron Density
Multiplicity       :   1
Irrep              :   0
Energy             :  -386.0058177766064773 Eh
Relativity type    :
Basis              : AO
                                X                 Y                 Z
Electronic contribution:      5.489240088      -3.311747244      -0.000647570
Nuclear contribution   :     -5.318719406       3.153025596       0.000721290
                        -----------------------------------------
Total Dipole Moment    :      0.170520682      -0.158721648       0.000073720
                        -----------------------------------------
Magnitude (a.u.)       :      0.232958945
Magnitude (Debye)      :      0.592134579

Rotational constants in cm-1:             0.075914             0.059496             0.033772
Rotational constants in MHz :          2275.839391          1783.637383          1012.457250

                             ****ORCA TERMINATED NORMALLY****
TOTAL RUN TIME: 0 days 0 hours 0 minutes 23 seconds 116 msec
