                         Program Version 6.0.0  -   RELEASE  -
|  1> ! r2scan-3c def2/J RI DEFGRID2 scfconv6 printgap
|  2> %output
|  3>     printlevel normal
|  4> end
|  5> %cpcm
|  6>     smd true
|  7>     smdsolvent "water"
|  8> end
|  9> * xyz 0 1
| 10> C -2.5604943254 0.6238286285 0.0002853063
| 11> C -1.2263098195 -0.0573039535 -0.0001346328
| 12> C -1.1500408418 -1.4445895055 -0.0002288098
| 13> C 0.0749551954 -2.0833037468 -5.82329e-05
| 14> C 1.2408577575 -1.3406090289 0.0001981186
| 15> C 1.1788746097 0.0467902442 7.56798e-05
| 16> C -0.0563723255 0.7022499222 -0.000118235
| 17> C -0.109211651 2.2005513621 -0.0001654839
| 18> O 2.3171192738 0.8043385986 6.145e-05
| 19> H -2.6654700211 1.2562341352 0.8804025244
| 20> H -2.664884804 1.2592696329 -0.8777080208
| 21> H -3.3638898077 -0.1075393948 -0.0010532805
| 22> H -2.0592057809 -2.0274752211 -0.0004323255
| 23> H 0.1264354992 -3.1616514107 -0.000139535
| 24> H 2.2012086796 -1.8366413235 0.0003908345
| 25> H -0.6372895252 2.5636364443 -0.8805717017
| 26> H -0.6359840616 2.5637280577 0.8809961068
| 27> H 0.8969893582 2.6086565107 -0.0009568016
| 28> H 3.0962306102 0.229906594 -0.0001599434
| 29> *
| 30>
| 31>                          ****END OF INPUT****

CARTESIAN COORDINATES (ANGSTROEM)
---------------------------------
  C     -2.560494    0.623829    0.000285
  C     -1.226310   -0.057304   -0.000135
  C     -1.150041   -1.444590   -0.000229
  C      0.074955   -2.083304   -0.000058
  C      1.240858   -1.340609    0.000198
  C      1.178875    0.046790    0.000076
  C     -0.056372    0.702250   -0.000118
  C     -0.109212    2.200551   -0.000165
  O      2.317119    0.804339    0.000061
  H     -2.665470    1.256234    0.880403
  H     -2.664885    1.259270   -0.877708
  H     -3.363890   -0.107539   -0.001053
  H     -2.059206   -2.027475   -0.000432
  H      0.126435   -3.161651   -0.000140
  H      2.201209   -1.836641    0.000391
  H     -0.637290    2.563636   -0.880572
  H     -0.635984    2.563728    0.880996
  H      0.896989    2.608657   -0.000957
  H      3.096231    0.229907   -0.000160

 Total Charge           Charge          ....    0
 Multiplicity           Mult            ....    1
 Number of Electrons    NEL             ....   66
 Basis Dimension        Dim             ....  226

ORBITAL ENERGIES
----------------

  NO   OCC          E(Eh)            E(eV)
   0   2.0000     -18.979552      -516.4599
   1   2.0000     -10.091009      -274.5903
   2   2.0000     -10.038343      -273.1572
   3   2.0000     -10.034681      -273.0576
   4   2.0000     -10.028536      -272.8903
   5   2.0000     -10.025168      -272.7987
   6   2.0000     -10.019307      -272.6392
   7   2.0000     -10.016896      -272.5736
   8   2.0000     -10.016538      -272.5639
   9   2.0000      -1.022587       -27.8260
  10   2.0000      -0.825271       -22.4568
  11   2.0000      -0.745741       -20.2926
  12   2.0000      -0.722416       -19.6579
  13   2.0000      -0.659867       -17.9559
  14   2.0000      -0.638474       -17.3738
  15   2.0000      -0.576316       -15.6823
  16   2.0000      -0.547167       -14.8892
  17   2.0000      -0.489318       -13.3150
  18   2.0000      -0.456019       -12.4089
  19   2.0000      -0.444521       -12.0960
  20   2.0000      -0.407282       -11.0827
  21   2.0000      -0.390415       -10.6237
  22   2.0000      -0.370239       -10.0747
  23   2.0000      -0.368618       -10.0306
  24   2.0000      -0.363456        -9.8901
  25   2.0000      -0.356759        -9.7079
  26   2.0000      -0.354049        -9.6342
  27   2.0000      -0.336144        -9.1469
  28   2.0000      -0.309352        -8.4179
  29   2.0000      -0.303650        -8.2627
  30   2.0000      -0.295047        -8.0286
  31   2.0000      -0.220483        -5.9996
  32   2.0000      -0.202021        -5.4973
  33   0.0000      -0.026357        -0.7172
  34   0.0000      -0.011348        -0.3088
  35   0.0000       0.074316         2.0222
  36   0.0000       0.093443         2.5427
  37   0.0000       0.106934         2.9098

MULLIKEN ATOMIC CHARGES
-----------------------
   0 C :   -0.581921
   1 C :    0.190043
   2 C :   -0.321219
   3 C :   -0.162317
   4 C :   -0.351585
   5 C :    0.341687
   6 C :   -0.001914
   7 C :   -0.631302
   8 O :   -0.456042
   9 H :    0.181702
  10 H :    0.181497
  11 H :    0.169969
  12 H :    0.175176
  13 H :    0.176205
  14 H :    0.179668
  15 H :    0.180372
  16 H :    0.180355
  17 H :    0.183462
  18 H :    0.366163
Sum of atomic charges:   -0.0000000

LOEWDIN ATOMIC CHARGES
----------------------
   0 C :   -0.391386
   1 C :   -0.092591
   2 C :   -0.205545
   3 C :   -0.174377
   4 C :   -0.179720
   5 C :    0.177389
   6 C :   -0.086648
   7 C :   -0.381438
   8 O :   -0.536711
   9 H :    0.171047
  10 H :    0.171018
  11 H :    0.165297
  12 H :    0.176168
  13 H :    0.177191
  14 H :    0.184083
  15 H :    0.171745
  16 H :    0.171762
  17 H :    0.177914
  18 H :    0.304802

  Mayer bond orders larger than 0.100000
B(  0-C ,  1-C ) :   0.8053 B(  0-C ,  9-H ) :   0.9726 B(  0-C , 10-H ) :   0.9726
B(  0-C , 11-H ) :   0.9824 B(  1-C ,  2-C ) :   1.3501 B(  1-C ,  6-C ) :   1.3946
B(  2-C ,  3-C ) :   1.3979 B(  2-C , 12-H ) :   0.9458 B(  3-C ,  4-C ) :   1.3462
B(  3-C , 13-H ) :   0.9585 B(  4-C ,  5-C ) :   1.2802 B(  4-C , 14-H ) :   0.9658
B(  5-C ,  6-C ) :   1.4593 B(  5-C ,  8-O ) :   0.9690 B(  6-C ,  7-C ) :   0.7635
B(  7-C , 15-H ) :   0.9727 B(  7-C , 16-H ) :   0.9725 B(  7-C , 17-H ) :   0.9923
B(  8-O , 18-H ) :   0.8549

Dispersion correction           -0.006334779
FINAL SINGLE POINT ENERGY      -386.012545542917

DIPOLE MOMENT
-------------

Method             : SCF
Type of density    : Electron Density
Multiplicity       :   1
Irrep              :   0
Energy             :  -386.0137080158852996 Eh
Relativity type    :
Basis              : AO
                                X                 Y                 Z
Electronic contribution:      5.543985645      -3.378663995      -0.000624992
Nuclear contribution   :     -5.318719406       3.153025596       0.000721290
                        -----------------------------------------
Total Dipole Moment    :      0.225266239      -0.225638398       0.000096298
                        -----------------------------------------
Magnitude (a.u.)       :      0.318837850
Magnitude (Debye)      :      0.810421410

Rotational constants in cm-1:             0.075914             0.059496             0.033772
Rotational constants in MHz :          2275.839391          1783.637383          1012.457250

                             ****ORCA TERMINATED NORMALLY****
TOTAL RUN TIME: 0 days 0 hours 0 minutes 27 seconds 172 msec
