                         Program Version 6.0.0  -   RELEASE  -
|  1> ! pbe def2-sv(p) def2/J RI DEFGRID1 loosescf d4 GCP(DFT/SV(P)) printgap
|  2> %output
|  3>     printlevel normal
|  4> end
|  5> * xyz 0 1
|  6> C 2.6347454084 -0.4754680822 -2.9625612727
|  7> C 3.2058412386 0.4324054806 -1.8913380266
|  8> O 2.19057827 0.7717860687 -0.9096477478
|  9> P 2.0364361007 0.0971903583 0.4989615399
| 10> S 0.7060323825 1.0158230102 1.602582953
| 11> O 3.5151218702 0.156187874 1.0740564918
| 12> C 3.8197185734 -0.278189226 2.4160370403
| 13> C 5.155817458 0.3200834792 2.8062280674
| 14> S 1.7990301606 -2.0033124708 0.220488238
| 15> C 0.1517528196 -2.0568073601 -0.5266550146
| 16> S -1.1955080517 -1.6816107178 0.6509585931
| 17> P -2.0962214949 -0.1032214867 -0.4168115975
| 18> S -1.0044557331 0.9156996965 -1.6937906189
| 19> O -2.8947256697 0.733070203 0.6659750908
| 20> C -2.4730156005 1.9718162074 1.2608698289
| 21> C -3.7063442158 2.8119122419 1.524003539
| 22> O -3.2495908579 -0.9553170135 -1.0927776859
| 23> C -3.9936185223 -0.4939166548 -2.2389895909
| 24> C -4.8471902089 0.714824976 -1.918318335
| 25> H 2.4510411674 -1.4723387873 -2.5693527854
| 26> H 1.7009671498 -0.0595830733 -3.3352232137
| 27> H 3.3439921577 -0.5449753775 -3.781087489
| 28> H 3.4972912337 1.3977067554 -2.3077734658
| 29> H 4.0550530374 -0.0254267557 -1.3820373617
| 30> H 3.0184110708 0.0594347064 3.0815823811
| 31> H 3.8521954996 -1.3707266935 2.4182156642
| 32> H 5.1002484612 1.4048164715 2.7802759873
| 33> H 5.408855821 -0.0020739388 3.8108610051
| 34> H 5.9270142744 -0.0102618858 2.1167020395
| 35> H 0.0226052051 -3.0766988612 -0.8782516368
| 36> H 0.1012332861 -1.3378456004 -1.3481941318
| 37> H -1.9399336246 1.7389982558 2.1863031382
| 38> H -1.7769744534 2.4750716491 0.5810410907
| 39> H -4.2013212552 3.0629943198 0.5898258159
| 40> H -4.3977112708 2.2608407743 2.1546661258
| 41> H -3.4078984787 3.7250020697 2.0282992663
| 42> H -3.2826750047 -0.2617044574 -3.0382872121
| 43> H -4.5998478219 -1.3570649894 -2.5163832767
| 44> H -4.2078568621 1.5702503121 -1.7028817544
| 45> H -5.474204815 0.950448007 -2.772564397
| 46> H -5.4722556819 0.5142418528 -1.052031974
| 47> *
| 48>
| 49>                          ****END OF INPUT****

CARTESIAN COORDINATES (ANGSTROEM)
---------------------------------
  C      2.634745   -0.475468   -2.962561
  C      3.205841    0.432405   -1.891338
  O      2.190578    0.771786   -0.909648
  P      2.036436    0.097190    0.498962
  S      0.706032    1.015823    1.602583
  O      3.515122    0.156188    1.074056
  C      3.819719   -0.278189    2.416037
  C      5.155817    0.320083    2.806228
  S      1.799030   -2.003312    0.220488
  C      0.151753   -2.056807   -0.526655
  S     -1.195508   -1.681611    0.650959
  P     -2.096221   -0.103221   -0.416812
  S     -1.004456    0.915700   -1.693791
  O     -2.894726    0.733070    0.665975
  C     -2.473016    1.971816    1.260870
  C     -3.706344    2.811912    1.524004
  O     -3.249591   -0.955317   -1.092778
  C     -3.993619   -0.493917   -2.238990
  C     -4.847190    0.714825   -1.918318
  H      2.451041   -1.472339   -2.569353
  H      1.700967   -0.059583   -3.335223
  H      3.343992   -0.544975   -3.781087
  H      3.497291    1.397707   -2.307773
  H      4.055053   -0.025427   -1.382037
  H      3.018411    0.059435    3.081582
  H      3.852195   -1.370727    2.418216
  H      5.100248    1.404816    2.780276
  H      5.408856   -0.002074    3.810861
  H      5.927014   -0.010262    2.116702
  H      0.022605   -3.076699   -0.878252
  H      0.101233   -1.337846   -1.348194
  H     -1.939934    1.738998    2.186303
  H     -1.776974    2.475072    0.581041
  H     -4.201321    3.062994    0.589826
  H     -4.397711    2.260841    2.154666
  H     -3.407898    3.725002    2.028299
  H     -3.282675   -0.261704   -3.038287
  H     -4.599848   -1.357065   -2.516383
  H     -4.207857    1.570250   -1.702882
  H     -5.474205    0.950448   -2.772564
  H     -5.472256    0.514242   -1.052032

 Total Charge           Charge          ....    0
 Multiplicity           Mult            ....    1
 Number of Electrons    NEL             ....  202
 Basis Dimension        Dim             ....  334

ORBITAL ENERGIES
----------------

  NO   OCC          E(Eh)            E(eV)
   0   2.0000     -88.040668     -2395.7084
   1   2.0000     -88.031075     -2395.4473
   2   2.0000     -87.982648     -2394.1296
   3   2.0000     -87.975435     -2393.9333
   4   2.0000     -76.421649     -2079.5388
   5   2.0000     -76.419382     -2079.4771
   6   2.0000     -18.790877      -511.3258
   7   2.0000     -18.788198      -511.2529
   8   2.0000     -18.787343      -511.2296
   9   2.0000     -18.778584      -510.9913
  10   2.0000      -9.954405      -270.8731
  11   2.0000      -9.953480      -270.8480
  12   2.0000      -9.952746      -270.8280
  13   2.0000      -9.945789      -270.6387
  14   2.0000      -9.942655      -270.5534
  15   2.0000      -9.888372      -269.0763
  16   2.0000      -9.883629      -268.9472
  17   2.0000      -9.881272      -268.8831
  18   2.0000      -9.880770      -268.8694
  19   2.0000      -7.685750      -209.1399
  20   2.0000      -7.676634      -208.8918
  21   2.0000      -7.627450      -207.5535
  22   2.0000      -7.620491      -207.3641
  23   2.0000      -6.419110      -174.6729
  24   2.0000      -6.416988      -174.6151
  25   2.0000      -5.713318      -155.4673
  26   2.0000      -5.710315      -155.3856
  27   2.0000      -5.704616      -155.2305
  28   2.0000      -5.702995      -155.1864
  29   2.0000      -5.701487      -155.1453
  30   2.0000      -5.693043      -154.9156
  31   2.0000      -5.656168      -153.9122
  32   2.0000      -5.649513      -153.7311
  33   2.0000      -5.648458      -153.7024
  34   2.0000      -5.647402      -153.6736
  35   2.0000      -5.641137      -153.5032
  36   2.0000      -5.640476      -153.4852
  37   2.0000      -4.642135      -126.3189
  38   2.0000      -4.640978      -126.2874
  39   2.0000      -4.639369      -126.2437
  40   2.0000      -4.639063      -126.2353
  41   2.0000      -4.638692      -126.2252
  42   2.0000      -4.637674      -126.1975
  43   2.0000      -0.986224       -26.8365
  44   2.0000      -0.978680       -26.6312
  45   2.0000      -0.942878       -25.6570
  46   2.0000      -0.937302       -25.5053
  47   2.0000      -0.757052       -20.6004
  48   2.0000      -0.719326       -19.5738
  49   2.0000      -0.708911       -19.2904
  50   2.0000      -0.690629       -18.7930
  51   2.0000      -0.683066       -18.5872
  52   2.0000      -0.668577       -18.1929
  53   2.0000      -0.645959       -17.5775
  54   2.0000      -0.630302       -17.1514
  55   2.0000      -0.595830       -16.2134
  56   2.0000      -0.582203       -15.8426
  57   2.0000      -0.572320       -15.5736
  58   2.0000      -0.560931       -15.2637
  59   2.0000      -0.559978       -15.2378
  60   2.0000      -0.508128       -13.8269
  61   2.0000      -0.495258       -13.4767
  62   2.0000      -0.476523       -12.9669
  63   2.0000      -0.470343       -12.7987
  64   2.0000      -0.451153       -12.2765
  65   2.0000      -0.443532       -12.0691
  66   2.0000      -0.437261       -11.8985
  67   2.0000      -0.434085       -11.8120
  68   2.0000      -0.425628       -11.5819
  69   2.0000      -0.416717       -11.3395
  70   2.0000      -0.402472       -10.9518
  71   2.0000      -0.391792       -10.6612
  72   2.0000      -0.384997       -10.4763
  73   2.0000      -0.381604       -10.3840
  74   2.0000      -0.380046       -10.3416
  75   2.0000      -0.369705       -10.0602
  76   2.0000      -0.365017        -9.9326
  77   2.0000      -0.352872        -9.6021
  78   2.0000      -0.351226        -9.5573
  79   2.0000      -0.348761        -9.4903
  80   2.0000      -0.345183        -9.3929
  81   2.0000      -0.343166        -9.3380
  82   2.0000      -0.337252        -9.1771
  83   2.0000      -0.335379        -9.1261
  84   2.0000      -0.330925        -9.0049
  85   2.0000      -0.317089        -8.6284
  86   2.0000      -0.306839        -8.3495
  87   2.0000      -0.300210        -8.1691
  88   2.0000      -0.293806        -7.9949
  89   2.0000      -0.289264        -7.8713
  90   2.0000      -0.275019        -7.4837
  91   2.0000      -0.270963        -7.3733
  92   2.0000      -0.267379        -7.2758
  93   2.0000      -0.257526        -7.0076
  94   2.0000      -0.256595        -6.9823
  95   2.0000      -0.237493        -6.4625
  96   2.0000      -0.220668        -6.0047
  97   2.0000      -0.204356        -5.5608
  98   2.0000      -0.199948        -5.4409
  99   2.0000      -0.183808        -5.0017
 100   2.0000      -0.180108        -4.9010
 101   0.0000      -0.036749        -1.0000
 102   0.0000      -0.028216        -0.7678
 103   0.0000      -0.007136        -0.1942
 104   0.0000       0.007670         0.2087
 105   0.0000       0.027665         0.7528

MULLIKEN ATOMIC CHARGES
-----------------------
   0 C :   -0.306444
   1 C :   -0.008325
   2 O :   -0.346171
   3 P :    0.617760
   4 S :   -0.321283
   5 O :   -0.385389
   6 C :   -0.012706
   7 C :   -0.280992
   8 S :   -0.126760
   9 C :   -0.362804
  10 S :   -0.061158
  11 P :    0.620306
  12 S :   -0.325915
  13 O :   -0.377201
  14 C :   -0.028239
  15 C :   -0.278628
  16 O :   -0.369102
  17 C :    0.002246
  18 C :   -0.317366
  19 H :    0.120171
  20 H :    0.134928
  21 H :    0.109289
  22 H :    0.111459
  23 H :    0.105699
  24 H :    0.107079
  25 H :    0.105213
  26 H :    0.122559
  27 H :    0.112629
  28 H :    0.113882
  29 H :    0.183337
  30 H :    0.197940
  31 H :    0.119953
  32 H :    0.120621
  33 H :    0.116737
  34 H :    0.114295
  35 H :    0.111573
  36 H :    0.104027
  37 H :    0.102445
  38 H :    0.125938
  39 H :    0.109728
  40 H :    0.118667
Sum of atomic charges:    0.0000000

LOEWDIN ATOMIC CHARGES
----------------------
   0 C :   -0.365714
   1 C :   -0.108512
   2 O :   -0.225847
   3 P :    0.565391
   4 S :   -0.307011
   5 O :   -0.251435
   6 C :   -0.120042
   7 C :   -0.350562
   8 S :    0.056359
   9 C :   -0.479728
  10 S :    0.088255
  11 P :    0.572788
  12 S :   -0.309230
  13 O :   -0.239238
  14 C :   -0.120536
  15 C :   -0.351977
  16 O :   -0.249509
  17 C :   -0.117929
  18 C :   -0.366599
  19 H :    0.118343
  20 H :    0.131261
  21 H :    0.129408
  22 H :    0.123240
  23 H :    0.110266
  24 H :    0.110079
  25 H :    0.109280
  26 H :    0.130093
  27 H :    0.131287
  28 H :    0.125450
  29 H :    0.136911
  30 H :    0.120181
  31 H :    0.111733
  32 H :    0.110275
  33 H :    0.124551
  34 H :    0.125972
  35 H :    0.130964
  36 H :    0.107557
  37 H :    0.117640
  38 H :    0.120881
  39 H :    0.129174
  40 H :    0.126529

  Mayer bond orders larger than 0.100000
B(  0-C ,  1-C ) :   1.1695 B(  0-C , 19-H ) :   0.9329 B(  0-C , 20-H ) :   0.9373
B(  0-C , 21-H ) :   0.9382 B(  1-C ,  2-O ) :   0.8939 B(  1-C , 22-H ) :   0.9348
B(  1-C , 23-H ) :   0.9194 B(  2-O ,  3-P ) :   1.1494 B(  3-P ,  4-S ) :   1.6580
B(  3-P ,  5-O ) :   1.0816 B(  3-P ,  8-S ) :   0.9459 B(  4-S ,  8-S ) :   0.1155
B(  5-O ,  6-C ) :   0.9037 B(  6-C ,  7-C ) :   1.1613 B(  6-C , 24-H ) :   0.9071
B(  6-C , 25-H ) :   0.9296 B(  7-C , 26-H ) :   0.9505 B(  7-C , 27-H ) :   0.9416
B(  7-C , 28-H ) :   0.9514 B(  8-S ,  9-C ) :   0.9884 B(  9-C , 10-S ) :   1.0065
B(  9-C , 29-H ) :   0.9117 B(  9-C , 30-H ) :   0.8513 B( 10-S , 11-P ) :   0.9656
B( 10-S , 12-S ) :   0.1152 B( 11-P , 12-S ) :   1.5783 B( 11-P , 13-O ) :   1.1289
B( 11-P , 16-O ) :   1.1177 B( 13-O , 14-C ) :   0.8961 B( 14-C , 15-C ) :   1.1518
B( 14-C , 31-H ) :   0.9266 B( 14-C , 32-H ) :   0.9116 B( 15-C , 33-H ) :   0.9483
B( 15-C , 34-H ) :   0.9488 B( 15-C , 35-H ) :   0.9419 B( 16-O , 17-C ) :   0.9189
B( 17-C , 18-C ) :   1.1624 B( 17-C , 36-H ) :   0.9159 B( 17-C , 37-H ) :   0.9351
B( 18-C , 38-H ) :   0.9331 B( 18-C , 39-H ) :   0.9378 B( 18-C , 40-H ) :   0.9460

Dispersion correction           -0.065515206
FINAL SINGLE POINT ENERGY     -2929.513524654180

DIPOLE MOMENT
-------------

Method             : SCF
Type of density    : Electron Density
Multiplicity       :   1
Irrep              :   0
Energy             : -2929.6318647544617306 Eh
Relativity type    :
Basis              : AO
                                X                 Y                 Z
Electronic contribution:      0.709714051      -9.366567091       4.312201391
Nuclear contribution   :     -0.226258646       9.111609482      -4.730967065
                        -----------------------------------------
Total Dipole Moment    :      0.483455405      -0.254957609      -0.418765674
                        -----------------------------------------
Magnitude (a.u.)       :      0.688547166
Magnitude (Debye)      :      1.750147811

Rotational constants in cm-1:             0.012876             0.004966             0.004502
Rotational constants in MHz :           386.013078           148.874851           134.975197

                             ****ORCA TERMINATED NORMALLY****
TOTAL RUN TIME: 0 days 0 hours 0 minutes 20 seconds 701 msec
