                         Program Version 6.0.0  -   RELEASE  -
|  1> ! pbe def2-sv(p) def2/J RI DEFGRID1 loosescf d4 GCP(DFT/SV(P)) printgap
|  2> %output
|  3>     printlevel normal
|  4> end
|  5> * xyz 0 1
|  6> C 4.4416244761 0.40848642 -2.0381843007
|  7> C 4.5752388369 -0.0446017481 -0.5982600418
|  8> O 3.3384615994 -0.5596990952 -0.0829234303
|  9> P 2.0836016187 0.3890792024 0.2095962939
| 10> S 2.5551681945 2.1486239294 0.9306754867
| 11> O 1.218235942 -0.5472524265 1.1419512908
| 12> C 1.6223434204 -0.8182480131 2.5047789685
| 13> C 0.3966956646 -1.2812558125 3.2638783201
| 14> S 0.8989689237 0.3850193123 -1.5368919902
| 15> C 0.4192814459 -1.3615212166 -1.6262331037
| 16> S -0.8649641859 -1.8793884282 -0.4435374063
| 17> P -2.117800801 -0.1919681203 -0.5224662642
| 18> S -2.5497718394 0.5735751348 -2.2667453987
| 19> O -1.3503050775 0.7756397959 0.5090513814
| 20> C -1.4295076163 2.2050834715 0.4025340545
| 21> C -2.7700249856 2.7198519665 0.8842445819
| 22> O -3.4366516855 -0.6566665392 0.2221200575
| 23> C -3.4590936539 -1.1883268663 1.5712493622
| 24> C -3.5602666196 -2.7001509004 1.5523736457
| 25> H 3.7465183274 1.2460747138 -2.0994811554
| 26> H 5.4108475503 0.7291134579 -2.4062547253
| 27> H 4.0698032512 -0.4006802188 -2.6613913778
| 28> H 4.8937597599 0.7881183205 0.0369593658
| 29> H 5.2727164293 -0.8773163064 -0.498313155
| 30> H 2.3945471906 -1.5902328424 2.4775856473
| 31> H 2.0423216341 0.0985739004 2.9328233376
| 32> H 0.6791538438 -1.5292471191 4.2817394957
| 33> H -0.3482668209 -0.4900387621 3.2818700334
| 34> H -0.0272565966 -2.1568180864 2.7797349372
| 35> H 1.2824718757 -1.9954241838 -1.4365531853
| 36> H 0.0403238296 -1.4964215157 -2.6378373562
| 37> H -0.6029674099 2.5730586958 1.0153702725
| 38> H -1.2575288936 2.4887105572 -0.6418357503
| 39> H -2.9454912684 2.4174932884 1.913431812
| 40> H -2.7820724196 3.8032083813 0.8197841227
| 41> H -3.5623965637 2.3171364917 0.2533410651
| 42> H -2.5634396694 -0.8547761198 2.1003018074
| 43> H -4.3451874528 -0.7399907092 2.024273054
| 44> H -4.429118186 -3.0056776488 0.9762318976
| 45> H -2.6715204673 -3.1377722601 1.1027898583
| 46> H -3.660253172 -3.0601748247 2.5715144264
| 47> *
| 48>
| 49>                          ****END OF INPUT****

CARTESIAN COORDINATES (ANGSTROEM)
---------------------------------
  C      4.441624    0.408486   -2.038184
  C      4.575239   -0.044602   -0.598260
  O      3.338462   -0.559699   -0.082923
  P      2.083602    0.389079    0.209596
  S      2.555168    2.148624    0.930675
  O      1.218236   -0.547252    1.141951
  C      1.622343   -0.818248    2.504779
  C      0.396696   -1.281256    3.263878
  S      0.898969    0.385019   -1.536892
  C      0.419281   -1.361521   -1.626233
  S     -0.864964   -1.879388   -0.443537
  P     -2.117801   -0.191968   -0.522466
  S     -2.549772    0.573575   -2.266745
  O     -1.350305    0.775640    0.509051
  C     -1.429508    2.205083    0.402534
  C     -2.770025    2.719852    0.884245
  O     -3.436652   -0.656667    0.222120
  C     -3.459094   -1.188327    1.571249
  C     -3.560267   -2.700151    1.552374
  H      3.746518    1.246075   -2.099481
  H      5.410848    0.729113   -2.406255
  H      4.069803   -0.400680   -2.661391
  H      4.893760    0.788118    0.036959
  H      5.272716   -0.877316   -0.498313
  H      2.394547   -1.590233    2.477586
  H      2.042322    0.098574    2.932823
  H      0.679154   -1.529247    4.281739
  H     -0.348267   -0.490039    3.281870
  H     -0.027257   -2.156818    2.779735
  H      1.282472   -1.995424   -1.436553
  H      0.040324   -1.496422   -2.637837
  H     -0.602967    2.573059    1.015370
  H     -1.257529    2.488711   -0.641836
  H     -2.945491    2.417493    1.913432
  H     -2.782072    3.803208    0.819784
  H     -3.562397    2.317136    0.253341
  H     -2.563440   -0.854776    2.100302
  H     -4.345187   -0.739991    2.024273
  H     -4.429118   -3.005678    0.976232
  H     -2.671520   -3.137772    1.102790
  H     -3.660253   -3.060175    2.571514

 Total Charge           Charge          ....    0
 Multiplicity           Mult            ....    1
 Number of Electrons    NEL             ....  202
 Basis Dimension        Dim             ....  334

ORBITAL ENERGIES
----------------

  NO   OCC          E(Eh)            E(eV)
   0   2.0000     -88.047804     -2395.9026
   1   2.0000     -88.040279     -2395.6978
   2   2.0000     -87.991252     -2394.3637
   3   2.0000     -87.980487     -2394.0708
   4   2.0000     -76.427467     -2079.6971
   5   2.0000     -76.423227     -2079.5817
   6   2.0000     -18.794512      -511.4247
   7   2.0000     -18.793266      -511.3908
   8   2.0000     -18.790975      -511.3284
   9   2.0000     -18.782073      -511.0862
  10   2.0000      -9.963422      -271.1185
  11   2.0000      -9.959152      -271.0023
  12   2.0000      -9.956430      -270.9282
  13   2.0000      -9.953733      -270.8548
  14   2.0000      -9.937203      -270.4051
  15   2.0000      -9.890857      -269.1439
  16   2.0000      -9.890847      -269.1436
  17   2.0000      -9.886189      -269.0169
  18   2.0000      -9.876974      -268.7661
  19   2.0000      -7.692303      -209.3182
  20   2.0000      -7.685605      -209.1359
  21   2.0000      -7.636265      -207.7933
  22   2.0000      -7.625822      -207.5092
  23   2.0000      -6.425351      -174.8427
  24   2.0000      -6.420497      -174.7106
  25   2.0000      -5.720680      -155.6676
  26   2.0000      -5.716592      -155.5564
  27   2.0000      -5.713670      -155.4769
  28   2.0000      -5.710220      -155.3830
  29   2.0000      -5.709009      -155.3500
  30   2.0000      -5.702171      -155.1640
  31   2.0000      -5.665093      -154.1550
  32   2.0000      -5.657037      -153.9358
  33   2.0000      -5.656385      -153.9181
  34   2.0000      -5.654956      -153.8792
  35   2.0000      -5.646415      -153.6468
  36   2.0000      -5.645762      -153.6290
  37   2.0000      -4.647841      -126.4742
  38   2.0000      -4.647292      -126.4592
  39   2.0000      -4.645695      -126.4158
  40   2.0000      -4.643397      -126.3533
  41   2.0000      -4.642000      -126.3152
  42   2.0000      -4.641014      -126.2884
  43   2.0000      -0.989406       -26.9231
  44   2.0000      -0.980807       -26.6891
  45   2.0000      -0.946596       -25.7582
  46   2.0000      -0.938305       -25.5326
  47   2.0000      -0.766297       -20.8520
  48   2.0000      -0.723547       -19.6887
  49   2.0000      -0.711012       -19.3476
  50   2.0000      -0.689703       -18.7678
  51   2.0000      -0.687249       -18.7010
  52   2.0000      -0.674020       -18.3410
  53   2.0000      -0.654023       -17.7969
  54   2.0000      -0.638739       -17.3810
  55   2.0000      -0.597955       -16.2712
  56   2.0000      -0.584918       -15.9164
  57   2.0000      -0.577801       -15.7228
  58   2.0000      -0.574674       -15.6377
  59   2.0000      -0.562717       -15.3123
  60   2.0000      -0.508592       -13.8395
  61   2.0000      -0.497604       -13.5405
  62   2.0000      -0.475898       -12.9498
  63   2.0000      -0.472697       -12.8627
  64   2.0000      -0.457802       -12.4574
  65   2.0000      -0.447283       -12.1712
  66   2.0000      -0.445971       -12.1355
  67   2.0000      -0.432147       -11.7593
  68   2.0000      -0.427853       -11.6425
  69   2.0000      -0.416455       -11.3323
  70   2.0000      -0.410000       -11.1567
  71   2.0000      -0.398079       -10.8323
  72   2.0000      -0.396165       -10.7802
  73   2.0000      -0.388843       -10.5810
  74   2.0000      -0.376263       -10.2386
  75   2.0000      -0.374717       -10.1966
  76   2.0000      -0.367874       -10.0104
  77   2.0000      -0.359626        -9.7859
  78   2.0000      -0.357958        -9.7405
  79   2.0000      -0.356962        -9.7134
  80   2.0000      -0.353535        -9.6202
  81   2.0000      -0.344204        -9.3663
  82   2.0000      -0.341377        -9.2893
  83   2.0000      -0.338409        -9.2086
  84   2.0000      -0.329734        -8.9725
  85   2.0000      -0.320925        -8.7328
  86   2.0000      -0.311191        -8.4679
  87   2.0000      -0.306587        -8.3427
  88   2.0000      -0.298513        -8.1230
  89   2.0000      -0.296087        -8.0569
  90   2.0000      -0.276575        -7.5260
  91   2.0000      -0.273313        -7.4372
  92   2.0000      -0.270690        -7.3659
  93   2.0000      -0.266287        -7.2460
  94   2.0000      -0.258287        -7.0283
  95   2.0000      -0.228673        -6.2225
  96   2.0000      -0.219691        -5.9781
  97   2.0000      -0.213122        -5.7993
  98   2.0000      -0.206220        -5.6115
  99   2.0000      -0.195933        -5.3316
 100   2.0000      -0.194280        -5.2866
 101   0.0000      -0.045481        -1.2376
 102   0.0000      -0.027022        -0.7353
 103   0.0000      -0.009737        -0.2649
 104   0.0000      -0.002895        -0.0788
 105   0.0000       0.010634         0.2894

MULLIKEN ATOMIC CHARGES
-----------------------
   0 C :   -0.310253
   1 C :   -0.007393
   2 O :   -0.387401
   3 P :    0.620654
   4 S :   -0.324296
   5 O :   -0.365713
   6 C :   -0.007469
   7 C :   -0.298373
   8 S :   -0.061733
   9 C :   -0.316262
  10 S :   -0.109007
  11 P :    0.613858
  12 S :   -0.312616
  13 O :   -0.382686
  14 C :   -0.019977
  15 C :   -0.303692
  16 O :   -0.365446
  17 C :   -0.045299
  18 C :   -0.296525
  19 H :    0.127020
  20 H :    0.113929
  21 H :    0.112437
  22 H :    0.111357
  23 H :    0.103036
  24 H :    0.102225
  25 H :    0.103908
  26 H :    0.109126
  27 H :    0.137425
  28 H :    0.120734
  29 H :    0.178979
  30 H :    0.194256
  31 H :    0.107922
  32 H :    0.114367
  33 H :    0.104235
  34 H :    0.111954
  35 H :    0.124329
  36 H :    0.122900
  37 H :    0.111641
  38 H :    0.124600
  39 H :    0.132681
  40 H :    0.110565
Sum of atomic charges:   -0.0000000

LOEWDIN ATOMIC CHARGES
----------------------
   0 C :   -0.366762
   1 C :   -0.122844
   2 O :   -0.255553
   3 P :    0.567640
   4 S :   -0.320470
   5 O :   -0.239236
   6 C :   -0.113080
   7 C :   -0.354268
   8 S :    0.123882
   9 C :   -0.467060
  10 S :    0.084082
  11 P :    0.565117
  12 S :   -0.316432
  13 O :   -0.252814
  14 C :   -0.131354
  15 C :   -0.364512
  16 O :   -0.242953
  17 C :   -0.119171
  18 C :   -0.360467
  19 H :    0.121323
  20 H :    0.131292
  21 H :    0.122987
  22 H :    0.109620
  23 H :    0.117205
  24 H :    0.112471
  25 H :    0.108806
  26 H :    0.129433
  27 H :    0.127584
  28 H :    0.124418
  29 H :    0.133638
  30 H :    0.140570
  31 H :    0.112570
  32 H :    0.107854
  33 H :    0.119123
  34 H :    0.130725
  35 H :    0.123135
  36 H :    0.111332
  37 H :    0.121835
  38 H :    0.131484
  39 H :    0.118395
  40 H :    0.130452

  Mayer bond orders larger than 0.100000
B(  0-C ,  1-C ) :   1.1629 B(  0-C , 19-H ) :   0.9360 B(  0-C , 20-H ) :   0.9387
B(  0-C , 21-H ) :   0.9465 B(  1-C ,  2-O ) :   0.9163 B(  1-C , 22-H ) :   0.9135
B(  1-C , 23-H ) :   0.9336 B(  2-O ,  3-P ) :   1.0605 B(  3-P ,  4-S ) :   1.6364
B(  3-P ,  5-O ) :   1.1234 B(  3-P ,  8-S ) :   0.9663 B(  5-O ,  6-C ) :   0.8992
B(  6-C ,  7-C ) :   1.1634 B(  6-C , 24-H ) :   0.9315 B(  6-C , 25-H ) :   0.9109
B(  7-C , 26-H ) :   0.9375 B(  7-C , 27-H ) :   0.9371 B(  7-C , 28-H ) :   0.9466
B(  8-S ,  9-C ) :   0.9996 B(  9-C , 10-S ) :   0.9856 B(  9-C , 29-H ) :   0.9038
B(  9-C , 30-H ) :   0.9017 B( 10-S , 11-P ) :   0.9756 B( 10-S , 12-S ) :   0.1049
B( 11-P , 12-S ) :   1.6352 B( 11-P , 13-O ) :   1.0631 B( 11-P , 16-O ) :   1.1207
B( 13-O , 14-C ) :   0.8996 B( 14-C , 15-C ) :   1.1604 B( 14-C , 31-H ) :   0.9214
B( 14-C , 32-H ) :   0.9114 B( 15-C , 33-H ) :   0.9480 B( 15-C , 34-H ) :   0.9412
B( 15-C , 35-H ) :   0.9364 B( 16-O , 17-C ) :   0.8997 B( 17-C , 18-C ) :   1.1674
B( 17-C , 36-H ) :   0.9084 B( 17-C , 37-H ) :   0.9326 B( 18-C , 38-H ) :   0.9451
B( 18-C , 39-H ) :   0.9341 B( 18-C , 40-H ) :   0.9386

Dispersion correction           -0.067774739
FINAL SINGLE POINT ENERGY     -2929.517301072635

DIPOLE MOMENT
-------------

Method             : SCF
Type of density    : Electron Density
Multiplicity       :   1
Irrep              :   0
Energy             : -2929.6356215237251490 Eh
Relativity type    :
Basis              : AO
                                X                 Y                 Z
Electronic contribution:      0.119926580       3.590415975     -14.335569467
Nuclear contribution   :      0.623588865      -4.798082977      15.587395630
                        -----------------------------------------
Total Dipole Moment    :      0.743515445      -1.207667002       1.251826163
                        -----------------------------------------
Magnitude (a.u.)       :      1.891651011
Magnitude (Debye)      :      4.808194757

Rotational constants in cm-1:             0.011748             0.005651             0.005323
Rotational constants in MHz :           352.210268           169.405598           159.586496

                             ****ORCA TERMINATED NORMALLY****
TOTAL RUN TIME: 0 days 0 hours 0 minutes 22 seconds 67 msec
