                         Program Version 6.0.0  -   RELEASE  -
|  1> ! pbe def2-sv(p) def2/J RI DEFGRID1 loosescf d4 GCP(DFT/SV(P)) printgap
|  2> %output
|  3>     printlevel normal
|  4> end
|  5> * xyz 0 1
|  6> C 4.062777187 1.6129010852 -1.9728410751
|  7> C 4.4366653377 0.8635653849 -0.709547889
|  8> O 3.4234620746 -0.0753609243 -0.3239447359
|  9> P 1.9837395671 0.3906681367 0.2077794519
| 10> S 2.0841520802 1.9583309192 1.3797635402
| 11> O 1.487881762 -0.9701855113 0.8476016909
| 12> C 1.9345264539 -1.3906625536 2.1539071601
| 13> C 0.9007683954 -2.3445033323 2.7164687966
| 14> S 0.7561224398 0.5086293307 -1.5031115677
| 15> C 0.3778664718 -1.2298236936 -1.7983620933
| 16> S -0.8217105844 -2.0062808748 -0.6383605173
| 17> P -1.9924546541 -0.4101696272 0.0551748173
| 18> S -3.5916720204 -0.9734745838 1.0350255374
| 19> O -2.2718071384 0.5587056745 -1.1795417235
| 20> C -3.4233148007 0.4039318219 -2.0262843312
| 21> C -3.2104455539 -0.6728634289 -3.0717241105
| 22> O -0.9437061042 0.4308618838 0.913609355
| 23> C -1.3958846821 1.3416649473 1.9365516405
| 24> C -2.0169532262 2.5886889954 1.3458178573
| 25> H 3.180246696 2.2266046198 -1.7906028823
| 26> H 4.8854419838 2.2574120016 -2.2652442136
| 27> H 3.8444802268 0.916818239 -2.7783139004
| 28> H 4.5927286015 1.5622524696 0.118988435
| 29> H 5.3279574634 0.2506528808 -0.8504580789
| 30> H 2.9056244459 -1.8772920432 2.0350861054
| 31> H 2.0514373363 -0.5042376156 2.7874613029
| 32> H 1.2202503316 -2.6809683047 3.697278319
| 33> H -0.0624375175 -1.8462843607 2.8064741874
| 34> H 0.7846347183 -3.2009623024 2.0578228996
| 35> H 1.2815819053 -1.8295286388 -1.722161654
| 36> H -0.0392584493 -1.2712003584 -2.8016253499
| 37> H -4.2889475537 0.1697621932 -1.3971057344
| 38> H -3.5512354518 1.3862470295 -2.4831683883
| 39> H -3.0761514365 -1.6411656284 -2.591512198
| 40> H -4.0826382846 -0.7193592644 -3.7160202605
| 41> H -2.3348492471 -0.4432334918 -3.6729931879
| 42> H -2.1101125222 0.8134913919 2.5769192053
| 43> H -0.4914578909 1.5772568175 2.5009682765
| 44> H -1.3249573181 3.0527514959 0.6468286042
| 45> H -2.9379893716 2.3359946546 0.8231635853
| 46> H -2.2411418518 3.2869792048 2.1459961866
| 47> *
| 48>
| 49>                          ****END OF INPUT****

CARTESIAN COORDINATES (ANGSTROEM)
---------------------------------
  C      4.062777    1.612901   -1.972841
  C      4.436665    0.863565   -0.709548
  O      3.423462   -0.075361   -0.323945
  P      1.983740    0.390668    0.207779
  S      2.084152    1.958331    1.379764
  O      1.487882   -0.970186    0.847602
  C      1.934526   -1.390663    2.153907
  C      0.900768   -2.344503    2.716469
  S      0.756122    0.508629   -1.503112
  C      0.377866   -1.229824   -1.798362
  S     -0.821711   -2.006281   -0.638361
  P     -1.992455   -0.410170    0.055175
  S     -3.591672   -0.973475    1.035026
  O     -2.271807    0.558706   -1.179542
  C     -3.423315    0.403932   -2.026284
  C     -3.210446   -0.672863   -3.071724
  O     -0.943706    0.430862    0.913609
  C     -1.395885    1.341665    1.936552
  C     -2.016953    2.588689    1.345818
  H      3.180247    2.226605   -1.790603
  H      4.885442    2.257412   -2.265244
  H      3.844480    0.916818   -2.778314
  H      4.592729    1.562252    0.118988
  H      5.327957    0.250653   -0.850458
  H      2.905624   -1.877292    2.035086
  H      2.051437   -0.504238    2.787461
  H      1.220250   -2.680968    3.697278
  H     -0.062438   -1.846284    2.806474
  H      0.784635   -3.200962    2.057823
  H      1.281582   -1.829529   -1.722162
  H     -0.039258   -1.271200   -2.801625
  H     -4.288948    0.169762   -1.397106
  H     -3.551235    1.386247   -2.483168
  H     -3.076151   -1.641166   -2.591512
  H     -4.082638   -0.719359   -3.716020
  H     -2.334849   -0.443233   -3.672993
  H     -2.110113    0.813491    2.576919
  H     -0.491458    1.577257    2.500968
  H     -1.324957    3.052751    0.646829
  H     -2.937989    2.335995    0.823164
  H     -2.241142    3.286979    2.145996

 Total Charge           Charge          ....    0
 Multiplicity           Mult            ....    1
 Number of Electrons    NEL             ....  202
 Basis Dimension        Dim             ....  334

ORBITAL ENERGIES
----------------

  NO   OCC          E(Eh)            E(eV)
   0   2.0000     -88.048450     -2395.9201
   1   2.0000     -88.041345     -2395.7268
   2   2.0000     -87.992165     -2394.3885
   3   2.0000     -87.983736     -2394.1592
   4   2.0000     -76.428972     -2079.7381
   5   2.0000     -76.424336     -2079.6119
   6   2.0000     -18.791412      -511.3403
   7   2.0000     -18.790375      -511.3121
   8   2.0000     -18.790180      -511.3068
   9   2.0000     -18.782632      -511.1014
  10   2.0000      -9.966619      -271.2055
  11   2.0000      -9.951847      -270.8035
  12   2.0000      -9.951604      -270.7969
  13   2.0000      -9.951276      -270.7880
  14   2.0000      -9.936649      -270.3900
  15   2.0000      -9.888166      -269.0707
  16   2.0000      -9.885983      -269.0113
  17   2.0000      -9.881201      -268.8811
  18   2.0000      -9.872182      -268.6357
  19   2.0000      -7.693594      -209.3533
  20   2.0000      -7.686327      -209.1556
  21   2.0000      -7.637086      -207.8157
  22   2.0000      -7.628892      -207.5927
  23   2.0000      -6.426403      -174.8713
  24   2.0000      -6.421732      -174.7442
  25   2.0000      -5.722067      -155.7053
  26   2.0000      -5.717985      -155.5943
  27   2.0000      -5.714904      -155.5104
  28   2.0000      -5.710567      -155.3924
  29   2.0000      -5.709923      -155.3749
  30   2.0000      -5.702832      -155.1819
  31   2.0000      -5.665934      -154.1779
  32   2.0000      -5.658071      -153.9639
  33   2.0000      -5.657756      -153.9554
  34   2.0000      -5.656944      -153.9333
  35   2.0000      -5.649468      -153.7299
  36   2.0000      -5.649141      -153.7209
  37   2.0000      -4.648888      -126.5027
  38   2.0000      -4.648333      -126.4876
  39   2.0000      -4.646856      -126.4474
  40   2.0000      -4.644025      -126.3704
  41   2.0000      -4.643740      -126.3626
  42   2.0000      -4.642254      -126.3221
  43   2.0000      -0.987015       -26.8580
  44   2.0000      -0.981031       -26.6952
  45   2.0000      -0.943876       -25.6842
  46   2.0000      -0.940001       -25.5787
  47   2.0000      -0.766144       -20.8478
  48   2.0000      -0.721256       -19.6264
  49   2.0000      -0.706429       -19.2229
  50   2.0000      -0.686323       -18.6758
  51   2.0000      -0.684186       -18.6176
  52   2.0000      -0.673013       -18.3136
  53   2.0000      -0.655911       -17.8482
  54   2.0000      -0.638123       -17.3642
  55   2.0000      -0.599279       -16.3072
  56   2.0000      -0.592762       -16.1299
  57   2.0000      -0.574692       -15.6382
  58   2.0000      -0.566660       -15.4196
  59   2.0000      -0.560781       -15.2596
  60   2.0000      -0.505317       -13.7504
  61   2.0000      -0.490601       -13.3499
  62   2.0000      -0.473121       -12.8743
  63   2.0000      -0.470007       -12.7895
  64   2.0000      -0.458186       -12.4679
  65   2.0000      -0.444347       -12.0913
  66   2.0000      -0.441065       -12.0020
  67   2.0000      -0.431275       -11.7356
  68   2.0000      -0.427688       -11.6380
  69   2.0000      -0.418489       -11.3877
  70   2.0000      -0.412278       -11.2187
  71   2.0000      -0.397130       -10.8065
  72   2.0000      -0.395362       -10.7583
  73   2.0000      -0.387666       -10.5489
  74   2.0000      -0.383199       -10.4274
  75   2.0000      -0.373300       -10.1580
  76   2.0000      -0.367404        -9.9976
  77   2.0000      -0.355111        -9.6631
  78   2.0000      -0.351891        -9.5754
  79   2.0000      -0.351329        -9.5602
  80   2.0000      -0.345824        -9.4103
  81   2.0000      -0.343603        -9.3499
  82   2.0000      -0.336793        -9.1646
  83   2.0000      -0.334550        -9.1036
  84   2.0000      -0.326635        -8.8882
  85   2.0000      -0.320080        -8.7098
  86   2.0000      -0.312415        -8.5012
  87   2.0000      -0.300077        -8.1655
  88   2.0000      -0.295772        -8.0484
  89   2.0000      -0.292992        -7.9727
  90   2.0000      -0.280443        -7.6313
  91   2.0000      -0.272892        -7.4258
  92   2.0000      -0.264753        -7.2043
  93   2.0000      -0.262811        -7.1515
  94   2.0000      -0.259038        -7.0488
  95   2.0000      -0.226432        -6.1615
  96   2.0000      -0.215350        -5.8600
  97   2.0000      -0.212787        -5.7902
  98   2.0000      -0.206777        -5.6267
  99   2.0000      -0.202617        -5.5135
 100   2.0000      -0.198271        -5.3952
 101   0.0000      -0.047064        -1.2807
 102   0.0000      -0.033708        -0.9172
 103   0.0000      -0.020231        -0.5505
 104   0.0000      -0.001881        -0.0512
 105   0.0000       0.017314         0.4711

MULLIKEN ATOMIC CHARGES
-----------------------
   0 C :   -0.310172
   1 C :   -0.006181
   2 O :   -0.382819
   3 P :    0.643080
   4 S :   -0.324403
   5 O :   -0.374939
   6 C :   -0.008995
   7 C :   -0.283815
   8 S :   -0.079226
   9 C :   -0.324602
  10 S :   -0.084012
  11 P :    0.633146
  12 S :   -0.328659
  13 O :   -0.374463
  14 C :   -0.010011
  15 C :   -0.319263
  16 O :   -0.378393
  17 C :   -0.014811
  18 C :   -0.297850
  19 H :    0.121682
  20 H :    0.113069
  21 H :    0.113128
  22 H :    0.110261
  23 H :    0.102513
  24 H :    0.100864
  25 H :    0.104378
  26 H :    0.107859
  27 H :    0.129150
  28 H :    0.117577
  29 H :    0.183943
  30 H :    0.188845
  31 H :    0.112212
  32 H :    0.106515
  33 H :    0.129446
  34 H :    0.114412
  35 H :    0.113369
  36 H :    0.108371
  37 H :    0.110912
  38 H :    0.117336
  39 H :    0.113318
  40 H :    0.107229
Sum of atomic charges:   -0.0000000

LOEWDIN ATOMIC CHARGES
----------------------
   0 C :   -0.367341
   1 C :   -0.123609
   2 O :   -0.257797
   3 P :    0.581046
   4 S :   -0.305440
   5 O :   -0.239383
   6 C :   -0.113713
   7 C :   -0.352434
   8 S :    0.117688
   9 C :   -0.467693
  10 S :    0.092328
  11 P :    0.564898
  12 S :   -0.323047
  13 O :   -0.244229
  14 C :   -0.122492
  15 C :   -0.366402
  16 O :   -0.243730
  17 C :   -0.128701
  18 C :   -0.362516
  19 H :    0.118225
  20 H :    0.130621
  21 H :    0.122685
  22 H :    0.108326
  23 H :    0.117201
  24 H :    0.111793
  25 H :    0.107448
  26 H :    0.128492
  27 H :    0.129121
  28 H :    0.125311
  29 H :    0.136350
  30 H :    0.134726
  31 H :    0.109056
  32 H :    0.118843
  33 H :    0.122834
  34 H :    0.132258
  35 H :    0.120112
  36 H :    0.105499
  37 H :    0.109747
  38 H :    0.126586
  39 H :    0.118474
  40 H :    0.128859

  Mayer bond orders larger than 0.100000
B(  0-C ,  1-C ) :   1.1620 B(  0-C , 19-H ) :   0.9370 B(  0-C , 20-H ) :   0.9388
B(  0-C , 21-H ) :   0.9452 B(  1-C ,  2-O ) :   0.9230 B(  1-C , 22-H ) :   0.9136
B(  1-C , 23-H ) :   0.9335 B(  2-O ,  3-P ) :   1.0676 B(  3-P ,  4-S ) :   1.6275
B(  3-P ,  5-O ) :   1.1171 B(  3-P ,  8-S ) :   0.9606 B(  5-O ,  6-C ) :   0.8965
B(  6-C ,  7-C ) :   1.1626 B(  6-C , 24-H ) :   0.9323 B(  6-C , 25-H ) :   0.9098
B(  7-C , 26-H ) :   0.9397 B(  7-C , 27-H ) :   0.9461 B(  7-C , 28-H ) :   0.9477
B(  8-S ,  9-C ) :   1.0246 B(  9-C , 10-S ) :   0.9513 B(  9-C , 29-H ) :   0.9052
B(  9-C , 30-H ) :   0.9017 B( 10-S , 11-P ) :   1.0057 B( 11-P , 12-S ) :   1.6255
B( 11-P , 13-O ) :   1.0692 B( 11-P , 16-O ) :   1.0930 B( 13-O , 14-C ) :   0.9141
B( 14-C , 15-C ) :   1.1645 B( 14-C , 31-H ) :   0.9073 B( 14-C , 32-H ) :   0.9332
B( 15-C , 33-H ) :   0.9363 B( 15-C , 34-H ) :   0.9385 B( 15-C , 35-H ) :   0.9424
B( 16-O , 17-C ) :   0.8987 B( 17-C , 18-C ) :   1.1710 B( 17-C , 36-H ) :   0.9129
B( 17-C , 37-H ) :   0.9113 B( 18-C , 38-H ) :   0.9439 B( 18-C , 39-H ) :   0.9393
B( 18-C , 40-H ) :   0.9394

Dispersion correction           -0.069386068
FINAL SINGLE POINT ENERGY     -2929.514197289039

DIPOLE MOMENT
-------------

Method             : SCF
Type of density    : Electron Density
Multiplicity       :   1
Irrep              :   0
Energy             : -2929.6318874039716320 Eh
Relativity type    :
Basis              : AO
                                X                 Y                 Z
Electronic contribution:     -2.413747774      -3.755786519       2.810807572
Nuclear contribution   :      3.393194641       3.617123876      -3.871852200
                        -----------------------------------------
Total Dipole Moment    :      0.979446867      -0.138662643      -1.061044627
                        -----------------------------------------
Magnitude (a.u.)       :      1.450640960
Magnitude (Debye)      :      3.687236291

Rotational constants in cm-1:             0.011830             0.005921             0.005507
Rotational constants in MHz :           354.668382           177.520917           165.107929

                             ****ORCA TERMINATED NORMALLY****
TOTAL RUN TIME: 0 days 0 hours 0 minutes 22 seconds 312 msec
