                         Program Version 6.0.0  -   RELEASE  -
|  1> ! pbe def2-sv(p) def2/J RI DEFGRID1 loosescf d4 GCP(DFT/SV(P)) printgap
|  2> %output
|  3>     printlevel normal
|  4> end
|  5> * xyz 0 1
|  6> C 4.6340028957 -1.2512477404 -1.3737425287
|  7> C 4.350958822 -1.3032367848 0.113352774
|  8> O 3.5626801137 -0.1929446257 0.5784971488
|  9> P 2.1760513627 0.2949020992 -0.0306373484
| 10> S 2.2537574645 1.3079755385 -1.7138724379
| 11> O 1.6094472986 1.089590625 1.2215782024
| 12> C 1.7635989014 2.5118114298 1.3608768985
| 13> C 3.2074415256 2.8897205647 1.6118672251
| 14> S 1.0236494315 -1.4658739218 -0.0082076054
| 15> C -0.0500253663 -1.1979078855 -1.4668072081
| 16> S -1.7831774539 -1.550213337 -1.1297160056
| 17> P -2.3545674941 0.2229156431 -0.0899340489
| 18> S -1.1434289737 1.7393690578 -0.370415472
| 19> O -2.6182629923 -0.1686673474 1.4315156959
| 20> C -1.5828383254 -0.4748392278 2.3823925839
| 21> C -1.4483605681 -1.9745384926 2.5640364899
| 22> O -3.8087153682 0.5578006479 -0.580234998
| 23> C -5.0157392824 -0.1378036459 -0.1744110865
| 24> C -4.9980925508 -1.6019187918 -0.5554567623
| 25> H 5.2978035806 -2.0667356157 -1.6421843485
| 26> H 3.7073516207 -1.3459908436 -1.9381928062
| 27> H 5.0989195095 -0.3050485635 -1.6403957579
| 28> H 5.2705206932 -1.2240284905 0.6960819138
| 29> H 3.8248740636 -2.2255443631 0.3752607013
| 30> H 1.3789862476 2.9937084366 0.4551075575
| 31> H 1.1188909425 2.7669244558 2.2031265091
| 32> H 3.2771634555 3.9600445294 1.7778942396
| 33> H 3.5875176546 2.3578589022 2.4799662742
| 34> H 3.8099081821 2.6234289415 0.7438444738
| 35> H 0.2491440627 -1.8984035643 -2.2421188755
| 36> H 0.0702367458 -0.1630525257 -1.7981470923
| 37> H -0.6408863965 -0.0213184194 2.0562629197
| 38> H -1.9048603175 0.0070934952 3.3078580264
| 39> H -2.4039319218 -2.3985988163 2.8588258372
| 40> H -1.1174192991 -2.4478921094 1.6424607399
| 41> H -0.7136363814 -2.1706673025 3.3381074005
| 42> H -5.1327449934 -0.0124168865 0.9032608967
| 43> H -5.8008292787 0.4070283337 -0.7006556606
| 44> H -4.8145155563 -1.7158917759 -1.6206639118
| 45> H -4.2165049644 -2.1267793855 -0.0094115443
| 46> H -5.9587944517 -2.0431316503 -0.3085346524
| 47> *
| 48>
| 49>                          ****END OF INPUT****

CARTESIAN COORDINATES (ANGSTROEM)
---------------------------------
  C      4.634003   -1.251248   -1.373743
  C      4.350959   -1.303237    0.113353
  O      3.562680   -0.192945    0.578497
  P      2.176051    0.294902   -0.030637
  S      2.253757    1.307976   -1.713872
  O      1.609447    1.089591    1.221578
  C      1.763599    2.511811    1.360877
  C      3.207442    2.889721    1.611867
  S      1.023649   -1.465874   -0.008208
  C     -0.050025   -1.197908   -1.466807
  S     -1.783177   -1.550213   -1.129716
  P     -2.354567    0.222916   -0.089934
  S     -1.143429    1.739369   -0.370415
  O     -2.618263   -0.168667    1.431516
  C     -1.582838   -0.474839    2.382393
  C     -1.448361   -1.974538    2.564036
  O     -3.808715    0.557801   -0.580235
  C     -5.015739   -0.137804   -0.174411
  C     -4.998093   -1.601919   -0.555457
  H      5.297804   -2.066736   -1.642184
  H      3.707352   -1.345991   -1.938193
  H      5.098920   -0.305049   -1.640396
  H      5.270521   -1.224028    0.696082
  H      3.824874   -2.225544    0.375261
  H      1.378986    2.993708    0.455108
  H      1.118891    2.766924    2.203127
  H      3.277163    3.960045    1.777894
  H      3.587518    2.357859    2.479966
  H      3.809908    2.623429    0.743844
  H      0.249144   -1.898404   -2.242119
  H      0.070237   -0.163053   -1.798147
  H     -0.640886   -0.021318    2.056263
  H     -1.904860    0.007093    3.307858
  H     -2.403932   -2.398599    2.858826
  H     -1.117419   -2.447892    1.642461
  H     -0.713636   -2.170667    3.338107
  H     -5.132745   -0.012417    0.903261
  H     -5.800829    0.407028   -0.700656
  H     -4.814516   -1.715892   -1.620664
  H     -4.216505   -2.126779   -0.009412
  H     -5.958794   -2.043132   -0.308535

 Total Charge           Charge          ....    0
 Multiplicity           Mult            ....    1
 Number of Electrons    NEL             ....  202
 Basis Dimension        Dim             ....  334

ORBITAL ENERGIES
----------------

  NO   OCC          E(Eh)            E(eV)
   0   2.0000     -88.045724     -2395.8460
   1   2.0000     -88.045121     -2395.8295
   2   2.0000     -87.982630     -2394.1291
   3   2.0000     -87.978582     -2394.0189
   4   2.0000     -76.424573     -2079.6183
   5   2.0000     -76.424303     -2079.6110
   6   2.0000     -18.792420      -511.3677
   7   2.0000     -18.789827      -511.2972
   8   2.0000     -18.788662      -511.2655
   9   2.0000     -18.782240      -511.0907
  10   2.0000      -9.959025      -270.9989
  11   2.0000      -9.955273      -270.8968
  12   2.0000      -9.954534      -270.8767
  13   2.0000      -9.948233      -270.7052
  14   2.0000      -9.941593      -270.5245
  15   2.0000      -9.893615      -269.2189
  16   2.0000      -9.882213      -268.9087
  17   2.0000      -9.881083      -268.8779
  18   2.0000      -9.876126      -268.7430
  19   2.0000      -7.690430      -209.2672
  20   2.0000      -7.689914      -209.2532
  21   2.0000      -7.627502      -207.5549
  22   2.0000      -7.623453      -207.4447
  23   2.0000      -6.421722      -174.7439
  24   2.0000      -6.421589      -174.7403
  25   2.0000      -5.718463      -155.6073
  26   2.0000      -5.717673      -155.5858
  27   2.0000      -5.714633      -155.5031
  28   2.0000      -5.714355      -155.4955
  29   2.0000      -5.707631      -155.3125
  30   2.0000      -5.707069      -155.2972
  31   2.0000      -5.656506      -153.9214
  32   2.0000      -5.652504      -153.8125
  33   2.0000      -5.648302      -153.6981
  34   2.0000      -5.647420      -153.6741
  35   2.0000      -5.643901      -153.5784
  36   2.0000      -5.643632      -153.5710
  37   2.0000      -4.644625      -126.3867
  38   2.0000      -4.643910      -126.3672
  39   2.0000      -4.643530      -126.3569
  40   2.0000      -4.643407      -126.3535
  41   2.0000      -4.642209      -126.3209
  42   2.0000      -4.641952      -126.3139
  43   2.0000      -0.987579       -26.8734
  44   2.0000      -0.981906       -26.7190
  45   2.0000      -0.942414       -25.6444
  46   2.0000      -0.939242       -25.5581
  47   2.0000      -0.762161       -20.7395
  48   2.0000      -0.720912       -19.6170
  49   2.0000      -0.709814       -19.3150
  50   2.0000      -0.691162       -18.8075
  51   2.0000      -0.684150       -18.6167
  52   2.0000      -0.674276       -18.3480
  53   2.0000      -0.649618       -17.6770
  54   2.0000      -0.633594       -17.2410
  55   2.0000      -0.598591       -16.2885
  56   2.0000      -0.590353       -16.0643
  57   2.0000      -0.577386       -15.7115
  58   2.0000      -0.570078       -15.5126
  59   2.0000      -0.560335       -15.2475
  60   2.0000      -0.498670       -13.5695
  61   2.0000      -0.490412       -13.3448
  62   2.0000      -0.473902       -12.8955
  63   2.0000      -0.464257       -12.6331
  64   2.0000      -0.452499       -12.3131
  65   2.0000      -0.451010       -12.2726
  66   2.0000      -0.444313       -12.0904
  67   2.0000      -0.431218       -11.7340
  68   2.0000      -0.427900       -11.6438
  69   2.0000      -0.418509       -11.3882
  70   2.0000      -0.413469       -11.2511
  71   2.0000      -0.399884       -10.8814
  72   2.0000      -0.392329       -10.6758
  73   2.0000      -0.387679       -10.5493
  74   2.0000      -0.382386       -10.4053
  75   2.0000      -0.370012       -10.0685
  76   2.0000      -0.366831        -9.9820
  77   2.0000      -0.360638        -9.8135
  78   2.0000      -0.350271        -9.5314
  79   2.0000      -0.346638        -9.4325
  80   2.0000      -0.345445        -9.4000
  81   2.0000      -0.342155        -9.3105
  82   2.0000      -0.339637        -9.2420
  83   2.0000      -0.336296        -9.1511
  84   2.0000      -0.332581        -9.0500
  85   2.0000      -0.315494        -8.5850
  86   2.0000      -0.309527        -8.4227
  87   2.0000      -0.298072        -8.1109
  88   2.0000      -0.292849        -7.9688
  89   2.0000      -0.292044        -7.9469
  90   2.0000      -0.281912        -7.6712
  91   2.0000      -0.275685        -7.5018
  92   2.0000      -0.269018        -7.3203
  93   2.0000      -0.259032        -7.0486
  94   2.0000      -0.257441        -7.0053
  95   2.0000      -0.235823        -6.4171
  96   2.0000      -0.220300        -5.9947
  97   2.0000      -0.208843        -5.6829
  98   2.0000      -0.200511        -5.4562
  99   2.0000      -0.195282        -5.3139
 100   2.0000      -0.184594        -5.0230
 101   0.0000      -0.041793        -1.1373
 102   0.0000      -0.034549        -0.9401
 103   0.0000      -0.013149        -0.3578
 104   0.0000       0.006365         0.1732
 105   0.0000       0.014478         0.3940

MULLIKEN ATOMIC CHARGES
-----------------------
   0 C :   -0.309194
   1 C :   -0.004711
   2 O :   -0.375473
   3 P :    0.622218
   4 S :   -0.314262
   5 O :   -0.356966
   6 C :   -0.008294
   7 C :   -0.297134
   8 S :   -0.125000
   9 C :   -0.327868
  10 S :   -0.130753
  11 P :    0.608482
  12 S :   -0.300284
  13 O :   -0.385421
  14 C :   -0.026612
  15 C :   -0.296728
  16 O :   -0.359655
  17 C :    0.007216
  18 C :   -0.340447
  19 H :    0.109413
  20 H :    0.120384
  21 H :    0.125979
  22 H :    0.107075
  23 H :    0.108735
  24 H :    0.123341
  25 H :    0.101037
  26 H :    0.109479
  27 H :    0.110913
  28 H :    0.121780
  29 H :    0.180524
  30 H :    0.216900
  31 H :    0.130291
  32 H :    0.102894
  33 H :    0.107221
  34 H :    0.126422
  35 H :    0.107906
  36 H :    0.112701
  37 H :    0.112896
  38 H :    0.131622
  39 H :    0.133618
  40 H :    0.119758
Sum of atomic charges:    0.0000000

LOEWDIN ATOMIC CHARGES
----------------------
   0 C :   -0.369539
   1 C :   -0.115633
   2 O :   -0.246144
   3 P :    0.573557
   4 S :   -0.303156
   5 O :   -0.236996
   6 C :   -0.120876
   7 C :   -0.364882
   8 S :    0.079634
   9 C :   -0.477838
  10 S :    0.077215
  11 P :    0.563073
  12 S :   -0.288970
  13 O :   -0.250341
  14 C :   -0.121112
  15 C :   -0.364195
  16 O :   -0.234819
  17 C :   -0.107968
  18 C :   -0.373687
  19 H :    0.128830
  20 H :    0.119159
  21 H :    0.129383
  22 H :    0.120389
  23 H :    0.107229
  24 H :    0.109258
  25 H :    0.116882
  26 H :    0.129352
  27 H :    0.123854
  28 H :    0.121738
  29 H :    0.135715
  30 H :    0.127892
  31 H :    0.109678
  32 H :    0.117691
  33 H :    0.121136
  34 H :    0.111849
  35 H :    0.129739
  36 H :    0.116052
  37 H :    0.123885
  38 H :    0.129364
  39 H :    0.118653
  40 H :    0.134948

  Mayer bond orders larger than 0.100000
B(  0-C ,  1-C ) :   1.1639 B(  0-C , 19-H ) :   0.9349 B(  0-C , 20-H ) :   0.9347
B(  0-C , 21-H ) :   0.9431 B(  1-C ,  2-O ) :   0.9179 B(  1-C , 22-H ) :   0.9342
B(  1-C , 23-H ) :   0.9265 B(  2-O ,  3-P ) :   1.0996 B(  3-P ,  4-S ) :   1.6043
B(  3-P ,  5-O ) :   1.1224 B(  3-P ,  8-S ) :   0.9544 B(  4-S ,  8-S ) :   0.1146
B(  5-O ,  6-C ) :   0.9008 B(  6-C ,  7-C ) :   1.1616 B(  6-C , 24-H ) :   0.9123
B(  6-C , 25-H ) :   0.9345 B(  7-C , 26-H ) :   0.9397 B(  7-C , 27-H ) :   0.9456
B(  7-C , 28-H ) :   0.9347 B(  8-S ,  9-C ) :   0.9800 B(  9-C , 10-S ) :   1.0239
B(  9-C , 29-H ) :   0.9077 B(  9-C , 30-H ) :   0.8422 B( 10-S , 11-P ) :   0.9203
B( 10-S , 12-S ) :   0.1102 B( 11-P , 12-S ) :   1.6766 B( 11-P , 13-O ) :   1.0711
B( 11-P , 16-O ) :   1.1461 B( 13-O , 14-C ) :   0.9006 B( 14-C , 15-C ) :   1.1690
B( 14-C , 31-H ) :   0.8957 B( 14-C , 32-H ) :   0.9351 B( 15-C , 33-H ) :   0.9455
B( 15-C , 34-H ) :   0.9301 B( 15-C , 35-H ) :   0.9409 B( 16-O , 17-C ) :   0.8973
B( 17-C , 18-C ) :   1.1705 B( 17-C , 36-H ) :   0.9268 B( 17-C , 37-H ) :   0.9336
B( 18-C , 38-H ) :   0.9410 B( 18-C , 39-H ) :   0.9302 B( 18-C , 40-H ) :   0.9348

Dispersion correction           -0.067349151
FINAL SINGLE POINT ENERGY     -2929.516242700476

DIPOLE MOMENT
-------------

Method             : SCF
Type of density    : Electron Density
Multiplicity       :   1
Irrep              :   0
Energy             : -2929.6349930387082168 Eh
Relativity type    :
Basis              : AO
                                X                 Y                 Z
Electronic contribution:     -4.135132035       5.753413878      -9.485935082
Nuclear contribution   :      3.871437974      -7.058095772      10.501763701
                        -----------------------------------------
Total Dipole Moment    :     -0.263694061      -1.304681894       1.015828619
                        -----------------------------------------
Magnitude (a.u.)       :      1.674406518
Magnitude (Debye)      :      4.256003138

Rotational constants in cm-1:             0.013730             0.004961             0.004674
Rotational constants in MHz :           411.613487           148.727957           140.135553

                             ****ORCA TERMINATED NORMALLY****
TOTAL RUN TIME: 0 days 0 hours 0 minutes 21 seconds 75 msec
