                         Program Version 6.0.0  -   RELEASE  -
|  1> ! r2scan-3c def2/J RI DEFGRID2 scfconv6 printgap
|  2> %output
|  3>     printlevel normal
|  4> end
|  5> * xyz 0 1
|  6> C 5.0733209316 -2.3649733263 -1.6688729675
|  7> C 4.0521525118 -1.2511934881 -1.7836794938
|  8> O 3.0314173963 -1.4782585078 -0.7909723107
|  9> P 2.1047113666 -0.3058449192 -0.2450353177
| 10> S 3.0825378779 1.3326572839 0.2204474618
| 11> O 1.3411242367 -1.057148019 0.9174508358
| 12> C 1.821998635 -1.074141515 2.2815026579
| 13> C 1.0326519097 -0.0988073949 3.1317206352
| 14> S 0.6060562493 -0.1561178552 -1.7168306869
| 15> C 0.0132057245 1.5052254029 -1.2866339366
| 16> S -0.5664707048 1.6312246444 0.4213401608
| 17> P -2.2318405232 0.3433513464 0.2555637865
| 18> S -3.1763310056 0.2962253505 -1.4661961173
| 19> O -3.0936353626 0.7146810279 1.540476452
| 20> C -3.5305788431 2.03418974 1.9167289612
| 21> C -4.2147166987 2.778444564 0.7890072236
| 22> O -1.6574978243 -1.0548777993 0.7302954049
| 23> C -2.1921067655 -2.3284134765 0.3092531129
| 24> C -1.2874249035 -2.980976486 -0.7172562386
| 25> H 4.589327257 -3.3265927235 -1.8124579749
| 26> H 5.8355691995 -2.227821908 -2.4287384297
| 27> H 5.5383637016 -2.3474204722 -0.6872256396
| 28> H 3.5737134119 -1.2475255865 -2.7663622086
| 29> H 4.5053940297 -0.2710512016 -1.6000981996
| 30> H 1.6781693287 -2.1030770274 2.6147922154
| 31> H 2.887555546 -0.8282938072 2.2918599324
| 32> H 1.3243745826 -0.2111902726 4.1709669447
| 33> H 1.2296110658 0.9230409721 2.8134469921
| 34> H -0.0320748829 -0.2963339588 3.0304187671
| 35> H -0.80473366 1.7220452385 -1.973548185
| 36> H 0.825247437 2.2239025217 -1.3880969261
| 37> H -4.2160740973 1.8492271081 2.7458151874
| 38> H -2.6587811182 2.5896363721 2.2736060702
| 39> H -5.0331494114 2.1874465629 0.3845513295
| 40> H -4.602591645 3.7201585857 1.1638894555
| 41> H -3.5064315875 2.9811742308 -0.0131142851
| 42> H -2.2503009134 -2.9211470876 1.223621017
| 43> H -3.1962654457 -2.1804928119 -0.0985716381
| 44> H -0.263964401 -3.0065128708 -0.3507074687
| 45> H -1.6308186261 -3.9937461327 -0.902180657
| 46> H -1.3094358721 -2.4212077742 -1.6499720489
| 47> *
| 48>
| 49>                          ****END OF INPUT****

CARTESIAN COORDINATES (ANGSTROEM)
---------------------------------
  C      5.073321   -2.364973   -1.668873
  C      4.052153   -1.251193   -1.783679
  O      3.031417   -1.478259   -0.790972
  P      2.104711   -0.305845   -0.245035
  S      3.082538    1.332657    0.220447
  O      1.341124   -1.057148    0.917451
  C      1.821999   -1.074142    2.281503
  C      1.032652   -0.098807    3.131721
  S      0.606056   -0.156118   -1.716831
  C      0.013206    1.505225   -1.286634
  S     -0.566471    1.631225    0.421340
  P     -2.231841    0.343351    0.255564
  S     -3.176331    0.296225   -1.466196
  O     -3.093635    0.714681    1.540476
  C     -3.530579    2.034190    1.916729
  C     -4.214717    2.778445    0.789007
  O     -1.657498   -1.054878    0.730295
  C     -2.192107   -2.328413    0.309253
  C     -1.287425   -2.980976   -0.717256
  H      4.589327   -3.326593   -1.812458
  H      5.835569   -2.227822   -2.428738
  H      5.538364   -2.347420   -0.687226
  H      3.573713   -1.247526   -2.766362
  H      4.505394   -0.271051   -1.600098
  H      1.678169   -2.103077    2.614792
  H      2.887556   -0.828294    2.291860
  H      1.324375   -0.211190    4.170967
  H      1.229611    0.923041    2.813447
  H     -0.032075   -0.296334    3.030419
  H     -0.804734    1.722045   -1.973548
  H      0.825247    2.223903   -1.388097
  H     -4.216074    1.849227    2.745815
  H     -2.658781    2.589636    2.273606
  H     -5.033149    2.187447    0.384551
  H     -4.602592    3.720159    1.163889
  H     -3.506432    2.981174   -0.013114
  H     -2.250301   -2.921147    1.223621
  H     -3.196265   -2.180493   -0.098572
  H     -0.263964   -3.006513   -0.350707
  H     -1.630819   -3.993746   -0.902181
  H     -1.309436   -2.421208   -1.649972

 Total Charge           Charge          ....    0
 Multiplicity           Mult            ....    1
 Number of Electrons    NEL             ....  202
 Basis Dimension        Dim             ....  539

ORBITAL ENERGIES
----------------

  NO   OCC          E(Eh)            E(eV)
   0   2.0000     -88.578051     -2410.3313
   1   2.0000     -88.576416     -2410.2868
   2   2.0000     -88.520606     -2408.7681
   3   2.0000     -88.517552     -2408.6850
   4   2.0000     -76.913635     -2092.9264
   5   2.0000     -76.913204     -2092.9147
   6   2.0000     -18.991112      -516.7744
   7   2.0000     -18.989634      -516.7342
   8   2.0000     -18.987154      -516.6667
   9   2.0000     -18.982450      -516.5387
  10   2.0000     -10.108237      -275.0591
  11   2.0000     -10.102405      -274.9004
  12   2.0000     -10.097560      -274.7686
  13   2.0000     -10.097342      -274.7626
  14   2.0000     -10.092607      -274.6338
  15   2.0000     -10.032834      -273.0073
  16   2.0000     -10.026649      -272.8390
  17   2.0000     -10.022436      -272.7243
  18   2.0000     -10.018506      -272.6174
  19   2.0000      -7.872511      -214.2219
  20   2.0000      -7.870811      -214.1757
  21   2.0000      -7.815401      -212.6679
  22   2.0000      -7.812406      -212.5864
  23   2.0000      -6.592118      -179.3807
  24   2.0000      -6.591316      -179.3588
  25   2.0000      -5.819371      -158.3531
  26   2.0000      -5.817728      -158.3084
  27   2.0000      -5.816266      -158.2686
  28   2.0000      -5.814669      -158.2252
  29   2.0000      -5.809699      -158.0899
  30   2.0000      -5.807861      -158.0399
  31   2.0000      -5.763031      -156.8200
  32   2.0000      -5.760105      -156.7404
  33   2.0000      -5.755759      -156.6222
  34   2.0000      -5.755344      -156.6109
  35   2.0000      -5.752808      -156.5419
  36   2.0000      -5.752238      -156.5263
  37   2.0000      -4.737531      -128.9148
  38   2.0000      -4.737031      -128.9012
  39   2.0000      -4.736846      -128.8961
  40   2.0000      -4.736355      -128.8828
  41   2.0000      -4.735955      -128.8719
  42   2.0000      -4.734963      -128.8449
  43   2.0000      -1.048072       -28.5195
  44   2.0000      -1.045136       -28.4396
  45   2.0000      -1.008131       -27.4326
  46   2.0000      -1.004471       -27.3330
  47   2.0000      -0.804695       -21.8969
  48   2.0000      -0.758824       -20.6486
  49   2.0000      -0.748617       -20.3709
  50   2.0000      -0.730167       -19.8688
  51   2.0000      -0.726609       -19.7720
  52   2.0000      -0.708874       -19.2894
  53   2.0000      -0.684335       -18.6217
  54   2.0000      -0.670455       -18.2440
  55   2.0000      -0.628793       -17.1103
  56   2.0000      -0.620254       -16.8780
  57   2.0000      -0.606944       -16.5158
  58   2.0000      -0.600888       -16.3510
  59   2.0000      -0.588974       -16.0268
  60   2.0000      -0.532055       -14.4780
  61   2.0000      -0.522086       -14.2067
  62   2.0000      -0.494613       -13.4591
  63   2.0000      -0.485484       -13.2107
  64   2.0000      -0.476368       -12.9626
  65   2.0000      -0.459600       -12.5063
  66   2.0000      -0.453101       -12.3295
  67   2.0000      -0.450706       -12.2643
  68   2.0000      -0.448107       -12.1936
  69   2.0000      -0.436191       -11.8694
  70   2.0000      -0.426695       -11.6110
  71   2.0000      -0.410290       -11.1646
  72   2.0000      -0.403725       -10.9859
  73   2.0000      -0.398309       -10.8385
  74   2.0000      -0.395687       -10.7672
  75   2.0000      -0.389951       -10.6111
  76   2.0000      -0.384614       -10.4659
  77   2.0000      -0.369006       -10.0412
  78   2.0000      -0.367110        -9.9896
  79   2.0000      -0.361906        -9.8480
  80   2.0000      -0.361052        -9.8247
  81   2.0000      -0.355879        -9.6840
  82   2.0000      -0.353564        -9.6210
  83   2.0000      -0.351054        -9.5527
  84   2.0000      -0.350851        -9.5471
  85   2.0000      -0.330136        -8.9835
  86   2.0000      -0.315795        -8.5932
  87   2.0000      -0.313442        -8.5292
  88   2.0000      -0.311909        -8.4875
  89   2.0000      -0.305594        -8.3156
  90   2.0000      -0.295099        -8.0300
  91   2.0000      -0.293030        -7.9738
  92   2.0000      -0.285104        -7.7581
  93   2.0000      -0.277724        -7.5572
  94   2.0000      -0.270783        -7.3684
  95   2.0000      -0.244760        -6.6602
  96   2.0000      -0.232017        -6.3135
  97   2.0000      -0.226142        -6.1536
  98   2.0000      -0.218083        -5.9343
  99   2.0000      -0.212159        -5.7731
 100   2.0000      -0.210643        -5.7319
 101   0.0000      -0.049526        -1.3477
 102   0.0000      -0.027131        -0.7383
 103   0.0000      -0.002349        -0.0639
 104   0.0000       0.000763         0.0208
 105   0.0000       0.009631         0.2621

MULLIKEN ATOMIC CHARGES
-----------------------
   0 C :   -0.444072
   1 C :   -0.149863
   2 O :   -0.282746
   3 P :    0.688537
   4 S :   -0.482970
   5 O :   -0.255592
   6 C :   -0.120874
   7 C :   -0.479105
   8 S :   -0.123094
   9 C :   -0.249627
  10 S :   -0.122342
  11 P :    0.652803
  12 S :   -0.467077
  13 O :   -0.281318
  14 C :   -0.157828
  15 C :   -0.427076
  16 O :   -0.254851
  17 C :   -0.124605
  18 C :   -0.475530
  19 H :    0.153491
  20 H :    0.146729
  21 H :    0.155963
  22 H :    0.150705
  23 H :    0.170323
  24 H :    0.147882
  25 H :    0.157673
  26 H :    0.141591
  27 H :    0.178085
  28 H :    0.167026
  29 H :    0.206860
  30 H :    0.210468
  31 H :    0.149329
  32 H :    0.152666
  33 H :    0.166576
  34 H :    0.146573
  35 H :    0.166321
  36 H :    0.145697
  37 H :    0.162860
  38 H :    0.164298
  39 H :    0.140102
  40 H :    0.176010
Sum of atomic charges:    0.0000000

LOEWDIN ATOMIC CHARGES
----------------------
   0 C :   -0.386397
   1 C :    0.019076
   2 O :   -0.665257
   3 P :    0.371988
   4 S :   -0.132468
   5 O :   -0.666078
   6 C :    0.027969
   7 C :   -0.403870
   8 S :    0.178191
   9 C :   -0.417868
  10 S :    0.175525
  11 P :    0.382660
  12 S :   -0.129726
  13 O :   -0.659197
  14 C :    0.022886
  15 C :   -0.408128
  16 O :   -0.664041
  17 C :    0.024742
  18 C :   -0.405574
  19 H :    0.159577
  20 H :    0.159877
  21 H :    0.160295
  22 H :    0.171347
  23 H :    0.180838
  24 H :    0.177268
  25 H :    0.177262
  26 H :    0.156016
  27 H :    0.166394
  28 H :    0.164738
  29 H :    0.191201
  30 H :    0.189123
  31 H :    0.181308
  32 H :    0.171447
  33 H :    0.165941
  34 H :    0.157801
  35 H :    0.164970
  36 H :    0.175637
  37 H :    0.178958
  38 H :    0.164587
  39 H :    0.155330
  40 H :    0.165651

  Mayer bond orders larger than 0.100000
B(  0-C ,  1-C ) :   0.9584 B(  0-C , 19-H ) :   0.9717 B(  0-C , 20-H ) :   0.9647
B(  0-C , 21-H ) :   0.9725 B(  1-C ,  2-O ) :   0.7771 B(  1-C , 22-H ) :   0.9448
B(  1-C , 23-H ) :   0.9514 B(  2-O ,  3-P ) :   1.0842 B(  3-P ,  4-S ) :   1.7425
B(  3-P ,  5-O ) :   1.1706 B(  3-P ,  8-S ) :   1.0703 B(  5-O ,  6-C ) :   0.7580
B(  6-C ,  7-C ) :   0.9428 B(  6-C , 24-H ) :   0.9601 B(  6-C , 25-H ) :   0.9648
B(  7-C , 26-H ) :   0.9628 B(  7-C , 27-H ) :   0.9635 B(  7-C , 28-H ) :   0.9684
B(  8-S ,  9-C ) :   0.9064 B(  9-C , 10-S ) :   0.9065 B(  9-C , 29-H ) :   0.9102
B(  9-C , 30-H ) :   0.9118 B( 10-S , 11-P ) :   1.0580 B( 11-P , 12-S ) :   1.7732
B( 11-P , 13-O ) :   1.0888 B( 11-P , 16-O ) :   1.1425 B( 13-O , 14-C ) :   0.8104
B( 14-C , 15-C ) :   0.9378 B( 14-C , 31-H ) :   0.9585 B( 14-C , 32-H ) :   0.9647
B( 15-C , 33-H ) :   0.9654 B( 15-C , 34-H ) :   0.9617 B( 15-C , 35-H ) :   0.9556
B( 16-O , 17-C ) :   0.7639 B( 17-C , 18-C ) :   0.9438 B( 17-C , 36-H ) :   0.9597
B( 17-C , 37-H ) :   0.9649 B( 18-C , 38-H ) :   0.9680 B( 18-C , 39-H ) :   0.9635
B( 18-C , 40-H ) :   0.9642

Dispersion correction           -0.022076065
FINAL SINGLE POINT ENERGY     -2932.460923696413

DIPOLE MOMENT
-------------

Method             : SCF
Type of density    : Electron Density
Multiplicity       :   1
Irrep              :   0
Energy             : -2932.4851238903625017 Eh
Relativity type    :
Basis              : AO
                                X                 Y                 Z
Electronic contribution:     -2.233983199       8.228046989      -6.051221370
Nuclear contribution   :      2.438755484      -8.783793969       6.706164972
                        -----------------------------------------
Total Dipole Moment    :      0.204772284      -0.555746980       0.654943602
                        -----------------------------------------
Magnitude (a.u.)       :      0.883027472
Magnitude (Debye)      :      2.244477463

Rotational constants in cm-1:             0.013214             0.005137             0.004856
Rotational constants in MHz :           396.136570           154.005355           145.578684

                             ****ORCA TERMINATED NORMALLY****
TOTAL RUN TIME: 0 days 0 hours 1 minutes 23 seconds 135 msec
