                         Program Version 6.0.0  -   RELEASE  -
|  1> ! r2scan-3c def2/J RI DEFGRID2 scfconv6 printgap
|  2> %output
|  3>     printlevel normal
|  4> end
|  5> %cpcm
|  6>     smd true
|  7>     smdsolvent "water"
|  8> end
|  9> * xyz 0 1
| 10> C 5.0733209316 -2.3649733263 -1.6688729675
| 11> C 4.0521525118 -1.2511934881 -1.7836794938
| 12> O 3.0314173963 -1.4782585078 -0.7909723107
| 13> P 2.1047113666 -0.3058449192 -0.2450353177
| 14> S 3.0825378779 1.3326572839 0.2204474618
| 15> O 1.3411242367 -1.057148019 0.9174508358
| 16> C 1.821998635 -1.074141515 2.2815026579
| 17> C 1.0326519097 -0.0988073949 3.1317206352
| 18> S 0.6060562493 -0.1561178552 -1.7168306869
| 19> C 0.0132057245 1.5052254029 -1.2866339366
| 20> S -0.5664707048 1.6312246444 0.4213401608
| 21> P -2.2318405232 0.3433513464 0.2555637865
| 22> S -3.1763310056 0.2962253505 -1.4661961173
| 23> O -3.0936353626 0.7146810279 1.540476452
| 24> C -3.5305788431 2.03418974 1.9167289612
| 25> C -4.2147166987 2.778444564 0.7890072236
| 26> O -1.6574978243 -1.0548777993 0.7302954049
| 27> C -2.1921067655 -2.3284134765 0.3092531129
| 28> C -1.2874249035 -2.980976486 -0.7172562386
| 29> H 4.589327257 -3.3265927235 -1.8124579749
| 30> H 5.8355691995 -2.227821908 -2.4287384297
| 31> H 5.5383637016 -2.3474204722 -0.6872256396
| 32> H 3.5737134119 -1.2475255865 -2.7663622086
| 33> H 4.5053940297 -0.2710512016 -1.6000981996
| 34> H 1.6781693287 -2.1030770274 2.6147922154
| 35> H 2.887555546 -0.8282938072 2.2918599324
| 36> H 1.3243745826 -0.2111902726 4.1709669447
| 37> H 1.2296110658 0.9230409721 2.8134469921
| 38> H -0.0320748829 -0.2963339588 3.0304187671
| 39> H -0.80473366 1.7220452385 -1.973548185
| 40> H 0.825247437 2.2239025217 -1.3880969261
| 41> H -4.2160740973 1.8492271081 2.7458151874
| 42> H -2.6587811182 2.5896363721 2.2736060702
| 43> H -5.0331494114 2.1874465629 0.3845513295
| 44> H -4.602591645 3.7201585857 1.1638894555
| 45> H -3.5064315875 2.9811742308 -0.0131142851
| 46> H -2.2503009134 -2.9211470876 1.223621017
| 47> H -3.1962654457 -2.1804928119 -0.0985716381
| 48> H -0.263964401 -3.0065128708 -0.3507074687
| 49> H -1.6308186261 -3.9937461327 -0.902180657
| 50> H -1.3094358721 -2.4212077742 -1.6499720489
| 51> *
| 52>
| 53>                          ****END OF INPUT****

CARTESIAN COORDINATES (ANGSTROEM)
---------------------------------
  C      5.073321   -2.364973   -1.668873
  C      4.052153   -1.251193   -1.783679
  O      3.031417   -1.478259   -0.790972
  P      2.104711   -0.305845   -0.245035
  S      3.082538    1.332657    0.220447
  O      1.341124   -1.057148    0.917451
  C      1.821999   -1.074142    2.281503
  C      1.032652   -0.098807    3.131721
  S      0.606056   -0.156118   -1.716831
  C      0.013206    1.505225   -1.286634
  S     -0.566471    1.631225    0.421340
  P     -2.231841    0.343351    0.255564
  S     -3.176331    0.296225   -1.466196
  O     -3.093635    0.714681    1.540476
  C     -3.530579    2.034190    1.916729
  C     -4.214717    2.778445    0.789007
  O     -1.657498   -1.054878    0.730295
  C     -2.192107   -2.328413    0.309253
  C     -1.287425   -2.980976   -0.717256
  H      4.589327   -3.326593   -1.812458
  H      5.835569   -2.227822   -2.428738
  H      5.538364   -2.347420   -0.687226
  H      3.573713   -1.247526   -2.766362
  H      4.505394   -0.271051   -1.600098
  H      1.678169   -2.103077    2.614792
  H      2.887556   -0.828294    2.291860
  H      1.324375   -0.211190    4.170967
  H      1.229611    0.923041    2.813447
  H     -0.032075   -0.296334    3.030419
  H     -0.804734    1.722045   -1.973548
  H      0.825247    2.223903   -1.388097
  H     -4.216074    1.849227    2.745815
  H     -2.658781    2.589636    2.273606
  H     -5.033149    2.187447    0.384551
  H     -4.602592    3.720159    1.163889
  H     -3.506432    2.981174   -0.013114
  H     -2.250301   -2.921147    1.223621
  H     -3.196265   -2.180493   -0.098572
  H     -0.263964   -3.006513   -0.350707
  H     -1.630819   -3.993746   -0.902181
  H     -1.309436   -2.421208   -1.649972

 Total Charge           Charge          ....    0
 Multiplicity           Mult            ....    1
 Number of Electrons    NEL             ....  202
 Basis Dimension        Dim             ....  539

ORBITAL ENERGIES
----------------

  NO   OCC          E(Eh)            E(eV)
   0   2.0000     -88.580998     -2410.4115
   1   2.0000     -88.579908     -2410.3818
   2   2.0000     -88.527469     -2408.9549
   3   2.0000     -88.525263     -2408.8949
   4   2.0000     -76.919110     -2093.0754
   5   2.0000     -76.918891     -2093.0694
   6   2.0000     -18.993819      -516.8481
   7   2.0000     -18.992871      -516.8223
   8   2.0000     -18.991379      -516.7817
   9   2.0000     -18.988493      -516.7032
  10   2.0000     -10.106709      -275.0175
  11   2.0000     -10.092037      -274.6183
  12   2.0000     -10.090149      -274.5669
  13   2.0000     -10.088735      -274.5284
  14   2.0000     -10.088051      -274.5098
  15   2.0000     -10.019209      -272.6365
  16   2.0000     -10.018102      -272.6064
  17   2.0000     -10.015984      -272.5488
  18   2.0000     -10.014625      -272.5118
  19   2.0000      -7.875432      -214.3014
  20   2.0000      -7.874328      -214.2714
  21   2.0000      -7.822541      -212.8622
  22   2.0000      -7.820409      -212.8042
  23   2.0000      -6.597401      -179.5244
  24   2.0000      -6.597281      -179.5212
  25   2.0000      -5.822306      -158.4330
  26   2.0000      -5.821224      -158.4036
  27   2.0000      -5.819186      -158.3481
  28   2.0000      -5.818166      -158.3204
  29   2.0000      -5.812618      -158.1694
  30   2.0000      -5.811424      -158.1369
  31   2.0000      -5.770120      -157.0129
  32   2.0000      -5.768048      -156.9566
  33   2.0000      -5.762891      -156.8162
  34   2.0000      -5.762490      -156.8053
  35   2.0000      -5.760801      -156.7594
  36   2.0000      -5.760255      -156.7445
  37   2.0000      -4.742774      -129.0575
  38   2.0000      -4.742773      -129.0574
  39   2.0000      -4.742338      -129.0456
  40   2.0000      -4.742328      -129.0453
  41   2.0000      -4.741288      -129.0170
  42   2.0000      -4.740972      -129.0084
  43   2.0000      -1.051316       -28.6078
  44   2.0000      -1.049252       -28.5516
  45   2.0000      -1.010754       -27.5040
  46   2.0000      -1.008232       -27.4354
  47   2.0000      -0.806297       -21.9405
  48   2.0000      -0.756868       -20.5954
  49   2.0000      -0.744231       -20.2515
  50   2.0000      -0.722600       -19.6630
  51   2.0000      -0.721131       -19.6230
  52   2.0000      -0.709211       -19.2986
  53   2.0000      -0.688248       -18.7282
  54   2.0000      -0.675927       -18.3929
  55   2.0000      -0.629140       -17.1198
  56   2.0000      -0.617750       -16.8098
  57   2.0000      -0.602826       -16.4037
  58   2.0000      -0.595041       -16.1919
  59   2.0000      -0.587132       -15.9767
  60   2.0000      -0.529160       -14.3992
  61   2.0000      -0.519793       -14.1443
  62   2.0000      -0.492887       -13.4122
  63   2.0000      -0.484582       -13.1862
  64   2.0000      -0.475549       -12.9403
  65   2.0000      -0.456250       -12.4152
  66   2.0000      -0.450576       -12.2608
  67   2.0000      -0.447812       -12.1856
  68   2.0000      -0.444524       -12.0961
  69   2.0000      -0.435379       -11.8473
  70   2.0000      -0.425410       -11.5760
  71   2.0000      -0.408589       -11.1183
  72   2.0000      -0.401944       -10.9375
  73   2.0000      -0.397294       -10.8109
  74   2.0000      -0.392668       -10.6850
  75   2.0000      -0.388752       -10.5785
  76   2.0000      -0.383573       -10.4376
  77   2.0000      -0.367380        -9.9969
  78   2.0000      -0.358591        -9.7578
  79   2.0000      -0.356572        -9.7028
  80   2.0000      -0.354911        -9.6576
  81   2.0000      -0.351353        -9.5608
  82   2.0000      -0.349848        -9.5199
  83   2.0000      -0.348433        -9.4813
  84   2.0000      -0.345425        -9.3995
  85   2.0000      -0.328959        -8.9514
  86   2.0000      -0.313546        -8.5320
  87   2.0000      -0.311158        -8.4670
  88   2.0000      -0.309988        -8.4352
  89   2.0000      -0.305233        -8.3058
  90   2.0000      -0.295271        -8.0347
  91   2.0000      -0.293545        -7.9878
  92   2.0000      -0.286535        -7.7970
  93   2.0000      -0.277903        -7.5621
  94   2.0000      -0.272551        -7.4165
  95   2.0000      -0.247893        -6.7455
  96   2.0000      -0.236563        -6.4372
  97   2.0000      -0.233747        -6.3606
  98   2.0000      -0.225095        -6.1251
  99   2.0000      -0.219479        -5.9723
 100   2.0000      -0.218559        -5.9473
 101   0.0000      -0.053539        -1.4569
 102   0.0000      -0.032809        -0.8928
 103   0.0000      -0.006733        -0.1832
 104   0.0000      -0.002794        -0.0760
 105   0.0000       0.008456         0.2301

MULLIKEN ATOMIC CHARGES
-----------------------
   0 C :   -0.485317
   1 C :   -0.143793
   2 O :   -0.311684
   3 P :    0.717750
   4 S :   -0.525199
   5 O :   -0.284609
   6 C :   -0.127187
   7 C :   -0.500279
   8 S :   -0.134641
   9 C :   -0.261229
  10 S :   -0.125865
  11 P :    0.689950
  12 S :   -0.512876
  13 O :   -0.316432
  14 C :   -0.159513
  15 C :   -0.465937
  16 O :   -0.287906
  17 C :   -0.125865
  18 C :   -0.499910
  19 H :    0.165515
  20 H :    0.169408
  21 H :    0.166135
  22 H :    0.170990
  23 H :    0.171118
  24 H :    0.175534
  25 H :    0.170745
  26 H :    0.167721
  27 H :    0.171967
  28 H :    0.166373
  29 H :    0.228159
  30 H :    0.235205
  31 H :    0.175618
  32 H :    0.172922
  33 H :    0.170176
  34 H :    0.172709
  35 H :    0.165771
  36 H :    0.173013
  37 H :    0.169530
  38 H :    0.165276
  39 H :    0.165832
  40 H :    0.170826
Sum of atomic charges:    0.0000000

LOEWDIN ATOMIC CHARGES
----------------------
   0 C :   -0.390338
   1 C :    0.023437
   2 O :   -0.678469
   3 P :    0.376281
   4 S :   -0.159278
   5 O :   -0.683104
   6 C :    0.032074
   7 C :   -0.405630
   8 S :    0.172485
   9 C :   -0.410682
  10 S :    0.176649
  11 P :    0.387245
  12 S :   -0.158847
  13 O :   -0.673868
  14 C :    0.028884
  15 C :   -0.411605
  16 O :   -0.681913
  17 C :    0.028553
  18 C :   -0.407993
  19 H :    0.162896
  20 H :    0.168748
  21 H :    0.162381
  22 H :    0.179430
  23 H :    0.181454
  24 H :    0.188669
  25 H :    0.181823
  26 H :    0.165558
  27 H :    0.162453
  28 H :    0.163538
  29 H :    0.198145
  30 H :    0.196981
  31 H :    0.192386
  32 H :    0.179238
  33 H :    0.164214
  34 H :    0.167721
  35 H :    0.161618
  36 H :    0.186958
  37 H :    0.181558
  38 H :    0.163795
  39 H :    0.164717
  40 H :    0.161839

  Mayer bond orders larger than 0.100000
B(  0-C ,  1-C ) :   0.9538 B(  0-C , 19-H ) :   0.9689 B(  0-C , 20-H ) :   0.9587
B(  0-C , 21-H ) :   0.9700 B(  1-C ,  2-O ) :   0.7698 B(  1-C , 22-H ) :   0.9363
B(  1-C , 23-H ) :   0.9488 B(  2-O ,  3-P ) :   1.0897 B(  3-P ,  4-S ) :   1.7090
B(  3-P ,  5-O ) :   1.1725 B(  3-P ,  8-S ) :   1.0850 B(  5-O ,  6-C ) :   0.7449
B(  6-C ,  7-C ) :   0.9327 B(  6-C , 24-H ) :   0.9498 B(  6-C , 25-H ) :   0.9613
B(  7-C , 26-H ) :   0.9586 B(  7-C , 27-H ) :   0.9655 B(  7-C , 28-H ) :   0.9666
B(  8-S ,  9-C ) :   0.8965 B(  9-C , 10-S ) :   0.8966 B(  9-C , 29-H ) :   0.9045
B(  9-C , 30-H ) :   0.9047 B( 10-S , 11-P ) :   1.0735 B( 11-P , 12-S ) :   1.7351
B( 11-P , 13-O ) :   1.0951 B( 11-P , 16-O ) :   1.1421 B( 13-O , 14-C ) :   0.8010
B( 14-C , 15-C ) :   0.9201 B( 14-C , 31-H ) :   0.9488 B( 14-C , 32-H ) :   0.9595
B( 15-C , 33-H ) :   0.9662 B( 15-C , 34-H ) :   0.9557 B( 15-C , 35-H ) :   0.9575
B( 16-O , 17-C ) :   0.7533 B( 17-C , 18-C ) :   0.9353 B( 17-C , 36-H ) :   0.9498
B( 17-C , 37-H ) :   0.9620 B( 18-C , 38-H ) :   0.9664 B( 18-C , 39-H ) :   0.9592
B( 18-C , 40-H ) :   0.9658

Dispersion correction           -0.022076065
FINAL SINGLE POINT ENERGY     -2932.468828371571

DIPOLE MOMENT
-------------

Method             : SCF
Type of density    : Electron Density
Multiplicity       :   1
Irrep              :   0
Energy             : -2932.4930285655209445 Eh
Relativity type    :
Basis              : AO
                                X                 Y                 Z
Electronic contribution:     -2.163832573       8.189647495      -5.862542883
Nuclear contribution   :      2.438755484      -8.783793969       6.706164972
                        -----------------------------------------
Total Dipole Moment    :      0.274922911      -0.594146475       0.843622090
                        -----------------------------------------
Magnitude (a.u.)       :      1.067844029
Magnitude (Debye)      :      2.714243818

Rotational constants in cm-1:             0.013214             0.005137             0.004856
Rotational constants in MHz :           396.136570           154.005355           145.578684

                             ****ORCA TERMINATED NORMALLY****
TOTAL RUN TIME: 0 days 0 hours 1 minutes 51 seconds 515 msec
