                         Program Version 6.0.0  -   RELEASE  -
|  1> ! r2scan-3c def2/J RI DEFGRID2 scfconv6 printgap
|  2> %output
|  3>     printlevel normal
|  4> end
|  5> * xyz 0 1
|  6> C 4.6703812591 -1.4107145052 -0.6062224705
|  7> C 4.6284335476 0.0200618891 -0.1092499001
|  8> O 3.4082467809 0.3197755613 0.5892242266
|  9> P 1.9966454095 0.4010633945 -0.1402854915
| 10> S 2.0583781699 1.1847405455 -1.9407303272
| 11> O 1.1298022544 1.1403360677 0.959810794
| 12> C 1.0385381258 2.5742785216 1.0423842492
| 13> C 2.3544399954 3.2095032232 1.4371160617
| 14> S 1.2658228135 -1.5605611922 0.0482245455
| 15> C 0.1217275687 -1.6427233204 -1.3709431966
| 16> S -1.5778572579 -1.9935543956 -0.8718948556
| 17> P -2.0264366466 -0.1065788721 -0.0024178699
| 18> S -1.4714493001 1.4458718825 -1.0567244199
| 19> O -1.4460236112 -0.1024291522 1.4582658678
| 20> C -1.7957189869 -1.1171077427 2.440962482
| 21> C -0.6074403548 -1.31865521 3.3573268644
| 22> O -3.5872544336 -0.2251643487 0.2655503541
| 23> C -4.5403716182 -0.2118896985 -0.8180611947
| 24> C -5.9149850595 0.0103180583 -0.221329924
| 25> H 3.9344890002 -1.5511111479 -1.3967121067
| 26> H 5.6576741728 -1.6222128546 -1.0041140785
| 27> H 4.4509508449 -2.0997491414 0.205351111
| 28> H 4.7269835325 0.718694668 -0.9464400117
| 29> H 5.4062069479 0.2126634673 0.63092539
| 30> H 0.6924049424 2.9553755331 0.0753010103
| 31> H 0.2615347615 2.7401310602 1.7906644068
| 32> H 3.0838914695 3.0786184201 0.6388378854
| 33> H 2.2015609121 4.2712031896 1.6040445138
| 34> H 2.7358318049 2.7481024585 2.3442625237
| 35> H 0.4269180055 -2.4724813441 -2.0029650304
| 36> H 0.1633745862 -0.6944497046 -1.9140824091
| 37> H -2.6676082738 -0.7470852364 2.9826973308
| 38> H -2.0578194017 -2.0403629046 1.9161480559
| 39> H 0.2439557374 -1.6952012758 2.7956639617
| 40> H -0.32910266 -0.3759017676 3.8197399249
| 41> H -0.872907407 -2.0348104028 4.1282685815
| 42> H -4.2664079642 0.5892779049 -1.5121409477
| 43> H -4.4783936639 -1.1720435917 -1.3369151498
| 44> H -6.1472021014 -0.785007699 0.480666091
| 45> H -5.9458823051 0.9626232835 0.3005431846
| 46> H -6.6515080173 0.0143317846 -1.0179351702
| 47> *
| 48>
| 49>                          ****END OF INPUT****

CARTESIAN COORDINATES (ANGSTROEM)
---------------------------------
  C      4.670381   -1.410715   -0.606222
  C      4.628434    0.020062   -0.109250
  O      3.408247    0.319776    0.589224
  P      1.996645    0.401063   -0.140285
  S      2.058378    1.184741   -1.940730
  O      1.129802    1.140336    0.959811
  C      1.038538    2.574279    1.042384
  C      2.354440    3.209503    1.437116
  S      1.265823   -1.560561    0.048225
  C      0.121728   -1.642723   -1.370943
  S     -1.577857   -1.993554   -0.871895
  P     -2.026437   -0.106579   -0.002418
  S     -1.471449    1.445872   -1.056724
  O     -1.446024   -0.102429    1.458266
  C     -1.795719   -1.117108    2.440962
  C     -0.607440   -1.318655    3.357327
  O     -3.587254   -0.225164    0.265550
  C     -4.540372   -0.211890   -0.818061
  C     -5.914985    0.010318   -0.221330
  H      3.934489   -1.551111   -1.396712
  H      5.657674   -1.622213   -1.004114
  H      4.450951   -2.099749    0.205351
  H      4.726984    0.718695   -0.946440
  H      5.406207    0.212663    0.630925
  H      0.692405    2.955376    0.075301
  H      0.261535    2.740131    1.790664
  H      3.083891    3.078618    0.638838
  H      2.201561    4.271203    1.604045
  H      2.735832    2.748102    2.344263
  H      0.426918   -2.472481   -2.002965
  H      0.163375   -0.694450   -1.914082
  H     -2.667608   -0.747085    2.982697
  H     -2.057819   -2.040363    1.916148
  H      0.243956   -1.695201    2.795664
  H     -0.329103   -0.375902    3.819740
  H     -0.872907   -2.034810    4.128269
  H     -4.266408    0.589278   -1.512141
  H     -4.478394   -1.172044   -1.336915
  H     -6.147202   -0.785008    0.480666
  H     -5.945882    0.962623    0.300543
  H     -6.651508    0.014332   -1.017935

 Total Charge           Charge          ....    0
 Multiplicity           Mult            ....    1
 Number of Electrons    NEL             ....  202
 Basis Dimension        Dim             ....  539

ORBITAL ENERGIES
----------------

  NO   OCC          E(Eh)            E(eV)
   0   2.0000     -88.575727     -2410.2681
   1   2.0000     -88.572148     -2410.1707
   2   2.0000     -88.514261     -2408.5955
   3   2.0000     -88.512944     -2408.5596
   4   2.0000     -76.909996     -2092.8274
   5   2.0000     -76.907873     -2092.7696
   6   2.0000     -18.991979      -516.7980
   7   2.0000     -18.989100      -516.7197
   8   2.0000     -18.986404      -516.6463
   9   2.0000     -18.978319      -516.4263
  10   2.0000     -10.105848      -274.9941
  11   2.0000     -10.099858      -274.8311
  12   2.0000     -10.099305      -274.8161
  13   2.0000     -10.094108      -274.6746
  14   2.0000     -10.083964      -274.3986
  15   2.0000     -10.034009      -273.0393
  16   2.0000     -10.028078      -272.8779
  17   2.0000     -10.025201      -272.7996
  18   2.0000     -10.020102      -272.6609
  19   2.0000      -7.870240      -214.1601
  20   2.0000      -7.866993      -214.0718
  21   2.0000      -7.808902      -212.4910
  22   2.0000      -7.807740      -212.4594
  23   2.0000      -6.588627      -179.2856
  24   2.0000      -6.586307      -179.2225
  25   2.0000      -5.817050      -158.2900
  26   2.0000      -5.813857      -158.2031
  27   2.0000      -5.813799      -158.2015
  28   2.0000      -5.810877      -158.1220
  29   2.0000      -5.807625      -158.0335
  30   2.0000      -5.804034      -157.9358
  31   2.0000      -5.756551      -156.6437
  32   2.0000      -5.755546      -156.6164
  33   2.0000      -5.749411      -156.4494
  34   2.0000      -5.748702      -156.4301
  35   2.0000      -5.747887      -156.4080
  36   2.0000      -5.747719      -156.4034
  37   2.0000      -4.734447      -128.8309
  38   2.0000      -4.733716      -128.8110
  39   2.0000      -4.731891      -128.7613
  40   2.0000      -4.731611      -128.7537
  41   2.0000      -4.731118      -128.7403
  42   2.0000      -4.730340      -128.7191
  43   2.0000      -1.050280       -28.5796
  44   2.0000      -1.042312       -28.3628
  45   2.0000      -1.008542       -27.4438
  46   2.0000      -1.002039       -27.2669
  47   2.0000      -0.799042       -21.7430
  48   2.0000      -0.757918       -20.6240
  49   2.0000      -0.745895       -20.2968
  50   2.0000      -0.735080       -20.0026
  51   2.0000      -0.725138       -19.7320
  52   2.0000      -0.708180       -19.2706
  53   2.0000      -0.681408       -18.5420
  54   2.0000      -0.661978       -18.0133
  55   2.0000      -0.628316       -17.0974
  56   2.0000      -0.613679       -16.6990
  57   2.0000      -0.602352       -16.3908
  58   2.0000      -0.598649       -16.2901
  59   2.0000      -0.592871       -16.1328
  60   2.0000      -0.534843       -14.5538
  61   2.0000      -0.510863       -13.9013
  62   2.0000      -0.500256       -13.6127
  63   2.0000      -0.484227       -13.1765
  64   2.0000      -0.468046       -12.7362
  65   2.0000      -0.463740       -12.6190
  66   2.0000      -0.455636       -12.3985
  67   2.0000      -0.452004       -12.2997
  68   2.0000      -0.447204       -12.1690
  69   2.0000      -0.430984       -11.7277
  70   2.0000      -0.423990       -11.5374
  71   2.0000      -0.408327       -11.1111
  72   2.0000      -0.401157       -10.9160
  73   2.0000      -0.401028       -10.9125
  74   2.0000      -0.393595       -10.7103
  75   2.0000      -0.390314       -10.6210
  76   2.0000      -0.380747       -10.3607
  77   2.0000      -0.369180       -10.0459
  78   2.0000      -0.366087        -9.9617
  79   2.0000      -0.363361        -9.8876
  80   2.0000      -0.357230        -9.7207
  81   2.0000      -0.357092        -9.7170
  82   2.0000      -0.352975        -9.6049
  83   2.0000      -0.349511        -9.5107
  84   2.0000      -0.345353        -9.3975
  85   2.0000      -0.326968        -8.8973
  86   2.0000      -0.319207        -8.6861
  87   2.0000      -0.317128        -8.6295
  88   2.0000      -0.314197        -8.5497
  89   2.0000      -0.304506        -8.2860
  90   2.0000      -0.290337        -7.9005
  91   2.0000      -0.284262        -7.7352
  92   2.0000      -0.277864        -7.5611
  93   2.0000      -0.277097        -7.5402
  94   2.0000      -0.269957        -7.3459
  95   2.0000      -0.249111        -6.7787
  96   2.0000      -0.230816        -6.2808
  97   2.0000      -0.226663        -6.1678
  98   2.0000      -0.215257        -5.8574
  99   2.0000      -0.204589        -5.5671
 100   2.0000      -0.197823        -5.3830
 101   0.0000      -0.041631        -1.1328
 102   0.0000      -0.030882        -0.8403
 103   0.0000      -0.006964        -0.1895
 104   0.0000       0.017395         0.4733
 105   0.0000       0.017899         0.4871

MULLIKEN ATOMIC CHARGES
-----------------------
   0 C :   -0.445699
   1 C :   -0.157529
   2 O :   -0.299073
   3 P :    0.649044
   4 S :   -0.460697
   5 O :   -0.256386
   6 C :   -0.162304
   7 C :   -0.448174
   8 S :   -0.129523
   9 C :   -0.222320
  10 S :   -0.178934
  11 P :    0.683687
  12 S :   -0.423614
  13 O :   -0.263699
  14 C :   -0.105964
  15 C :   -0.454687
  16 O :   -0.292320
  17 C :   -0.163611
  18 C :   -0.438724
  19 H :    0.174165
  20 H :    0.146372
  21 H :    0.153376
  22 H :    0.173012
  23 H :    0.146877
  24 H :    0.182719
  25 H :    0.157089
  26 H :    0.164159
  27 H :    0.145849
  28 H :    0.154442
  29 H :    0.196110
  30 H :    0.219672
  31 H :    0.154420
  32 H :    0.155094
  33 H :    0.169865
  34 H :    0.155950
  35 H :    0.142795
  36 H :    0.173248
  37 H :    0.148642
  38 H :    0.150798
  39 H :    0.158617
  40 H :    0.147254
Sum of atomic charges:   -0.0000000

LOEWDIN ATOMIC CHARGES
----------------------
   0 C :   -0.408371
   1 C :    0.017668
   2 O :   -0.668294
   3 P :    0.372583
   4 S :   -0.125408
   5 O :   -0.668703
   6 C :    0.011738
   7 C :   -0.400497
   8 S :    0.168431
   9 C :   -0.413214
  10 S :    0.120291
  11 P :    0.372051
  12 S :   -0.072961
  13 O :   -0.647048
  14 C :    0.024495
  15 C :   -0.391636
  16 O :   -0.669793
  17 C :    0.020007
  18 C :   -0.385627
  19 H :    0.164338
  20 H :    0.158077
  21 H :    0.159822
  22 H :    0.179805
  23 H :    0.178589
  24 H :    0.184745
  25 H :    0.183134
  26 H :    0.163546
  27 H :    0.158459
  28 H :    0.160201
  29 H :    0.179869
  30 H :    0.203023
  31 H :    0.175089
  32 H :    0.175928
  33 H :    0.166145
  34 H :    0.162309
  35 H :    0.157683
  36 H :    0.181533
  37 H :    0.171133
  38 H :    0.158594
  39 H :    0.161977
  40 H :    0.160286

  Mayer bond orders larger than 0.100000
B(  0-C ,  1-C ) :   0.9214 B(  0-C , 19-H ) :   0.9657 B(  0-C , 20-H ) :   0.9595
B(  0-C , 21-H ) :   0.9678 B(  1-C ,  2-O ) :   0.8225 B(  1-C , 22-H ) :   0.9671
B(  1-C , 23-H ) :   0.9594 B(  2-O ,  3-P ) :   1.0520 B(  3-P ,  4-S ) :   1.7613
B(  3-P ,  5-O ) :   1.1550 B(  3-P ,  8-S ) :   1.1238 B(  5-O ,  6-C ) :   0.8008
B(  6-C ,  7-C ) :   0.9071 B(  6-C , 24-H ) :   0.9616 B(  6-C , 25-H ) :   0.9645
B(  7-C , 26-H ) :   0.9633 B(  7-C , 27-H ) :   0.9616 B(  7-C , 28-H ) :   0.9741
B(  8-S ,  9-C ) :   0.8899 B(  9-C , 10-S ) :   0.9191 B(  9-C , 29-H ) :   0.9138
B(  9-C , 30-H ) :   0.9059 B( 10-S , 11-P ) :   0.9854 B( 11-P , 12-S ) :   1.8315
B( 11-P , 13-O ) :   1.1473 B( 11-P , 16-O ) :   1.0548 B( 13-O , 14-C ) :   0.7393
B( 14-C , 15-C ) :   0.9599 B( 14-C , 31-H ) :   0.9472 B( 14-C , 32-H ) :   0.9554
B( 15-C , 33-H ) :   0.9626 B( 15-C , 34-H ) :   0.9700 B( 15-C , 35-H ) :   0.9650
B( 16-O , 17-C ) :   0.7890 B( 17-C , 18-C ) :   0.9566 B( 17-C , 36-H ) :   0.9514
B( 17-C , 37-H ) :   0.9422 B( 18-C , 38-H ) :   0.9715 B( 18-C , 39-H ) :   0.9711
B( 18-C , 40-H ) :   0.9637

Dispersion correction           -0.022059972
FINAL SINGLE POINT ENERGY     -2932.460600588197

DIPOLE MOMENT
-------------

Method             : SCF
Type of density    : Electron Density
Multiplicity       :   1
Irrep              :   0
Energy             : -2932.4850674581139174 Eh
Relativity type    :
Basis              : AO
                                X                 Y                 Z
Electronic contribution:     -0.875688086      -1.616795023     -11.021895169
Nuclear contribution   :      0.545094799       0.719121304      12.090487214
                        -----------------------------------------
Total Dipole Moment    :     -0.330593287      -0.897673719       1.068592045
                        -----------------------------------------
Magnitude (a.u.)       :      1.434224175
Magnitude (Debye)      :      3.645508140

Rotational constants in cm-1:             0.013008             0.005136             0.004985
Rotational constants in MHz :           389.982842           153.958527           149.433971

                             ****ORCA TERMINATED NORMALLY****
TOTAL RUN TIME: 0 days 0 hours 1 minutes 24 seconds 823 msec
