                         Program Version 6.0.0  -   RELEASE  -
|  1> ! r2scan-3c def2/J RI DEFGRID2 scfconv6 printgap
|  2> %output
|  3>     printlevel normal
|  4> end
|  5> %cpcm
|  6>     smd true
|  7>     smdsolvent "water"
|  8> end
|  9> * xyz 0 1
| 10> C 4.6703812591 -1.4107145052 -0.6062224705
| 11> C 4.6284335476 0.0200618891 -0.1092499001
| 12> O 3.4082467809 0.3197755613 0.5892242266
| 13> P 1.9966454095 0.4010633945 -0.1402854915
| 14> S 2.0583781699 1.1847405455 -1.9407303272
| 15> O 1.1298022544 1.1403360677 0.959810794
| 16> C 1.0385381258 2.5742785216 1.0423842492
| 17> C 2.3544399954 3.2095032232 1.4371160617
| 18> S 1.2658228135 -1.5605611922 0.0482245455
| 19> C 0.1217275687 -1.6427233204 -1.3709431966
| 20> S -1.5778572579 -1.9935543956 -0.8718948556
| 21> P -2.0264366466 -0.1065788721 -0.0024178699
| 22> S -1.4714493001 1.4458718825 -1.0567244199
| 23> O -1.4460236112 -0.1024291522 1.4582658678
| 24> C -1.7957189869 -1.1171077427 2.440962482
| 25> C -0.6074403548 -1.31865521 3.3573268644
| 26> O -3.5872544336 -0.2251643487 0.2655503541
| 27> C -4.5403716182 -0.2118896985 -0.8180611947
| 28> C -5.9149850595 0.0103180583 -0.221329924
| 29> H 3.9344890002 -1.5511111479 -1.3967121067
| 30> H 5.6576741728 -1.6222128546 -1.0041140785
| 31> H 4.4509508449 -2.0997491414 0.205351111
| 32> H 4.7269835325 0.718694668 -0.9464400117
| 33> H 5.4062069479 0.2126634673 0.63092539
| 34> H 0.6924049424 2.9553755331 0.0753010103
| 35> H 0.2615347615 2.7401310602 1.7906644068
| 36> H 3.0838914695 3.0786184201 0.6388378854
| 37> H 2.2015609121 4.2712031896 1.6040445138
| 38> H 2.7358318049 2.7481024585 2.3442625237
| 39> H 0.4269180055 -2.4724813441 -2.0029650304
| 40> H 0.1633745862 -0.6944497046 -1.9140824091
| 41> H -2.6676082738 -0.7470852364 2.9826973308
| 42> H -2.0578194017 -2.0403629046 1.9161480559
| 43> H 0.2439557374 -1.6952012758 2.7956639617
| 44> H -0.32910266 -0.3759017676 3.8197399249
| 45> H -0.872907407 -2.0348104028 4.1282685815
| 46> H -4.2664079642 0.5892779049 -1.5121409477
| 47> H -4.4783936639 -1.1720435917 -1.3369151498
| 48> H -6.1472021014 -0.785007699 0.480666091
| 49> H -5.9458823051 0.9626232835 0.3005431846
| 50> H -6.6515080173 0.0143317846 -1.0179351702
| 51> *
| 52>
| 53>                          ****END OF INPUT****

CARTESIAN COORDINATES (ANGSTROEM)
---------------------------------
  C      4.670381   -1.410715   -0.606222
  C      4.628434    0.020062   -0.109250
  O      3.408247    0.319776    0.589224
  P      1.996645    0.401063   -0.140285
  S      2.058378    1.184741   -1.940730
  O      1.129802    1.140336    0.959811
  C      1.038538    2.574279    1.042384
  C      2.354440    3.209503    1.437116
  S      1.265823   -1.560561    0.048225
  C      0.121728   -1.642723   -1.370943
  S     -1.577857   -1.993554   -0.871895
  P     -2.026437   -0.106579   -0.002418
  S     -1.471449    1.445872   -1.056724
  O     -1.446024   -0.102429    1.458266
  C     -1.795719   -1.117108    2.440962
  C     -0.607440   -1.318655    3.357327
  O     -3.587254   -0.225164    0.265550
  C     -4.540372   -0.211890   -0.818061
  C     -5.914985    0.010318   -0.221330
  H      3.934489   -1.551111   -1.396712
  H      5.657674   -1.622213   -1.004114
  H      4.450951   -2.099749    0.205351
  H      4.726984    0.718695   -0.946440
  H      5.406207    0.212663    0.630925
  H      0.692405    2.955376    0.075301
  H      0.261535    2.740131    1.790664
  H      3.083891    3.078618    0.638838
  H      2.201561    4.271203    1.604045
  H      2.735832    2.748102    2.344263
  H      0.426918   -2.472481   -2.002965
  H      0.163375   -0.694450   -1.914082
  H     -2.667608   -0.747085    2.982697
  H     -2.057819   -2.040363    1.916148
  H      0.243956   -1.695201    2.795664
  H     -0.329103   -0.375902    3.819740
  H     -0.872907   -2.034810    4.128269
  H     -4.266408    0.589278   -1.512141
  H     -4.478394   -1.172044   -1.336915
  H     -6.147202   -0.785008    0.480666
  H     -5.945882    0.962623    0.300543
  H     -6.651508    0.014332   -1.017935

 Total Charge           Charge          ....    0
 Multiplicity           Mult            ....    1
 Number of Electrons    NEL             ....  202
 Basis Dimension        Dim             ....  539

ORBITAL ENERGIES
----------------

  NO   OCC          E(Eh)            E(eV)
   0   2.0000     -88.579426     -2410.3687
   1   2.0000     -88.576734     -2410.2955
   2   2.0000     -88.525295     -2408.8957
   3   2.0000     -88.524117     -2408.8637
   4   2.0000     -76.917254     -2093.0249
   5   2.0000     -76.916845     -2093.0137
   6   2.0000     -18.994740      -516.8731
   7   2.0000     -18.994596      -516.8692
   8   2.0000     -18.992260      -516.8057
   9   2.0000     -18.988416      -516.7011
  10   2.0000     -10.105343      -274.9804
  11   2.0000     -10.092100      -274.6200
  12   2.0000     -10.090709      -274.5822
  13   2.0000     -10.087991      -274.5082
  14   2.0000     -10.085678      -274.4453
  15   2.0000     -10.019804      -272.6527
  16   2.0000     -10.018733      -272.6236
  17   2.0000     -10.017250      -272.5832
  18   2.0000     -10.017222      -272.5825
  19   2.0000      -7.873853      -214.2584
  20   2.0000      -7.871508      -214.1946
  21   2.0000      -7.820267      -212.8003
  22   2.0000      -7.819259      -212.7729
  23   2.0000      -6.595925      -179.4843
  24   2.0000      -6.595335      -179.4682
  25   2.0000      -5.820672      -158.3885
  26   2.0000      -5.818339      -158.3251
  27   2.0000      -5.817484      -158.3018
  28   2.0000      -5.815404      -158.2452
  29   2.0000      -5.811230      -158.1316
  30   2.0000      -5.808529      -158.0581
  31   2.0000      -5.767848      -156.9511
  32   2.0000      -5.766951      -156.9267
  33   2.0000      -5.760764      -156.7584
  34   2.0000      -5.760085      -156.7399
  35   2.0000      -5.759429      -156.7220
  36   2.0000      -5.759261      -156.7175
  37   2.0000      -4.741704      -129.0283
  38   2.0000      -4.740969      -129.0083
  39   2.0000      -4.740617      -128.9987
  40   2.0000      -4.740146      -128.9859
  41   2.0000      -4.739416      -128.9661
  42   2.0000      -4.739312      -128.9632
  43   2.0000      -1.054249       -28.6876
  44   2.0000      -1.049712       -28.5641
  45   2.0000      -1.012014       -27.5383
  46   2.0000      -1.009320       -27.4650
  47   2.0000      -0.801491       -21.8097
  48   2.0000      -0.756568       -20.5872
  49   2.0000      -0.744635       -20.2625
  50   2.0000      -0.726581       -19.7713
  51   2.0000      -0.722093       -19.6491
  52   2.0000      -0.709869       -19.3165
  53   2.0000      -0.687680       -18.7127
  54   2.0000      -0.669965       -18.2307
  55   2.0000      -0.630965       -17.1694
  56   2.0000      -0.609884       -16.5958
  57   2.0000      -0.597912       -16.2700
  58   2.0000      -0.596954       -16.2440
  59   2.0000      -0.592959       -16.1352
  60   2.0000      -0.532848       -14.4995
  61   2.0000      -0.512470       -13.9450
  62   2.0000      -0.498427       -13.5629
  63   2.0000      -0.486687       -13.2434
  64   2.0000      -0.469614       -12.7789
  65   2.0000      -0.465723       -12.6730
  66   2.0000      -0.451885       -12.2964
  67   2.0000      -0.449708       -12.2372
  68   2.0000      -0.445440       -12.1210
  69   2.0000      -0.432446       -11.7674
  70   2.0000      -0.422674       -11.5015
  71   2.0000      -0.407813       -11.0972
  72   2.0000      -0.402952       -10.9649
  73   2.0000      -0.400697       -10.9035
  74   2.0000      -0.395570       -10.7640
  75   2.0000      -0.385704       -10.4955
  76   2.0000      -0.377533       -10.2732
  77   2.0000      -0.364033        -9.9058
  78   2.0000      -0.363519        -9.8918
  79   2.0000      -0.355579        -9.6758
  80   2.0000      -0.354521        -9.6470
  81   2.0000      -0.352311        -9.5869
  82   2.0000      -0.348828        -9.4921
  83   2.0000      -0.348176        -9.4744
  84   2.0000      -0.343532        -9.3480
  85   2.0000      -0.324405        -8.8275
  86   2.0000      -0.319991        -8.7074
  87   2.0000      -0.316076        -8.6009
  88   2.0000      -0.313293        -8.5251
  89   2.0000      -0.303199        -8.2505
  90   2.0000      -0.295024        -8.0280
  91   2.0000      -0.286615        -7.7992
  92   2.0000      -0.282423        -7.6851
  93   2.0000      -0.278991        -7.5917
  94   2.0000      -0.273207        -7.4343
  95   2.0000      -0.253495        -6.8979
  96   2.0000      -0.238920        -6.5014
  97   2.0000      -0.237799        -6.4708
  98   2.0000      -0.226397        -6.1606
  99   2.0000      -0.214125        -5.8266
 100   2.0000      -0.209844        -5.7101
 101   0.0000      -0.046588        -1.2677
 102   0.0000      -0.037585        -1.0227
 103   0.0000      -0.011485        -0.3125
 104   0.0000       0.010143         0.2760
 105   0.0000       0.013629         0.3709

MULLIKEN ATOMIC CHARGES
-----------------------
   0 C :   -0.479638
   1 C :   -0.157644
   2 O :   -0.326136
   3 P :    0.687753
   4 S :   -0.517413
   5 O :   -0.285571
   6 C :   -0.160134
   7 C :   -0.492133
   8 S :   -0.124842
   9 C :   -0.222115
  10 S :   -0.176659
  11 P :    0.691643
  12 S :   -0.477240
  13 O :   -0.294049
  14 C :   -0.093532
  15 C :   -0.506945
  16 O :   -0.314795
  17 C :   -0.152808
  18 C :   -0.480154
  19 H :    0.172109
  20 H :    0.171151
  21 H :    0.166052
  22 H :    0.176914
  23 H :    0.173810
  24 H :    0.181530
  25 H :    0.178127
  26 H :    0.168153
  27 H :    0.170647
  28 H :    0.169407
  29 H :    0.238052
  30 H :    0.212289
  31 H :    0.177421
  32 H :    0.170793
  33 H :    0.170804
  34 H :    0.170572
  35 H :    0.170209
  36 H :    0.174002
  37 H :    0.168482
  38 H :    0.165909
  39 H :    0.166380
  40 H :    0.169599
Sum of atomic charges:   -0.0000000

LOEWDIN ATOMIC CHARGES
----------------------
   0 C :   -0.410795
   1 C :    0.023275
   2 O :   -0.680199
   3 P :    0.377608
   4 S :   -0.160092
   5 O :   -0.687897
   6 C :    0.012381
   7 C :   -0.402733
   8 S :    0.174338
   9 C :   -0.407538
  10 S :    0.129837
  11 P :    0.373060
  12 S :   -0.112962
  13 O :   -0.667835
  14 C :    0.031378
  15 C :   -0.396078
  16 O :   -0.679658
  17 C :    0.024483
  18 C :   -0.388845
  19 H :    0.161183
  20 H :    0.167175
  21 H :    0.163168
  22 H :    0.181080
  23 H :    0.190010
  24 H :    0.183383
  25 H :    0.190291
  26 H :    0.162868
  27 H :    0.167923
  28 H :    0.164190
  29 H :    0.196634
  30 H :    0.199821
  31 H :    0.185140
  32 H :    0.182106
  33 H :    0.163383
  34 H :    0.164624
  35 H :    0.168919
  36 H :    0.181521
  37 H :    0.179241
  38 H :    0.163216
  39 H :    0.163318
  40 H :    0.169076

  Mayer bond orders larger than 0.100000
B(  0-C ,  1-C ) :   0.9104 B(  0-C , 19-H ) :   0.9658 B(  0-C , 20-H ) :   0.9543
B(  0-C , 21-H ) :   0.9653 B(  1-C ,  2-O ) :   0.8094 B(  1-C , 22-H ) :   0.9653
B(  1-C , 23-H ) :   0.9495 B(  2-O ,  3-P ) :   1.0617 B(  3-P ,  4-S ) :   1.7053
B(  3-P ,  5-O ) :   1.1537 B(  3-P ,  8-S ) :   1.1498 B(  5-O ,  6-C ) :   0.7855
B(  6-C ,  7-C ) :   0.9048 B(  6-C , 24-H ) :   0.9583 B(  6-C , 25-H ) :   0.9529
B(  7-C , 26-H ) :   0.9621 B(  7-C , 27-H ) :   0.9548 B(  7-C , 28-H ) :   0.9722
B(  8-S ,  9-C ) :   0.8832 B(  9-C , 10-S ) :   0.9105 B(  9-C , 29-H ) :   0.8976
B(  9-C , 30-H ) :   0.9104 B( 10-S , 11-P ) :   1.0095 B( 11-P , 12-S ) :   1.8042
B( 11-P , 13-O ) :   1.1486 B( 11-P , 16-O ) :   1.0630 B( 13-O , 14-C ) :   0.7316
B( 14-C , 15-C ) :   0.9423 B( 14-C , 31-H ) :   0.9363 B( 14-C , 32-H ) :   0.9485
B( 15-C , 33-H ) :   0.9645 B( 15-C , 34-H ) :   0.9686 B( 15-C , 35-H ) :   0.9579
B( 16-O , 17-C ) :   0.7809 B( 17-C , 18-C ) :   0.9548 B( 17-C , 36-H ) :   0.9479
B( 17-C , 37-H ) :   0.9331 B( 18-C , 38-H ) :   0.9683 B( 18-C , 39-H ) :   0.9690
B( 18-C , 40-H ) :   0.9579

Dispersion correction           -0.022059972
FINAL SINGLE POINT ENERGY     -2932.470051488565

DIPOLE MOMENT
-------------

Method             : SCF
Type of density    : Electron Density
Multiplicity       :   1
Irrep              :   0
Energy             : -2932.4945183584823098 Eh
Relativity type    :
Basis              : AO
                                X                 Y                 Z
Electronic contribution:     -0.926613106      -2.212810201     -10.752625827
Nuclear contribution   :      0.545094799       0.719121304      12.090487214
                        -----------------------------------------
Total Dipole Moment    :     -0.381518307      -1.493688897       1.337861387
                        -----------------------------------------
Magnitude (a.u.)       :      2.041209404
Magnitude (Debye)      :      5.188341981

Rotational constants in cm-1:             0.013008             0.005136             0.004985
Rotational constants in MHz :           389.982842           153.958527           149.433971

                             ****ORCA TERMINATED NORMALLY****
TOTAL RUN TIME: 0 days 0 hours 1 minutes 51 seconds 87 msec
