                         Program Version 6.0.0  -   RELEASE  -
|  1> ! pbe def2-sv(p) def2/J RI DEFGRID1 loosescf d4 GCP(DFT/SV(P)) printgap
|  2> %output
|  3>     printlevel normal
|  4> end
|  5> * xyz 0 1
|  6> C 3.0640591486 0.5993718625 3.1258974459
|  7> C 1.6604809476 0.2482271903 2.6813460681
|  8> O 1.4676019334 0.5153162962 1.2736630807
|  9> P 2.1946867207 -0.3451613279 0.1635864683
| 10> S 2.5839373893 -2.2149569924 0.6182516799
| 11> O 3.4610097725 0.5533501536 -0.1639688439
| 12> C 4.4901220786 0.1100752962 -1.0714686399
| 13> C 5.7449832354 0.9084742729 -0.7805218239
| 14> S 0.9389024183 -0.040168937 -1.5109242437
| 15> C -0.1652900766 -1.4423856213 -1.1821641424
| 16> S -1.2003201455 -1.1955746304 0.2769829644
| 17> P -2.3875559818 0.3786067459 -0.5556694611
| 18> S -2.7642379532 0.2474272372 -2.4673142598
| 19> O -1.6211119104 1.7079583621 -0.1910601758
| 20> C -1.3496225368 2.1209287248 1.1702027994
| 21> C -2.3553830705 3.1594631245 1.6217639675
| 22> O -3.6526124152 0.4359666815 0.4050997711
| 23> C -4.8332995939 -0.3567470947 0.1785931367
| 24> C -4.5708332117 -1.8417059231 0.3203921651
| 25> H 3.7801215839 -0.0586147671 2.6348865884
| 26> H 3.2955987897 1.6283310766 2.8640279855
| 27> H 3.1453298811 0.4699841579 4.2005264896
| 28> H 0.9111503493 0.8699373857 3.1725808464
| 29> H 1.4464929847 -0.8094109646 2.864934302
| 30> H 4.6522334497 -0.9625644682 -0.9190543024
| 31> H 4.1377683379 0.276310938 -2.0931394316
| 32> H 6.5223614784 0.6151846449 -1.4783052334
| 33> H 5.5420529521 1.9695823962 -0.8922944507
| 34> H 6.0840535093 0.718925788 0.2339726412
| 35> H 0.4286237973 -2.3383887859 -1.0012213261
| 36> H -0.7980137254 -1.5501344517 -2.0631544091
| 37> H -1.3707519091 1.2390663129 1.8170239888
| 38> H -0.3369750326 2.528466835 1.1365069374
| 39> H -3.3529986685 2.7294412514 1.6489520725
| 40> H -2.0865302197 3.5072445914 2.6143037751
| 41> H -2.354113912 4.0001592569 0.9334925487
| 42> H -5.5340362692 0.0013445063 0.9341387199
| 43> H -5.2129388054 -0.1275278274 -0.8215619302
| 44> H -4.0803402435 -2.0529493328 1.2673897789
| 45> H -5.5138918276 -2.3768426951 0.2751112757
| 46> H -3.9318171688 -2.1869700651 -0.4908938281
| 47> *
| 48>
| 49>                          ****END OF INPUT****

CARTESIAN COORDINATES (ANGSTROEM)
---------------------------------
  C      3.064059    0.599372    3.125897
  C      1.660481    0.248227    2.681346
  O      1.467602    0.515316    1.273663
  P      2.194687   -0.345161    0.163586
  S      2.583937   -2.214957    0.618252
  O      3.461010    0.553350   -0.163969
  C      4.490122    0.110075   -1.071469
  C      5.744983    0.908474   -0.780522
  S      0.938902   -0.040169   -1.510924
  C     -0.165290   -1.442386   -1.182164
  S     -1.200320   -1.195575    0.276983
  P     -2.387556    0.378607   -0.555669
  S     -2.764238    0.247427   -2.467314
  O     -1.621112    1.707958   -0.191060
  C     -1.349623    2.120929    1.170203
  C     -2.355383    3.159463    1.621764
  O     -3.652612    0.435967    0.405100
  C     -4.833300   -0.356747    0.178593
  C     -4.570833   -1.841706    0.320392
  H      3.780122   -0.058615    2.634887
  H      3.295599    1.628331    2.864028
  H      3.145330    0.469984    4.200526
  H      0.911150    0.869937    3.172581
  H      1.446493   -0.809411    2.864934
  H      4.652233   -0.962564   -0.919054
  H      4.137768    0.276311   -2.093139
  H      6.522361    0.615185   -1.478305
  H      5.542053    1.969582   -0.892294
  H      6.084054    0.718926    0.233973
  H      0.428624   -2.338389   -1.001221
  H     -0.798014   -1.550134   -2.063154
  H     -1.370752    1.239066    1.817024
  H     -0.336975    2.528467    1.136507
  H     -3.352999    2.729441    1.648952
  H     -2.086530    3.507245    2.614304
  H     -2.354114    4.000159    0.933493
  H     -5.534036    0.001345    0.934139
  H     -5.212939   -0.127528   -0.821562
  H     -4.080340   -2.052949    1.267390
  H     -5.513892   -2.376843    0.275111
  H     -3.931817   -2.186970   -0.490894

 Total Charge           Charge          ....    0
 Multiplicity           Mult            ....    1
 Number of Electrons    NEL             ....  202
 Basis Dimension        Dim             ....  334

ORBITAL ENERGIES
----------------

  NO   OCC          E(Eh)            E(eV)
   0   2.0000     -88.039566     -2395.6784
   1   2.0000     -88.039494     -2395.6764
   2   2.0000     -87.990644     -2394.3471
   3   2.0000     -87.986043     -2394.2220
   4   2.0000     -76.427621     -2079.7013
   5   2.0000     -76.425604     -2079.6464
   6   2.0000     -18.796964      -511.4914
   7   2.0000     -18.796500      -511.4788
   8   2.0000     -18.794912      -511.4355
   9   2.0000     -18.788073      -511.2495
  10   2.0000      -9.955788      -270.9108
  11   2.0000      -9.955414      -270.9006
  12   2.0000      -9.955125      -270.8927
  13   2.0000      -9.952009      -270.8079
  14   2.0000      -9.950020      -270.7538
  15   2.0000      -9.890578      -269.1363
  16   2.0000      -9.887529      -269.0534
  17   2.0000      -9.884857      -268.9806
  18   2.0000      -9.884827      -268.9798
  19   2.0000      -7.684792      -209.1138
  20   2.0000      -7.684319      -209.1009
  21   2.0000      -7.635569      -207.7744
  22   2.0000      -7.631358      -207.6598
  23   2.0000      -6.425495      -174.8466
  24   2.0000      -6.423085      -174.7810
  25   2.0000      -5.712607      -155.4479
  26   2.0000      -5.712051      -155.4328
  27   2.0000      -5.709441      -155.3618
  28   2.0000      -5.708975      -155.3491
  29   2.0000      -5.701659      -155.1500
  30   2.0000      -5.701339      -155.1413
  31   2.0000      -5.664290      -154.1332
  32   2.0000      -5.660310      -154.0249
  33   2.0000      -5.656226      -153.9137
  34   2.0000      -5.655906      -153.9050
  35   2.0000      -5.651845      -153.7945
  36   2.0000      -5.651570      -153.7870
  37   2.0000      -4.647894      -126.4756
  38   2.0000      -4.647262      -126.4584
  39   2.0000      -4.646032      -126.4250
  40   2.0000      -4.646024      -126.4247
  41   2.0000      -4.644699      -126.3887
  42   2.0000      -4.643363      -126.3523
  43   2.0000      -0.990880       -26.9632
  44   2.0000      -0.988516       -26.8989
  45   2.0000      -0.950004       -25.8509
  46   2.0000      -0.944750       -25.7080
  47   2.0000      -0.762966       -20.7614
  48   2.0000      -0.722367       -19.6566
  49   2.0000      -0.710389       -19.3307
  50   2.0000      -0.691964       -18.8293
  51   2.0000      -0.690683       -18.7945
  52   2.0000      -0.674480       -18.3535
  53   2.0000      -0.650784       -17.7087
  54   2.0000      -0.638275       -17.3683
  55   2.0000      -0.602215       -16.3871
  56   2.0000      -0.593812       -16.1585
  57   2.0000      -0.573804       -15.6140
  58   2.0000      -0.568577       -15.4718
  59   2.0000      -0.560719       -15.2579
  60   2.0000      -0.507604       -13.8126
  61   2.0000      -0.498425       -13.5628
  62   2.0000      -0.480999       -13.0887
  63   2.0000      -0.474639       -12.9156
  64   2.0000      -0.458738       -12.4829
  65   2.0000      -0.449595       -12.2341
  66   2.0000      -0.441289       -12.0081
  67   2.0000      -0.436663       -11.8822
  68   2.0000      -0.426824       -11.6145
  69   2.0000      -0.419993       -11.4286
  70   2.0000      -0.408855       -11.1255
  71   2.0000      -0.398840       -10.8530
  72   2.0000      -0.392002       -10.6669
  73   2.0000      -0.383110       -10.4249
  74   2.0000      -0.378644       -10.3034
  75   2.0000      -0.374657       -10.1949
  76   2.0000      -0.368309       -10.0222
  77   2.0000      -0.360997        -9.8232
  78   2.0000      -0.359749        -9.7893
  79   2.0000      -0.353285        -9.6134
  80   2.0000      -0.350378        -9.5343
  81   2.0000      -0.347121        -9.4456
  82   2.0000      -0.344566        -9.3761
  83   2.0000      -0.342680        -9.3248
  84   2.0000      -0.335371        -9.1259
  85   2.0000      -0.322409        -8.7732
  86   2.0000      -0.311930        -8.4881
  87   2.0000      -0.302863        -8.2413
  88   2.0000      -0.297458        -8.0942
  89   2.0000      -0.294005        -8.0003
  90   2.0000      -0.288857        -7.8602
  91   2.0000      -0.279696        -7.6109
  92   2.0000      -0.268602        -7.3090
  93   2.0000      -0.264651        -7.2015
  94   2.0000      -0.258470        -7.0333
  95   2.0000      -0.233136        -6.3440
  96   2.0000      -0.217309        -5.9133
  97   2.0000      -0.214329        -5.8322
  98   2.0000      -0.206031        -5.6064
  99   2.0000      -0.201852        -5.4927
 100   2.0000      -0.200628        -5.4594
 101   0.0000      -0.043030        -1.1709
 102   0.0000      -0.022395        -0.6094
 103   0.0000      -0.000504        -0.0137
 104   0.0000       0.002210         0.0601
 105   0.0000       0.012523         0.3408

MULLIKEN ATOMIC CHARGES
-----------------------
   0 C :   -0.304139
   1 C :   -0.009183
   2 O :   -0.358956
   3 P :    0.612408
   4 S :   -0.339786
   5 O :   -0.375697
   6 C :   -0.012796
   7 C :   -0.282350
   8 S :   -0.064510
   9 C :   -0.376815
  10 S :   -0.090665
  11 P :    0.601976
  12 S :   -0.313784
  13 O :   -0.347871
  14 C :   -0.024803
  15 C :   -0.281110
  16 O :   -0.383446
  17 C :   -0.000958
  18 C :   -0.316146
  19 H :    0.124797
  20 H :    0.116181
  21 H :    0.112652
  22 H :    0.101907
  23 H :    0.115796
  24 H :    0.107334
  25 H :    0.106675
  26 H :    0.113714
  27 H :    0.118538
  28 H :    0.118830
  29 H :    0.193976
  30 H :    0.193512
  31 H :    0.104603
  32 H :    0.118204
  33 H :    0.117527
  34 H :    0.105171
  35 H :    0.119744
  36 H :    0.104511
  37 H :    0.114265
  38 H :    0.117779
  39 H :    0.114124
  40 H :    0.128789
Sum of atomic charges:   -0.0000000

LOEWDIN ATOMIC CHARGES
----------------------
   0 C :   -0.364923
   1 C :   -0.116915
   2 O :   -0.235258
   3 P :    0.571426
   4 S :   -0.324222
   5 O :   -0.246671
   6 C :   -0.119938
   7 C :   -0.350232
   8 S :    0.090916
   9 C :   -0.488000
  10 S :    0.074978
  11 P :    0.573388
  12 S :   -0.308366
  13 O :   -0.231205
  14 C :   -0.115681
  15 C :   -0.358305
  16 O :   -0.248622
  17 C :   -0.115904
  18 C :   -0.370885
  19 H :    0.122511
  20 H :    0.126232
  21 H :    0.130937
  22 H :    0.114030
  23 H :    0.112290
  24 H :    0.108719
  25 H :    0.112379
  26 H :    0.131777
  27 H :    0.127806
  28 H :    0.127518
  29 H :    0.128509
  30 H :    0.128433
  31 H :    0.102508
  32 H :    0.120482
  33 H :    0.125030
  34 H :    0.127313
  35 H :    0.128913
  36 H :    0.118194
  37 H :    0.113866
  38 H :    0.123345
  39 H :    0.131630
  40 H :    0.121994

  Mayer bond orders larger than 0.100000
B(  0-C ,  1-C ) :   1.1657 B(  0-C , 19-H ) :   0.9335 B(  0-C , 20-H ) :   0.9459
B(  0-C , 21-H ) :   0.9384 B(  1-C ,  2-O ) :   0.9011 B(  1-C , 22-H ) :   0.9296
B(  1-C , 23-H ) :   0.9159 B(  2-O ,  3-P ) :   1.1232 B(  3-P ,  4-S ) :   1.5939
B(  3-P ,  5-O ) :   1.1119 B(  3-P ,  8-S ) :   0.9732 B(  4-S ,  8-S ) :   0.1101
B(  5-O ,  6-C ) :   0.9015 B(  6-C ,  7-C ) :   1.1612 B(  6-C , 24-H ) :   0.9092
B(  6-C , 25-H ) :   0.9294 B(  7-C , 26-H ) :   0.9417 B(  7-C , 27-H ) :   0.9502
B(  7-C , 28-H ) :   0.9514 B(  8-S ,  9-C ) :   1.0041 B(  9-C , 10-S ) :   1.0065
B(  9-C , 29-H ) :   0.8747 B(  9-C , 30-H ) :   0.8752 B( 10-S , 11-P ) :   0.9429
B( 10-S , 12-S ) :   0.1092 B( 11-P , 12-S ) :   1.6343 B( 11-P , 13-O ) :   1.1442
B( 11-P , 16-O ) :   1.0796 B( 13-O , 14-C ) :   0.8924 B( 14-C , 15-C ) :   1.1560
B( 14-C , 31-H ) :   0.9114 B( 14-C , 32-H ) :   0.9298 B( 15-C , 33-H ) :   0.9427
B( 15-C , 34-H ) :   0.9409 B( 15-C , 35-H ) :   0.9466 B( 16-O , 17-C ) :   0.9049
B( 17-C , 18-C ) :   1.1667 B( 17-C , 36-H ) :   0.9342 B( 17-C , 37-H ) :   0.9191
B( 18-C , 38-H ) :   0.9433 B( 18-C , 39-H ) :   0.9366 B( 18-C , 40-H ) :   0.9345

Dispersion correction           -0.064854284
FINAL SINGLE POINT ENERGY     -2929.525322086112

DIPOLE MOMENT
-------------

Method             : SCF
Type of density    : Electron Density
Multiplicity       :   1
Irrep              :   0
Energy             : -2929.6456222286283264 Eh
Relativity type    :
Basis              : AO
                                X                 Y                 Z
Electronic contribution:     -5.009593568      -7.193439872     -14.930092818
Nuclear contribution   :      5.221157955       7.700771374      16.256323445
                        -----------------------------------------
Total Dipole Moment    :      0.211564386       0.507331502       1.326230627
                        -----------------------------------------
Magnitude (a.u.)       :      1.435629625
Magnitude (Debye)      :      3.649080508

Rotational constants in cm-1:             0.013201             0.004625             0.004385
Rotational constants in MHz :           395.743293           138.668198           131.461254

                             ****ORCA TERMINATED NORMALLY****
TOTAL RUN TIME: 0 days 0 hours 0 minutes 21 seconds 77 msec
