                         Program Version 6.0.0  -   RELEASE  -
|  1> ! pbe def2-sv(p) def2/J RI DEFGRID1 loosescf d4 GCP(DFT/SV(P)) printgap
|  2> %output
|  3>     printlevel normal
|  4> end
|  5> * xyz 0 1
|  6> C 4.1508524751 -1.4648308808 -2.3832663519
|  7> C 4.3784788509 -1.6161525435 -0.893210977
|  8> O 3.1423217345 -1.638055398 -0.1582774285
|  9> P 2.2061050458 -0.3586854768 -0.0220486196
| 10> S 3.1820984351 1.3280626506 0.2150846833
| 11> O 1.2590738544 -0.8127735052 1.1645059018
| 12> C 1.6069738726 -0.6143207782 2.5554648658
| 13> C 0.608703316 0.3284309402 3.1971413978
| 14> S 0.8476446404 -0.5120136466 -1.6296020334
| 15> C 0.2881961371 1.2150114596 -1.6013577054
| 16> S -0.5250903969 1.6696601478 -0.0556651501
| 17> P -2.2396571866 0.4064991695 -0.2623324217
| 18> S -2.8298696142 0.0415827891 -2.0859313179
| 19> O -3.321326732 1.1695581147 0.5883597385
| 20> C -3.1208167006 1.5717416277 1.9691961813
| 21> C -4.1540385488 2.629606115 2.2938543349
| 22> O -1.9310992311 -0.8768164843 0.6359756595
| 23> C -1.6159357027 -2.1828007376 0.1239730486
| 24> C -2.620298483 -3.1803692244 0.6663227146
| 25> H 3.7367545075 -0.4804525413 -2.5984218682
| 26> H 5.0969895885 -1.5694984349 -2.9044640807
| 27> H 3.4556990907 -2.2212626523 -2.7389090412
| 28> H 4.9914835019 -0.7930938627 -0.5121198412
| 29> H 4.8447979613 -2.5717629315 -0.650384938
| 30> H 1.5762510184 -1.6051304396 3.0120404819
| 31> H 2.6226798826 -0.2126602196 2.6187366376
| 32> H 0.8127374737 0.3977155168 4.2605664748
| 33> H 0.6892536351 1.3173154454 2.7507782833
| 34> H -0.4010443581 -0.0441517226 3.0448558438
| 35> H -0.4075980442 1.3242316054 -2.4327902922
| 36> H 1.144811331 1.8801794678 -1.7034766316
| 37> H -3.2397709166 0.6857873665 2.5957744975
| 38> H -2.1045198065 1.9612847619 2.0745021855
| 39> H -5.1535291977 2.2327626878 2.1413437678
| 40> H -4.039613836 2.9325125465 3.3295742993
| 41> H -4.0192022179 3.4934810718 1.6492993078
| 42> H -1.6445265073 -2.1562242334 -0.9705422827
| 43> H -0.5998900571 -2.4126655103 0.4534175855
| 44> H -2.3594470344 -4.172900788 0.3136482832
| 45> H -2.6124707671 -3.1701814042 1.7524334277
| 46> H -3.6185976898 -2.9283814363 0.3163565026
| 47> *
| 48>
| 49>                          ****END OF INPUT****

CARTESIAN COORDINATES (ANGSTROEM)
---------------------------------
  C      4.150852   -1.464831   -2.383266
  C      4.378479   -1.616153   -0.893211
  O      3.142322   -1.638055   -0.158277
  P      2.206105   -0.358685   -0.022049
  S      3.182098    1.328063    0.215085
  O      1.259074   -0.812774    1.164506
  C      1.606974   -0.614321    2.555465
  C      0.608703    0.328431    3.197141
  S      0.847645   -0.512014   -1.629602
  C      0.288196    1.215011   -1.601358
  S     -0.525090    1.669660   -0.055665
  P     -2.239657    0.406499   -0.262332
  S     -2.829870    0.041583   -2.085931
  O     -3.321327    1.169558    0.588360
  C     -3.120817    1.571742    1.969196
  C     -4.154039    2.629606    2.293854
  O     -1.931099   -0.876816    0.635976
  C     -1.615936   -2.182801    0.123973
  C     -2.620298   -3.180369    0.666323
  H      3.736755   -0.480453   -2.598422
  H      5.096990   -1.569498   -2.904464
  H      3.455699   -2.221263   -2.738909
  H      4.991484   -0.793094   -0.512120
  H      4.844798   -2.571763   -0.650385
  H      1.576251   -1.605130    3.012040
  H      2.622680   -0.212660    2.618737
  H      0.812737    0.397716    4.260566
  H      0.689254    1.317315    2.750778
  H     -0.401044   -0.044152    3.044856
  H     -0.407598    1.324232   -2.432790
  H      1.144811    1.880179   -1.703477
  H     -3.239771    0.685787    2.595774
  H     -2.104520    1.961285    2.074502
  H     -5.153529    2.232763    2.141344
  H     -4.039614    2.932513    3.329574
  H     -4.019202    3.493481    1.649299
  H     -1.644527   -2.156224   -0.970542
  H     -0.599890   -2.412666    0.453418
  H     -2.359447   -4.172901    0.313648
  H     -2.612471   -3.170181    1.752433
  H     -3.618598   -2.928381    0.316357

 Total Charge           Charge          ....    0
 Multiplicity           Mult            ....    1
 Number of Electrons    NEL             ....  202
 Basis Dimension        Dim             ....  334

ORBITAL ENERGIES
----------------

  NO   OCC          E(Eh)            E(eV)
   0   2.0000     -88.046329     -2395.8624
   1   2.0000     -88.038805     -2395.6577
   2   2.0000     -87.992434     -2394.3959
   3   2.0000     -87.986458     -2394.2333
   4   2.0000     -76.429530     -2079.7532
   5   2.0000     -76.425078     -2079.6321
   6   2.0000     -18.795215      -511.4438
   7   2.0000     -18.794541      -511.4255
   8   2.0000     -18.791716      -511.3486
   9   2.0000     -18.787286      -511.2280
  10   2.0000      -9.962195      -271.0851
  11   2.0000      -9.955061      -270.8910
  12   2.0000      -9.955018      -270.8898
  13   2.0000      -9.954064      -270.8638
  14   2.0000      -9.941941      -270.5340
  15   2.0000      -9.892027      -269.1757
  16   2.0000      -9.885767      -269.0054
  17   2.0000      -9.884772      -268.9783
  18   2.0000      -9.881261      -268.8828
  19   2.0000      -7.691099      -209.2855
  20   2.0000      -7.683605      -209.0815
  21   2.0000      -7.637370      -207.8234
  22   2.0000      -7.631726      -207.6698
  23   2.0000      -6.427069      -174.8894
  24   2.0000      -6.422700      -174.7705
  25   2.0000      -5.718961      -155.6209
  26   2.0000      -5.715750      -155.5335
  27   2.0000      -5.711467      -155.4169
  28   2.0000      -5.708183      -155.3276
  29   2.0000      -5.707947      -155.3211
  30   2.0000      -5.700537      -155.1195
  31   2.0000      -5.666179      -154.1846
  32   2.0000      -5.660719      -154.0360
  33   2.0000      -5.658161      -153.9664
  34   2.0000      -5.657509      -153.9486
  35   2.0000      -5.652250      -153.8055
  36   2.0000      -5.651844      -153.7945
  37   2.0000      -4.649542      -126.5205
  38   2.0000      -4.648801      -126.5003
  39   2.0000      -4.647644      -126.4688
  40   2.0000      -4.645488      -126.4101
  41   2.0000      -4.644277      -126.3772
  42   2.0000      -4.643149      -126.3465
  43   2.0000      -0.988796       -26.9065
  44   2.0000      -0.985946       -26.8290
  45   2.0000      -0.946771       -25.7630
  46   2.0000      -0.941598       -25.6222
  47   2.0000      -0.765968       -20.8430
  48   2.0000      -0.724277       -19.7086
  49   2.0000      -0.713002       -19.4018
  50   2.0000      -0.689510       -18.7625
  51   2.0000      -0.687500       -18.7078
  52   2.0000      -0.673785       -18.3346
  53   2.0000      -0.651318       -17.7233
  54   2.0000      -0.641075       -17.4445
  55   2.0000      -0.601215       -16.3599
  56   2.0000      -0.583811       -15.8863
  57   2.0000      -0.576594       -15.6899
  58   2.0000      -0.573027       -15.5929
  59   2.0000      -0.560268       -15.2457
  60   2.0000      -0.509113       -13.8537
  61   2.0000      -0.502050       -13.6615
  62   2.0000      -0.482242       -13.1225
  63   2.0000      -0.473445       -12.8831
  64   2.0000      -0.460934       -12.5427
  65   2.0000      -0.444832       -12.1045
  66   2.0000      -0.444098       -12.0845
  67   2.0000      -0.435664       -11.8550
  68   2.0000      -0.428513       -11.6604
  69   2.0000      -0.415914       -11.3176
  70   2.0000      -0.403059       -10.9678
  71   2.0000      -0.395627       -10.7656
  72   2.0000      -0.393323       -10.7029
  73   2.0000      -0.386549       -10.5185
  74   2.0000      -0.379811       -10.3352
  75   2.0000      -0.376398       -10.2423
  76   2.0000      -0.368206       -10.0194
  77   2.0000      -0.358407        -9.7527
  78   2.0000      -0.356647        -9.7049
  79   2.0000      -0.354794        -9.6544
  80   2.0000      -0.348423        -9.4811
  81   2.0000      -0.346485        -9.4283
  82   2.0000      -0.342089        -9.3087
  83   2.0000      -0.339995        -9.2517
  84   2.0000      -0.337604        -9.1867
  85   2.0000      -0.317810        -8.6480
  86   2.0000      -0.312846        -8.5130
  87   2.0000      -0.302910        -8.2426
  88   2.0000      -0.298697        -8.1280
  89   2.0000      -0.289520        -7.8782
  90   2.0000      -0.287942        -7.8353
  91   2.0000      -0.280930        -7.6445
  92   2.0000      -0.272675        -7.4199
  93   2.0000      -0.266372        -7.2484
  94   2.0000      -0.254809        -6.9337
  95   2.0000      -0.234577        -6.3832
  96   2.0000      -0.217375        -5.9151
  97   2.0000      -0.213461        -5.8086
  98   2.0000      -0.209471        -5.7000
  99   2.0000      -0.203085        -5.5262
 100   2.0000      -0.198919        -5.4129
 101   0.0000      -0.047951        -1.3048
 102   0.0000      -0.027310        -0.7432
 103   0.0000      -0.005109        -0.1390
 104   0.0000       0.002234         0.0608
 105   0.0000       0.005819         0.1583

MULLIKEN ATOMIC CHARGES
-----------------------
   0 C :   -0.315338
   1 C :   -0.004320
   2 O :   -0.373583
   3 P :    0.611610
   4 S :   -0.333843
   5 O :   -0.361892
   6 C :   -0.001034
   7 C :   -0.304094
   8 S :   -0.078343
   9 C :   -0.344837
  10 S :   -0.115626
  11 P :    0.624677
  12 S :   -0.312113
  13 O :   -0.363937
  14 C :   -0.039698
  15 C :   -0.271977
  16 O :   -0.388434
  17 C :   -0.022521
  18 C :   -0.274793
  19 H :    0.125913
  20 H :    0.114093
  21 H :    0.118710
  22 H :    0.111618
  23 H :    0.105290
  24 H :    0.104824
  25 H :    0.104775
  26 H :    0.105980
  27 H :    0.131297
  28 H :    0.119478
  29 H :    0.193586
  30 H :    0.189874
  31 H :    0.114349
  32 H :    0.122094
  33 H :    0.123798
  34 H :    0.111578
  35 H :    0.123562
  36 H :    0.112132
  37 H :    0.108238
  38 H :    0.107955
  39 H :    0.106572
  40 H :    0.114378
Sum of atomic charges:    0.0000000

LOEWDIN ATOMIC CHARGES
----------------------
   0 C :   -0.368841
   1 C :   -0.119989
   2 O :   -0.248096
   3 P :    0.569984
   4 S :   -0.325191
   5 O :   -0.237556
   6 C :   -0.111516
   7 C :   -0.361425
   8 S :    0.105386
   9 C :   -0.479322
  10 S :    0.072500
  11 P :    0.570782
  12 S :   -0.304851
  13 O :   -0.241217
  14 C :   -0.113142
  15 C :   -0.348741
  16 O :   -0.249202
  17 C :   -0.128300
  18 C :   -0.354054
  19 H :    0.120851
  20 H :    0.131516
  21 H :    0.124909
  22 H :    0.110361
  23 H :    0.118766
  24 H :    0.116351
  25 H :    0.108588
  26 H :    0.127105
  27 H :    0.125060
  28 H :    0.122697
  29 H :    0.131375
  30 H :    0.131277
  31 H :    0.115846
  32 H :    0.107411
  33 H :    0.131217
  34 H :    0.130920
  35 H :    0.131391
  36 H :    0.102780
  37 H :    0.108257
  38 H :    0.128986
  39 H :    0.121224
  40 H :    0.125900

  Mayer bond orders larger than 0.100000
B(  0-C ,  1-C ) :   1.1645 B(  0-C , 19-H ) :   0.9358 B(  0-C , 20-H ) :   0.9380
B(  0-C , 21-H ) :   0.9450 B(  1-C ,  2-O ) :   0.9094 B(  1-C , 22-H ) :   0.9154
B(  1-C , 23-H ) :   0.9337 B(  2-O ,  3-P ) :   1.1124 B(  3-P ,  4-S ) :   1.5892
B(  3-P ,  5-O ) :   1.1194 B(  3-P ,  8-S ) :   0.9604 B(  4-S ,  8-S ) :   0.1088
B(  5-O ,  6-C ) :   0.8926 B(  6-C ,  7-C ) :   1.1713 B(  6-C , 24-H ) :   0.9341
B(  6-C , 25-H ) :   0.9085 B(  7-C , 26-H ) :   0.9382 B(  7-C , 27-H ) :   0.9392
B(  7-C , 28-H ) :   0.9407 B(  8-S ,  9-C ) :   0.9934 B(  9-C , 10-S ) :   1.0242
B(  9-C , 29-H ) :   0.8797 B(  9-C , 30-H ) :   0.8863 B( 10-S , 11-P ) :   0.9337
B( 10-S , 12-S ) :   0.1041 B( 11-P , 12-S ) :   1.6427 B( 11-P , 13-O ) :   1.1424
B( 11-P , 16-O ) :   1.0793 B( 13-O , 14-C ) :   0.8967 B( 14-C , 15-C ) :   1.1617
B( 14-C , 31-H ) :   0.9279 B( 14-C , 32-H ) :   0.9121 B( 15-C , 33-H ) :   0.9490
B( 15-C , 34-H ) :   0.9404 B( 15-C , 35-H ) :   0.9491 B( 16-O , 17-C ) :   0.8985
B( 17-C , 18-C ) :   1.1572 B( 17-C , 36-H ) :   0.9023 B( 17-C , 37-H ) :   0.9209
B( 18-C , 38-H ) :   0.9421 B( 18-C , 39-H ) :   0.9510 B( 18-C , 40-H ) :   0.9482

Dispersion correction           -0.066151847
FINAL SINGLE POINT ENERGY     -2929.524627471564

DIPOLE MOMENT
-------------

Method             : SCF
Type of density    : Electron Density
Multiplicity       :   1
Irrep              :   0
Energy             : -2929.6434856102150661 Eh
Relativity type    :
Basis              : AO
                                X                 Y                 Z
Electronic contribution:      1.646289017       7.057143695     -13.933250132
Nuclear contribution   :     -1.154938787      -7.759319233      15.215266583
                        -----------------------------------------
Total Dipole Moment    :      0.491350229      -0.702175538       1.282016451
                        -----------------------------------------
Magnitude (a.u.)       :      1.542090048
Magnitude (Debye)      :      3.919681400

Rotational constants in cm-1:             0.011841             0.005324             0.004949
Rotational constants in MHz :           354.975083           159.614877           148.365670

                             ****ORCA TERMINATED NORMALLY****
TOTAL RUN TIME: 0 days 0 hours 0 minutes 21 seconds 524 msec
