                         Program Version 6.0.1  -  RELEASE   -
|  1> ! pbe def2-sv(p) def2/J RI DEFGRID1 loosescf d4 GCP(DFT/SV(P)) printgap
|  2> %output
|  3>     printlevel normal
|  4> end
|  5> * xyz 0 1
|  6> C 3.7886343994 -2.264763472 1.3742182876
|  7> C 2.9617220944 -2.8665462318 0.2499128972
|  8> O 2.8076814464 -1.923059003 -0.8302968742
|  9> C 1.8237778872 -1.0624631446 -0.779056073
| 10> O 1.0057354367 -1.0182996948 0.1268485381
| 11> C 1.7893144514 -0.1390513392 -1.9676889781
| 12> C 0.7010549321 0.9073335473 -1.8034416953
| 13> H 0.6231267593 1.53684401 -2.6931932713
| 14> C 0.9038789582 1.8031071785 -0.5917113637
| 15> O 1.8400549778 1.6947085573 0.1704366738
| 16> O -0.0381947389 2.7127484542 -0.5207221684
| 17> C -0.0556046978 3.6376978774 0.5835460293
| 18> C -1.4985034104 3.8631533055 0.9952686724
| 19> S -0.9747355656 0.160949743 -1.7178327713
| 20> P -1.345638808 -0.4652510089 0.2916275162
| 21> S -1.424348638 -2.3795170753 0.7456603669
| 22> O -0.7205799093 0.5621291905 1.3338720587
| 23> C 0.1122178268 0.1831765924 2.4286130251
| 24> O -2.831653908 0.1552772455 0.4147206553
| 25> C -3.9181609218 -0.3729748928 -0.3428686606
| 26> H 3.281642271 -1.395322958 1.7880714138
| 27> H 3.917508272 -3.0026375115 2.1589043526
| 28> H 4.7624963665 -1.9603029778 1.0012825718
| 29> H 1.9690968644 -3.1592281812 0.6054177096
| 30> H 3.4664990384 -3.7181105219 -0.2057292956
| 31> H 1.6090408994 -0.7312089151 -2.8664583357
| 32> H 2.7671954354 0.3379474484 -2.0562202792
| 33> H 0.5419885788 3.2196490509 1.3983414595
| 34> H 0.4081110921 4.5631214658 0.231048368
| 35> H -1.5307577199 4.5561779657 1.8292930822
| 36> H -2.0624057129 4.271785099 0.1621971324
| 37> H -1.9513846764 2.920019672 1.2928342453
| 38> H 1.1323992769 0.5066063151 2.2176315617
| 39> H 0.0882082814 -0.8984802771 2.570885239
| 40> H -0.2805222495 0.6896485187 3.3079996687
| 41> H -4.8110101754 0.1069705011 0.0497329553
| 42> H -3.9765258188 -1.4553387632 -0.2090727059
| 43> H -3.7894045488 -0.1390403734 -1.4009032011
| 44> *
| 45>
| 46>                          ****END OF INPUT****

CARTESIAN COORDINATES (ANGSTROEM)
---------------------------------
  C      3.788634   -2.264763    1.374218
  C      2.961722   -2.866546    0.249913
  O      2.807681   -1.923059   -0.830297
  C      1.823778   -1.062463   -0.779056
  O      1.005735   -1.018300    0.126849
  C      1.789314   -0.139051   -1.967689
  C      0.701055    0.907334   -1.803442
  H      0.623127    1.536844   -2.693193
  C      0.903879    1.803107   -0.591711
  O      1.840055    1.694709    0.170437
  O     -0.038195    2.712748   -0.520722
  C     -0.055605    3.637698    0.583546
  C     -1.498503    3.863153    0.995269
  S     -0.974736    0.160950   -1.717833
  P     -1.345639   -0.465251    0.291628
  S     -1.424349   -2.379517    0.745660
  O     -0.720580    0.562129    1.333872
  C      0.112218    0.183177    2.428613
  O     -2.831654    0.155277    0.414721
  C     -3.918161   -0.372975   -0.342869
  H      3.281642   -1.395323    1.788071
  H      3.917508   -3.002638    2.158904
  H      4.762496   -1.960303    1.001283
  H      1.969097   -3.159228    0.605418
  H      3.466499   -3.718111   -0.205729
  H      1.609041   -0.731209   -2.866458
  H      2.767195    0.337947   -2.056220
  H      0.541989    3.219649    1.398341
  H      0.408111    4.563121    0.231048
  H     -1.530758    4.556178    1.829293
  H     -2.062406    4.271785    0.162197
  H     -1.951385    2.920020    1.292834
  H      1.132399    0.506606    2.217632
  H      0.088208   -0.898480    2.570885
  H     -0.280522    0.689649    3.308000
  H     -4.811010    0.106971    0.049733
  H     -3.976526   -1.455339   -0.209073
  H     -3.789405   -0.139040   -1.400903

 Total Charge           Charge          ....    0
 Multiplicity           Mult            ....    1
 Number of Electrons    NEL             ....  174
 Basis Dimension        Dim             ....  316

ORBITAL ENERGIES
----------------

  NO   OCC          E(Eh)            E(eV)
   0   2.0000     -88.031783     -2395.4666
   1   2.0000     -87.964321     -2393.6309
   2   2.0000     -76.417278     -2079.4199
   3   2.0000     -18.814590      -511.9710
   4   2.0000     -18.806144      -511.7412
   5   2.0000     -18.784844      -511.1616
   6   2.0000     -18.766285      -510.6566
   7   2.0000     -18.756408      -510.3878
   8   2.0000     -18.744680      -510.0687
   9   2.0000     -10.024656      -272.7848
  10   2.0000     -10.021242      -272.6919
  11   2.0000      -9.954422      -270.8736
  12   2.0000      -9.951766      -270.8013
  13   2.0000      -9.947544      -270.6864
  14   2.0000      -9.930361      -270.2189
  15   2.0000      -9.927648      -270.1450
  16   2.0000      -9.920124      -269.9403
  17   2.0000      -9.890274      -269.1280
  18   2.0000      -9.880390      -268.8591
  19   2.0000      -7.676627      -208.8917
  20   2.0000      -7.609676      -207.0698
  21   2.0000      -6.412635      -174.4967
  22   2.0000      -5.705223      -155.2470
  23   2.0000      -5.701058      -155.1337
  24   2.0000      -5.692966      -154.9135
  25   2.0000      -5.638925      -153.4429
  26   2.0000      -5.630633      -153.2173
  27   2.0000      -5.629105      -153.1757
  28   2.0000      -4.635403      -126.1357
  29   2.0000      -4.634908      -126.1223
  30   2.0000      -4.632863      -126.0666
  31   2.0000      -1.025266       -27.8989
  32   2.0000      -1.015886       -27.6437
  33   2.0000      -0.971616       -26.4390
  34   2.0000      -0.933071       -25.3902
  35   2.0000      -0.924138       -25.1471
  36   2.0000      -0.921864       -25.0852
  37   2.0000      -0.765972       -20.8432
  38   2.0000      -0.719282       -19.5727
  39   2.0000      -0.702091       -19.1049
  40   2.0000      -0.687956       -18.7202
  41   2.0000      -0.655801       -17.8452
  42   2.0000      -0.622303       -16.9337
  43   2.0000      -0.612121       -16.6566
  44   2.0000      -0.606627       -16.5072
  45   2.0000      -0.600634       -16.3441
  46   2.0000      -0.562367       -15.3028
  47   2.0000      -0.510499       -13.8914
  48   2.0000      -0.507525       -13.8105
  49   2.0000      -0.498072       -13.5532
  50   2.0000      -0.488616       -13.2959
  51   2.0000      -0.469479       -12.7752
  52   2.0000      -0.460394       -12.5279
  53   2.0000      -0.451989       -12.2993
  54   2.0000      -0.442749       -12.0478
  55   2.0000      -0.436384       -11.8746
  56   2.0000      -0.419209       -11.4072
  57   2.0000      -0.417943       -11.3728
  58   2.0000      -0.410355       -11.1663
  59   2.0000      -0.402269       -10.9463
  60   2.0000      -0.395906       -10.7731
  61   2.0000      -0.394787       -10.7427
  62   2.0000      -0.386898       -10.5280
  63   2.0000      -0.383628       -10.4390
  64   2.0000      -0.380413       -10.3516
  65   2.0000      -0.366759        -9.9800
  66   2.0000      -0.360751        -9.8165
  67   2.0000      -0.352805        -9.6003
  68   2.0000      -0.348990        -9.4965
  69   2.0000      -0.340257        -9.2589
  70   2.0000      -0.336734        -9.1630
  71   2.0000      -0.328112        -8.9284
  72   2.0000      -0.319898        -8.7049
  73   2.0000      -0.309280        -8.4159
  74   2.0000      -0.301782        -8.2119
  75   2.0000      -0.296694        -8.0734
  76   2.0000      -0.290699        -7.9103
  77   2.0000      -0.281969        -7.6728
  78   2.0000      -0.269571        -7.3354
  79   2.0000      -0.263815        -7.1788
  80   2.0000      -0.258529        -7.0349
  81   2.0000      -0.246120        -6.6973
  82   2.0000      -0.241069        -6.5598
  83   2.0000      -0.229324        -6.2402
  84   2.0000      -0.211835        -5.7643
  85   2.0000      -0.185515        -5.0481
  86   2.0000      -0.173289        -4.7154
  87   0.0000      -0.048210        -1.3119
  88   0.0000      -0.042916        -1.1678
  89   0.0000      -0.022774        -0.6197
  90   0.0000      -0.006549        -0.1782
  91   0.0000       0.035223         0.9585

MULLIKEN ATOMIC CHARGES
-----------------------
   0 C :   -0.312825
   1 C :   -0.022738
   2 O :   -0.220821
   3 C :    0.157005
   4 O :   -0.215796
   5 C :   -0.045698
   6 C :   -0.306886
   7 H :    0.149519
   8 C :    0.195029
   9 O :   -0.196281
  10 O :   -0.220602
  11 C :   -0.023099
  12 C :   -0.295830
  13 S :   -0.105617
  14 P :    0.638792
  15 S :   -0.333108
  16 O :   -0.381993
  17 C :   -0.115633
  18 O :   -0.381125
  19 C :   -0.108459
  20 H :    0.134752
  21 H :    0.116929
  22 H :    0.115298
  23 H :    0.129206
  24 H :    0.106620
  25 H :    0.127272
  26 H :    0.126629
  27 H :    0.114273
  28 H :    0.102139
  29 H :    0.105322
  30 H :    0.110758
  31 H :    0.139732
  32 H :    0.140743
  33 H :    0.122227
  34 H :    0.114068
  35 H :    0.118739
  36 H :    0.111555
  37 H :    0.109908
Sum of atomic charges:    0.0000000

LOEWDIN ATOMIC CHARGES
----------------------
   0 C :   -0.355018
   1 C :   -0.109250
   2 O :   -0.042587
   3 C :    0.056628
   4 O :   -0.159287
   5 C :   -0.250672
   6 C :   -0.259866
   7 H :    0.151628
   8 C :    0.009964
   9 O :   -0.159806
  10 O :   -0.047758
  11 C :   -0.105561
  12 C :   -0.355410
  13 S :    0.092733
  14 P :    0.592889
  15 S :   -0.336319
  16 O :   -0.231838
  17 C :   -0.220797
  18 O :   -0.266790
  19 C :   -0.225039
  20 H :    0.131550
  21 H :    0.132933
  22 H :    0.125710
  23 H :    0.126689
  24 H :    0.120180
  25 H :    0.149466
  26 H :    0.151214
  27 H :    0.119050
  28 H :    0.115262
  29 H :    0.127253
  30 H :    0.125115
  31 H :    0.132689
  32 H :    0.113399
  33 H :    0.109902
  34 H :    0.115009
  35 H :    0.119143
  36 H :    0.105589
  37 H :    0.102004

  Mayer bond orders larger than 0.100000
B(  0-C ,  1-C ) :   1.1731 B(  0-C , 20-H ) :   0.9431 B(  0-C , 21-H ) :   0.9431
B(  0-C , 22-H ) :   0.9478 B(  1-C ,  2-O ) :   0.9006 B(  1-C , 23-H ) :   0.9104
B(  1-C , 24-H ) :   0.9367 B(  2-O ,  3-C ) :   1.2743 B(  3-C ,  4-O ) :   1.8608
B(  3-C ,  5-C ) :   1.0168 B(  4-O , 14-P ) :   0.1379 B(  5-C ,  6-C ) :   1.0243
B(  5-C , 25-H ) :   0.8829 B(  5-C , 26-H ) :   0.8763 B(  6-C ,  7-H ) :   0.8768
B(  6-C ,  8-C ) :   0.8948 B(  6-C , 13-S ) :   1.0275 B(  8-C ,  9-O ) :   2.0399
B(  8-C , 10-O ) :   1.2600 B(  9-O , 10-O ) :   0.1009 B( 10-O , 11-C ) :   0.8984
B( 11-C , 12-C ) :   1.1674 B( 11-C , 27-H ) :   0.9142 B( 11-C , 28-H ) :   0.9359
B( 12-C , 29-H ) :   0.9431 B( 12-C , 30-H ) :   0.9478 B( 12-C , 31-H ) :   0.9370
B( 13-S , 14-P ) :   0.9319 B( 14-P , 15-S ) :   1.5954 B( 14-P , 16-O ) :   1.0747
B( 14-P , 18-O ) :   1.0414 B( 16-O , 17-C ) :   0.9216 B( 17-C , 32-H ) :   0.9333
B( 17-C , 33-H ) :   0.9274 B( 17-C , 34-H ) :   0.9513 B( 18-O , 19-C ) :   0.9548
B( 19-C , 35-H ) :   0.9601 B( 19-C , 36-H ) :   0.9305 B( 19-C , 37-H ) :   0.9418

Dispersion correction           -0.055857277
FINAL SINGLE POINT ENERGY     -1979.004481901450

DIPOLE MOMENT
-------------

Method             : SCF
Type of density    : Electron Density
Multiplicity       :   1
Irrep              :   0
Energy             : -1979.1363450943299540 Eh
Relativity type    :
Basis              : AO
                                X                 Y                 Z
Electronic contribution:     -6.098315821      -5.593400957      -8.736727380
Nuclear contribution   :      7.086451146       6.374993642       8.392210938
                        -----------------------------------------
Total Dipole Moment    :      0.988135325       0.781592686      -0.344516442
                        -----------------------------------------
Magnitude (a.u.)       :      1.306135570
Magnitude (Debye)      :      3.319932779

Rotational constants in cm-1:             0.012631             0.009093             0.007203
Rotational constants in MHz :           378.669702           272.595512           215.938425

                             ****ORCA TERMINATED NORMALLY****
TOTAL RUN TIME: 0 days 0 hours 0 minutes 45 seconds 461 msec
