                         Program Version 6.0.0  -   RELEASE  -
|  1> ! pbe def2-sv(p) def2/J RI DEFGRID1 loosescf d4 GCP(DFT/SV(P)) printgap
|  2> %output
|  3>     printlevel normal
|  4> end
|  5> * xyz 0 1
|  6> C 3.2411972753 -2.3847470227 -1.7020807424
|  7> C 3.6870077901 -0.939380171 -1.6026102791
|  8> O 2.5846242147 -0.053333748 -1.2814666164
|  9> P 2.0477559857 0.3040184956 0.1550244216
| 10> S 0.9792797563 1.9513279636 0.0374420161
| 11> O 3.4003453383 0.4470777772 0.9781635287
| 12> C 3.5293896564 0.3909354519 2.4113208175
| 13> C 2.5684600433 1.3161726961 3.1269291333
| 14> S 1.2221873398 -1.4356682016 1.0767906397
| 15> C -0.0051604002 -2.0360850461 -0.140214098
| 16> S -0.4514969437 -0.8415355102 -1.4256705473
| 17> P -1.9670896942 0.2004863404 -0.3805900042
| 18> S -2.569955974 1.904689489 -1.130704754
| 19> O -1.3782043558 0.1656812593 1.0906178992
| 20> C -1.7625752697 1.1288493144 2.0906841528
| 21> C -3.2240826853 1.0042911197 2.462005983
| 22> O -3.1307623742 -0.8845552451 -0.2208110968
| 23> C -4.1940796163 -1.0180089259 -1.1745381695
| 24> C -3.7133213816 -1.6110920243 -2.4841000785
| 25> H 2.3755745311 -2.4582950466 -2.3562997521
| 26> H 4.0530337339 -2.9719887855 -2.120012119
| 27> H 2.9919365514 -2.7803509544 -0.7207025336
| 28> H 4.0317643499 -0.5650113736 -2.5678632187
| 29> H 4.4705872141 -0.8098107287 -0.8544660304
| 30> H 3.3733228556 -0.645038296 2.7245792117
| 31> H 4.566859163 0.6815093515 2.5864089149
| 32> H 2.696426452 2.3396767118 2.7821086666
| 33> H 1.5418017888 1.0146348468 2.9221347511
| 34> H 2.7477271687 1.2682608547 4.1960062954
| 35> H -0.8943810468 -2.3181751529 0.4201307153
| 36> H 0.4246279423 -2.890970591 -0.6569652463
| 37> H -1.1092372514 0.898664151 2.9342910256
| 38> H -1.5309170577 2.1294937242 1.7112469836
| 39> H -3.8448613674 1.2631921939 1.6048785783
| 40> H -3.4482453865 -0.0140972244 2.7683540108
| 41> H -3.4446903212 1.6870823163 3.2763216336
| 42> H -4.9157252226 -1.6676626632 -0.6774121277
| 43> H -4.6329651841 -0.0290134324 -1.3418535794
| 44> H -3.2132604891 -2.5605616518 -2.3126421268
| 45> H -4.5629857012 -1.7637504838 -3.1416938378
| 46> H -3.0141966856 -0.9268283447 -2.9650551193
| 47> *
| 48>
| 49>                          ****END OF INPUT****

CARTESIAN COORDINATES (ANGSTROEM)
---------------------------------
  C      3.241197   -2.384747   -1.702081
  C      3.687008   -0.939380   -1.602610
  O      2.584624   -0.053334   -1.281467
  P      2.047756    0.304018    0.155024
  S      0.979280    1.951328    0.037442
  O      3.400345    0.447078    0.978164
  C      3.529390    0.390935    2.411321
  C      2.568460    1.316173    3.126929
  S      1.222187   -1.435668    1.076791
  C     -0.005160   -2.036085   -0.140214
  S     -0.451497   -0.841536   -1.425671
  P     -1.967090    0.200486   -0.380590
  S     -2.569956    1.904689   -1.130705
  O     -1.378204    0.165681    1.090618
  C     -1.762575    1.128849    2.090684
  C     -3.224083    1.004291    2.462006
  O     -3.130762   -0.884555   -0.220811
  C     -4.194080   -1.018009   -1.174538
  C     -3.713321   -1.611092   -2.484100
  H      2.375575   -2.458295   -2.356300
  H      4.053034   -2.971989   -2.120012
  H      2.991937   -2.780351   -0.720703
  H      4.031764   -0.565011   -2.567863
  H      4.470587   -0.809811   -0.854466
  H      3.373323   -0.645038    2.724579
  H      4.566859    0.681509    2.586409
  H      2.696426    2.339677    2.782109
  H      1.541802    1.014635    2.922135
  H      2.747727    1.268261    4.196006
  H     -0.894381   -2.318175    0.420131
  H      0.424628   -2.890971   -0.656965
  H     -1.109237    0.898664    2.934291
  H     -1.530917    2.129494    1.711247
  H     -3.844861    1.263192    1.604879
  H     -3.448245   -0.014097    2.768354
  H     -3.444690    1.687082    3.276322
  H     -4.915725   -1.667663   -0.677412
  H     -4.632965   -0.029013   -1.341854
  H     -3.213260   -2.560562   -2.312642
  H     -4.562986   -1.763750   -3.141694
  H     -3.014197   -0.926828   -2.965055

 Total Charge           Charge          ....    0
 Multiplicity           Mult            ....    1
 Number of Electrons    NEL             ....  202
 Basis Dimension        Dim             ....  334

ORBITAL ENERGIES
----------------

  NO   OCC          E(Eh)            E(eV)
   0   2.0000     -88.042531     -2395.7591
   1   2.0000     -88.038591     -2395.6519
   2   2.0000     -87.982454     -2394.1243
   3   2.0000     -87.969792     -2393.7797
   4   2.0000     -76.423540     -2079.5903
   5   2.0000     -76.422581     -2079.5642
   6   2.0000     -18.791764      -511.3499
   7   2.0000     -18.788518      -511.2616
   8   2.0000     -18.787965      -511.2465
   9   2.0000     -18.786367      -511.2030
  10   2.0000      -9.962108      -271.0827
  11   2.0000      -9.958852      -270.9941
  12   2.0000      -9.955623      -270.9063
  13   2.0000      -9.947384      -270.6821
  14   2.0000      -9.944459      -270.6025
  15   2.0000      -9.892412      -269.1862
  16   2.0000      -9.884325      -268.9662
  17   2.0000      -9.882315      -268.9115
  18   2.0000      -9.878540      -268.8087
  19   2.0000      -7.687307      -209.1823
  20   2.0000      -7.683433      -209.0769
  21   2.0000      -7.627590      -207.5573
  22   2.0000      -7.614609      -207.2041
  23   2.0000      -6.419881      -174.6938
  24   2.0000      -6.419807      -174.6918
  25   2.0000      -5.715593      -155.5292
  26   2.0000      -5.711697      -155.4232
  27   2.0000      -5.711424      -155.4157
  28   2.0000      -5.707861      -155.3188
  29   2.0000      -5.703892      -155.2108
  30   2.0000      -5.700400      -155.1158
  31   2.0000      -5.656659      -153.9255
  32   2.0000      -5.648371      -153.7000
  33   2.0000      -5.647447      -153.6748
  34   2.0000      -5.644012      -153.5814
  35   2.0000      -5.634944      -153.3346
  36   2.0000      -5.634623      -153.3259
  37   2.0000      -4.643134      -126.3461
  38   2.0000      -4.642109      -126.3182
  39   2.0000      -4.642018      -126.3157
  40   2.0000      -4.641766      -126.3089
  41   2.0000      -4.640404      -126.2718
  42   2.0000      -4.639534      -126.2481
  43   2.0000      -0.985380       -26.8136
  44   2.0000      -0.982074       -26.7236
  45   2.0000      -0.941719       -25.6255
  46   2.0000      -0.939693       -25.5703
  47   2.0000      -0.762047       -20.7364
  48   2.0000      -0.718342       -19.5471
  49   2.0000      -0.707800       -19.2602
  50   2.0000      -0.691799       -18.8248
  51   2.0000      -0.681826       -18.5534
  52   2.0000      -0.672528       -18.3004
  53   2.0000      -0.651633       -17.7318
  54   2.0000      -0.634053       -17.2535
  55   2.0000      -0.594412       -16.1748
  56   2.0000      -0.583805       -15.8861
  57   2.0000      -0.580298       -15.7907
  58   2.0000      -0.569503       -15.4970
  59   2.0000      -0.566492       -15.4150
  60   2.0000      -0.500770       -13.6266
  61   2.0000      -0.488698       -13.2982
  62   2.0000      -0.471923       -12.8417
  63   2.0000      -0.467346       -12.7171
  64   2.0000      -0.455500       -12.3948
  65   2.0000      -0.446776       -12.1574
  66   2.0000      -0.438124       -11.9220
  67   2.0000      -0.436402       -11.8751
  68   2.0000      -0.424735       -11.5576
  69   2.0000      -0.416640       -11.3374
  70   2.0000      -0.412360       -11.2209
  71   2.0000      -0.404721       -11.0130
  72   2.0000      -0.391781       -10.6609
  73   2.0000      -0.388627       -10.5751
  74   2.0000      -0.385645       -10.4939
  75   2.0000      -0.370788       -10.0897
  76   2.0000      -0.359494        -9.7823
  77   2.0000      -0.356864        -9.7108
  78   2.0000      -0.354460        -9.6453
  79   2.0000      -0.346066        -9.4169
  80   2.0000      -0.344486        -9.3739
  81   2.0000      -0.343876        -9.3573
  82   2.0000      -0.342065        -9.3081
  83   2.0000      -0.337002        -9.1703
  84   2.0000      -0.325568        -8.8592
  85   2.0000      -0.321360        -8.7447
  86   2.0000      -0.315927        -8.5968
  87   2.0000      -0.298980        -8.1357
  88   2.0000      -0.292487        -7.9590
  89   2.0000      -0.290399        -7.9021
  90   2.0000      -0.282697        -7.6926
  91   2.0000      -0.274111        -7.4589
  92   2.0000      -0.267457        -7.2779
  93   2.0000      -0.261156        -7.1064
  94   2.0000      -0.254282        -6.9194
  95   2.0000      -0.225412        -6.1338
  96   2.0000      -0.220000        -5.9865
  97   2.0000      -0.205374        -5.5885
  98   2.0000      -0.197032        -5.3615
  99   2.0000      -0.182770        -4.9734
 100   2.0000      -0.176446        -4.8013
 101   0.0000      -0.052757        -1.4356
 102   0.0000      -0.028233        -0.7683
 103   0.0000      -0.018680        -0.5083
 104   0.0000      -0.003951        -0.1075
 105   0.0000       0.025030         0.6811

MULLIKEN ATOMIC CHARGES
-----------------------
   0 C :   -0.325752
   1 C :    0.001927
   2 O :   -0.356415
   3 P :    0.611017
   4 S :   -0.296025
   5 O :   -0.383941
   6 C :   -0.007934
   7 C :   -0.326705
   8 S :   -0.152605
   9 C :   -0.301279
  10 S :   -0.077244
  11 P :    0.619598
  12 S :   -0.297238
  13 O :   -0.376600
  14 C :   -0.016015
  15 C :   -0.296472
  16 O :   -0.378827
  17 C :   -0.006208
  18 C :   -0.303802
  19 H :    0.121802
  20 H :    0.113210
  21 H :    0.125112
  22 H :    0.112271
  23 H :    0.108699
  24 H :    0.111460
  25 H :    0.109250
  26 H :    0.129795
  27 H :    0.141152
  28 H :    0.108580
  29 H :    0.186076
  30 H :    0.177179
  31 H :    0.112451
  32 H :    0.120740
  33 H :    0.122509
  34 H :    0.109239
  35 H :    0.109005
  36 H :    0.100538
  37 H :    0.108776
  38 H :    0.107773
  39 H :    0.110467
  40 H :    0.124435
Sum of atomic charges:   -0.0000000

LOEWDIN ATOMIC CHARGES
----------------------
   0 C :   -0.368504
   1 C :   -0.108878
   2 O :   -0.234077
   3 P :    0.556493
   4 S :   -0.295506
   5 O :   -0.249387
   6 C :   -0.114865
   7 C :   -0.371535
   8 S :    0.046073
   9 C :   -0.465148
  10 S :    0.114748
  11 P :    0.575948
  12 S :   -0.299565
  13 O :   -0.238958
  14 C :   -0.116876
  15 C :   -0.366787
  16 O :   -0.254241
  17 C :   -0.123315
  18 C :   -0.366732
  19 H :    0.125133
  20 H :    0.131464
  21 H :    0.118092
  22 H :    0.123427
  23 H :    0.112962
  24 H :    0.106299
  25 H :    0.121302
  26 H :    0.131637
  27 H :    0.120716
  28 H :    0.128606
  29 H :    0.133510
  30 H :    0.130280
  31 H :    0.116207
  32 H :    0.113017
  33 H :    0.121218
  34 H :    0.123233
  35 H :    0.129455
  36 H :    0.116080
  37 H :    0.108165
  38 H :    0.120654
  39 H :    0.129366
  40 H :    0.120288

  Mayer bond orders larger than 0.100000
B(  0-C ,  1-C ) :   1.1656 B(  0-C , 19-H ) :   0.9428 B(  0-C , 20-H ) :   0.9367
B(  0-C , 21-H ) :   0.9312 B(  1-C ,  2-O ) :   0.9040 B(  1-C , 22-H ) :   0.9353
B(  1-C , 23-H ) :   0.9207 B(  2-O ,  3-P ) :   1.1161 B(  3-P ,  4-S ) :   1.6494
B(  3-P ,  5-O ) :   1.0679 B(  3-P ,  8-S ) :   0.9440 B(  4-S ,  8-S ) :   0.1188
B(  5-O ,  6-C ) :   0.9181 B(  6-C ,  7-C ) :   1.1674 B(  6-C , 24-H ) :   0.9238
B(  6-C , 25-H ) :   0.9332 B(  7-C , 26-H ) :   0.9398 B(  7-C , 27-H ) :   0.9275
B(  7-C , 28-H ) :   0.9335 B(  8-S ,  9-C ) :   0.9682 B(  9-C , 10-S ) :   1.0236
B(  9-C , 29-H ) :   0.9011 B(  9-C , 30-H ) :   0.9054 B( 10-S , 11-P ) :   0.9471
B( 11-P , 12-S ) :   1.6401 B( 11-P , 13-O ) :   1.1111 B( 11-P , 16-O ) :   1.0619
B( 13-O , 14-C ) :   0.8973 B( 14-C , 15-C ) :   1.1612 B( 14-C , 31-H ) :   0.9274
B( 14-C , 32-H ) :   0.9174 B( 15-C , 33-H ) :   0.9319 B( 15-C , 34-H ) :   0.9447
B( 15-C , 35-H ) :   0.9388 B( 16-O , 17-C ) :   0.9199 B( 17-C , 18-C ) :   1.1653
B( 17-C , 36-H ) :   0.9339 B( 17-C , 37-H ) :   0.9117 B( 18-C , 38-H ) :   0.9461
B( 18-C , 39-H ) :   0.9390 B( 18-C , 40-H ) :   0.9369

Dispersion correction           -0.069730843
FINAL SINGLE POINT ENERGY     -2929.501530655420

DIPOLE MOMENT
-------------

Method             : SCF
Type of density    : Electron Density
Multiplicity       :   1
Irrep              :   0
Energy             : -2929.6178916849271445 Eh
Relativity type    :
Basis              : AO
                                X                 Y                 Z
Electronic contribution:      1.837718736       8.999722908      -7.118935537
Nuclear contribution   :     -1.281569473     -10.932865472       7.955473244
                        -----------------------------------------
Total Dipole Moment    :      0.556149262      -1.933142564       0.836537706
                        -----------------------------------------
Magnitude (a.u.)       :      2.178563175
Magnitude (Debye)      :      5.537467522

Rotational constants in cm-1:             0.012122             0.005992             0.005035
Rotational constants in MHz :           363.418948           179.635916           150.953987

                             ****ORCA TERMINATED NORMALLY****
TOTAL RUN TIME: 0 days 0 hours 0 minutes 23 seconds 883 msec
