                         Program Version 6.0.0  -   RELEASE  -
|  1> ! pbe def2-sv(p) def2/J RI DEFGRID1 loosescf d4 GCP(DFT/SV(P)) printgap
|  2> %output
|  3>     printlevel normal
|  4> end
|  5> * xyz 0 1
|  6> C 5.4687761392 -0.7246956594 0.8899079517
|  7> C 4.2474722321 -1.5052282684 0.4499670108
|  8> O 3.6168472492 -0.8780429689 -0.6954258575
|  9> P 2.3999582949 0.1164234967 -0.591313657
| 10> S 1.8662900363 0.7133616051 -2.375528592
| 11> O 2.932072846 1.1942699962 0.4479646199
| 12> C 2.1875052422 2.3638478131 0.8384169031
| 13> C 2.5540840954 3.5496806484 -0.0313763567
| 14> S 0.9255486457 -0.9314299519 0.5356841812
| 15> C -0.132848791 -1.4611499767 -0.853882204
| 16> S -1.816467485 -1.7998445154 -0.3217063769
| 17> P -2.453453106 0.189314005 0.156405162
| 18> S -1.2757072022 1.6556669796 -0.3790432382
| 19> O -2.8247166525 0.152850855 1.7049159211
| 20> C -1.8604931801 0.2392649924 2.7704333033
| 21> C -1.461670362 -1.1370526452 3.2665215208
| 22> O -3.8775654578 0.3146677741 -0.4937651361
| 23> C -4.9293454515 -0.671390741 -0.3021878084
| 24> C -5.2033632984 -1.3913400322 -1.6068059517
| 25> H 5.1815181454 0.2650839786 1.2336129159
| 26> H 5.9577652236 -1.2584206243 1.6988701463
| 27> H 6.1609459242 -0.6189279612 0.0590723522
| 28> H 3.5138935753 -1.5857308357 1.2574335698
| 29> H 4.5192415698 -2.5010500521 0.0954847563
| 30> H 1.115807105 2.1588168213 0.7708746874
| 31> H 2.4658867584 2.5314212408 1.8805189882
| 32> H 2.2622993844 3.3596202484 -1.0624100267
| 33> H 2.0263418126 4.4288219622 0.3237037103
| 34> H 3.6251742268 3.7279077088 0.0047256846
| 35> H 0.2486452298 -2.3941874741 -1.261989968
| 36> H -0.1239436569 -0.66677743 -1.6049581025
| 37> H -0.9912772152 0.8039501845 2.4186244312
| 38> H -2.3708346964 0.808059817 3.5499038611
| 39> H -0.8346699784 -1.026004805 4.1449191374
| 40> H -2.3473440422 -1.709461415 3.5267895188
| 41> H -0.9016800506 -1.6742706908 2.5042005665
| 42> H -4.6292369265 -1.3682767479 0.4824302853
| 43> H -5.7965319832 -0.0968656851 0.0264962576
| 44> H -5.4346100342 -0.6714528167 -2.3870434774
| 45> H -4.3359547361 -1.9726357399 -1.9095769904
| 46> H -6.0487734707 -2.0584331848 -1.4723114276
| 47> *
| 48>
| 49>                          ****END OF INPUT****

CARTESIAN COORDINATES (ANGSTROEM)
---------------------------------
  C      5.468776   -0.724696    0.889908
  C      4.247472   -1.505228    0.449967
  O      3.616847   -0.878043   -0.695426
  P      2.399958    0.116423   -0.591314
  S      1.866290    0.713362   -2.375529
  O      2.932073    1.194270    0.447965
  C      2.187505    2.363848    0.838417
  C      2.554084    3.549681   -0.031376
  S      0.925549   -0.931430    0.535684
  C     -0.132849   -1.461150   -0.853882
  S     -1.816467   -1.799845   -0.321706
  P     -2.453453    0.189314    0.156405
  S     -1.275707    1.655667   -0.379043
  O     -2.824717    0.152851    1.704916
  C     -1.860493    0.239265    2.770433
  C     -1.461670   -1.137053    3.266522
  O     -3.877565    0.314668   -0.493765
  C     -4.929345   -0.671391   -0.302188
  C     -5.203363   -1.391340   -1.606806
  H      5.181518    0.265084    1.233613
  H      5.957765   -1.258421    1.698870
  H      6.160946   -0.618928    0.059072
  H      3.513894   -1.585731    1.257434
  H      4.519242   -2.501050    0.095485
  H      1.115807    2.158817    0.770875
  H      2.465887    2.531421    1.880519
  H      2.262299    3.359620   -1.062410
  H      2.026342    4.428822    0.323704
  H      3.625174    3.727908    0.004726
  H      0.248645   -2.394187   -1.261990
  H     -0.123944   -0.666777   -1.604958
  H     -0.991277    0.803950    2.418624
  H     -2.370835    0.808060    3.549904
  H     -0.834670   -1.026005    4.144919
  H     -2.347344   -1.709461    3.526790
  H     -0.901680   -1.674271    2.504201
  H     -4.629237   -1.368277    0.482430
  H     -5.796532   -0.096866    0.026496
  H     -5.434610   -0.671453   -2.387043
  H     -4.335955   -1.972636   -1.909577
  H     -6.048773   -2.058433   -1.472311

 Total Charge           Charge          ....    0
 Multiplicity           Mult            ....    1
 Number of Electrons    NEL             ....  202
 Basis Dimension        Dim             ....  334

ORBITAL ENERGIES
----------------

  NO   OCC          E(Eh)            E(eV)
   0   2.0000     -88.048125     -2395.9113
   1   2.0000     -88.040243     -2395.6968
   2   2.0000     -87.984595     -2394.1825
   3   2.0000     -87.981783     -2394.1060
   4   2.0000     -76.426724     -2079.6769
   5   2.0000     -76.423572     -2079.5911
   6   2.0000     -18.793165      -511.3880
   7   2.0000     -18.792470      -511.3691
   8   2.0000     -18.789924      -511.2998
   9   2.0000     -18.788154      -511.2517
  10   2.0000      -9.961515      -271.0666
  11   2.0000      -9.955432      -270.9011
  12   2.0000      -9.953517      -270.8490
  13   2.0000      -9.952983      -270.8344
  14   2.0000      -9.948306      -270.7072
  15   2.0000      -9.888887      -269.0903
  16   2.0000      -9.885631      -269.0017
  17   2.0000      -9.884621      -268.9742
  18   2.0000      -9.875691      -268.7312
  19   2.0000      -7.692898      -209.3344
  20   2.0000      -7.684729      -209.1121
  21   2.0000      -7.629544      -207.6104
  22   2.0000      -7.626987      -207.5409
  23   2.0000      -6.424335      -174.8150
  24   2.0000      -6.421036      -174.7253
  25   2.0000      -5.720803      -155.6710
  26   2.0000      -5.717304      -155.5757
  27   2.0000      -5.712543      -155.4462
  28   2.0000      -5.709980      -155.3765
  29   2.0000      -5.709363      -155.3597
  30   2.0000      -5.701760      -155.1528
  31   2.0000      -5.658683      -153.9806
  32   2.0000      -5.656063      -153.9093
  33   2.0000      -5.649878      -153.7410
  34   2.0000      -5.649724      -153.7368
  35   2.0000      -5.647441      -153.6747
  36   2.0000      -5.647109      -153.6656
  37   2.0000      -4.647011      -126.4516
  38   2.0000      -4.646112      -126.4271
  39   2.0000      -4.644676      -126.3881
  40   2.0000      -4.643840      -126.3653
  41   2.0000      -4.642828      -126.3378
  42   2.0000      -4.641288      -126.2959
  43   2.0000      -0.988748       -26.9052
  44   2.0000      -0.986384       -26.8409
  45   2.0000      -0.944226       -25.6937
  46   2.0000      -0.943062       -25.6620
  47   2.0000      -0.762340       -20.7443
  48   2.0000      -0.721851       -19.6426
  49   2.0000      -0.712919       -19.3995
  50   2.0000      -0.691023       -18.8037
  51   2.0000      -0.687381       -18.7046
  52   2.0000      -0.674839       -18.3633
  53   2.0000      -0.649060       -17.6618
  54   2.0000      -0.635904       -17.3038
  55   2.0000      -0.593193       -16.1416
  56   2.0000      -0.584995       -15.9185
  57   2.0000      -0.577386       -15.7115
  58   2.0000      -0.571236       -15.5441
  59   2.0000      -0.562996       -15.3199
  60   2.0000      -0.508214       -13.8292
  61   2.0000      -0.501191       -13.6381
  62   2.0000      -0.478924       -13.0322
  63   2.0000      -0.477353       -12.9894
  64   2.0000      -0.453338       -12.3360
  65   2.0000      -0.446642       -12.1537
  66   2.0000      -0.441435       -12.0121
  67   2.0000      -0.437197       -11.8967
  68   2.0000      -0.428731       -11.6664
  69   2.0000      -0.423050       -11.5118
  70   2.0000      -0.405836       -11.0433
  71   2.0000      -0.399210       -10.8630
  72   2.0000      -0.393942       -10.7197
  73   2.0000      -0.383590       -10.4380
  74   2.0000      -0.376218       -10.2374
  75   2.0000      -0.370888       -10.0924
  76   2.0000      -0.360905        -9.8207
  77   2.0000      -0.359347        -9.7783
  78   2.0000      -0.355326        -9.6689
  79   2.0000      -0.354306        -9.6412
  80   2.0000      -0.350160        -9.5283
  81   2.0000      -0.344475        -9.3736
  82   2.0000      -0.341094        -9.2816
  83   2.0000      -0.339297        -9.2327
  84   2.0000      -0.330762        -9.0005
  85   2.0000      -0.316761        -8.6195
  86   2.0000      -0.312858        -8.5133
  87   2.0000      -0.303755        -8.2656
  88   2.0000      -0.294931        -8.0255
  89   2.0000      -0.291691        -7.9373
  90   2.0000      -0.289505        -7.8778
  91   2.0000      -0.277271        -7.5449
  92   2.0000      -0.273096        -7.4313
  93   2.0000      -0.262247        -7.1361
  94   2.0000      -0.259195        -7.0531
  95   2.0000      -0.238122        -6.4796
  96   2.0000      -0.220263        -5.9936
  97   2.0000      -0.209650        -5.7049
  98   2.0000      -0.198572        -5.4034
  99   2.0000      -0.194303        -5.2872
 100   2.0000      -0.190734        -5.1901
 101   0.0000      -0.048653        -1.3239
 102   0.0000      -0.033660        -0.9159
 103   0.0000      -0.013306        -0.3621
 104   0.0000       0.003488         0.0949
 105   0.0000       0.011012         0.2997

MULLIKEN ATOMIC CHARGES
-----------------------
   0 C :   -0.289137
   1 C :   -0.011456
   2 O :   -0.355799
   3 P :    0.611471
   4 S :   -0.292354
   5 O :   -0.382660
   6 C :   -0.040948
   7 C :   -0.290785
   8 S :   -0.142783
   9 C :   -0.323711
  10 S :   -0.135669
  11 P :    0.599767
  12 S :   -0.290537
  13 O :   -0.378174
  14 C :   -0.007907
  15 C :   -0.302432
  16 O :   -0.353966
  17 C :   -0.021894
  18 C :   -0.284928
  19 H :    0.122294
  20 H :    0.107681
  21 H :    0.120371
  22 H :    0.099056
  23 H :    0.108514
  24 H :    0.145672
  25 H :    0.098854
  26 H :    0.131661
  27 H :    0.108638
  28 H :    0.109455
  29 H :    0.181197
  30 H :    0.212234
  31 H :    0.110587
  32 H :    0.105343
  33 H :    0.106835
  34 H :    0.110143
  35 H :    0.132028
  36 H :    0.109593
  37 H :    0.116124
  38 H :    0.124612
  39 H :    0.122653
  40 H :    0.110358
Sum of atomic charges:   -0.0000000

LOEWDIN ATOMIC CHARGES
----------------------
   0 C :   -0.359739
   1 C :   -0.115051
   2 O :   -0.238598
   3 P :    0.566144
   4 S :   -0.285187
   5 O :   -0.244901
   6 C :   -0.122709
   7 C :   -0.360533
   8 S :    0.053433
   9 C :   -0.477161
  10 S :    0.069207
  11 P :    0.564792
  12 S :   -0.283072
  13 O :   -0.251351
  14 C :   -0.116917
  15 C :   -0.364822
  16 O :   -0.235235
  17 C :   -0.111988
  18 C :   -0.358281
  19 H :    0.126112
  20 H :    0.128393
  21 H :    0.129179
  22 H :    0.101470
  23 H :    0.120673
  24 H :    0.106312
  25 H :    0.114517
  26 H :    0.127487
  27 H :    0.129877
  28 H :    0.123338
  29 H :    0.135134
  30 H :    0.124222
  31 H :    0.106006
  32 H :    0.118785
  33 H :    0.129054
  34 H :    0.124038
  35 H :    0.110951
  36 H :    0.107918
  37 H :    0.124039
  38 H :    0.131678
  39 H :    0.122777
  40 H :    0.130009

  Mayer bond orders larger than 0.100000
B(  0-C ,  1-C ) :   1.1635 B(  0-C , 19-H ) :   0.9415 B(  0-C , 20-H ) :   0.9399
B(  0-C , 21-H ) :   0.9469 B(  1-C ,  2-O ) :   0.8978 B(  1-C , 22-H ) :   0.9121
B(  1-C , 23-H ) :   0.9366 B(  2-O ,  3-P ) :   1.1369 B(  3-P ,  4-S ) :   1.6605
B(  3-P ,  5-O ) :   1.0888 B(  3-P ,  8-S ) :   0.9423 B(  4-S ,  8-S ) :   0.1157
B(  5-O ,  6-C ) :   0.8918 B(  6-C ,  7-C ) :   1.1719 B(  6-C , 24-H ) :   0.8949
B(  6-C , 25-H ) :   0.9358 B(  7-C , 26-H ) :   0.9328 B(  7-C , 27-H ) :   0.9393
B(  7-C , 28-H ) :   0.9484 B(  8-S ,  9-C ) :   0.9783 B(  9-C , 10-S ) :   1.0233
B(  9-C , 29-H ) :   0.9078 B(  9-C , 30-H ) :   0.8499 B( 10-S , 11-P ) :   0.9136
B( 10-S , 12-S ) :   0.1131 B( 11-P , 12-S ) :   1.6658 B( 11-P , 13-O ) :   1.0874
B( 11-P , 16-O ) :   1.1527 B( 13-O , 14-C ) :   0.9093 B( 14-C , 15-C ) :   1.1696
B( 14-C , 31-H ) :   0.9068 B( 14-C , 32-H ) :   0.9354 B( 15-C , 33-H ) :   0.9398
B( 15-C , 34-H ) :   0.9462 B( 15-C , 35-H ) :   0.9282 B( 16-O , 17-C ) :   0.8854
B( 17-C , 18-C ) :   1.1637 B( 17-C , 36-H ) :   0.9188 B( 17-C , 37-H ) :   0.9339
B( 18-C , 38-H ) :   0.9458 B( 18-C , 39-H ) :   0.9408 B( 18-C , 40-H ) :   0.9395

Dispersion correction           -0.064235311
FINAL SINGLE POINT ENERGY     -2929.515008302637

DIPOLE MOMENT
-------------

Method             : SCF
Type of density    : Electron Density
Multiplicity       :   1
Irrep              :   0
Energy             : -2929.6348146736982017 Eh
Relativity type    :
Basis              : AO
                                X                 Y                 Z
Electronic contribution:     -3.396085252       0.688376169     -12.121785900
Nuclear contribution   :      3.115158050      -1.675992622      13.872911820
                        -----------------------------------------
Total Dipole Moment    :     -0.280927202      -0.987616453       1.751125921
                        -----------------------------------------
Magnitude (a.u.)       :      2.029962645
Magnitude (Debye)      :      5.159754992

Rotational constants in cm-1:             0.013040             0.004509             0.004435
Rotational constants in MHz :           390.938439           135.171471           132.966747

                             ****ORCA TERMINATED NORMALLY****
TOTAL RUN TIME: 0 days 0 hours 0 minutes 20 seconds 730 msec
