                         Program Version 6.0.0  -   RELEASE  -
|  1> ! pbe def2-sv(p) def2/J RI DEFGRID1 loosescf d4 GCP(DFT/SV(P)) printgap
|  2> %output
|  3>     printlevel normal
|  4> end
|  5> * xyz 0 1
|  6> C 2.5737358322 -2.0503329383 -2.1901823741
|  7> C 1.7791102639 -0.7630247216 -2.1343322617
|  8> O 1.2152987729 -0.5718294482 -0.8182186496
|  9> P 1.9349323772 0.323013394 0.2666273226
| 10> S 2.7183921067 2.0179069638 -0.3159481413
| 11> O 2.9922535112 -0.7128262797 0.8670996922
| 12> C 4.1111750817 -0.3114026201 1.6783602468
| 13> C 5.3573634356 -1.0070706899 1.165644935
| 14> S 0.4460111523 0.4461380705 1.7558138289
| 15> C -0.0948215729 -1.2840213233 1.7944667026
| 16> S -1.1769044737 -1.787381255 0.4097494784
| 17> P -2.0899390819 0.0341750751 -0.1293727175
| 18> S -1.1526537884 1.4452918221 -1.143755025
| 19> O -2.6637360543 0.4479527641 1.2868789002
| 20> C -3.0349305158 1.8017632468 1.6112992066
| 21> C -4.2884657991 2.2267273724 0.8761729467
| 22> O -3.3938958405 -0.4743937709 -0.8860151296
| 23> C -3.4289506564 -0.6932854987 -2.3050961146
| 24> C -2.5884050039 -1.8880157598 -2.7077372458
| 25> H 2.9331156412 -2.2003404908 -3.203293551
| 26> H 3.4220308817 -1.9967685674 -1.5125172834
| 27> H 1.9430944655 -2.8870805059 -1.9020181746
| 28> H 0.916575876 -0.7884356068 -2.8041940825
| 29> H 2.3956517502 0.108018899 -2.3814790894
| 30> H 4.2186286843 0.7767382587 1.6216569497
| 31> H 3.8856032339 -0.6018186309 2.706694165
| 32> H 6.1940178367 -0.7567412381 1.809531744
| 33> H 5.2114677332 -2.0835216572 1.1667712358
| 34> H 5.5783774252 -0.6780233366 0.1533475785
| 35> H -0.6489291976 -1.3944366699 2.7237971218
| 36> H 0.7720960023 -1.9411757024 1.765510054
| 37> H -3.1817994013 1.7808064457 2.6918567144
| 38> H -2.1956271601 2.4614917805 1.3659333063
| 39> H -4.0924237476 2.2635751406 -0.1948977576
| 40> H -5.0905958955 1.5177441709 1.0627335172
| 41> H -4.5879797239 3.2137298482 1.2142890524
| 42> H -4.4861846353 -0.8485553655 -2.5236267499
| 43> H -3.0738139793 0.2149101619 -2.8042741838
| 44> H -2.6936848339 -2.0641763697 -3.7733938204
| 45> H -1.5405215125 -1.6906729165 -2.4808390181
| 46> H -2.9004340162 -2.7723625124 -2.1583210709
| 47> *
| 48>
| 49>                          ****END OF INPUT****

CARTESIAN COORDINATES (ANGSTROEM)
---------------------------------
  C      2.573736   -2.050333   -2.190182
  C      1.779110   -0.763025   -2.134332
  O      1.215299   -0.571829   -0.818219
  P      1.934932    0.323013    0.266627
  S      2.718392    2.017907   -0.315948
  O      2.992254   -0.712826    0.867100
  C      4.111175   -0.311403    1.678360
  C      5.357363   -1.007071    1.165645
  S      0.446011    0.446138    1.755814
  C     -0.094822   -1.284021    1.794467
  S     -1.176904   -1.787381    0.409749
  P     -2.089939    0.034175   -0.129373
  S     -1.152654    1.445292   -1.143755
  O     -2.663736    0.447953    1.286879
  C     -3.034931    1.801763    1.611299
  C     -4.288466    2.226727    0.876173
  O     -3.393896   -0.474394   -0.886015
  C     -3.428951   -0.693285   -2.305096
  C     -2.588405   -1.888016   -2.707737
  H      2.933116   -2.200340   -3.203294
  H      3.422031   -1.996769   -1.512517
  H      1.943094   -2.887081   -1.902018
  H      0.916576   -0.788436   -2.804194
  H      2.395652    0.108019   -2.381479
  H      4.218629    0.776738    1.621657
  H      3.885603   -0.601819    2.706694
  H      6.194018   -0.756741    1.809532
  H      5.211468   -2.083522    1.166771
  H      5.578377   -0.678023    0.153348
  H     -0.648929   -1.394437    2.723797
  H      0.772096   -1.941176    1.765510
  H     -3.181799    1.780806    2.691857
  H     -2.195627    2.461492    1.365933
  H     -4.092424    2.263575   -0.194898
  H     -5.090596    1.517744    1.062734
  H     -4.587980    3.213730    1.214289
  H     -4.486185   -0.848555   -2.523627
  H     -3.073814    0.214910   -2.804274
  H     -2.693685   -2.064176   -3.773394
  H     -1.540522   -1.690673   -2.480839
  H     -2.900434   -2.772363   -2.158321

 Total Charge           Charge          ....    0
 Multiplicity           Mult            ....    1
 Number of Electrons    NEL             ....  202
 Basis Dimension        Dim             ....  334

ORBITAL ENERGIES
----------------

  NO   OCC          E(Eh)            E(eV)
   0   2.0000     -88.044607     -2395.8156
   1   2.0000     -88.036096     -2395.5840
   2   2.0000     -87.983049     -2394.1405
   3   2.0000     -87.977800     -2393.9976
   4   2.0000     -76.423331     -2079.5845
   5   2.0000     -76.422380     -2079.5587
   6   2.0000     -18.789913      -511.2995
   7   2.0000     -18.787733      -511.2402
   8   2.0000     -18.787549      -511.2352
   9   2.0000     -18.786164      -511.1975
  10   2.0000      -9.960325      -271.0342
  11   2.0000      -9.950835      -270.7760
  12   2.0000      -9.949267      -270.7333
  13   2.0000      -9.947658      -270.6895
  14   2.0000      -9.946739      -270.6645
  15   2.0000      -9.887709      -269.0582
  16   2.0000      -9.885708      -269.0038
  17   2.0000      -9.883285      -268.9379
  18   2.0000      -9.879006      -268.8214
  19   2.0000      -7.689401      -209.2392
  20   2.0000      -7.681391      -209.0213
  21   2.0000      -7.628294      -207.5764
  22   2.0000      -7.622431      -207.4169
  23   2.0000      -6.421024      -174.7249
  24   2.0000      -6.419342      -174.6792
  25   2.0000      -5.717685      -155.5861
  26   2.0000      -5.713702      -155.4777
  27   2.0000      -5.709639      -155.3672
  28   2.0000      -5.706155      -155.2724
  29   2.0000      -5.705953      -155.2669
  30   2.0000      -5.697861      -155.0467
  31   2.0000      -5.657234      -153.9412
  32   2.0000      -5.651428      -153.7832
  33   2.0000      -5.649055      -153.7186
  34   2.0000      -5.648279      -153.6975
  35   2.0000      -5.643101      -153.5566
  36   2.0000      -5.642535      -153.5412
  37   2.0000      -4.643428      -126.3541
  38   2.0000      -4.642978      -126.3418
  39   2.0000      -4.641970      -126.3144
  40   2.0000      -4.641442      -126.3000
  41   2.0000      -4.641200      -126.2935
  42   2.0000      -4.639749      -126.2540
  43   2.0000      -0.984107       -26.7789
  44   2.0000      -0.982599       -26.7379
  45   2.0000      -0.942984       -25.6599
  46   2.0000      -0.941775       -25.6270
  47   2.0000      -0.762756       -20.7557
  48   2.0000      -0.719174       -19.5697
  49   2.0000      -0.705876       -19.2079
  50   2.0000      -0.687172       -18.6989
  51   2.0000      -0.684402       -18.6235
  52   2.0000      -0.670100       -18.2344
  53   2.0000      -0.650249       -17.6942
  54   2.0000      -0.634455       -17.2644
  55   2.0000      -0.597019       -16.2457
  56   2.0000      -0.591346       -16.0914
  57   2.0000      -0.569766       -15.5041
  58   2.0000      -0.568636       -15.4734
  59   2.0000      -0.561292       -15.2735
  60   2.0000      -0.503404       -13.6983
  61   2.0000      -0.489818       -13.3286
  62   2.0000      -0.477060       -12.9814
  63   2.0000      -0.470547       -12.8042
  64   2.0000      -0.456310       -12.4168
  65   2.0000      -0.440818       -11.9953
  66   2.0000      -0.436179       -11.8690
  67   2.0000      -0.435493       -11.8504
  68   2.0000      -0.421966       -11.4823
  69   2.0000      -0.417730       -11.3670
  70   2.0000      -0.412106       -11.2140
  71   2.0000      -0.391227       -10.6458
  72   2.0000      -0.389696       -10.6042
  73   2.0000      -0.383670       -10.4402
  74   2.0000      -0.379649       -10.3308
  75   2.0000      -0.374122       -10.1804
  76   2.0000      -0.368041       -10.0149
  77   2.0000      -0.358027        -9.7424
  78   2.0000      -0.357615        -9.7312
  79   2.0000      -0.351193        -9.5564
  80   2.0000      -0.348589        -9.4856
  81   2.0000      -0.346404        -9.4261
  82   2.0000      -0.342095        -9.3089
  83   2.0000      -0.336157        -9.1473
  84   2.0000      -0.326384        -8.8814
  85   2.0000      -0.318196        -8.6586
  86   2.0000      -0.311459        -8.4752
  87   2.0000      -0.295379        -8.0377
  88   2.0000      -0.292825        -7.9682
  89   2.0000      -0.286088        -7.7849
  90   2.0000      -0.278207        -7.5704
  91   2.0000      -0.274485        -7.4691
  92   2.0000      -0.269400        -7.3307
  93   2.0000      -0.260721        -7.0946
  94   2.0000      -0.258428        -7.0322
  95   2.0000      -0.231116        -6.2890
  96   2.0000      -0.216864        -5.9012
  97   2.0000      -0.205943        -5.6040
  98   2.0000      -0.197843        -5.3836
  99   2.0000      -0.191357        -5.2071
 100   2.0000      -0.185218        -5.0400
 101   0.0000      -0.048580        -1.3219
 102   0.0000      -0.023219        -0.6318
 103   0.0000      -0.013271        -0.3611
 104   0.0000       0.000554         0.0151
 105   0.0000       0.020964         0.5705

MULLIKEN ATOMIC CHARGES
-----------------------
   0 C :   -0.297636
   1 C :   -0.012259
   2 O :   -0.363740
   3 P :    0.630725
   4 S :   -0.308179
   5 O :   -0.386721
   6 C :   -0.008466
   7 C :   -0.288690
   8 S :   -0.089215
   9 C :   -0.316175
  10 S :   -0.104265
  11 P :    0.608833
  12 S :   -0.315749
  13 O :   -0.374068
  14 C :   -0.003002
  15 C :   -0.303202
  16 O :   -0.368653
  17 C :    0.000206
  18 C :   -0.343349
  19 H :    0.109108
  20 H :    0.119023
  21 H :    0.114408
  22 H :    0.117450
  23 H :    0.105383
  24 H :    0.105564
  25 H :    0.097858
  26 H :    0.112002
  27 H :    0.115271
  28 H :    0.120783
  29 H :    0.186426
  30 H :    0.181571
  31 H :    0.100129
  32 H :    0.117183
  33 H :    0.122764
  34 H :    0.114516
  35 H :    0.110618
  36 H :    0.104597
  37 H :    0.108678
  38 H :    0.114006
  39 H :    0.145130
  40 H :    0.121137
Sum of atomic charges:    0.0000000

LOEWDIN ATOMIC CHARGES
----------------------
   0 C :   -0.359437
   1 C :   -0.115639
   2 O :   -0.235500
   3 P :    0.568822
   4 S :   -0.309022
   5 O :   -0.256710
   6 C :   -0.122410
   7 C :   -0.353369
   8 S :    0.100488
   9 C :   -0.467858
  10 S :    0.078719
  11 P :    0.565369
  12 S :   -0.311148
  13 O :   -0.244461
  14 C :   -0.118571
  15 C :   -0.364192
  16 O :   -0.245028
  17 C :   -0.121894
  18 C :   -0.372109
  19 H :    0.128953
  20 H :    0.123537
  21 H :    0.125506
  22 H :    0.115860
  23 H :    0.108926
  24 H :    0.106420
  25 H :    0.111180
  26 H :    0.130329
  27 H :    0.124556
  28 H :    0.127184
  29 H :    0.137562
  30 H :    0.132743
  31 H :    0.116520
  32 H :    0.112193
  33 H :    0.122965
  34 H :    0.125466
  35 H :    0.129761
  36 H :    0.118468
  37 H :    0.108128
  38 H :    0.131387
  39 H :    0.120674
  40 H :    0.125631

  Mayer bond orders larger than 0.100000
B(  0-C ,  1-C ) :   1.1666 B(  0-C , 19-H ) :   0.9407 B(  0-C , 20-H ) :   0.9420
B(  0-C , 21-H ) :   0.9476 B(  1-C ,  2-O ) :   0.8962 B(  1-C , 22-H ) :   0.9216
B(  1-C , 23-H ) :   0.9074 B(  2-O ,  3-P ) :   1.1276 B(  3-P ,  4-S ) :   1.6634
B(  3-P ,  5-O ) :   1.0598 B(  3-P ,  8-S ) :   0.9583 B(  5-O ,  6-C ) :   0.9117
B(  6-C ,  7-C ) :   1.1656 B(  6-C , 24-H ) :   0.9000 B(  6-C , 25-H ) :   0.9324
B(  7-C , 26-H ) :   0.9415 B(  7-C , 27-H ) :   0.9496 B(  7-C , 28-H ) :   0.9465
B(  8-S ,  9-C ) :   1.0041 B(  9-C , 10-S ) :   0.9724 B(  9-C , 29-H ) :   0.9096
B(  9-C , 30-H ) :   0.9026 B( 10-S , 11-P ) :   0.9749 B( 10-S , 12-S ) :   0.1170
B( 11-P , 12-S ) :   1.5887 B( 11-P , 13-O ) :   1.1130 B( 11-P , 16-O ) :   1.0988
B( 13-O , 14-C ) :   0.9016 B( 14-C , 15-C ) :   1.1665 B( 14-C , 31-H ) :   0.9349
B( 14-C , 32-H ) :   0.9146 B( 15-C , 33-H ) :   0.9356 B( 15-C , 34-H ) :   0.9462
B( 15-C , 35-H ) :   0.9396 B( 16-O , 17-C ) :   0.9133 B( 17-C , 18-C ) :   1.1638
B( 17-C , 36-H ) :   0.9326 B( 17-C , 37-H ) :   0.9102 B( 18-C , 38-H ) :   0.9384
B( 18-C , 39-H ) :   0.9267 B( 18-C , 40-H ) :   0.9425

Dispersion correction           -0.067617872
FINAL SINGLE POINT ENERGY     -2929.512921507917

DIPOLE MOMENT
-------------

Method             : SCF
Type of density    : Electron Density
Multiplicity       :   1
Irrep              :   0
Energy             : -2929.6300173874169559 Eh
Relativity type    :
Basis              : AO
                                X                 Y                 Z
Electronic contribution:     -2.960530100       8.832618284       7.464546376
Nuclear contribution   :      2.881432744     -10.126108010      -7.132106592
                        -----------------------------------------
Total Dipole Moment    :     -0.079097356      -1.293489726       0.332439784
                        -----------------------------------------
Magnitude (a.u.)       :      1.337867061
Magnitude (Debye)      :      3.400587820

Rotational constants in cm-1:             0.012745             0.005467             0.004940
Rotational constants in MHz :           382.076631           163.910522           148.096183

                             ****ORCA TERMINATED NORMALLY****
TOTAL RUN TIME: 0 days 0 hours 0 minutes 21 seconds 526 msec
