                         Program Version 6.0.0  -   RELEASE  -
|  1> ! r2scan-3c def2/J RI DEFGRID2 scfconv6 printgap
|  2> %output
|  3>     printlevel normal
|  4> end
|  5> * xyz 0 1
|  6> C 1.2330552899 0.5705852527 -4.27374e-05
|  7> C 0.2910370708 -0.6119357523 -4.20413e-05
|  8> Br -1.5627800993 0.0269522497 7.1369e-06
|  9> Cl 2.9193489936 -0.0444403352 1.63267e-05
| 10> H 1.1143325905 1.1829317934 -0.893682655
| 11> H 1.1143812416 1.1828725655 0.8936346421
| 12> H 0.406914309 -1.2232741017 0.8932773238
| 13> H 0.4068866127 -1.2232785334 -0.893359116
| 14> *
| 15>
| 16>                          ****END OF INPUT****

CARTESIAN COORDINATES (ANGSTROEM)
---------------------------------
  C      1.233055    0.570585   -0.000043
  C      0.291037   -0.611936   -0.000042
  Br    -1.562780    0.026952    0.000007
  Cl     2.919349   -0.044440    0.000016
  H      1.114333    1.182932   -0.893683
  H      1.114381    1.182873    0.893635
  H      0.406914   -1.223274    0.893277
  H      0.406887   -1.223279   -0.893359

 Total Charge           Charge          ....    0
 Multiplicity           Mult            ....    1
 Number of Electrons    NEL             ....   68
 Basis Dimension        Dim             ....  121

ORBITAL ENERGIES
----------------

  NO   OCC          E(Eh)            E(eV)
   0   2.0000    -482.230325    -13122.1543
   1   2.0000    -101.219327     -2754.3179
   2   2.0000     -62.302237     -1695.3301
   3   2.0000     -56.082817     -1526.0910
   4   2.0000     -56.079951     -1526.0130
   5   2.0000     -56.079857     -1526.0105
   6   2.0000     -10.115753      -275.2636
   7   2.0000     -10.112247      -275.1682
   8   2.0000      -9.375116      -255.1099
   9   2.0000      -8.634282      -234.9508
  10   2.0000      -7.121487      -193.7855
  11   2.0000      -7.111228      -193.5063
  12   2.0000      -7.110977      -193.4995
  13   2.0000      -6.442001      -175.2958
  14   2.0000      -6.428094      -174.9173
  15   2.0000      -6.427753      -174.9080
  16   2.0000      -2.539489       -69.1030
  17   2.0000      -2.536094       -69.0106
  18   2.0000      -2.535847       -69.0039
  19   2.0000      -2.525506       -68.7225
  20   2.0000      -2.525483       -68.7219
  21   2.0000      -0.847122       -23.0514
  22   2.0000      -0.781920       -21.2771
  23   2.0000      -0.686207       -18.6726
  24   2.0000      -0.601501       -16.3677
  25   2.0000      -0.478446       -13.0192
  26   2.0000      -0.430919       -11.7259
  27   2.0000      -0.419721       -11.4212
  28   2.0000      -0.385839       -10.4992
  29   2.0000      -0.360370        -9.8062
  30   2.0000      -0.289000        -7.8641
  31   2.0000      -0.283047        -7.7021
  32   2.0000      -0.268413        -7.3039
  33   2.0000      -0.265848        -7.2341
  34   0.0000      -0.048311        -1.3146
  35   0.0000       0.002390         0.0650
  36   0.0000       0.094274         2.5653
  37   0.0000       0.097784         2.6608
  38   0.0000       0.127846         3.4789

MULLIKEN ATOMIC CHARGES
-----------------------
   0 C :   -0.164743
   1 C :   -0.210645
   2 Br:   -0.152366
   3 Cl:   -0.179666
   4 H :    0.174404
   5 H :    0.174403
   6 H :    0.179306
   7 H :    0.179307
Sum of atomic charges:   -0.0000000

LOEWDIN ATOMIC CHARGES
----------------------
   0 C :   -0.350295
   1 C :   -0.416595
   2 Br:    0.090011
   3 Cl:    0.017256
   4 H :    0.164592
   5 H :    0.164592
   6 H :    0.165220
   7 H :    0.165219

  Mayer bond orders larger than 0.100000
B(  0-C ,  1-C ) :   0.9483 B(  0-C ,  3-Cl) :   0.9559 B(  0-C ,  4-H ) :   0.9516
B(  0-C ,  5-H ) :   0.9516 B(  1-C ,  2-Br) :   0.9610 B(  1-C ,  6-H ) :   0.9503
B(  1-C ,  7-H ) :   0.9503

Dispersion correction           -0.001904947
FINAL SINGLE POINT ENERGY     -3112.911385481754

DIPOLE MOMENT
-------------

Method             : SCF
Type of density    : Electron Density
Multiplicity       :   1
Irrep              :   0
Energy             : -3112.9158912238722223 Eh
Relativity type    :
Basis              : AO
                                X                 Y                 Z
Electronic contribution:    -13.424892100       0.273105070       0.000186897
Nuclear contribution   :     13.446764675      -0.266365180      -0.000209963
                        -----------------------------------------
Total Dipole Moment    :      0.021872575       0.006739889      -0.000023066
                        -----------------------------------------
Magnitude (a.u.)       :      0.022887468
Magnitude (Debye)      :      0.058175319

Rotational constants in cm-1:             0.958221             0.032256             0.031582
Rotational constants in MHz :         28726.752147           967.001652           946.793183

                             ****ORCA TERMINATED NORMALLY****
TOTAL RUN TIME: 0 days 0 hours 0 minutes 10 seconds 695 msec
