                         Program Version 6.0.0  -   RELEASE  -
|  1> ! r2scan-3c def2/J RI DEFGRID2 scfconv6 printgap
|  2> %output
|  3>     printlevel normal
|  4> end
|  5> %cpcm
|  6>     smd true
|  7>     smdsolvent "water"
|  8> end
|  9> * xyz 0 1
| 10> C 1.2330552899 0.5705852527 -4.27374e-05
| 11> C 0.2910370708 -0.6119357523 -4.20413e-05
| 12> Br -1.5627800993 0.0269522497 7.1369e-06
| 13> Cl 2.9193489936 -0.0444403352 1.63267e-05
| 14> H 1.1143325905 1.1829317934 -0.893682655
| 15> H 1.1143812416 1.1828725655 0.8936346421
| 16> H 0.406914309 -1.2232741017 0.8932773238
| 17> H 0.4068866127 -1.2232785334 -0.893359116
| 18> *
| 19>
| 20>                          ****END OF INPUT****

CARTESIAN COORDINATES (ANGSTROEM)
---------------------------------
  C      1.233055    0.570585   -0.000043
  C      0.291037   -0.611936   -0.000042
  Br    -1.562780    0.026952    0.000007
  Cl     2.919349   -0.044440    0.000016
  H      1.114333    1.182932   -0.893683
  H      1.114381    1.182873    0.893635
  H      0.406914   -1.223274    0.893277
  H      0.406887   -1.223279   -0.893359

 Total Charge           Charge          ....    0
 Multiplicity           Mult            ....    1
 Number of Electrons    NEL             ....   68
 Basis Dimension        Dim             ....  121

ORBITAL ENERGIES
----------------

  NO   OCC          E(Eh)            E(eV)
   0   2.0000    -482.223235    -13121.9613
   1   2.0000    -101.212626     -2754.1356
   2   2.0000     -62.295120     -1695.1364
   3   2.0000     -56.075650     -1525.8960
   4   2.0000     -56.072878     -1525.8206
   5   2.0000     -56.072785     -1525.8181
   6   2.0000     -10.098720      -274.8002
   7   2.0000     -10.095056      -274.7004
   8   2.0000      -9.368612      -254.9329
   9   2.0000      -8.626986      -234.7522
  10   2.0000      -7.114728      -193.6016
  11   2.0000      -7.104832      -193.3323
  12   2.0000      -7.104593      -193.3258
  13   2.0000      -6.434395      -175.0888
  14   2.0000      -6.420951      -174.7230
  15   2.0000      -6.420621      -174.7140
  16   2.0000      -2.531975       -68.8985
  17   2.0000      -2.528684       -68.8090
  18   2.0000      -2.528445       -68.8025
  19   2.0000      -2.518441       -68.5303
  20   2.0000      -2.518419       -68.5297
  21   2.0000      -0.835769       -22.7424
  22   2.0000      -0.772241       -21.0137
  23   2.0000      -0.675058       -18.3693
  24   2.0000      -0.584818       -15.9137
  25   2.0000      -0.460107       -12.5201
  26   2.0000      -0.420605       -11.4452
  27   2.0000      -0.403948       -10.9920
  28   2.0000      -0.368178       -10.0186
  29   2.0000      -0.349468        -9.5095
  30   2.0000      -0.282933        -7.6990
  31   2.0000      -0.275606        -7.4996
  32   2.0000      -0.261134        -7.1058
  33   2.0000      -0.258282        -7.0282
  34   0.0000      -0.038863        -1.0575
  35   0.0000       0.013550         0.3687
  36   0.0000       0.111456         3.0329
  37   0.0000       0.114734         3.1221
  38   0.0000       0.150228         4.0879

MULLIKEN ATOMIC CHARGES
-----------------------
   0 C :   -0.170525
   1 C :   -0.225019
   2 Br:   -0.187731
   3 Cl:   -0.216983
   4 H :    0.197597
   5 H :    0.197593
   6 H :    0.202533
   7 H :    0.202536
Sum of atomic charges:   -0.0000000

LOEWDIN ATOMIC CHARGES
----------------------
   0 C :   -0.345204
   1 C :   -0.411708
   2 Br:    0.068885
   3 Cl:   -0.004868
   4 H :    0.173220
   5 H :    0.173218
   6 H :    0.173228
   7 H :    0.173228

  Mayer bond orders larger than 0.100000
B(  0-C ,  1-C ) :   0.9374 B(  0-C ,  3-Cl) :   0.9305 B(  0-C ,  4-H ) :   0.9468
B(  0-C ,  5-H ) :   0.9468 B(  1-C ,  2-Br) :   0.9346 B(  1-C ,  6-H ) :   0.9451
B(  1-C ,  7-H ) :   0.9451

Dispersion correction           -0.001904947
FINAL SINGLE POINT ENERGY     -3112.915863724076

DIPOLE MOMENT
-------------

Method             : SCF
Type of density    : Electron Density
Multiplicity       :   1
Irrep              :   0
Energy             : -3112.9203694661941881 Eh
Relativity type    :
Basis              : AO
                                X                 Y                 Z
Electronic contribution:    -13.421012935       0.277336417       0.000177108
Nuclear contribution   :     13.446764675      -0.266365180      -0.000209963
                        -----------------------------------------
Total Dipole Moment    :      0.025751740       0.010971237      -0.000032855
                        -----------------------------------------
Magnitude (a.u.)       :      0.027991450
Magnitude (Debye)      :      0.071148611

Rotational constants in cm-1:             0.958221             0.032256             0.031582
Rotational constants in MHz :         28726.752147           967.001652           946.793183

                             ****ORCA TERMINATED NORMALLY****
TOTAL RUN TIME: 0 days 0 hours 0 minutes 13 seconds 904 msec
