                         Program Version 6.0.0  -   RELEASE  -
|  1> ! pbe def2-sv(p) def2/J RI DEFGRID1 loosescf d4 GCP(DFT/SV(P)) printgap
|  2> %output
|  3>     printlevel normal
|  4> end
|  5> * xyz 0 1
|  6> C 0.6182277407 1.7003743704 -0.0143008931
|  7> C 1.3986863877 0.4006099179 -0.2689980059
|  8> H 1.5801058979 0.2974187382 -1.3454959513
|  9> C 0.5424622681 -0.7857938586 0.2172437552
| 10> H 0.3466778654 -0.6798999946 1.2915186819
| 11> C -0.8021273768 -0.7416978812 -0.5348972404
| 12> H -0.6229250121 -0.841061212 -1.6109608842
| 13> C -1.4709420099 0.6256937753 -0.2762659407
| 14> H -2.3621205736 0.7177802064 -0.9124878921
| 15> O -0.6419620596 1.6903802103 -0.6695071528
| 16> O -1.8019748146 0.6804681513 1.0765856641
| 17> O -1.658347596 -1.7944814077 -0.1922118459
| 18> O 1.1970663714 -2.0202201793 0.0940267131
| 19> O 2.6727865494 0.4311017376 0.3176208961
| 20> H 1.1537670692 2.5570200545 -0.4224928206
| 21> H 0.477036419 1.8338608411 1.065660855
| 22> H -2.3728058557 1.442813028 1.2546321683
| 23> H -1.8989884199 -1.7118915715 0.7435151692
| 24> H 1.3823845162 -2.2079615327 -0.8366422646
| 25> H 2.594605801 0.3778022051 1.2811533907
| 26> *
| 27>
| 28>                          ****END OF INPUT****

CARTESIAN COORDINATES (ANGSTROEM)
---------------------------------
  C      0.618228    1.700374   -0.014301
  C      1.398686    0.400610   -0.268998
  H      1.580106    0.297419   -1.345496
  C      0.542462   -0.785794    0.217244
  H      0.346678   -0.679900    1.291519
  C     -0.802127   -0.741698   -0.534897
  H     -0.622925   -0.841061   -1.610961
  C     -1.470942    0.625694   -0.276266
  H     -2.362121    0.717780   -0.912488
  O     -0.641962    1.690380   -0.669507
  O     -1.801975    0.680468    1.076586
  O     -1.658348   -1.794481   -0.192212
  O      1.197066   -2.020220    0.094027
  O      2.672787    0.431102    0.317621
  H      1.153767    2.557020   -0.422493
  H      0.477036    1.833861    1.065661
  H     -2.372806    1.442813    1.254632
  H     -1.898988   -1.711892    0.743515
  H      1.382385   -2.207962   -0.836642
  H      2.594606    0.377802    1.281153

 Total Charge           Charge          ....    0
 Multiplicity           Mult            ....    1
 Number of Electrons    NEL             ....   80
 Basis Dimension        Dim             ....  160

ORBITAL ENERGIES
----------------

  NO   OCC          E(Eh)            E(eV)
   0   2.0000     -18.780162      -511.0342
   1   2.0000     -18.771248      -510.7916
   2   2.0000     -18.751340      -510.2499
   3   2.0000     -18.746998      -510.1317
   4   2.0000     -18.746022      -510.1052
   5   2.0000      -9.988878      -271.8112
   6   2.0000      -9.942775      -270.5567
   7   2.0000      -9.941900      -270.5328
   8   2.0000      -9.939819      -270.4762
   9   2.0000      -9.934746      -270.3382
  10   2.0000      -0.988686       -26.9035
  11   2.0000      -0.940110       -25.5817
  12   2.0000      -0.930887       -25.3307
  13   2.0000      -0.918266       -24.9873
  14   2.0000      -0.911604       -24.8060
  15   2.0000      -0.699112       -19.0238
  16   2.0000      -0.680445       -18.5158
  17   2.0000      -0.585480       -15.9317
  18   2.0000      -0.578834       -15.7509
  19   2.0000      -0.555520       -15.1165
  20   2.0000      -0.499629       -13.5956
  21   2.0000      -0.492754       -13.4085
  22   2.0000      -0.460474       -12.5301
  23   2.0000      -0.442393       -12.0381
  24   2.0000      -0.428991       -11.6734
  25   2.0000      -0.416107       -11.3228
  26   2.0000      -0.412062       -11.2128
  27   2.0000      -0.373912       -10.1747
  28   2.0000      -0.365421        -9.9436
  29   2.0000      -0.350806        -9.5459
  30   2.0000      -0.336235        -9.1494
  31   2.0000      -0.316226        -8.6049
  32   2.0000      -0.287726        -7.8294
  33   2.0000      -0.283937        -7.7263
  34   2.0000      -0.277022        -7.5381
  35   2.0000      -0.264002        -7.1839
  36   2.0000      -0.250941        -6.8285
  37   2.0000      -0.234200        -6.3729
  38   2.0000      -0.207118        -5.6360
  39   2.0000      -0.202017        -5.4972
  40   0.0000       0.011830         0.3219
  41   0.0000       0.025122         0.6836
  42   0.0000       0.030277         0.8239
  43   0.0000       0.049020         1.3339
  44   0.0000       0.071829         1.9546

MULLIKEN ATOMIC CHARGES
-----------------------
   0 C :    0.082067
   1 C :    0.004793
   2 H :    0.058263
   3 C :    0.038123
   4 H :    0.052284
   5 C :    0.065737
   6 H :    0.064434
   7 C :    0.140594
   8 H :    0.072238
   9 O :   -0.311751
  10 O :   -0.410391
  11 O :   -0.412180
  12 O :   -0.397543
  13 O :   -0.406038
  14 H :    0.100682
  15 H :    0.048777
  16 H :    0.313586
  17 H :    0.300723
  18 H :    0.296634
  19 H :    0.298968
Sum of atomic charges:   -0.0000000

LOEWDIN ATOMIC CHARGES
----------------------
   0 C :   -0.130123
   1 C :   -0.089059
   2 H :    0.111245
   3 C :   -0.089956
   4 H :    0.109701
   5 C :   -0.089564
   6 H :    0.115891
   7 C :   -0.012919
   8 H :    0.100940
   9 O :   -0.157815
  10 O :   -0.309768
  11 O :   -0.308537
  12 O :   -0.307424
  13 O :   -0.308816
  14 H :    0.119871
  15 H :    0.095695
  16 H :    0.295415
  17 H :    0.283404
  18 H :    0.286035
  19 H :    0.285783

  Mayer bond orders larger than 0.100000
B(  0-C ,  1-C ) :   1.0357 B(  0-C ,  9-O ) :   0.9928 B(  0-C , 14-H ) :   0.9235
B(  0-C , 15-H ) :   0.8907 B(  1-C ,  2-H ) :   0.8699 B(  1-C ,  3-C ) :   0.9956
B(  1-C , 13-O ) :   1.0584 B(  3-C ,  4-H ) :   0.8705 B(  3-C ,  5-C ) :   0.9707
B(  3-C , 12-O ) :   1.0931 B(  5-C ,  6-H ) :   0.8790 B(  5-C ,  7-C ) :   0.9788
B(  5-C , 11-O ) :   1.0684 B(  7-C ,  8-H ) :   0.9034 B(  7-C ,  9-O ) :   1.0641
B(  7-C , 10-O ) :   1.0829 B( 10-O , 16-H ) :   0.8383 B( 11-O , 17-H ) :   0.8421
B( 12-O , 18-H ) :   0.8513 B( 13-O , 19-H ) :   0.8489

Dispersion correction           -0.019188771
FINAL SINGLE POINT ENERGY      -571.414741874795

DIPOLE MOMENT
-------------

Method             : SCF
Type of density    : Electron Density
Multiplicity       :   1
Irrep              :   0
Energy             :  -571.5225266487393583 Eh
Relativity type    :
Basis              : AO
                                X                 Y                 Z
Electronic contribution:     -0.798934542      -0.959126502      -0.091958298
Nuclear contribution   :      0.257121863       1.660456567       0.486247603
                        -----------------------------------------
Total Dipole Moment    :     -0.541812679       0.701330066       0.394289304
                        -----------------------------------------
Magnitude (a.u.)       :      0.969994276
Magnitude (Debye)      :      2.465529512

Rotational constants in cm-1:             0.056803             0.044361             0.028889
Rotational constants in MHz :          1702.917787          1329.905026           866.055681

                             ****ORCA TERMINATED NORMALLY****
TOTAL RUN TIME: 0 days 0 hours 0 minutes 11 seconds 418 msec
