                         Program Version 6.0.0  -   RELEASE  -
|  1> ! pbe def2-sv(p) def2/J RI DEFGRID1 loosescf d4 GCP(DFT/SV(P)) printgap
|  2> %output
|  3>     printlevel normal
|  4> end
|  5> * xyz 0 1
|  6> C 5.7731088358 1.0924637793 -1.104518329
|  7> C 4.3692165507 0.5766092159 -1.3462331041
|  8> O 3.689780603 0.5395143284 -0.0738077021
|  9> P 2.1197718446 0.3288099718 0.0137850697
| 10> S 1.0259744079 1.5884718931 -1.0144100482
| 11> O 1.8477013379 0.4629942359 1.5569399516
| 12> C 2.7046940212 -0.0074934876 2.6290547171
| 13> C 2.7410145024 -1.518657333 2.7187332639
| 14> S 1.8964226258 -1.7097930243 -0.5879402303
| 15> C 0.1208832893 -1.6973931672 -0.8631138907
| 16> S -0.7913292427 -1.2842354482 0.6667064639
| 17> P -2.4357316176 -0.2548045663 -0.1646691733
| 18> S -2.2753717296 0.2355413657 -2.0624977425
| 19> O -2.7947910659 0.9446443199 0.8160968761
| 20> C -2.1724601095 2.2398006844 0.7719516037
| 21> C -1.170409261 2.3834504145 1.8995501931
| 22> O -3.555018992 -1.3041646622 0.2246592749
| 23> C -4.9580185262 -0.997531556 0.3794715574
| 24> C -5.5750283973 -0.4474292058 -0.8892481586
| 25> H 5.735995737 2.0912388747 -0.6787564277
| 26> H 6.2977698684 0.4343042914 -0.4183615716
| 27> H 6.3064503051 1.1258263561 -2.0487494298
| 28> H 4.3788071722 -0.4361162502 -1.7577513545
| 29> H 3.8089948109 1.2320673102 -2.0209895799
| 30> H 3.7025206815 0.4060160034 2.4769217875
| 31> H 2.2476731533 0.4336406244 3.516205258
| 32> H 3.2807578892 -1.941792616 1.8749051383
| 33> H 3.2424068385 -1.8042080394 3.6382244404
| 34> H 1.7288832265 -1.9175908534 2.7238773293
| 35> H -0.1482287113 -2.7008861639 -1.1832416779
| 36> H -0.1359496758 -0.9555777503 -1.6257092451
| 37> H -1.6952607473 2.3814107662 -0.2037870893
| 38> H -2.9926502767 2.9524798373 0.8796542348
| 39> H -0.3382342249 1.6966370406 1.7575257015
| 40> H -0.7858863582 3.398300298 1.9034965777
| 41> H -1.647624037 2.1692414703 2.8515908318
| 42> H -5.395527661 -1.9591190168 0.6530914407
| 43> H -5.0644953811 -0.2905226999 1.2049355691
| 44> H -5.4112062869 -1.1324165474 -1.7178537441
| 45> H -6.6414066919 -0.3086380896 -0.7416322842
| 46> H -5.1226287532 0.5105073931 -1.1428876041
| 47> *
| 48>
| 49>                          ****END OF INPUT****

CARTESIAN COORDINATES (ANGSTROEM)
---------------------------------
  C      5.773109    1.092464   -1.104518
  C      4.369217    0.576609   -1.346233
  O      3.689781    0.539514   -0.073808
  P      2.119772    0.328810    0.013785
  S      1.025974    1.588472   -1.014410
  O      1.847701    0.462994    1.556940
  C      2.704694   -0.007493    2.629055
  C      2.741015   -1.518657    2.718733
  S      1.896423   -1.709793   -0.587940
  C      0.120883   -1.697393   -0.863114
  S     -0.791329   -1.284235    0.666706
  P     -2.435732   -0.254805   -0.164669
  S     -2.275372    0.235541   -2.062498
  O     -2.794791    0.944644    0.816097
  C     -2.172460    2.239801    0.771952
  C     -1.170409    2.383450    1.899550
  O     -3.555019   -1.304165    0.224659
  C     -4.958019   -0.997532    0.379472
  C     -5.575028   -0.447429   -0.889248
  H      5.735996    2.091239   -0.678756
  H      6.297770    0.434304   -0.418362
  H      6.306450    1.125826   -2.048749
  H      4.378807   -0.436116   -1.757751
  H      3.808995    1.232067   -2.020990
  H      3.702521    0.406016    2.476922
  H      2.247673    0.433641    3.516205
  H      3.280758   -1.941793    1.874905
  H      3.242407   -1.804208    3.638224
  H      1.728883   -1.917591    2.723877
  H     -0.148229   -2.700886   -1.183242
  H     -0.135950   -0.955578   -1.625709
  H     -1.695261    2.381411   -0.203787
  H     -2.992650    2.952480    0.879654
  H     -0.338234    1.696637    1.757526
  H     -0.785886    3.398300    1.903497
  H     -1.647624    2.169241    2.851591
  H     -5.395528   -1.959119    0.653091
  H     -5.064495   -0.290523    1.204936
  H     -5.411206   -1.132417   -1.717854
  H     -6.641407   -0.308638   -0.741632
  H     -5.122629    0.510507   -1.142888

 Total Charge           Charge          ....    0
 Multiplicity           Mult            ....    1
 Number of Electrons    NEL             ....  202
 Basis Dimension        Dim             ....  334

ORBITAL ENERGIES
----------------

  NO   OCC          E(Eh)            E(eV)
   0   2.0000     -88.043612     -2395.7885
   1   2.0000     -88.035530     -2395.5686
   2   2.0000     -87.979608     -2394.0468
   3   2.0000     -87.977901     -2394.0004
   4   2.0000     -76.427128     -2079.6879
   5   2.0000     -76.419602     -2079.4831
   6   2.0000     -18.799119      -511.5500
   7   2.0000     -18.794900      -511.4352
   8   2.0000     -18.787231      -511.2266
   9   2.0000     -18.781625      -511.0740
  10   2.0000      -9.959458      -271.0106
  11   2.0000      -9.957403      -270.9547
  12   2.0000      -9.949412      -270.7373
  13   2.0000      -9.948003      -270.6989
  14   2.0000      -9.939752      -270.4744
  15   2.0000      -9.892519      -269.1891
  16   2.0000      -9.888725      -269.0859
  17   2.0000      -9.878004      -268.7942
  18   2.0000      -9.868602      -268.5383
  19   2.0000      -7.688528      -209.2155
  20   2.0000      -7.680433      -208.9952
  21   2.0000      -7.624572      -207.4751
  22   2.0000      -7.622956      -207.4312
  23   2.0000      -6.424244      -174.8126
  24   2.0000      -6.417010      -174.6157
  25   2.0000      -5.716419      -155.5517
  26   2.0000      -5.712926      -155.4566
  27   2.0000      -5.708359      -155.3323
  28   2.0000      -5.705655      -155.2588
  29   2.0000      -5.705057      -155.2425
  30   2.0000      -5.697246      -155.0299
  31   2.0000      -5.653578      -153.8417
  32   2.0000      -5.651797      -153.7932
  33   2.0000      -5.645164      -153.6127
  34   2.0000      -5.644639      -153.5984
  35   2.0000      -5.643639      -153.5712
  36   2.0000      -5.643107      -153.5568
  37   2.0000      -4.647290      -126.4592
  38   2.0000      -4.645989      -126.4238
  39   2.0000      -4.644303      -126.3779
  40   2.0000      -4.639871      -126.2573
  41   2.0000      -4.638531      -126.2208
  42   2.0000      -4.637468      -126.1919
  43   2.0000      -0.992808       -27.0157
  44   2.0000      -0.980331       -26.6762
  45   2.0000      -0.948947       -25.8222
  46   2.0000      -0.935907       -25.4673
  47   2.0000      -0.759800       -20.6752
  48   2.0000      -0.721783       -19.6407
  49   2.0000      -0.708335       -19.2748
  50   2.0000      -0.696304       -18.9474
  51   2.0000      -0.679378       -18.4868
  52   2.0000      -0.670502       -18.2453
  53   2.0000      -0.646786       -17.5999
  54   2.0000      -0.628583       -17.1046
  55   2.0000      -0.593577       -16.1520
  56   2.0000      -0.586841       -15.9687
  57   2.0000      -0.577226       -15.7071
  58   2.0000      -0.566636       -15.4189
  59   2.0000      -0.557490       -15.1701
  60   2.0000      -0.509594       -13.8668
  61   2.0000      -0.491461       -13.3733
  62   2.0000      -0.478462       -13.0196
  63   2.0000      -0.466206       -12.6861
  64   2.0000      -0.450040       -12.2462
  65   2.0000      -0.449459       -12.2304
  66   2.0000      -0.445322       -12.1178
  67   2.0000      -0.432423       -11.7668
  68   2.0000      -0.418125       -11.3777
  69   2.0000      -0.413917       -11.2633
  70   2.0000      -0.406457       -11.0603
  71   2.0000      -0.401866       -10.9353
  72   2.0000      -0.398231       -10.8364
  73   2.0000      -0.380858       -10.3637
  74   2.0000      -0.377491       -10.2720
  75   2.0000      -0.369827       -10.0635
  76   2.0000      -0.361502        -9.8370
  77   2.0000      -0.357441        -9.7265
  78   2.0000      -0.352404        -9.5894
  79   2.0000      -0.346923        -9.4403
  80   2.0000      -0.344027        -9.3614
  81   2.0000      -0.341727        -9.2989
  82   2.0000      -0.338243        -9.2040
  83   2.0000      -0.332772        -9.0552
  84   2.0000      -0.325744        -8.8639
  85   2.0000      -0.320584        -8.7235
  86   2.0000      -0.308668        -8.3993
  87   2.0000      -0.306277        -8.3342
  88   2.0000      -0.297022        -8.0824
  89   2.0000      -0.284882        -7.7520
  90   2.0000      -0.281872        -7.6701
  91   2.0000      -0.277165        -7.5420
  92   2.0000      -0.267900        -7.2899
  93   2.0000      -0.262171        -7.1340
  94   2.0000      -0.253832        -6.9071
  95   2.0000      -0.232176        -6.3178
  96   2.0000      -0.219962        -5.9855
  97   2.0000      -0.205389        -5.5889
  98   2.0000      -0.197263        -5.3678
  99   2.0000      -0.190955        -5.1961
 100   2.0000      -0.183321        -4.9884
 101   0.0000      -0.043726        -1.1898
 102   0.0000      -0.029801        -0.8109
 103   0.0000      -0.004594        -0.1250
 104   0.0000       0.014104         0.3838
 105   0.0000       0.015851         0.4313

MULLIKEN ATOMIC CHARGES
-----------------------
   0 C :   -0.281325
   1 C :   -0.012137
   2 O :   -0.387360
   3 P :    0.612824
   4 S :   -0.306265
   5 O :   -0.350621
   6 C :    0.001276
   7 C :   -0.316577
   8 S :   -0.122917
   9 C :   -0.349648
  10 S :   -0.111211
  11 P :    0.637246
  12 S :   -0.316698
  13 O :   -0.385762
  14 C :   -0.011232
  15 C :   -0.311592
  16 O :   -0.373612
  17 C :    0.001761
  18 C :   -0.314051
  19 H :    0.122240
  20 H :    0.113898
  21 H :    0.115192
  22 H :    0.106826
  23 H :    0.110366
  24 H :    0.111859
  25 H :    0.110641
  26 H :    0.123707
  27 H :    0.113020
  28 H :    0.128627
  29 H :    0.180926
  30 H :    0.218810
  31 H :    0.122738
  32 H :    0.095817
  33 H :    0.147626
  34 H :    0.104855
  35 H :    0.099808
  36 H :    0.104907
  37 H :    0.107078
  38 H :    0.122881
  39 H :    0.107185
  40 H :    0.128894
Sum of atomic charges:   -0.0000000

LOEWDIN ATOMIC CHARGES
----------------------
   0 C :   -0.350384
   1 C :   -0.119124
   2 O :   -0.251246
   3 P :    0.564248
   4 S :   -0.298545
   5 O :   -0.228015
   6 C :   -0.107297
   7 C :   -0.369052
   8 S :    0.070945
   9 C :   -0.480656
  10 S :    0.073490
  11 P :    0.567978
  12 S :   -0.298393
  13 O :   -0.245565
  14 C :   -0.118164
  15 C :   -0.367111
  16 O :   -0.249113
  17 C :   -0.110169
  18 C :   -0.367805
  19 H :    0.129675
  20 H :    0.125455
  21 H :    0.132601
  22 H :    0.109279
  23 H :    0.112732
  24 H :    0.114610
  25 H :    0.122561
  26 H :    0.117376
  27 H :    0.130749
  28 H :    0.127643
  29 H :    0.134663
  30 H :    0.123250
  31 H :    0.108649
  32 H :    0.113038
  33 H :    0.123320
  34 H :    0.128977
  35 H :    0.118613
  36 H :    0.119330
  37 H :    0.112233
  38 H :    0.129129
  39 H :    0.127616
  40 H :    0.122477

  Mayer bond orders larger than 0.100000
B(  0-C ,  1-C ) :   1.1596 B(  0-C , 19-H ) :   0.9507 B(  0-C , 20-H ) :   0.9511
B(  0-C , 21-H ) :   0.9416 B(  1-C ,  2-O ) :   0.8998 B(  1-C , 22-H ) :   0.9275
B(  1-C , 23-H ) :   0.9121 B(  2-O ,  3-P ) :   1.0794 B(  3-P ,  4-S ) :   1.6634
B(  3-P ,  5-O ) :   1.1220 B(  3-P ,  8-S ) :   0.9340 B(  4-S ,  8-S ) :   0.1103
B(  5-O ,  6-C ) :   0.8956 B(  6-C ,  7-C ) :   1.1703 B(  6-C , 24-H ) :   0.9267
B(  6-C , 25-H ) :   0.9340 B(  7-C , 26-H ) :   0.9391 B(  7-C , 27-H ) :   0.9357
B(  7-C , 28-H ) :   0.9415 B(  8-S ,  9-C ) :   1.0092 B(  9-C , 10-S ) :   0.9939
B(  9-C , 29-H ) :   0.9090 B(  9-C , 30-H ) :   0.8399 B( 10-S , 11-P ) :   0.9540
B( 10-S , 12-S ) :   0.1258 B( 11-P , 12-S ) :   1.6334 B( 11-P , 13-O ) :   1.0956
B( 11-P , 16-O ) :   1.1236 B( 13-O , 14-C ) :   0.8979 B( 14-C , 15-C ) :   1.1723
B( 14-C , 31-H ) :   0.9018 B( 14-C , 32-H ) :   0.9346 B( 15-C , 33-H ) :   0.9235
B( 15-C , 34-H ) :   0.9403 B( 15-C , 35-H ) :   0.9460 B( 16-O , 17-C ) :   0.9121
B( 17-C , 18-C ) :   1.1666 B( 17-C , 36-H ) :   0.9359 B( 17-C , 37-H ) :   0.9294
B( 18-C , 38-H ) :   0.9452 B( 18-C , 39-H ) :   0.9359 B( 18-C , 40-H ) :   0.9354

Dispersion correction           -0.065212424
FINAL SINGLE POINT ENERGY     -2929.517080333909

DIPOLE MOMENT
-------------

Method             : SCF
Type of density    : Electron Density
Multiplicity       :   1
Irrep              :   0
Energy             : -2929.6366160694497012 Eh
Relativity type    :
Basis              : AO
                                X                 Y                 Z
Electronic contribution:     -4.489452415      -5.331114352      -8.448816414
Nuclear contribution   :      5.294766441       5.029136895       9.585075165
                        -----------------------------------------
Total Dipole Moment    :      0.805314026      -0.301977457       1.136258751
                        -----------------------------------------
Magnitude (a.u.)       :      1.425063162
Magnitude (Debye)      :      3.622222694

Rotational constants in cm-1:             0.014415             0.004514             0.004442
Rotational constants in MHz :           432.151940           135.336334           133.162580

                             ****ORCA TERMINATED NORMALLY****
TOTAL RUN TIME: 0 days 0 hours 0 minutes 21 seconds 20 msec
