                         Program Version 6.0.0  -   RELEASE  -
|  1> ! r2scan-3c def2/J RI DEFGRID2 scfconv6 printgap
|  2> %output
|  3>     printlevel normal
|  4> end
|  5> * xyz 0 1
|  6> C -1.4404352083 0.6344186193 -1.3698974
|  7> C -1.0102557416 0.131266833 0.0164477049
|  8> C -1.8487775933 -1.0890860914 0.4089189191
|  9> C -1.1607544855 1.2432193183 1.0522947107
| 10> C 0.4372214925 -0.3145343444 -0.128984892
| 11> O 0.7812466362 -1.3198845222 -0.7181130026
| 12> O 1.303410887 0.5208026451 0.4266664075
| 13> C 2.692211313 0.2033166837 0.3109691528
| 14> H -0.8523015891 1.5017757924 -1.660962078
| 15> H -1.2997973663 -0.1478510009 -2.1124020106
| 16> H -2.4897286331 0.9146679236 -1.3470385791
| 17> H -1.5891336861 -1.4234479364 1.4106624992
| 18> H -1.6638276909 -1.9059081008 -0.2846668556
| 19> H -2.9047322664 -0.8360544086 0.3861868289
| 20> H -0.8092500575 0.910741859 2.0255331698
| 21> H -0.5889072873 2.1201766902 0.7626927729
| 22> H -2.2085010133 1.5189261253 1.1348624755
| 23> H 3.0003591524 0.2567248096 -0.7338972094
| 24> H 2.8770176855 -0.805273083 0.6829128164
| 25> H 3.2126521341 0.9441608291 0.9096503287
| 26> *
| 27>
| 28>                          ****END OF INPUT****

CARTESIAN COORDINATES (ANGSTROEM)
---------------------------------
  C     -1.440435    0.634419   -1.369897
  C     -1.010256    0.131267    0.016448
  C     -1.848778   -1.089086    0.408919
  C     -1.160754    1.243219    1.052295
  C      0.437221   -0.314534   -0.128985
  O      0.781247   -1.319885   -0.718113
  O      1.303411    0.520803    0.426666
  C      2.692211    0.203317    0.310969
  H     -0.852302    1.501776   -1.660962
  H     -1.299797   -0.147851   -2.112402
  H     -2.489729    0.914668   -1.347039
  H     -1.589134   -1.423448    1.410662
  H     -1.663828   -1.905908   -0.284667
  H     -2.904732   -0.836054    0.386187
  H     -0.809250    0.910742    2.025533
  H     -0.588907    2.120177    0.762693
  H     -2.208501    1.518926    1.134862
  H      3.000359    0.256725   -0.733897
  H      2.877018   -0.805273    0.682913
  H      3.212652    0.944161    0.909650

 Total Charge           Charge          ....    0
 Multiplicity           Mult            ....    1
 Number of Electrons    NEL             ....   64
 Basis Dimension        Dim             ....  222

ORBITAL ENERGIES
----------------

  NO   OCC          E(Eh)            E(eV)
   0   2.0000     -19.001497      -517.0570
   1   2.0000     -18.927428      -515.0415
   2   2.0000     -10.148884      -276.1652
   3   2.0000     -10.087862      -274.5047
   4   2.0000     -10.057956      -273.6909
   5   2.0000     -10.025378      -272.8044
   6   2.0000     -10.019799      -272.6526
   7   2.0000     -10.019731      -272.6507
   8   2.0000      -1.075491       -29.2656
   9   2.0000      -0.975291       -26.5390
  10   2.0000      -0.794732       -21.6258
  11   2.0000      -0.702691       -19.1212
  12   2.0000      -0.659633       -17.9495
  13   2.0000      -0.655166       -17.8280
  14   2.0000      -0.580188       -15.7877
  15   2.0000      -0.519934       -14.1481
  16   2.0000      -0.463492       -12.6123
  17   2.0000      -0.456119       -12.4116
  18   2.0000      -0.438900       -11.9431
  19   2.0000      -0.410392       -11.1673
  20   2.0000      -0.406870       -11.0715
  21   2.0000      -0.404329       -11.0023
  22   2.0000      -0.376250       -10.2383
  23   2.0000      -0.359647        -9.7865
  24   2.0000      -0.343525        -9.3478
  25   2.0000      -0.341480        -9.2922
  26   2.0000      -0.336317        -9.1516
  27   2.0000      -0.313711        -8.5365
  28   2.0000      -0.304163        -8.2767
  29   2.0000      -0.303283        -8.2527
  30   2.0000      -0.273870        -7.4524
  31   2.0000      -0.233318        -6.3489
  32   0.0000      -0.015655        -0.4260
  33   0.0000       0.056455         1.5362
  34   0.0000       0.090676         2.4674
  35   0.0000       0.105096         2.8598
  36   0.0000       0.131508         3.5785

MULLIKEN ATOMIC CHARGES
-----------------------
   0 C :   -0.498936
   1 C :    0.135083
   2 C :   -0.501632
   3 C :   -0.508005
   4 C :    0.307327
   5 O :   -0.422633
   6 O :   -0.146589
   7 C :   -0.298815
   8 H :    0.156188
   9 H :    0.175949
  10 H :    0.159858
  11 H :    0.150868
  12 H :    0.181528
  13 H :    0.156708
  14 H :    0.159945
  15 H :    0.162339
  16 H :    0.154732
  17 H :    0.159774
  18 H :    0.165282
  19 H :    0.151028
Sum of atomic charges:   -0.0000000

LOEWDIN ATOMIC CHARGES
----------------------
   0 C :   -0.375055
   1 C :   -0.146048
   2 C :   -0.379530
   3 C :   -0.381849
   4 C :    0.363775
   5 O :   -0.433310
   6 O :   -0.605825
   7 C :   -0.041642
   8 H :    0.161071
   9 H :    0.169892
  10 H :    0.158551
  11 H :    0.160727
  12 H :    0.174627
  13 H :    0.156501
  14 H :    0.163553
  15 H :    0.167466
  16 H :    0.155749
  17 H :    0.175909
  18 H :    0.179502
  19 H :    0.175936

  Mayer bond orders larger than 0.100000
B(  0-C ,  1-C ) :   0.9134 B(  0-C ,  8-H ) :   0.9668 B(  0-C ,  9-H ) :   0.9678
B(  0-C , 10-H ) :   0.9767 B(  1-C ,  2-C ) :   0.9284 B(  1-C ,  3-C ) :   0.9321
B(  1-C ,  4-C ) :   0.9369 B(  2-C , 11-H ) :   0.9689 B(  2-C , 12-H ) :   0.9647
B(  2-C , 13-H ) :   0.9799 B(  3-C , 14-H ) :   0.9744 B(  3-C , 15-H ) :   0.9694
B(  3-C , 16-H ) :   0.9739 B(  4-C ,  5-O ) :   1.8255 B(  4-C ,  6-O ) :   1.1151
B(  6-O ,  7-C ) :   0.8431 B(  7-C , 17-H ) :   0.9612 B(  7-C , 18-H ) :   0.9621
B(  7-C , 19-H ) :   0.9707

Dispersion correction           -0.005660913
FINAL SINGLE POINT ENERGY      -386.234053065744

DIPOLE MOMENT
-------------

Method             : SCF
Type of density    : Electron Density
Multiplicity       :   1
Irrep              :   0
Energy             :  -386.2409816740738506 Eh
Relativity type    :
Basis              : AO
                                X                 Y                 Z
Electronic contribution:      5.042221057      -2.206991919      -0.747340931
Nuclear contribution   :     -4.956523826       2.848283136       1.096649049
                        -----------------------------------------
Total Dipole Moment    :      0.085697231       0.641291217       0.349308117
                        -----------------------------------------
Magnitude (a.u.)       :      0.735264987
Magnitude (Debye)      :      1.868895073

Rotational constants in cm-1:             0.105749             0.050400             0.044307
Rotational constants in MHz :          3170.282909          1510.948421          1328.296411

                             ****ORCA TERMINATED NORMALLY****
TOTAL RUN TIME: 0 days 0 hours 1 minutes 5 seconds 355 msec
