                         Program Version 6.0.0  -   RELEASE  -
|  1> ! r2scan-3c def2/J RI DEFGRID2 scfconv6 printgap
|  2> %output
|  3>     printlevel normal
|  4> end
|  5> %cpcm
|  6>     smd true
|  7>     smdsolvent "water"
|  8> end
|  9> * xyz 0 1
| 10> C -1.4404352083 0.6344186193 -1.3698974
| 11> C -1.0102557416 0.131266833 0.0164477049
| 12> C -1.8487775933 -1.0890860914 0.4089189191
| 13> C -1.1607544855 1.2432193183 1.0522947107
| 14> C 0.4372214925 -0.3145343444 -0.128984892
| 15> O 0.7812466362 -1.3198845222 -0.7181130026
| 16> O 1.303410887 0.5208026451 0.4266664075
| 17> C 2.692211313 0.2033166837 0.3109691528
| 18> H -0.8523015891 1.5017757924 -1.660962078
| 19> H -1.2997973663 -0.1478510009 -2.1124020106
| 20> H -2.4897286331 0.9146679236 -1.3470385791
| 21> H -1.5891336861 -1.4234479364 1.4106624992
| 22> H -1.6638276909 -1.9059081008 -0.2846668556
| 23> H -2.9047322664 -0.8360544086 0.3861868289
| 24> H -0.8092500575 0.910741859 2.0255331698
| 25> H -0.5889072873 2.1201766902 0.7626927729
| 26> H -2.2085010133 1.5189261253 1.1348624755
| 27> H 3.0003591524 0.2567248096 -0.7338972094
| 28> H 2.8770176855 -0.805273083 0.6829128164
| 29> H 3.2126521341 0.9441608291 0.9096503287
| 30> *
| 31>
| 32>                          ****END OF INPUT****

CARTESIAN COORDINATES (ANGSTROEM)
---------------------------------
  C     -1.440435    0.634419   -1.369897
  C     -1.010256    0.131267    0.016448
  C     -1.848778   -1.089086    0.408919
  C     -1.160754    1.243219    1.052295
  C      0.437221   -0.314534   -0.128985
  O      0.781247   -1.319885   -0.718113
  O      1.303411    0.520803    0.426666
  C      2.692211    0.203317    0.310969
  H     -0.852302    1.501776   -1.660962
  H     -1.299797   -0.147851   -2.112402
  H     -2.489729    0.914668   -1.347039
  H     -1.589134   -1.423448    1.410662
  H     -1.663828   -1.905908   -0.284667
  H     -2.904732   -0.836054    0.386187
  H     -0.809250    0.910742    2.025533
  H     -0.588907    2.120177    0.762693
  H     -2.208501    1.518926    1.134862
  H      3.000359    0.256725   -0.733897
  H      2.877018   -0.805273    0.682913
  H      3.212652    0.944161    0.909650

 Total Charge           Charge          ....    0
 Multiplicity           Mult            ....    1
 Number of Electrons    NEL             ....   64
 Basis Dimension        Dim             ....  222

ORBITAL ENERGIES
----------------

  NO   OCC          E(Eh)            E(eV)
   0   2.0000     -19.005471      -517.1652
   1   2.0000     -18.942531      -515.4525
   2   2.0000     -10.158896      -276.4376
   3   2.0000     -10.076736      -274.2019
   4   2.0000     -10.055195      -273.6158
   5   2.0000     -10.017968      -272.6028
   6   2.0000     -10.014694      -272.5137
   7   2.0000     -10.012311      -272.4488
   8   2.0000      -1.081227       -29.4217
   9   2.0000      -0.988042       -26.8860
  10   2.0000      -0.791103       -21.5270
  11   2.0000      -0.697552       -18.9813
  12   2.0000      -0.653385       -17.7795
  13   2.0000      -0.649602       -17.6766
  14   2.0000      -0.576547       -15.6886
  15   2.0000      -0.519154       -14.1269
  16   2.0000      -0.460144       -12.5211
  17   2.0000      -0.455441       -12.3932
  18   2.0000      -0.451940       -12.2979
  19   2.0000      -0.404308       -11.0018
  20   2.0000      -0.403517       -10.9803
  21   2.0000      -0.399838       -10.8802
  22   2.0000      -0.374025       -10.1777
  23   2.0000      -0.353436        -9.6175
  24   2.0000      -0.340443        -9.2639
  25   2.0000      -0.337840        -9.1931
  26   2.0000      -0.330352        -8.9893
  27   2.0000      -0.314336        -8.5535
  28   2.0000      -0.299314        -8.1448
  29   2.0000      -0.298911        -8.1338
  30   2.0000      -0.281031        -7.6472
  31   2.0000      -0.247950        -6.7471
  32   0.0000      -0.023226        -0.6320
  33   0.0000       0.061607         1.6764
  34   0.0000       0.099848         2.7170
  35   0.0000       0.114483         3.1152
  36   0.0000       0.137219         3.7339

MULLIKEN ATOMIC CHARGES
-----------------------
   0 C :   -0.534520
   1 C :    0.190039
   2 C :   -0.545993
   3 C :   -0.557683
   4 C :    0.335157
   5 O :   -0.507388
   6 O :   -0.158426
   7 C :   -0.333537
   8 H :    0.175261
   9 H :    0.174782
  10 H :    0.181541
  11 H :    0.171637
  12 H :    0.172738
  13 H :    0.179089
  14 H :    0.174889
  15 H :    0.171504
  16 H :    0.174118
  17 H :    0.179864
  18 H :    0.177932
  19 H :    0.178995
Sum of atomic charges:   -0.0000000

LOEWDIN ATOMIC CHARGES
----------------------
   0 C :   -0.378123
   1 C :   -0.141189
   2 C :   -0.384950
   3 C :   -0.386339
   4 C :    0.373904
   5 O :   -0.494212
   6 O :   -0.604893
   7 C :   -0.039036
   8 H :    0.166803
   9 H :    0.167983
  10 H :    0.166596
  11 H :    0.165970
  12 H :    0.169564
  13 H :    0.164952
  14 H :    0.166835
  15 H :    0.169092
  16 H :    0.162848
  17 H :    0.182333
  18 H :    0.183648
  19 H :    0.188213

  Mayer bond orders larger than 0.100000
B(  0-C ,  1-C ) :   0.9006 B(  0-C ,  8-H ) :   0.9631 B(  0-C ,  9-H ) :   0.9658
B(  0-C , 10-H ) :   0.9705 B(  1-C ,  2-C ) :   0.9050 B(  1-C ,  3-C ) :   0.9031
B(  1-C ,  4-C ) :   0.9476 B(  2-C , 11-H ) :   0.9682 B(  2-C , 12-H ) :   0.9668
B(  2-C , 13-H ) :   0.9734 B(  3-C , 14-H ) :   0.9742 B(  3-C , 15-H ) :   0.9690
B(  3-C , 16-H ) :   0.9687 B(  4-C ,  5-O ) :   1.7636 B(  4-C ,  6-O ) :   1.1396
B(  6-O ,  7-C ) :   0.8238 B(  7-C , 17-H ) :   0.9557 B(  7-C , 18-H ) :   0.9571
B(  7-C , 19-H ) :   0.9604

Dispersion correction           -0.005660913
FINAL SINGLE POINT ENERGY      -386.237947822917

DIPOLE MOMENT
-------------

Method             : SCF
Type of density    : Electron Density
Multiplicity       :   1
Irrep              :   0
Energy             :  -386.2448764312468938 Eh
Relativity type    :
Basis              : AO
                                X                 Y                 Z
Electronic contribution:      4.982683603      -1.879419864      -0.567557724
Nuclear contribution   :     -4.956523826       2.848283136       1.096649049
                        -----------------------------------------
Total Dipole Moment    :      0.026159778       0.968863272       0.529091325
                        -----------------------------------------
Magnitude (a.u.)       :      1.104227333
Magnitude (Debye)      :      2.806722827

Rotational constants in cm-1:             0.105749             0.050400             0.044307
Rotational constants in MHz :          3170.282909          1510.948421          1328.296411

                             ****ORCA TERMINATED NORMALLY****
TOTAL RUN TIME: 0 days 0 hours 1 minutes 13 seconds 974 msec
