                         Program Version 6.0.0  -   RELEASE  -
|  1> ! pbe def2-sv(p) def2/J RI DEFGRID1 loosescf d4 GCP(DFT/SV(P)) printgap
|  2> %output
|  3>     printlevel normal
|  4> end
|  5> * xyz 0 1
|  6> C 4.985699553 -0.5028233712 -1.6774977711
|  7> C 4.7326004006 0.6501033891 -0.7287765326
|  8> O 3.3319453702 0.9903746242 -0.6535133225
|  9> P 2.2767829435 0.0875206659 0.0998710207
| 10> S 2.8873613227 -0.857050296 1.7052521972
| 11> O 1.7245208912 -0.8430805226 -1.0645197222
| 12> C 1.1198811788 -2.134786872 -0.8719272465
| 13> C 2.1097805874 -3.2355516966 -1.1967738496
| 14> S 0.8542744709 1.6333699628 0.3916313516
| 15> C 0.0679197653 0.9620483803 1.882096144
| 16> S -0.9731585528 -0.4896696247 1.5628274207
| 17> P -2.2290143338 0.3016170278 0.0316802269
| 18> S -1.6065616596 0.0715540189 -1.8192964327
| 19> O -2.4239214243 1.7645187121 0.6008924313
| 20> C -3.5754018453 2.5941946774 0.3223239077
| 21> C -3.7140166993 2.9096136 -1.1518096623
| 22> O -3.6524128036 -0.3541312766 0.2969297894
| 23> C -4.0236333221 -1.6145353377 -0.2851337727
| 24> C -3.2776535355 -2.763032623 0.3615695932
| 25> H 4.5363003138 -0.2955875127 -2.6452861273
| 26> H 6.0557803597 -0.6412468067 -1.7968621256
| 27> H 4.5517957324 -1.4165861272 -1.2763147341
| 28> H 5.2045611095 1.5705673803 -1.0756481015
| 29> H 5.0840127937 0.4088949334 0.2797620761
| 30> H 0.7715705866 -2.2262423085 0.1616045092
| 31> H 0.2644156267 -2.1480123111 -1.5513931819
| 32> H 2.5091871719 -3.0970645115 -2.1975074573
| 33> H 2.9256761118 -3.2265199709 -0.4768069854
| 34> H 1.6027544538 -4.1933022912 -1.1409996228
| 35> H -0.5357371332 1.7597285607 2.3051539981
| 36> H 0.834299946 0.626066763 2.5822522788
| 37> H -4.4640489961 2.0848230009 0.7006724111
| 38> H -3.3826129731 3.4955755516 0.9064686779
| 39> H -3.911187426 1.9986483394 -1.7154283257
| 40> H -4.5371567056 3.602201743 -1.2968171242
| 41> H -2.7965410811 3.3551987101 -1.52990824
| 42> H -5.0987762814 -1.6805881223 -0.1147379317
| 43> H -3.8152641938 -1.5741135672 -1.3596304562
| 44> H -3.6217074772 -3.7025599844 -0.0581948828
| 45> H -2.2087941977 -2.6589571103 0.172571242
| 46> H -3.4392107186 -2.7635446528 1.4361182026
| 47> *
| 48>
| 49>                          ****END OF INPUT****

CARTESIAN COORDINATES (ANGSTROEM)
---------------------------------
  C      4.985700   -0.502823   -1.677498
  C      4.732600    0.650103   -0.728777
  O      3.331945    0.990375   -0.653513
  P      2.276783    0.087521    0.099871
  S      2.887361   -0.857050    1.705252
  O      1.724521   -0.843081   -1.064520
  C      1.119881   -2.134787   -0.871927
  C      2.109781   -3.235552   -1.196774
  S      0.854274    1.633370    0.391631
  C      0.067920    0.962048    1.882096
  S     -0.973159   -0.489670    1.562827
  P     -2.229014    0.301617    0.031680
  S     -1.606562    0.071554   -1.819296
  O     -2.423921    1.764519    0.600892
  C     -3.575402    2.594195    0.322324
  C     -3.714017    2.909614   -1.151810
  O     -3.652413   -0.354131    0.296930
  C     -4.023633   -1.614535   -0.285134
  C     -3.277654   -2.763033    0.361570
  H      4.536300   -0.295588   -2.645286
  H      6.055780   -0.641247   -1.796862
  H      4.551796   -1.416586   -1.276315
  H      5.204561    1.570567   -1.075648
  H      5.084013    0.408895    0.279762
  H      0.771571   -2.226242    0.161605
  H      0.264416   -2.148012   -1.551393
  H      2.509187   -3.097065   -2.197507
  H      2.925676   -3.226520   -0.476807
  H      1.602754   -4.193302   -1.141000
  H     -0.535737    1.759729    2.305154
  H      0.834300    0.626067    2.582252
  H     -4.464049    2.084823    0.700672
  H     -3.382613    3.495576    0.906469
  H     -3.911187    1.998648   -1.715428
  H     -4.537157    3.602202   -1.296817
  H     -2.796541    3.355199   -1.529908
  H     -5.098776   -1.680588   -0.114738
  H     -3.815264   -1.574114   -1.359630
  H     -3.621707   -3.702560   -0.058195
  H     -2.208794   -2.658957    0.172571
  H     -3.439211   -2.763545    1.436118

 Total Charge           Charge          ....    0
 Multiplicity           Mult            ....    1
 Number of Electrons    NEL             ....  202
 Basis Dimension        Dim             ....  334

ORBITAL ENERGIES
----------------

  NO   OCC          E(Eh)            E(eV)
   0   2.0000     -88.038124     -2395.6392
   1   2.0000     -88.032937     -2395.4980
   2   2.0000     -87.986473     -2394.2337
   3   2.0000     -87.983665     -2394.1572
   4   2.0000     -76.429152     -2079.7430
   5   2.0000     -76.421234     -2079.5275
   6   2.0000     -18.797687      -511.5111
   7   2.0000     -18.796125      -511.4686
   8   2.0000     -18.786757      -511.2137
   9   2.0000     -18.780945      -511.0555
  10   2.0000      -9.960478      -271.0384
  11   2.0000      -9.956197      -270.9219
  12   2.0000      -9.951733      -270.8004
  13   2.0000      -9.950629      -270.7704
  14   2.0000      -9.936992      -270.3993
  15   2.0000      -9.890586      -269.1365
  16   2.0000      -9.885291      -268.9925
  17   2.0000      -9.882626      -268.9199
  18   2.0000      -9.875464      -268.7250
  19   2.0000      -7.682990      -209.0648
  20   2.0000      -7.678266      -208.9362
  21   2.0000      -7.631428      -207.6617
  22   2.0000      -7.628594      -207.5846
  23   2.0000      -6.426315      -174.8689
  24   2.0000      -6.418932      -174.6680
  25   2.0000      -5.711075      -155.4062
  26   2.0000      -5.707581      -155.3112
  27   2.0000      -5.706231      -155.2744
  28   2.0000      -5.702974      -155.1858
  29   2.0000      -5.699702      -155.0968
  30   2.0000      -5.694875      -154.9654
  31   2.0000      -5.660111      -154.0195
  32   2.0000      -5.657415      -153.9461
  33   2.0000      -5.652417      -153.8101
  34   2.0000      -5.651460      -153.7840
  35   2.0000      -5.649284      -153.7248
  36   2.0000      -5.648810      -153.7119
  37   2.0000      -4.649499      -126.5193
  38   2.0000      -4.648018      -126.4790
  39   2.0000      -4.646302      -126.4323
  40   2.0000      -4.641283      -126.2957
  41   2.0000      -4.640551      -126.2758
  42   2.0000      -4.639721      -126.2532
  43   2.0000      -0.993141       -27.0247
  44   2.0000      -0.979291       -26.6479
  45   2.0000      -0.950400       -25.8617
  46   2.0000      -0.937220       -25.5030
  47   2.0000      -0.759572       -20.6690
  48   2.0000      -0.720576       -19.6079
  49   2.0000      -0.706473       -19.2241
  50   2.0000      -0.693025       -18.8582
  51   2.0000      -0.680542       -18.5185
  52   2.0000      -0.669276       -18.2119
  53   2.0000      -0.651577       -17.7303
  54   2.0000      -0.636227       -17.3126
  55   2.0000      -0.599008       -16.2998
  56   2.0000      -0.592271       -16.1165
  57   2.0000      -0.582912       -15.8618
  58   2.0000      -0.562004       -15.2929
  59   2.0000      -0.556930       -15.1548
  60   2.0000      -0.501693       -13.6518
  61   2.0000      -0.491382       -13.3712
  62   2.0000      -0.475255       -12.9324
  63   2.0000      -0.470521       -12.8035
  64   2.0000      -0.462534       -12.5862
  65   2.0000      -0.443109       -12.0576
  66   2.0000      -0.435789       -11.8584
  67   2.0000      -0.426553       -11.6071
  68   2.0000      -0.422462       -11.4958
  69   2.0000      -0.416757       -11.3405
  70   2.0000      -0.414503       -11.2792
  71   2.0000      -0.397528       -10.8173
  72   2.0000      -0.388135       -10.5617
  73   2.0000      -0.382973       -10.4212
  74   2.0000      -0.377591       -10.2748
  75   2.0000      -0.373625       -10.1668
  76   2.0000      -0.368788       -10.0352
  77   2.0000      -0.359739        -9.7890
  78   2.0000      -0.354175        -9.6376
  79   2.0000      -0.351546        -9.5661
  80   2.0000      -0.346227        -9.4213
  81   2.0000      -0.342871        -9.3300
  82   2.0000      -0.338691        -9.2162
  83   2.0000      -0.336441        -9.1550
  84   2.0000      -0.332086        -9.0365
  85   2.0000      -0.322979        -8.7887
  86   2.0000      -0.306602        -8.3431
  87   2.0000      -0.299995        -8.1633
  88   2.0000      -0.296145        -8.0585
  89   2.0000      -0.286430        -7.7942
  90   2.0000      -0.279983        -7.6187
  91   2.0000      -0.278223        -7.5708
  92   2.0000      -0.271606        -7.3908
  93   2.0000      -0.262248        -7.1361
  94   2.0000      -0.255055        -6.9404
  95   2.0000      -0.234548        -6.3824
  96   2.0000      -0.212727        -5.7886
  97   2.0000      -0.209472        -5.7000
  98   2.0000      -0.202793        -5.5183
  99   2.0000      -0.192523        -5.2388
 100   2.0000      -0.190523        -5.1844
 101   0.0000      -0.048224        -1.3122
 102   0.0000      -0.022441        -0.6107
 103   0.0000      -0.017427        -0.4742
 104   0.0000       0.010814         0.2943
 105   0.0000       0.019703         0.5361

MULLIKEN ATOMIC CHARGES
-----------------------
   0 C :   -0.319723
   1 C :   -0.001503
   2 O :   -0.374962
   3 P :    0.641628
   4 S :   -0.347633
   5 O :   -0.363427
   6 C :   -0.037369
   7 C :   -0.290646
   8 S :   -0.079316
   9 C :   -0.343599
  10 S :   -0.112461
  11 P :    0.628594
  12 S :   -0.305329
  13 O :   -0.383761
  14 C :   -0.001175
  15 C :   -0.313068
  16 O :   -0.376960
  17 C :   -0.004513
  18 C :   -0.329916
  19 H :    0.121493
  20 H :    0.110919
  21 H :    0.132628
  22 H :    0.106777
  23 H :    0.111174
  24 H :    0.119573
  25 H :    0.114906
  26 H :    0.112674
  27 H :    0.124825
  28 H :    0.104597
  29 H :    0.184672
  30 H :    0.193604
  31 H :    0.112373
  32 H :    0.107508
  33 H :    0.127726
  34 H :    0.110867
  35 H :    0.128144
  36 H :    0.105336
  37 H :    0.110061
  38 H :    0.117429
  39 H :    0.133786
  40 H :    0.124063
Sum of atomic charges:    0.0000000

LOEWDIN ATOMIC CHARGES
----------------------
   0 C :   -0.364270
   1 C :   -0.112623
   2 O :   -0.243785
   3 P :    0.577619
   4 S :   -0.325828
   5 O :   -0.237570
   6 C :   -0.128371
   7 C :   -0.360855
   8 S :    0.091329
   9 C :   -0.479080
  10 S :    0.078598
  11 P :    0.573031
  12 S :   -0.299873
  13 O :   -0.245769
  14 C :   -0.107547
  15 C :   -0.366940
  16 O :   -0.244816
  17 C :   -0.122882
  18 C :   -0.368648
  19 H :    0.128827
  20 H :    0.130259
  21 H :    0.125482
  22 H :    0.119718
  23 H :    0.110943
  24 H :    0.099923
  25 H :    0.110415
  26 H :    0.123107
  27 H :    0.121563
  28 H :    0.127692
  29 H :    0.133239
  30 H :    0.129088
  31 H :    0.114582
  32 H :    0.120597
  33 H :    0.122211
  34 H :    0.129677
  35 H :    0.132169
  36 H :    0.118700
  37 H :    0.108459
  38 H :    0.133540
  39 H :    0.120187
  40 H :    0.127902

  Mayer bond orders larger than 0.100000
B(  0-C ,  1-C ) :   1.1616 B(  0-C , 19-H ) :   0.9457 B(  0-C , 20-H ) :   0.9375
B(  0-C , 21-H ) :   0.9338 B(  1-C ,  2-O ) :   0.9108 B(  1-C , 22-H ) :   0.9357
B(  1-C , 23-H ) :   0.9171 B(  2-O ,  3-P ) :   1.1340 B(  3-P ,  4-S ) :   1.5858
B(  3-P ,  5-O ) :   1.1272 B(  3-P ,  8-S ) :   0.9382 B(  4-S ,  8-S ) :   0.1078
B(  5-O ,  6-C ) :   0.8989 B(  6-C ,  7-C ) :   1.1656 B(  6-C , 24-H ) :   0.9010
B(  6-C , 25-H ) :   0.9175 B(  7-C , 26-H ) :   0.9447 B(  7-C , 27-H ) :   0.9315
B(  7-C , 28-H ) :   0.9398 B(  8-S ,  9-C ) :   1.0242 B(  9-C , 10-S ) :   0.9909
B(  9-C , 29-H ) :   0.9016 B(  9-C , 30-H ) :   0.8752 B( 10-S , 11-P ) :   0.9454
B( 10-S , 12-S ) :   0.1107 B( 11-P , 12-S ) :   1.6418 B( 11-P , 13-O ) :   1.1038
B( 11-P , 16-O ) :   1.0782 B( 13-O , 14-C ) :   0.9024 B( 14-C , 15-C ) :   1.1684
B( 14-C , 31-H ) :   0.9288 B( 14-C , 32-H ) :   0.9351 B( 15-C , 33-H ) :   0.9339
B( 15-C , 34-H ) :   0.9353 B( 15-C , 35-H ) :   0.9446 B( 16-O , 17-C ) :   0.9100
B( 17-C , 18-C ) :   1.1638 B( 17-C , 36-H ) :   0.9313 B( 17-C , 37-H ) :   0.9085
B( 18-C , 38-H ) :   0.9384 B( 18-C , 39-H ) :   0.9300 B( 18-C , 40-H ) :   0.9440

Dispersion correction           -0.066525452
FINAL SINGLE POINT ENERGY     -2929.517773075260

DIPOLE MOMENT
-------------

Method             : SCF
Type of density    : Electron Density
Multiplicity       :   1
Irrep              :   0
Energy             : -2929.6359922966521481 Eh
Relativity type    :
Basis              : AO
                                X                 Y                 Z
Electronic contribution:      2.370384178      10.370733172       9.182287559
Nuclear contribution   :     -3.347517147     -10.394656029      -9.274723186
                        -----------------------------------------
Total Dipole Moment    :     -0.977132969      -0.023922857      -0.092435627
                        -----------------------------------------
Magnitude (a.u.)       :      0.981786885
Magnitude (Debye)      :      2.495503940

Rotational constants in cm-1:             0.013005             0.005037             0.004592
Rotational constants in MHz :           389.875696           150.996498           137.653160

                             ****ORCA TERMINATED NORMALLY****
TOTAL RUN TIME: 0 days 0 hours 0 minutes 21 seconds 279 msec
