                         Program Version 6.0.0  -   RELEASE  -
|  1> ! pbe def2-sv(p) def2/J RI DEFGRID1 loosescf d4 GCP(DFT/SV(P)) printgap
|  2> %output
|  3>     printlevel normal
|  4> end
|  5> * xyz 0 1
|  6> C 3.8417569341 -1.7106873738 -2.4201251685
|  7> C 4.144913223 -1.6059244653 -0.9381499921
|  8> O 3.9268657094 -0.2809289783 -0.4239571384
|  9> P 2.5118894261 0.4231211704 -0.3163821527
| 10> S 1.8102362636 1.251036943 -1.9584485032
| 11> O 2.9627783524 1.4281958772 0.81480322
| 12> C 2.1750070544 2.5341172833 1.2857472817
| 13> C 1.5278200767 2.1904221786 2.6128987662
| 14> S 1.2576991005 -1.0206783004 0.6068612572
| 15> C 0.1065623488 -1.3633074662 -0.7784183755
| 16> S -1.5394003929 -1.803846836 -0.1966909927
| 17> P -2.3488336981 0.1374233128 0.1875613874
| 18> S -1.1205938763 1.6567051638 0.2096984233
| 19> O -3.2120823582 -0.0611881077 1.5116294632
| 20> C -2.6599719054 0.0884938576 2.8313073598
| 21> C -1.7272764794 -1.048141499 3.1994094604
| 22> O -3.476269392 0.3251462704 -0.8971018779
| 23> C -4.5157148581 -0.6620811782 -1.1324015742
| 24> C -4.3344492233 -1.2852154587 -2.5017446112
| 25> H 4.0758005001 -2.7121655311 -2.7667019162
| 26> H 2.7896989977 -1.5012995536 -2.6084693123
| 27> H 4.4339562335 -0.9886070696 -2.9766321901
| 28> H 5.2019327056 -1.7880577849 -0.7363368095
| 29> H 3.535884951 -2.3094619772 -0.3614612504
| 30> H 2.882353771 3.359107563 1.3910606773
| 31> H 1.4213116321 2.7976679666 0.5355090049
| 32> H 0.7942594823 1.3994485959 2.4774974308
| 33> H 2.2835766591 1.8591490707 3.31895814
| 34> H 1.0249436516 3.0705865029 2.9996368961
| 35> H 0.4653655739 -2.2297136088 -1.3281694994
| 36> H 0.066699394 -0.4724522491 -1.4111980435
| 37> H -2.1405297933 1.0509529334 2.8800658363
| 38> H -3.5384412389 0.1102729943 3.478012816
| 39> H -1.4501518545 -0.95577925 4.2445948442
| 40> H -2.2166698961 -2.0053295732 3.0398405704
| 41> H -0.8220322608 -1.0136669534 2.5945590738
| 42> H -4.4795921952 -1.4156628178 -0.3429381357
| 43> H -5.452502211 -0.1067115188 -1.0677541199
| 44> H -4.2947449516 -0.5087289672 -3.2607819918
| 45> H -3.4135432354 -1.8616583378 -2.5388374297
| 46> H -5.1734374742 -1.942872656 -2.7052751169
| 47> *
| 48>
| 49>                          ****END OF INPUT****

CARTESIAN COORDINATES (ANGSTROEM)
---------------------------------
  C      3.841757   -1.710687   -2.420125
  C      4.144913   -1.605924   -0.938150
  O      3.926866   -0.280929   -0.423957
  P      2.511889    0.423121   -0.316382
  S      1.810236    1.251037   -1.958449
  O      2.962778    1.428196    0.814803
  C      2.175007    2.534117    1.285747
  C      1.527820    2.190422    2.612899
  S      1.257699   -1.020678    0.606861
  C      0.106562   -1.363307   -0.778418
  S     -1.539400   -1.803847   -0.196691
  P     -2.348834    0.137423    0.187561
  S     -1.120594    1.656705    0.209698
  O     -3.212082   -0.061188    1.511629
  C     -2.659972    0.088494    2.831307
  C     -1.727276   -1.048141    3.199409
  O     -3.476269    0.325146   -0.897102
  C     -4.515715   -0.662081   -1.132402
  C     -4.334449   -1.285215   -2.501745
  H      4.075801   -2.712166   -2.766702
  H      2.789699   -1.501300   -2.608469
  H      4.433956   -0.988607   -2.976632
  H      5.201933   -1.788058   -0.736337
  H      3.535885   -2.309462   -0.361461
  H      2.882354    3.359108    1.391061
  H      1.421312    2.797668    0.535509
  H      0.794259    1.399449    2.477497
  H      2.283577    1.859149    3.318958
  H      1.024944    3.070587    2.999637
  H      0.465366   -2.229714   -1.328169
  H      0.066699   -0.472452   -1.411198
  H     -2.140530    1.050953    2.880066
  H     -3.538441    0.110273    3.478013
  H     -1.450152   -0.955779    4.244595
  H     -2.216670   -2.005330    3.039841
  H     -0.822032   -1.013667    2.594559
  H     -4.479592   -1.415663   -0.342938
  H     -5.452502   -0.106712   -1.067754
  H     -4.294745   -0.508729   -3.260782
  H     -3.413543   -1.861658   -2.538837
  H     -5.173437   -1.942873   -2.705275

 Total Charge           Charge          ....    0
 Multiplicity           Mult            ....    1
 Number of Electrons    NEL             ....  202
 Basis Dimension        Dim             ....  334

ORBITAL ENERGIES
----------------

  NO   OCC          E(Eh)            E(eV)
   0   2.0000     -88.050307     -2395.9707
   1   2.0000     -88.044085     -2395.8014
   2   2.0000     -87.987751     -2394.2684
   3   2.0000     -87.981619     -2394.1016
   4   2.0000     -76.428004     -2079.7117
   5   2.0000     -76.423005     -2079.5757
   6   2.0000     -18.793558      -511.3987
   7   2.0000     -18.792807      -511.3783
   8   2.0000     -18.784588      -511.1546
   9   2.0000     -18.783292      -511.1194
  10   2.0000      -9.960434      -271.0372
  11   2.0000      -9.957662      -270.9618
  12   2.0000      -9.954338      -270.8713
  13   2.0000      -9.952500      -270.8213
  14   2.0000      -9.944219      -270.5960
  15   2.0000      -9.888394      -269.0769
  16   2.0000      -9.884429      -268.9690
  17   2.0000      -9.882688      -268.9216
  18   2.0000      -9.875788      -268.7339
  19   2.0000      -7.695016      -209.3920
  20   2.0000      -7.688246      -209.2078
  21   2.0000      -7.632671      -207.6955
  22   2.0000      -7.626515      -207.5280
  23   2.0000      -6.425638      -174.8505
  24   2.0000      -6.420057      -174.6986
  25   2.0000      -5.722869      -155.7272
  26   2.0000      -5.719415      -155.6332
  27   2.0000      -5.716065      -155.5420
  28   2.0000      -5.712777      -155.4526
  29   2.0000      -5.712140      -155.4352
  30   2.0000      -5.705410      -155.2521
  31   2.0000      -5.661697      -154.0626
  32   2.0000      -5.655418      -153.8917
  33   2.0000      -5.653044      -153.8272
  34   2.0000      -5.652936      -153.8242
  35   2.0000      -5.647213      -153.6685
  36   2.0000      -5.646632      -153.6527
  37   2.0000      -4.648338      -126.4877
  38   2.0000      -4.647349      -126.4608
  39   2.0000      -4.646034      -126.4250
  40   2.0000      -4.642373      -126.3254
  41   2.0000      -4.642271      -126.3226
  42   2.0000      -4.640350      -126.2703
  43   2.0000      -0.989543       -26.9268
  44   2.0000      -0.983788       -26.7702
  45   2.0000      -0.945965       -25.7410
  46   2.0000      -0.938520       -25.5384
  47   2.0000      -0.763345       -20.7717
  48   2.0000      -0.720892       -19.6165
  49   2.0000      -0.712157       -19.3788
  50   2.0000      -0.690659       -18.7938
  51   2.0000      -0.681647       -18.5486
  52   2.0000      -0.677327       -18.4310
  53   2.0000      -0.652142       -17.7457
  54   2.0000      -0.633919       -17.2498
  55   2.0000      -0.597716       -16.2647
  56   2.0000      -0.591169       -16.0865
  57   2.0000      -0.577780       -15.7222
  58   2.0000      -0.567673       -15.4472
  59   2.0000      -0.558921       -15.2090
  60   2.0000      -0.506483       -13.7821
  61   2.0000      -0.495877       -13.4935
  62   2.0000      -0.475000       -12.9254
  63   2.0000      -0.467220       -12.7137
  64   2.0000      -0.456346       -12.4178
  65   2.0000      -0.450526       -12.2594
  66   2.0000      -0.443424       -12.0662
  67   2.0000      -0.434937       -11.8352
  68   2.0000      -0.421594       -11.4721
  69   2.0000      -0.417088       -11.3495
  70   2.0000      -0.411132       -11.1875
  71   2.0000      -0.408787       -11.1237
  72   2.0000      -0.395940       -10.7741
  73   2.0000      -0.382865       -10.4183
  74   2.0000      -0.378188       -10.2910
  75   2.0000      -0.372010       -10.1229
  76   2.0000      -0.362282        -9.8582
  77   2.0000      -0.359077        -9.7710
  78   2.0000      -0.352911        -9.6032
  79   2.0000      -0.349777        -9.5179
  80   2.0000      -0.348317        -9.4782
  81   2.0000      -0.346790        -9.4366
  82   2.0000      -0.341027        -9.2798
  83   2.0000      -0.337839        -9.1931
  84   2.0000      -0.328979        -8.9520
  85   2.0000      -0.315474        -8.5845
  86   2.0000      -0.312368        -8.5000
  87   2.0000      -0.304012        -8.2726
  88   2.0000      -0.297154        -8.0860
  89   2.0000      -0.292343        -7.9551
  90   2.0000      -0.284447        -7.7402
  91   2.0000      -0.274746        -7.4762
  92   2.0000      -0.265401        -7.2219
  93   2.0000      -0.264146        -7.1878
  94   2.0000      -0.257054        -6.9948
  95   2.0000      -0.236530        -6.4363
  96   2.0000      -0.222760        -6.0616
  97   2.0000      -0.214130        -5.8268
  98   2.0000      -0.202218        -5.5026
  99   2.0000      -0.197655        -5.3785
 100   2.0000      -0.187064        -5.0903
 101   0.0000      -0.047848        -1.3020
 102   0.0000      -0.035380        -0.9627
 103   0.0000      -0.020806        -0.5662
 104   0.0000       0.004422         0.1203
 105   0.0000       0.015825         0.4306

MULLIKEN ATOMIC CHARGES
-----------------------
   0 C :   -0.310653
   1 C :   -0.010064
   2 O :   -0.355382
   3 P :    0.606823
   4 S :   -0.307057
   5 O :   -0.354461
   6 C :   -0.012429
   7 C :   -0.308790
   8 S :   -0.123155
   9 C :   -0.342633
  10 S :   -0.120397
  11 P :    0.597010
  12 S :   -0.295051
  13 O :   -0.378832
  14 C :   -0.003117
  15 C :   -0.335793
  16 O :   -0.354702
  17 C :   -0.019467
  18 C :   -0.282010
  19 H :    0.107563
  20 H :    0.122521
  21 H :    0.124906
  22 H :    0.108252
  23 H :    0.104495
  24 H :    0.105138
  25 H :    0.124091
  26 H :    0.135075
  27 H :    0.109182
  28 H :    0.107754
  29 H :    0.181556
  30 H :    0.208678
  31 H :    0.112404
  32 H :    0.104453
  33 H :    0.111811
  34 H :    0.113872
  35 H :    0.155768
  36 H :    0.107412
  37 H :    0.115178
  38 H :    0.123587
  39 H :    0.117128
  40 H :    0.109336
Sum of atomic charges:    0.0000000

LOEWDIN ATOMIC CHARGES
----------------------
   0 C :   -0.367432
   1 C :   -0.119744
   2 O :   -0.236035
   3 P :    0.565700
   4 S :   -0.298041
   5 O :   -0.229660
   6 C :   -0.115676
   7 C :   -0.365846
   8 S :    0.071451
   9 C :   -0.479863
  10 S :    0.076770
  11 P :    0.564900
  12 S :   -0.277183
  13 O :   -0.250704
  14 C :   -0.116172
  15 C :   -0.373142
  16 O :   -0.238230
  17 C :   -0.112875
  18 C :   -0.358611
  19 H :    0.127614
  20 H :    0.117686
  21 H :    0.131284
  22 H :    0.120871
  23 H :    0.101018
  24 H :    0.118376
  25 H :    0.107181
  26 H :    0.117349
  27 H :    0.122906
  28 H :    0.129212
  29 H :    0.131476
  30 H :    0.124210
  31 H :    0.110589
  32 H :    0.118687
  33 H :    0.130919
  34 H :    0.123820
  35 H :    0.115267
  36 H :    0.107183
  37 H :    0.123621
  38 H :    0.131083
  39 H :    0.120503
  40 H :    0.129536

  Mayer bond orders larger than 0.100000
B(  0-C ,  1-C ) :   1.1590 B(  0-C , 19-H ) :   0.9376 B(  0-C , 20-H ) :   0.9326
B(  0-C , 21-H ) :   0.9449 B(  1-C ,  2-O ) :   0.9291 B(  1-C , 22-H ) :   0.9342
B(  1-C , 23-H ) :   0.9146 B(  2-O ,  3-P ) :   1.1137 B(  3-P ,  4-S ) :   1.6283
B(  3-P ,  5-O ) :   1.1439 B(  3-P ,  8-S ) :   0.9317 B(  4-S ,  8-S ) :   0.1264
B(  4-S , 30-H ) :   0.1049 B(  5-O ,  6-C ) :   0.9052 B(  6-C ,  7-C ) :   1.1698
B(  6-C , 24-H ) :   0.9344 B(  6-C , 25-H ) :   0.9038 B(  7-C , 26-H ) :   0.9291
B(  7-C , 27-H ) :   0.9455 B(  7-C , 28-H ) :   0.9410 B(  8-S ,  9-C ) :   0.9838
B(  9-C , 10-S ) :   1.0142 B(  9-C , 29-H ) :   0.9040 B(  9-C , 30-H ) :   0.8480
B( 10-S , 11-P ) :   0.9229 B( 10-S , 12-S ) :   0.1121 B( 11-P , 12-S ) :   1.6669
B( 11-P , 13-O ) :   1.0885 B( 11-P , 16-O ) :   1.1448 B( 13-O , 14-C ) :   0.9103
B( 14-C , 15-C ) :   1.1675 B( 14-C , 31-H ) :   0.9148 B( 14-C , 32-H ) :   0.9340
B( 15-C , 33-H ) :   0.9372 B( 15-C , 34-H ) :   0.9429 B( 15-C , 35-H ) :   0.9229
B( 16-O , 17-C ) :   0.8872 B( 17-C , 18-C ) :   1.1633 B( 17-C , 36-H ) :   0.9187
B( 17-C , 37-H ) :   0.9337 B( 18-C , 38-H ) :   0.9457 B( 18-C , 39-H ) :   0.9401
B( 18-C , 40-H ) :   0.9398

Dispersion correction           -0.065761423
FINAL SINGLE POINT ENERGY     -2929.516191019459

DIPOLE MOMENT
-------------

Method             : SCF
Type of density    : Electron Density
Multiplicity       :   1
Irrep              :   0
Energy             : -2929.6342703769969376 Eh
Relativity type    :
Basis              : AO
                                X                 Y                 Z
Electronic contribution:      3.185333334       6.750095301      -4.042008964
Nuclear contribution   :     -3.912705148      -8.142513915       4.723732549
                        -----------------------------------------
Total Dipole Moment    :     -0.727371813      -1.392418614       0.681723585
                        -----------------------------------------
Magnitude (a.u.)       :      1.712497124
Magnitude (Debye)      :      4.352821764

Rotational constants in cm-1:             0.011544             0.005230             0.004599
Rotational constants in MHz :           346.095231           156.779384           137.872135

                             ****ORCA TERMINATED NORMALLY****
TOTAL RUN TIME: 0 days 0 hours 0 minutes 20 seconds 989 msec
