                         Program Version 6.0.1  -  RELEASE   -
|  1> ! r2scan-3c def2/J RI DEFGRID2 scfconv6 printgap
|  2> %output
|  3>     printlevel normal
|  4> end
|  5> * xyz 0 1
|  6> C 5.0666611615 -0.5217234608 0.4732562796
|  7> C 4.6948589141 -1.394553753 -0.7146043377
|  8> O 3.2826530829 -1.6815584431 -0.7242414625
|  9> C 2.463526347 -0.7889402463 -1.2393672757
| 10> O 2.812274098 0.2588507779 -1.7431991109
| 11> C 1.0216490454 -1.2398342765 -1.1375257414
| 12> C 0.1056555662 -0.1170342133 -1.5918136417
| 13> H 0.2515130911 0.1125899425 -2.6508470147
| 14> C 0.2863799536 1.1738556539 -0.8167752602
| 15> O -0.1191310368 2.2431488677 -1.2206779226
| 16> O 0.8887189952 0.9930812651 0.3346464046
| 17> C 1.111533165 2.1472106294 1.1672046856
| 18> C 1.8499699806 1.6898730711 2.4085504566
| 19> S -1.6592256236 -0.5692028446 -1.4723855389
| 20> P -2.0546367078 -0.1993364767 0.5911600742
| 21> S -0.9335705728 -1.0468155404 1.9473136437
| 22> O -2.1554453003 1.3674853744 0.7953589543
| 23> C -3.0132938089 2.2219034143 0.0093012631
| 24> O -3.593880817 -0.6166208377 0.6549358001
| 25> C -3.9886300535 -1.9944536959 0.6067790608
| 26> H 4.7317717795 -0.9862279291 1.3969316418
| 27> H 6.1436980426 -0.3946244974 0.5040783255
| 28> H 4.5990878097 0.4558976838 0.3759909196
| 29> H 5.1675120511 -2.3745167983 -0.6525687684
| 30> H 4.9573585337 -0.9002465737 -1.6544400325
| 31> H 0.8248863692 -1.522725919 -0.100403608
| 32> H 0.8764356764 -2.1223161323 -1.7623234822
| 33> H 1.6832551015 2.8774180129 0.5859164201
| 34> H 0.1365035568 2.580058823 1.4133128244
| 35> H 1.991896954 2.5351064877 3.0731269852
| 36> H 1.2714873076 0.9226909998 2.9167443996
| 37> H 2.8173086184 1.2762018536 2.1392917963
| 38> H -3.857372296 1.6599187133 -0.3835392892
| 39> H -2.42265317 2.6509205443 -0.8010342688
| 40> H -3.3534548809 3.0006476191 0.6870779953
| 41> H -3.8843242513 -2.3726560132 -0.4093845508
| 42> H -5.0295011213 -2.0106499193 0.9196226741
| 43> H -3.3750882779 -2.5831220135 1.2902030193
| 44> *
| 45>
| 46>                          ****END OF INPUT****

CARTESIAN COORDINATES (ANGSTROEM)
---------------------------------
  C      5.066661   -0.521723    0.473256
  C      4.694859   -1.394554   -0.714604
  O      3.282653   -1.681558   -0.724241
  C      2.463526   -0.788940   -1.239367
  O      2.812274    0.258851   -1.743199
  C      1.021649   -1.239834   -1.137526
  C      0.105656   -0.117034   -1.591814
  H      0.251513    0.112590   -2.650847
  C      0.286380    1.173856   -0.816775
  O     -0.119131    2.243149   -1.220678
  O      0.888719    0.993081    0.334646
  C      1.111533    2.147211    1.167205
  C      1.849970    1.689873    2.408550
  S     -1.659226   -0.569203   -1.472386
  P     -2.054637   -0.199336    0.591160
  S     -0.933571   -1.046816    1.947314
  O     -2.155445    1.367485    0.795359
  C     -3.013294    2.221903    0.009301
  O     -3.593881   -0.616621    0.654936
  C     -3.988630   -1.994454    0.606779
  H      4.731772   -0.986228    1.396932
  H      6.143698   -0.394624    0.504078
  H      4.599088    0.455898    0.375991
  H      5.167512   -2.374517   -0.652569
  H      4.957359   -0.900247   -1.654440
  H      0.824886   -1.522726   -0.100404
  H      0.876436   -2.122316   -1.762323
  H      1.683255    2.877418    0.585916
  H      0.136504    2.580059    1.413313
  H      1.991897    2.535106    3.073127
  H      1.271487    0.922691    2.916744
  H      2.817309    1.276202    2.139292
  H     -3.857372    1.659919   -0.383539
  H     -2.422653    2.650921   -0.801034
  H     -3.353455    3.000648    0.687078
  H     -3.884324   -2.372656   -0.409385
  H     -5.029501   -2.010650    0.919623
  H     -3.375088   -2.583122    1.290203

 Total Charge           Charge          ....    0
 Multiplicity           Mult            ....    1
 Number of Electrons    NEL             ....  174
 Basis Dimension        Dim             ....  510

ORBITAL ENERGIES
----------------

  NO   OCC          E(Eh)            E(eV)
   0   2.0000     -88.581083     -2410.4138
   1   2.0000     -88.520322     -2408.7604
   2   2.0000     -76.918537     -2093.0598
   3   2.0000     -19.003517      -517.1120
   4   2.0000     -18.999308      -516.9974
   5   2.0000     -18.998072      -516.9638
   6   2.0000     -18.996668      -516.9256
   7   2.0000     -18.936768      -515.2957
   8   2.0000     -18.929002      -515.0843
   9   2.0000     -10.161365      -276.5048
  10   2.0000     -10.159486      -276.4537
  11   2.0000     -10.097585      -274.7693
  12   2.0000     -10.096844      -274.7491
  13   2.0000     -10.096833      -274.7488
  14   2.0000     -10.089593      -274.5518
  15   2.0000     -10.087343      -274.4906
  16   2.0000     -10.052538      -273.5435
  17   2.0000     -10.032169      -272.9892
  18   2.0000     -10.023374      -272.7499
  19   2.0000      -7.875054      -214.2911
  20   2.0000      -7.815281      -212.6646
  21   2.0000      -6.596626      -179.5033
  22   2.0000      -5.821975      -158.4240
  23   2.0000      -5.819040      -158.3441
  24   2.0000      -5.812076      -158.1546
  25   2.0000      -5.763144      -156.8231
  26   2.0000      -5.755307      -156.6099
  27   2.0000      -5.755288      -156.6094
  28   2.0000      -4.742595      -129.0526
  29   2.0000      -4.741690      -129.0279
  30   2.0000      -4.739870      -128.9784
  31   2.0000      -1.081976       -29.4421
  32   2.0000      -1.077495       -29.3201
  33   2.0000      -1.053988       -28.6805
  34   2.0000      -1.012828       -27.5605
  35   2.0000      -0.985413       -26.8144
  36   2.0000      -0.979073       -26.6419
  37   2.0000      -0.811351       -22.0780
  38   2.0000      -0.755336       -20.5537
  39   2.0000      -0.743197       -20.2234
  40   2.0000      -0.732267       -19.9260
  41   2.0000      -0.699567       -19.0362
  42   2.0000      -0.680329       -18.5127
  43   2.0000      -0.660217       -17.9654
  44   2.0000      -0.647347       -17.6152
  45   2.0000      -0.626115       -17.0375
  46   2.0000      -0.594763       -16.1843
  47   2.0000      -0.544492       -14.8164
  48   2.0000      -0.533196       -14.5090
  49   2.0000      -0.527179       -14.3453
  50   2.0000      -0.498228       -13.5575
  51   2.0000      -0.492918       -13.4130
  52   2.0000      -0.481314       -13.0972
  53   2.0000      -0.466879       -12.7044
  54   2.0000      -0.459617       -12.5068
  55   2.0000      -0.454694       -12.3729
  56   2.0000      -0.451475       -12.2853
  57   2.0000      -0.438865       -11.9421
  58   2.0000      -0.436678       -11.8826
  59   2.0000      -0.432883       -11.7793
  60   2.0000      -0.419886       -11.4257
  61   2.0000      -0.418483       -11.3875
  62   2.0000      -0.410578       -11.1724
  63   2.0000      -0.400854       -10.9078
  64   2.0000      -0.391178       -10.6445
  65   2.0000      -0.376252       -10.2383
  66   2.0000      -0.371646       -10.1130
  67   2.0000      -0.363855        -9.9010
  68   2.0000      -0.362361        -9.8603
  69   2.0000      -0.359347        -9.7783
  70   2.0000      -0.349455        -9.5092
  71   2.0000      -0.341716        -9.2986
  72   2.0000      -0.337940        -9.1958
  73   2.0000      -0.327956        -8.9241
  74   2.0000      -0.321552        -8.7499
  75   2.0000      -0.317018        -8.6265
  76   2.0000      -0.316096        -8.6014
  77   2.0000      -0.311257        -8.4697
  78   2.0000      -0.288377        -7.8471
  79   2.0000      -0.281192        -7.6516
  80   2.0000      -0.279786        -7.6134
  81   2.0000      -0.272239        -7.4080
  82   2.0000      -0.255349        -6.9484
  83   2.0000      -0.242403        -6.5961
  84   2.0000      -0.236017        -6.4224
  85   2.0000      -0.217590        -5.9209
  86   2.0000      -0.212549        -5.7837
  87   0.0000      -0.046301        -1.2599
  88   0.0000      -0.035017        -0.9529
  89   0.0000      -0.018434        -0.5016
  90   0.0000      -0.003071        -0.0836
  91   0.0000       0.019587         0.5330

MULLIKEN ATOMIC CHARGES
-----------------------
   0 C :   -0.487417
   1 C :   -0.123776
   2 O :   -0.170763
   3 C :    0.395585
   4 O :   -0.433383
   5 C :   -0.397705
   6 C :    0.021942
   7 H :    0.196624
   8 C :    0.217013
   9 O :   -0.384103
  10 O :   -0.092916
  11 C :   -0.150724
  12 C :   -0.460523
  13 S :   -0.178934
  14 P :    0.733840
  15 S :   -0.438416
  16 O :   -0.310121
  17 C :   -0.281417
  18 O :   -0.349002
  19 C :   -0.291144
  20 H :    0.158289
  21 H :    0.149275
  22 H :    0.173992
  23 H :    0.150841
  24 H :    0.165264
  25 H :    0.221155
  26 H :    0.177583
  27 H :    0.161018
  28 H :    0.167039
  29 H :    0.145507
  30 H :    0.176688
  31 H :    0.146361
  32 H :    0.158359
  33 H :    0.194002
  34 H :    0.152228
  35 H :    0.155279
  36 H :    0.154242
  37 H :    0.178219
Sum of atomic charges:   -0.0000000

LOEWDIN ATOMIC CHARGES
----------------------
   0 C :   -0.392071
   1 C :    0.030818
   2 O :   -0.575533
   3 C :    0.367721
   4 O :   -0.430546
   5 C :   -0.217164
   6 C :   -0.189577
   7 H :    0.209404
   8 C :    0.332798
   9 O :   -0.425497
  10 O :   -0.595986
  11 C :    0.038112
  12 C :   -0.387660
  13 S :    0.198075
  14 P :    0.385096
  15 S :   -0.079513
  16 O :   -0.656252
  17 C :   -0.046983
  18 O :   -0.683889
  19 C :   -0.055807
  20 H :    0.159818
  21 H :    0.159798
  22 H :    0.165086
  23 H :    0.179498
  24 H :    0.186887
  25 H :    0.210781
  26 H :    0.187064
  27 H :    0.183049
  28 H :    0.187883
  29 H :    0.158706
  30 H :    0.169135
  31 H :    0.156919
  32 H :    0.174324
  33 H :    0.192553
  34 H :    0.177951
  35 H :    0.168138
  36 H :    0.178465
  37 H :    0.178400

  Mayer bond orders larger than 0.100000
B(  0-C ,  1-C ) :   0.9346 B(  0-C , 20-H ) :   0.9710 B(  0-C , 21-H ) :   0.9635
B(  0-C , 22-H ) :   0.9718 B(  1-C ,  2-O ) :   0.8076 B(  1-C , 23-H ) :   0.9612
B(  1-C , 24-H ) :   0.9695 B(  2-O ,  3-C ) :   1.1105 B(  3-C ,  4-O ) :   1.8099
B(  3-C ,  5-C ) :   0.9634 B(  5-C ,  6-C ) :   1.0175 B(  5-C , 25-H ) :   0.9228
B(  5-C , 26-H ) :   0.9208 B(  6-C ,  7-H ) :   0.9310 B(  6-C ,  8-C ) :   0.9386
B(  6-C , 13-S ) :   0.7820 B(  8-C ,  9-O ) :   1.8024 B(  8-C , 10-O ) :   1.1107
B( 10-O , 11-C ) :   0.7876 B( 11-C , 12-C ) :   0.9423 B( 11-C , 27-H ) :   0.9493
B( 11-C , 28-H ) :   0.9472 B( 12-C , 29-H ) :   0.9688 B( 12-C , 30-H ) :   0.9667
B( 12-C , 31-H ) :   0.9713 B( 13-S , 14-P ) :   1.0266 B( 14-P , 15-S ) :   1.8493
B( 14-P , 16-O ) :   1.1281 B( 14-P , 18-O ) :   1.0336 B( 16-O , 17-C ) :   0.7968
B( 17-C , 32-H ) :   0.9649 B( 17-C , 33-H ) :   0.9459 B( 17-C , 34-H ) :   0.9663
B( 18-O , 19-C ) :   0.8305 B( 19-C , 35-H ) :   0.9570 B( 19-C , 36-H ) :   0.9663
B( 19-C , 37-H ) :   0.9582

Dispersion correction           -0.018216910
FINAL SINGLE POINT ENERGY     -1981.457718992048

DIPOLE MOMENT
-------------

Method             : SCF
Type of density    : Electron Density
Multiplicity       :   1
Irrep              :   0
Energy             : -1981.4766003342624572 Eh
Relativity type    :
Basis              : AO
                                X                 Y                 Z
Electronic contribution:    -14.680206036      -3.461964951      -5.858957123
Nuclear contribution   :     14.621164399       2.893843667       5.891755116
                        -----------------------------------------
Total Dipole Moment    :     -0.059041638      -0.568121284       0.032797993
                        -----------------------------------------
Magnitude (a.u.)       :      0.572121855
Magnitude (Debye)      :      1.454218186

Rotational constants in cm-1:             0.016027             0.006503             0.006229
Rotational constants in MHz :           480.480693           194.968934           186.733447

                             ****ORCA TERMINATED NORMALLY****
TOTAL RUN TIME: 0 days 0 hours 1 minutes 21 seconds 2 msec
