                         Program Version 6.0.1  -  RELEASE   -
|  1> ! r2scan-3c def2/J RI DEFGRID2 scfconv6 printgap
|  2> %output
|  3>     printlevel normal
|  4> end
|  5> %cpcm
|  6>     smd true
|  7>     smdsolvent "water"
|  8> end
|  9> * xyz 0 1
| 10> C 5.0666611615 -0.5217234608 0.4732562796
| 11> C 4.6948589141 -1.394553753 -0.7146043377
| 12> O 3.2826530829 -1.6815584431 -0.7242414625
| 13> C 2.463526347 -0.7889402463 -1.2393672757
| 14> O 2.812274098 0.2588507779 -1.7431991109
| 15> C 1.0216490454 -1.2398342765 -1.1375257414
| 16> C 0.1056555662 -0.1170342133 -1.5918136417
| 17> H 0.2515130911 0.1125899425 -2.6508470147
| 18> C 0.2863799536 1.1738556539 -0.8167752602
| 19> O -0.1191310368 2.2431488677 -1.2206779226
| 20> O 0.8887189952 0.9930812651 0.3346464046
| 21> C 1.111533165 2.1472106294 1.1672046856
| 22> C 1.8499699806 1.6898730711 2.4085504566
| 23> S -1.6592256236 -0.5692028446 -1.4723855389
| 24> P -2.0546367078 -0.1993364767 0.5911600742
| 25> S -0.9335705728 -1.0468155404 1.9473136437
| 26> O -2.1554453003 1.3674853744 0.7953589543
| 27> C -3.0132938089 2.2219034143 0.0093012631
| 28> O -3.593880817 -0.6166208377 0.6549358001
| 29> C -3.9886300535 -1.9944536959 0.6067790608
| 30> H 4.7317717795 -0.9862279291 1.3969316418
| 31> H 6.1436980426 -0.3946244974 0.5040783255
| 32> H 4.5990878097 0.4558976838 0.3759909196
| 33> H 5.1675120511 -2.3745167983 -0.6525687684
| 34> H 4.9573585337 -0.9002465737 -1.6544400325
| 35> H 0.8248863692 -1.522725919 -0.100403608
| 36> H 0.8764356764 -2.1223161323 -1.7623234822
| 37> H 1.6832551015 2.8774180129 0.5859164201
| 38> H 0.1365035568 2.580058823 1.4133128244
| 39> H 1.991896954 2.5351064877 3.0731269852
| 40> H 1.2714873076 0.9226909998 2.9167443996
| 41> H 2.8173086184 1.2762018536 2.1392917963
| 42> H -3.857372296 1.6599187133 -0.3835392892
| 43> H -2.42265317 2.6509205443 -0.8010342688
| 44> H -3.3534548809 3.0006476191 0.6870779953
| 45> H -3.8843242513 -2.3726560132 -0.4093845508
| 46> H -5.0295011213 -2.0106499193 0.9196226741
| 47> H -3.3750882779 -2.5831220135 1.2902030193
| 48> *
| 49>
| 50>                          ****END OF INPUT****

CARTESIAN COORDINATES (ANGSTROEM)
---------------------------------
  C      5.066661   -0.521723    0.473256
  C      4.694859   -1.394554   -0.714604
  O      3.282653   -1.681558   -0.724241
  C      2.463526   -0.788940   -1.239367
  O      2.812274    0.258851   -1.743199
  C      1.021649   -1.239834   -1.137526
  C      0.105656   -0.117034   -1.591814
  H      0.251513    0.112590   -2.650847
  C      0.286380    1.173856   -0.816775
  O     -0.119131    2.243149   -1.220678
  O      0.888719    0.993081    0.334646
  C      1.111533    2.147211    1.167205
  C      1.849970    1.689873    2.408550
  S     -1.659226   -0.569203   -1.472386
  P     -2.054637   -0.199336    0.591160
  S     -0.933571   -1.046816    1.947314
  O     -2.155445    1.367485    0.795359
  C     -3.013294    2.221903    0.009301
  O     -3.593881   -0.616621    0.654936
  C     -3.988630   -1.994454    0.606779
  H      4.731772   -0.986228    1.396932
  H      6.143698   -0.394624    0.504078
  H      4.599088    0.455898    0.375991
  H      5.167512   -2.374517   -0.652569
  H      4.957359   -0.900247   -1.654440
  H      0.824886   -1.522726   -0.100404
  H      0.876436   -2.122316   -1.762323
  H      1.683255    2.877418    0.585916
  H      0.136504    2.580059    1.413313
  H      1.991897    2.535106    3.073127
  H      1.271487    0.922691    2.916744
  H      2.817309    1.276202    2.139292
  H     -3.857372    1.659919   -0.383539
  H     -2.422653    2.650921   -0.801034
  H     -3.353455    3.000648    0.687078
  H     -3.884324   -2.372656   -0.409385
  H     -5.029501   -2.010650    0.919623
  H     -3.375088   -2.583122    1.290203

 Total Charge           Charge          ....    0
 Multiplicity           Mult            ....    1
 Number of Electrons    NEL             ....  174
 Basis Dimension        Dim             ....  510

ORBITAL ENERGIES
----------------

  NO   OCC          E(Eh)            E(eV)
   0   2.0000     -88.586330     -2410.5566
   1   2.0000     -88.529607     -2409.0131
   2   2.0000     -76.924385     -2093.2189
   3   2.0000     -19.010708      -517.3077
   4   2.0000     -19.007569      -517.2222
   5   2.0000     -19.001415      -517.0548
   6   2.0000     -18.998812      -516.9840
   7   2.0000     -18.949599      -515.6448
   8   2.0000     -18.949170      -515.6331
   9   2.0000     -10.174949      -276.8744
  10   2.0000     -10.170880      -276.7637
  11   2.0000     -10.099641      -274.8252
  12   2.0000     -10.087589      -274.4973
  13   2.0000     -10.086255      -274.4610
  14   2.0000     -10.084380      -274.4099
  15   2.0000     -10.083710      -274.3917
  16   2.0000     -10.052478      -273.5418
  17   2.0000     -10.019186      -272.6359
  18   2.0000     -10.018766      -272.6245
  19   2.0000      -7.880191      -214.4309
  20   2.0000      -7.824830      -212.9244
  21   2.0000      -6.602550      -179.6645
  22   2.0000      -5.827121      -158.5640
  23   2.0000      -5.824202      -158.4846
  24   2.0000      -5.817193      -158.2939
  25   2.0000      -5.772601      -157.0805
  26   2.0000      -5.764955      -156.8724
  27   2.0000      -5.764777      -156.8675
  28   2.0000      -4.748468      -129.2124
  29   2.0000      -4.747588      -129.1884
  30   2.0000      -4.745893      -129.1423
  31   2.0000      -1.092542       -29.7296
  32   2.0000      -1.085393       -29.5350
  33   2.0000      -1.056524       -28.7495
  34   2.0000      -1.014789       -27.6138
  35   2.0000      -0.997737       -27.1498
  36   2.0000      -0.995849       -27.0984
  37   2.0000      -0.815369       -22.1873
  38   2.0000      -0.751517       -20.4498
  39   2.0000      -0.744644       -20.2628
  40   2.0000      -0.731587       -19.9075
  41   2.0000      -0.699099       -19.0234
  42   2.0000      -0.673765       -18.3341
  43   2.0000      -0.662329       -18.0229
  44   2.0000      -0.649511       -17.6741
  45   2.0000      -0.623236       -16.9591
  46   2.0000      -0.595253       -16.1976
  47   2.0000      -0.545308       -14.8386
  48   2.0000      -0.534444       -14.5430
  49   2.0000      -0.524630       -14.2759
  50   2.0000      -0.498144       -13.5552
  51   2.0000      -0.496413       -13.5081
  52   2.0000      -0.484559       -13.1855
  53   2.0000      -0.471923       -12.8417
  54   2.0000      -0.467491       -12.7211
  55   2.0000      -0.456691       -12.4272
  56   2.0000      -0.455498       -12.3947
  57   2.0000      -0.449216       -12.2238
  58   2.0000      -0.436318       -11.8728
  59   2.0000      -0.431811       -11.7502
  60   2.0000      -0.418647       -11.3920
  61   2.0000      -0.413685       -11.2569
  62   2.0000      -0.410381       -11.1670
  63   2.0000      -0.398072       -10.8321
  64   2.0000      -0.394636       -10.7386
  65   2.0000      -0.375037       -10.2053
  66   2.0000      -0.373851       -10.1730
  67   2.0000      -0.361870        -9.8470
  68   2.0000      -0.360550        -9.8111
  69   2.0000      -0.358279        -9.7493
  70   2.0000      -0.346327        -9.4240
  71   2.0000      -0.342761        -9.3270
  72   2.0000      -0.339022        -9.2253
  73   2.0000      -0.327605        -8.9146
  74   2.0000      -0.323851        -8.8124
  75   2.0000      -0.320768        -8.7285
  76   2.0000      -0.316953        -8.6247
  77   2.0000      -0.307910        -8.3787
  78   2.0000      -0.290406        -7.9023
  79   2.0000      -0.286140        -7.7863
  80   2.0000      -0.282374        -7.6838
  81   2.0000      -0.280667        -7.6374
  82   2.0000      -0.267616        -7.2822
  83   2.0000      -0.257738        -7.0134
  84   2.0000      -0.248837        -6.7712
  85   2.0000      -0.227328        -6.1859
  86   2.0000      -0.222377        -6.0512
  87   0.0000      -0.052495        -1.4285
  88   0.0000      -0.046365        -1.2616
  89   0.0000      -0.026066        -0.7093
  90   0.0000      -0.008033        -0.2186
  91   0.0000       0.016742         0.4556

MULLIKEN ATOMIC CHARGES
-----------------------
   0 C :   -0.511300
   1 C :   -0.130380
   2 O :   -0.187144
   3 C :    0.418731
   4 O :   -0.495905
   5 C :   -0.402120
   6 C :    0.012588
   7 H :    0.237617
   8 C :    0.214605
   9 O :   -0.443846
  10 O :   -0.098302
  11 C :   -0.154331
  12 C :   -0.503035
  13 S :   -0.179325
  14 P :    0.746335
  15 S :   -0.477463
  16 O :   -0.334666
  17 C :   -0.296647
  18 O :   -0.370706
  19 C :   -0.302166
  20 H :    0.169107
  21 H :    0.172845
  22 H :    0.172824
  23 H :    0.176736
  24 H :    0.173279
  25 H :    0.220844
  26 H :    0.214664
  27 H :    0.177376
  28 H :    0.180151
  29 H :    0.171816
  30 H :    0.170984
  31 H :    0.167796
  32 H :    0.181462
  33 H :    0.187403
  34 H :    0.182446
  35 H :    0.176254
  36 H :    0.182090
  37 H :    0.179383
Sum of atomic charges:   -0.0000000

LOEWDIN ATOMIC CHARGES
----------------------
   0 C :   -0.394116
   1 C :    0.036202
   2 O :   -0.578442
   3 C :    0.377272
   4 O :   -0.475738
   5 C :   -0.211981
   6 C :   -0.187579
   7 H :    0.221481
   8 C :    0.331432
   9 O :   -0.472924
  10 O :   -0.598486
  11 C :    0.040253
  12 C :   -0.390042
  13 S :    0.208457
  14 P :    0.385397
  15 S :   -0.110524
  16 O :   -0.671863
  17 C :   -0.041849
  18 O :   -0.692171
  19 C :   -0.050369
  20 H :    0.163360
  21 H :    0.168616
  22 H :    0.163323
  23 H :    0.190744
  24 H :    0.189781
  25 H :    0.209126
  26 H :    0.203547
  27 H :    0.189336
  28 H :    0.190988
  29 H :    0.168871
  30 H :    0.165252
  31 H :    0.163559
  32 H :    0.182962
  33 H :    0.189468
  34 H :    0.190443
  35 H :    0.176842
  36 H :    0.190365
  37 H :    0.179008

  Mayer bond orders larger than 0.100000
B(  0-C ,  1-C ) :   0.9301 B(  0-C , 20-H ) :   0.9682 B(  0-C , 21-H ) :   0.9582
B(  0-C , 22-H ) :   0.9683 B(  1-C ,  2-O ) :   0.7894 B(  1-C , 23-H ) :   0.9516
B(  1-C , 24-H ) :   0.9650 B(  2-O ,  3-C ) :   1.1265 B(  3-C ,  4-O ) :   1.7625
B(  3-C ,  5-C ) :   0.9811 B(  5-C ,  6-C ) :   1.0064 B(  5-C , 25-H ) :   0.9317
B(  5-C , 26-H ) :   0.8973 B(  6-C ,  7-H ) :   0.9238 B(  6-C ,  8-C ) :   0.9269
B(  6-C , 13-S ) :   0.7627 B(  8-C ,  9-O ) :   1.7477 B(  8-C , 10-O ) :   1.1242
B( 10-O , 11-C ) :   0.7722 B( 11-C , 12-C ) :   0.9381 B( 11-C , 27-H ) :   0.9398
B( 11-C , 28-H ) :   0.9400 B( 12-C , 29-H ) :   0.9624 B( 12-C , 30-H ) :   0.9685
B( 12-C , 31-H ) :   0.9682 B( 13-S , 14-P ) :   1.0304 B( 14-P , 15-S ) :   1.8325
B( 14-P , 16-O ) :   1.1275 B( 14-P , 18-O ) :   1.0437 B( 16-O , 17-C ) :   0.7862
B( 17-C , 32-H ) :   0.9563 B( 17-C , 33-H ) :   0.9447 B( 17-C , 34-H ) :   0.9550
B( 18-O , 19-C ) :   0.8212 B( 19-C , 35-H ) :   0.9493 B( 19-C , 36-H ) :   0.9561
B( 19-C , 37-H ) :   0.9541

Dispersion correction           -0.018216910
FINAL SINGLE POINT ENERGY     -1981.471081492359

DIPOLE MOMENT
-------------

Method             : SCF
Type of density    : Electron Density
Multiplicity       :   1
Irrep              :   0
Energy             : -1981.4899628345735891 Eh
Relativity type    :
Basis              : AO
                                X                 Y                 Z
Electronic contribution:    -14.738868157      -3.895117893      -5.937155890
Nuclear contribution   :     14.621164399       2.893843667       5.891755116
                        -----------------------------------------
Total Dipole Moment    :     -0.117703758      -1.001274226      -0.045400774
                        -----------------------------------------
Magnitude (a.u.)       :      1.009190507
Magnitude (Debye)      :      2.565158413

Rotational constants in cm-1:             0.016027             0.006503             0.006229
Rotational constants in MHz :           480.480693           194.968934           186.733447

                             ****ORCA TERMINATED NORMALLY****
TOTAL RUN TIME: 0 days 0 hours 1 minutes 51 seconds 707 msec
