                         Program Version 6.0.1  -  RELEASE   -
|  1> ! r2scan-3c def2/J RI DEFGRID2 scfconv6 printgap
|  2> %output
|  3>     printlevel normal
|  4> end
|  5> * xyz 0 1
|  6> C 3.5600105861 -3.9743193394 -0.8466194515
|  7> C 4.1840297817 -2.6620540748 -1.2938504999
|  8> O 3.211644152 -1.8377370645 -1.9679734209
|  9> C 2.4408419889 -1.0575505638 -1.2440982558
| 10> O 2.5025138375 -0.9492228911 -0.0360718803
| 11> C 1.4657989489 -0.2750728003 -2.0985268957
| 12> C 0.415060332 0.3669883423 -1.2033922274
| 13> H -0.2002337127 1.0737304362 -1.7705990022
| 14> C 1.0968817166 1.1451684409 -0.0894344811
| 15> O 2.0088550394 1.9098486608 -0.3088472958
| 16> O 0.5487847678 0.937004314 1.0900397061
| 17> C 1.0925759654 1.6363449693 2.2261431431
| 18> C 0.4177970911 2.9843801514 2.4118995635
| 19> S -0.6998791178 -0.9118197234 -0.5350937981
| 20> P -2.1125330071 0.3735274061 0.3980704579
| 21> S -2.2025669659 2.2084359579 -0.2774009611
| 22> O -3.4713327887 -0.4573591105 0.2116340284
| 23> C -4.0679419755 -0.6214683706 -1.0794173043
| 24> O -1.9653987559 0.2917621215 1.9683785562
| 25> C -1.8759553963 -0.964931591 2.666550434
| 26> H 3.1306259898 -4.4935291927 -1.6987122512
| 27> H 4.3230194917 -4.5980961153 -0.3929570293
| 28> H 2.7768163064 -3.7848521663 -0.1159544033
| 29> H 4.9647447002 -2.8233983511 -2.0370230848
| 30> H 4.5795105353 -2.1068497064 -0.4385523309
| 31> H 1.0131016742 -0.9322790746 -2.8397782834
| 32> H 2.0273004748 0.5078155151 -2.6134431672
| 33> H 0.9016107133 0.9744435761 3.071137775
| 34> H 2.1679328839 1.7512664919 2.064529023
| 35> H -0.6584465145 2.8537236793 2.5020624785
| 36> H 0.8004898348 3.4571493406 3.3099891091
| 37> H 0.6181752989 3.6260794451 1.5564238966
| 38> H -4.1550359911 0.3455479056 -1.577277084
| 39> H -5.0524970121 -1.0434485302 -0.8950138273
| 40> H -3.4641231667 -1.299135318 -1.68259961
| 41> H -0.9713160847 -1.4914960338 2.3620104421
| 42> H -2.7531277276 -1.5736476704 2.4559902711
| 43> H -1.8325101444 -0.7020171099 3.7202931782
| 44> *
| 45>
| 46>                          ****END OF INPUT****

CARTESIAN COORDINATES (ANGSTROEM)
---------------------------------
  C      3.560011   -3.974319   -0.846619
  C      4.184030   -2.662054   -1.293850
  O      3.211644   -1.837737   -1.967973
  C      2.440842   -1.057551   -1.244098
  O      2.502514   -0.949223   -0.036072
  C      1.465799   -0.275073   -2.098527
  C      0.415060    0.366988   -1.203392
  H     -0.200234    1.073730   -1.770599
  C      1.096882    1.145168   -0.089434
  O      2.008855    1.909849   -0.308847
  O      0.548785    0.937004    1.090040
  C      1.092576    1.636345    2.226143
  C      0.417797    2.984380    2.411900
  S     -0.699879   -0.911820   -0.535094
  P     -2.112533    0.373527    0.398070
  S     -2.202567    2.208436   -0.277401
  O     -3.471333   -0.457359    0.211634
  C     -4.067942   -0.621468   -1.079417
  O     -1.965399    0.291762    1.968379
  C     -1.875955   -0.964932    2.666550
  H      3.130626   -4.493529   -1.698712
  H      4.323019   -4.598096   -0.392957
  H      2.776816   -3.784852   -0.115954
  H      4.964745   -2.823398   -2.037023
  H      4.579511   -2.106850   -0.438552
  H      1.013102   -0.932279   -2.839778
  H      2.027300    0.507816   -2.613443
  H      0.901611    0.974444    3.071138
  H      2.167933    1.751266    2.064529
  H     -0.658447    2.853724    2.502062
  H      0.800490    3.457149    3.309989
  H      0.618175    3.626079    1.556424
  H     -4.155036    0.345548   -1.577277
  H     -5.052497   -1.043449   -0.895014
  H     -3.464123   -1.299135   -1.682600
  H     -0.971316   -1.491496    2.362010
  H     -2.753128   -1.573648    2.455990
  H     -1.832510   -0.702017    3.720293

 Total Charge           Charge          ....    0
 Multiplicity           Mult            ....    1
 Number of Electrons    NEL             ....  174
 Basis Dimension        Dim             ....  510

ORBITAL ENERGIES
----------------

  NO   OCC          E(Eh)            E(eV)
   0   2.0000     -88.572139     -2410.1704
   1   2.0000     -88.516273     -2408.6502
   2   2.0000     -76.912492     -2092.8953
   3   2.0000     -19.010084      -517.2907
   4   2.0000     -18.993113      -516.8289
   5   2.0000     -18.990354      -516.7538
   6   2.0000     -18.989206      -516.7226
   7   2.0000     -18.942500      -515.4516
   8   2.0000     -18.923878      -514.9449
   9   2.0000     -10.167111      -276.6612
  10   2.0000     -10.154248      -276.3111
  11   2.0000     -10.100749      -274.8554
  12   2.0000     -10.097116      -274.7565
  13   2.0000     -10.091344      -274.5994
  14   2.0000     -10.090190      -274.5680
  15   2.0000     -10.082969      -274.3715
  16   2.0000     -10.065583      -273.8984
  17   2.0000     -10.036365      -273.1034
  18   2.0000     -10.013364      -272.4775
  19   2.0000      -7.866471      -214.0576
  20   2.0000      -7.811031      -212.5490
  21   2.0000      -6.590656      -179.3409
  22   2.0000      -5.813250      -158.1866
  23   2.0000      -5.810457      -158.1106
  24   2.0000      -5.803556      -157.9228
  25   2.0000      -5.758921      -156.7082
  26   2.0000      -5.751219      -156.4986
  27   2.0000      -5.750889      -156.4897
  28   2.0000      -4.736342      -128.8824
  29   2.0000      -4.735722      -128.8655
  30   2.0000      -4.734162      -128.8231
  31   2.0000      -1.087495       -29.5923
  32   2.0000      -1.069911       -29.1137
  33   2.0000      -1.049405       -28.5558
  34   2.0000      -1.007314       -27.4104
  35   2.0000      -0.992010       -26.9940
  36   2.0000      -0.974586       -26.5198
  37   2.0000      -0.809596       -22.0302
  38   2.0000      -0.759771       -20.6744
  39   2.0000      -0.733973       -19.9724
  40   2.0000      -0.731683       -19.9101
  41   2.0000      -0.697991       -18.9933
  42   2.0000      -0.675077       -18.3698
  43   2.0000      -0.657582       -17.8937
  44   2.0000      -0.647114       -17.6089
  45   2.0000      -0.630510       -17.1570
  46   2.0000      -0.593376       -16.1466
  47   2.0000      -0.539773       -14.6880
  48   2.0000      -0.533905       -14.5283
  49   2.0000      -0.520017       -14.1504
  50   2.0000      -0.501077       -13.6350
  51   2.0000      -0.492104       -13.3908
  52   2.0000      -0.484233       -13.1767
  53   2.0000      -0.463964       -12.6251
  54   2.0000      -0.455819       -12.4035
  55   2.0000      -0.454781       -12.3752
  56   2.0000      -0.449134       -12.2216
  57   2.0000      -0.438016       -11.9190
  58   2.0000      -0.435457       -11.8494
  59   2.0000      -0.430138       -11.7046
  60   2.0000      -0.418577       -11.3901
  61   2.0000      -0.415988       -11.3196
  62   2.0000      -0.413411       -11.2495
  63   2.0000      -0.400340       -10.8938
  64   2.0000      -0.391331       -10.6487
  65   2.0000      -0.380668       -10.3585
  66   2.0000      -0.380042       -10.3415
  67   2.0000      -0.363168        -9.8823
  68   2.0000      -0.358129        -9.7452
  69   2.0000      -0.351870        -9.5749
  70   2.0000      -0.347045        -9.4436
  71   2.0000      -0.337345        -9.1796
  72   2.0000      -0.334759        -9.1093
  73   2.0000      -0.330025        -8.9804
  74   2.0000      -0.321548        -8.7498
  75   2.0000      -0.317636        -8.6433
  76   2.0000      -0.313529        -8.5316
  77   2.0000      -0.301453        -8.2030
  78   2.0000      -0.285734        -7.7752
  79   2.0000      -0.284348        -7.7375
  80   2.0000      -0.275233        -7.4895
  81   2.0000      -0.264564        -7.1991
  82   2.0000      -0.255309        -6.9473
  83   2.0000      -0.248822        -6.7708
  84   2.0000      -0.221849        -6.0368
  85   2.0000      -0.215312        -5.8589
  86   2.0000      -0.211040        -5.7427
  87   0.0000      -0.042500        -1.1565
  88   0.0000      -0.022989        -0.6256
  89   0.0000      -0.008763        -0.2385
  90   0.0000       0.007707         0.2097
  91   0.0000       0.017480         0.4757

MULLIKEN ATOMIC CHARGES
-----------------------
   0 C :   -0.468242
   1 C :   -0.136235
   2 O :   -0.162436
   3 C :    0.395197
   4 O :   -0.388945
   5 C :   -0.467693
   6 C :    0.035223
   7 H :    0.246520
   8 C :    0.229259
   9 O :   -0.384145
  10 O :   -0.119729
  11 C :   -0.127417
  12 C :   -0.483000
  13 S :   -0.227585
  14 P :    0.780947
  15 S :   -0.443303
  16 O :   -0.347926
  17 C :   -0.297325
  18 O :   -0.310611
  19 C :   -0.302705
  20 H :    0.153811
  21 H :    0.149900
  22 H :    0.172583
  23 H :    0.152064
  24 H :    0.169991
  25 H :    0.191519
  26 H :    0.203143
  27 H :    0.141521
  28 H :    0.171705
  29 H :    0.172846
  30 H :    0.142711
  31 H :    0.172597
  32 H :    0.174694
  33 H :    0.151071
  34 H :    0.157853
  35 H :    0.177826
  36 H :    0.168085
  37 H :    0.156230
Sum of atomic charges:   -0.0000000

LOEWDIN ATOMIC CHARGES
----------------------
   0 C :   -0.387974
   1 C :    0.031972
   2 O :   -0.573790
   3 C :    0.368098
   4 O :   -0.426614
   5 C :   -0.206601
   6 C :   -0.197519
   7 H :    0.208485
   8 C :    0.349574
   9 O :   -0.419349
  10 O :   -0.621217
  11 C :    0.036684
  12 C :   -0.392492
  13 S :    0.209483
  14 P :    0.398195
  15 S :   -0.086066
  16 O :   -0.687267
  17 C :   -0.061749
  18 O :   -0.649608
  19 C :   -0.053083
  20 H :    0.158037
  21 H :    0.160567
  22 H :    0.165641
  23 H :    0.179827
  24 H :    0.189286
  25 H :    0.189661
  26 H :    0.206121
  27 H :    0.177830
  28 H :    0.193134
  29 H :    0.166265
  30 H :    0.155406
  31 H :    0.167207
  32 H :    0.176434
  33 H :    0.176558
  34 H :    0.168476
  35 H :    0.175967
  36 H :    0.174391
  37 H :    0.180032

  Mayer bond orders larger than 0.100000
B(  0-C ,  1-C ) :   0.9395 B(  0-C , 20-H ) :   0.9728 B(  0-C , 21-H ) :   0.9641
B(  0-C , 22-H ) :   0.9705 B(  1-C ,  2-O ) :   0.8029 B(  1-C , 23-H ) :   0.9615
B(  1-C , 24-H ) :   0.9676 B(  2-O ,  3-C ) :   1.1350 B(  3-C ,  4-O ) :   1.7891
B(  3-C ,  5-C ) :   0.9677 B(  4-O ,  8-C ) :   0.1272 B(  5-C ,  6-C ) :   0.9111
B(  5-C ,  9-O ) :   0.1123 B(  5-C , 25-H ) :   0.9759 B(  5-C , 26-H ) :   0.9149
B(  6-C ,  7-H ) :   0.9140 B(  6-C ,  8-C ) :   0.8160 B(  6-C , 13-S ) :   0.8711
B(  8-C ,  9-O ) :   1.8958 B(  8-C , 10-O ) :   1.1432 B( 10-O , 11-C ) :   0.7750
B( 11-C , 12-C ) :   0.9224 B( 11-C , 27-H ) :   0.9643 B( 11-C , 28-H ) :   0.9658
B( 12-C , 29-H ) :   0.9653 B( 12-C , 30-H ) :   0.9691 B( 12-C , 31-H ) :   0.9696
B( 13-S , 14-P ) :   0.9871 B( 14-P , 15-S ) :   1.7964 B( 14-P , 16-O ) :   1.0327
B( 14-P , 18-O ) :   1.1518 B( 16-O , 17-C ) :   0.8337 B( 17-C , 32-H ) :   0.9595
B( 17-C , 33-H ) :   0.9672 B( 17-C , 34-H ) :   0.9570 B( 18-O , 19-C ) :   0.7920
B( 19-C , 35-H ) :   0.9561 B( 19-C , 36-H ) :   0.9610 B( 19-C , 37-H ) :   0.9651

Dispersion correction           -0.017743939
FINAL SINGLE POINT ENERGY     -1981.454833368896

DIPOLE MOMENT
-------------

Method             : SCF
Type of density    : Electron Density
Multiplicity       :   1
Irrep              :   0
Energy             : -1981.4745950493206692 Eh
Relativity type    :
Basis              : AO
                                X                 Y                 Z
Electronic contribution:     -9.521184233       7.962774315      -4.329619430
Nuclear contribution   :      9.721622322      -9.997543086       4.354604644
                        -----------------------------------------
Total Dipole Moment    :      0.200438089      -2.034768771       0.024985214
                        -----------------------------------------
Magnitude (a.u.)       :      2.044769826
Magnitude (Debye)      :      5.197391854

Rotational constants in cm-1:             0.014408             0.006652             0.005803
Rotational constants in MHz :           431.949689           199.407657           173.960967

                             ****ORCA TERMINATED NORMALLY****
TOTAL RUN TIME: 0 days 0 hours 1 minutes 36 seconds 271 msec
