                         Program Version 6.0.1  -  RELEASE   -
|  1> ! r2scan-3c def2/J RI DEFGRID2 scfconv6 printgap
|  2> %output
|  3>     printlevel normal
|  4> end
|  5> %cpcm
|  6>     smd true
|  7>     smdsolvent "water"
|  8> end
|  9> * xyz 0 1
| 10> C 3.5600105861 -3.9743193394 -0.8466194515
| 11> C 4.1840297817 -2.6620540748 -1.2938504999
| 12> O 3.211644152 -1.8377370645 -1.9679734209
| 13> C 2.4408419889 -1.0575505638 -1.2440982558
| 14> O 2.5025138375 -0.9492228911 -0.0360718803
| 15> C 1.4657989489 -0.2750728003 -2.0985268957
| 16> C 0.415060332 0.3669883423 -1.2033922274
| 17> H -0.2002337127 1.0737304362 -1.7705990022
| 18> C 1.0968817166 1.1451684409 -0.0894344811
| 19> O 2.0088550394 1.9098486608 -0.3088472958
| 20> O 0.5487847678 0.937004314 1.0900397061
| 21> C 1.0925759654 1.6363449693 2.2261431431
| 22> C 0.4177970911 2.9843801514 2.4118995635
| 23> S -0.6998791178 -0.9118197234 -0.5350937981
| 24> P -2.1125330071 0.3735274061 0.3980704579
| 25> S -2.2025669659 2.2084359579 -0.2774009611
| 26> O -3.4713327887 -0.4573591105 0.2116340284
| 27> C -4.0679419755 -0.6214683706 -1.0794173043
| 28> O -1.9653987559 0.2917621215 1.9683785562
| 29> C -1.8759553963 -0.964931591 2.666550434
| 30> H 3.1306259898 -4.4935291927 -1.6987122512
| 31> H 4.3230194917 -4.5980961153 -0.3929570293
| 32> H 2.7768163064 -3.7848521663 -0.1159544033
| 33> H 4.9647447002 -2.8233983511 -2.0370230848
| 34> H 4.5795105353 -2.1068497064 -0.4385523309
| 35> H 1.0131016742 -0.9322790746 -2.8397782834
| 36> H 2.0273004748 0.5078155151 -2.6134431672
| 37> H 0.9016107133 0.9744435761 3.071137775
| 38> H 2.1679328839 1.7512664919 2.064529023
| 39> H -0.6584465145 2.8537236793 2.5020624785
| 40> H 0.8004898348 3.4571493406 3.3099891091
| 41> H 0.6181752989 3.6260794451 1.5564238966
| 42> H -4.1550359911 0.3455479056 -1.577277084
| 43> H -5.0524970121 -1.0434485302 -0.8950138273
| 44> H -3.4641231667 -1.299135318 -1.68259961
| 45> H -0.9713160847 -1.4914960338 2.3620104421
| 46> H -2.7531277276 -1.5736476704 2.4559902711
| 47> H -1.8325101444 -0.7020171099 3.7202931782
| 48> *
| 49>
| 50>                          ****END OF INPUT****

CARTESIAN COORDINATES (ANGSTROEM)
---------------------------------
  C      3.560011   -3.974319   -0.846619
  C      4.184030   -2.662054   -1.293850
  O      3.211644   -1.837737   -1.967973
  C      2.440842   -1.057551   -1.244098
  O      2.502514   -0.949223   -0.036072
  C      1.465799   -0.275073   -2.098527
  C      0.415060    0.366988   -1.203392
  H     -0.200234    1.073730   -1.770599
  C      1.096882    1.145168   -0.089434
  O      2.008855    1.909849   -0.308847
  O      0.548785    0.937004    1.090040
  C      1.092576    1.636345    2.226143
  C      0.417797    2.984380    2.411900
  S     -0.699879   -0.911820   -0.535094
  P     -2.112533    0.373527    0.398070
  S     -2.202567    2.208436   -0.277401
  O     -3.471333   -0.457359    0.211634
  C     -4.067942   -0.621468   -1.079417
  O     -1.965399    0.291762    1.968379
  C     -1.875955   -0.964932    2.666550
  H      3.130626   -4.493529   -1.698712
  H      4.323019   -4.598096   -0.392957
  H      2.776816   -3.784852   -0.115954
  H      4.964745   -2.823398   -2.037023
  H      4.579511   -2.106850   -0.438552
  H      1.013102   -0.932279   -2.839778
  H      2.027300    0.507816   -2.613443
  H      0.901611    0.974444    3.071138
  H      2.167933    1.751266    2.064529
  H     -0.658447    2.853724    2.502062
  H      0.800490    3.457149    3.309989
  H      0.618175    3.626079    1.556424
  H     -4.155036    0.345548   -1.577277
  H     -5.052497   -1.043449   -0.895014
  H     -3.464123   -1.299135   -1.682600
  H     -0.971316   -1.491496    2.362010
  H     -2.753128   -1.573648    2.455990
  H     -1.832510   -0.702017    3.720293

 Total Charge           Charge          ....    0
 Multiplicity           Mult            ....    1
 Number of Electrons    NEL             ....  174
 Basis Dimension        Dim             ....  510

ORBITAL ENERGIES
----------------

  NO   OCC          E(Eh)            E(eV)
   0   2.0000     -88.577529     -2410.3171
   1   2.0000     -88.528238     -2408.9758
   2   2.0000     -76.920017     -2093.1001
   3   2.0000     -19.010111      -517.2914
   4   2.0000     -19.005198      -517.1577
   5   2.0000     -18.997038      -516.9357
   6   2.0000     -18.992898      -516.8230
   7   2.0000     -18.952335      -515.7192
   8   2.0000     -18.947232      -515.5804
   9   2.0000     -10.173171      -276.8260
  10   2.0000     -10.173097      -276.8240
  11   2.0000     -10.095323      -274.7077
  12   2.0000     -10.087012      -274.4816
  13   2.0000     -10.085812      -274.4489
  14   2.0000     -10.084614      -274.4163
  15   2.0000     -10.080853      -274.3139
  16   2.0000     -10.060571      -273.7621
  17   2.0000     -10.019757      -272.6514
  18   2.0000     -10.017473      -272.5893
  19   2.0000      -7.871813      -214.2029
  20   2.0000      -7.823349      -212.8841
  21   2.0000      -6.598276      -179.5482
  22   2.0000      -5.818639      -158.3332
  23   2.0000      -5.815828      -158.2567
  24   2.0000      -5.808827      -158.0662
  25   2.0000      -5.771113      -157.0400
  26   2.0000      -5.763579      -156.8350
  27   2.0000      -5.763221      -156.8252
  28   2.0000      -4.743906      -129.0883
  29   2.0000      -4.743300      -129.0718
  30   2.0000      -4.741908      -129.0339
  31   2.0000      -1.090529       -29.6748
  32   2.0000      -1.085336       -29.5335
  33   2.0000      -1.053095       -28.6562
  34   2.0000      -1.010161       -27.4879
  35   2.0000      -1.000599       -27.2277
  36   2.0000      -0.995346       -27.0847
  37   2.0000      -0.813023       -22.1235
  38   2.0000      -0.753879       -20.5141
  39   2.0000      -0.737565       -20.0702
  40   2.0000      -0.731302       -19.8997
  41   2.0000      -0.695526       -18.9262
  42   2.0000      -0.669535       -18.2190
  43   2.0000      -0.659612       -17.9490
  44   2.0000      -0.651384       -17.7250
  45   2.0000      -0.628709       -17.1080
  46   2.0000      -0.593777       -16.1575
  47   2.0000      -0.540373       -14.7043
  48   2.0000      -0.529055       -14.3963
  49   2.0000      -0.524514       -14.2727
  50   2.0000      -0.505629       -13.7589
  51   2.0000      -0.491032       -13.3617
  52   2.0000      -0.485344       -13.2069
  53   2.0000      -0.466942       -12.7061
  54   2.0000      -0.461079       -12.5466
  55   2.0000      -0.456570       -12.4239
  56   2.0000      -0.452548       -12.3145
  57   2.0000      -0.447907       -12.1882
  58   2.0000      -0.437733       -11.9113
  59   2.0000      -0.426986       -11.6189
  60   2.0000      -0.419436       -11.4134
  61   2.0000      -0.416088       -11.3223
  62   2.0000      -0.410226       -11.1628
  63   2.0000      -0.399528       -10.8717
  64   2.0000      -0.389103       -10.5880
  65   2.0000      -0.383644       -10.4395
  66   2.0000      -0.373763       -10.1706
  67   2.0000      -0.365084        -9.9345
  68   2.0000      -0.357906        -9.7391
  69   2.0000      -0.353877        -9.6295
  70   2.0000      -0.345092        -9.3904
  71   2.0000      -0.340364        -9.2618
  72   2.0000      -0.338913        -9.2223
  73   2.0000      -0.332527        -9.0485
  74   2.0000      -0.322728        -8.7819
  75   2.0000      -0.315643        -8.5891
  76   2.0000      -0.308385        -8.3916
  77   2.0000      -0.306567        -8.3421
  78   2.0000      -0.288805        -7.8588
  79   2.0000      -0.286910        -7.8072
  80   2.0000      -0.279411        -7.6032
  81   2.0000      -0.278356        -7.5745
  82   2.0000      -0.269605        -7.3363
  83   2.0000      -0.260471        -7.0878
  84   2.0000      -0.235484        -6.4078
  85   2.0000      -0.228562        -6.2195
  86   2.0000      -0.222730        -6.0608
  87   0.0000      -0.048927        -1.3314
  88   0.0000      -0.027927        -0.7599
  89   0.0000      -0.024798        -0.6748
  90   0.0000       0.004177         0.1137
  91   0.0000       0.010990         0.2991

MULLIKEN ATOMIC CHARGES
-----------------------
   0 C :   -0.496107
   1 C :   -0.138383
   2 O :   -0.172488
   3 C :    0.427576
   4 O :   -0.455616
   5 C :   -0.505911
   6 C :    0.051224
   7 H :    0.271165
   8 C :    0.220722
   9 O :   -0.452546
  10 O :   -0.134474
  11 C :   -0.132967
  12 C :   -0.509707
  13 S :   -0.219203
  14 P :    0.802204
  15 S :   -0.497188
  16 O :   -0.376233
  17 C :   -0.306961
  18 O :   -0.349149
  19 C :   -0.301966
  20 H :    0.167589
  21 H :    0.172607
  22 H :    0.170404
  23 H :    0.177480
  24 H :    0.174571
  25 H :    0.227348
  26 H :    0.236878
  27 H :    0.179481
  28 H :    0.176423
  29 H :    0.169756
  30 H :    0.171892
  31 H :    0.170424
  32 H :    0.176326
  33 H :    0.179011
  34 H :    0.174890
  35 H :    0.182223
  36 H :    0.184881
  37 H :    0.183822
Sum of atomic charges:   -0.0000000

LOEWDIN ATOMIC CHARGES
----------------------
   0 C :   -0.390445
   1 C :    0.037436
   2 O :   -0.573044
   3 C :    0.375492
   4 O :   -0.473532
   5 C :   -0.198066
   6 C :   -0.193703
   7 H :    0.216939
   8 C :    0.349983
   9 O :   -0.471885
  10 O :   -0.626205
  11 C :    0.040176
  12 C :   -0.394919
  13 S :    0.221725
  14 P :    0.399719
  15 S :   -0.126414
  16 O :   -0.697607
  17 C :   -0.056493
  18 O :   -0.668964
  19 C :   -0.043847
  20 H :    0.162753
  21 H :    0.168995
  22 H :    0.163326
  23 H :    0.190924
  24 H :    0.190866
  25 H :    0.204946
  26 H :    0.216088
  27 H :    0.192211
  28 H :    0.194656
  29 H :    0.163713
  30 H :    0.166670
  31 H :    0.163088
  32 H :    0.177121
  33 H :    0.188429
  34 H :    0.175835
  35 H :    0.180039
  36 H :    0.181955
  37 H :    0.192034

  Mayer bond orders larger than 0.100000
B(  0-C ,  1-C ) :   0.9370 B(  0-C , 20-H ) :   0.9693 B(  0-C , 21-H ) :   0.9589
B(  0-C , 22-H ) :   0.9686 B(  1-C ,  2-O ) :   0.7853 B(  1-C , 23-H ) :   0.9517
B(  1-C , 24-H ) :   0.9626 B(  2-O ,  3-C ) :   1.1510 B(  3-C ,  4-O ) :   1.7364
B(  3-C ,  5-C ) :   0.9438 B(  4-O ,  8-C ) :   0.1257 B(  5-C ,  6-C ) :   0.8834
B(  5-C , 25-H ) :   0.9630 B(  5-C , 26-H ) :   0.9243 B(  6-C ,  7-H ) :   0.9021
B(  6-C ,  8-C ) :   0.8195 B(  6-C , 13-S ) :   0.8682 B(  8-C ,  9-O ) :   1.8335
B(  8-C , 10-O ) :   1.1535 B( 10-O , 11-C ) :   0.7587 B( 11-C , 12-C ) :   0.9127
B( 11-C , 27-H ) :   0.9538 B( 11-C , 28-H ) :   0.9567 B( 12-C , 29-H ) :   0.9668
B( 12-C , 30-H ) :   0.9623 B( 12-C , 31-H ) :   0.9707 B( 13-S , 14-P ) :   1.0018
B( 14-P , 15-S ) :   1.7683 B( 14-P , 16-O ) :   1.0401 B( 14-P , 18-O ) :   1.1554
B( 16-O , 17-C ) :   0.8258 B( 17-C , 32-H ) :   0.9556 B( 17-C , 33-H ) :   0.9571
B( 17-C , 34-H ) :   0.9505 B( 18-O , 19-C ) :   0.7856 B( 19-C , 35-H ) :   0.9489
B( 19-C , 36-H ) :   0.9524 B( 19-C , 37-H ) :   0.9541

Dispersion correction           -0.017743939
FINAL SINGLE POINT ENERGY     -1981.469686980461

DIPOLE MOMENT
-------------

Method             : SCF
Type of density    : Electron Density
Multiplicity       :   1
Irrep              :   0
Energy             : -1981.4894486608855004 Eh
Relativity type    :
Basis              : AO
                                X                 Y                 Z
Electronic contribution:     -9.579200793       7.150236402      -4.527871401
Nuclear contribution   :      9.721622322      -9.997543086       4.354604644
                        -----------------------------------------
Total Dipole Moment    :      0.142421529      -2.847306685      -0.173266757
                        -----------------------------------------
Magnitude (a.u.)       :      2.856126856
Magnitude (Debye)      :      7.259697530

Rotational constants in cm-1:             0.014408             0.006652             0.005803
Rotational constants in MHz :           431.949689           199.407657           173.960967

                             ****ORCA TERMINATED NORMALLY****
TOTAL RUN TIME: 0 days 0 hours 2 minutes 2 seconds 723 msec
