                         Program Version 6.0.1  -  RELEASE   -
|  1> ! pbe def2-sv(p) def2/J RI DEFGRID1 loosescf d4 GCP(DFT/SV(P)) printgap
|  2> %output
|  3>     printlevel normal
|  4> end
|  5> * xyz 0 1
|  6> C 5.0836527017 -1.0476918731 -2.4884778706
|  7> C 4.2651598978 -0.2275746349 -1.503986974
|  8> O 2.9026510153 -0.6900371584 -1.4513198627
|  9> C 2.6109925434 -1.6832959443 -0.6338286185
| 10> O 3.409428829 -2.2530427968 0.073704239
| 11> C 1.1361891934 -2.043450787 -0.7001604038
| 12> C 0.2690467111 -0.8087169402 -0.4708274884
| 13> H 0.4948064754 -0.0436886298 -1.2211959396
| 14> C 0.4848819597 -0.1980869534 0.9005860986
| 15> O -0.4349560505 0.0407415591 1.6570297333
| 16> O 1.7450153996 0.0343111376 1.1445384027
| 17> C 2.0958643897 0.7074284206 2.3748334549
| 18> C 2.1518943982 2.2090109735 2.1500986953
| 19> S -1.4961006454 -1.2439625488 -0.6078407384
| 20> P -2.3204238606 0.6684621089 -0.1357104975
| 21> S -1.1941234341 2.2638610756 -0.2547569118
| 22> O -3.4404161425 0.7859143221 -1.2591072757
| 23> C -4.4680296548 -0.2024823108 -1.4466766198
| 24> O -3.2621242171 0.5080611323 1.1441974199
| 25> C -2.9604237263 0.8282592648 2.5016826151
| 26> H 4.6184239325 -1.0276253688 -3.4701322671
| 27> H 6.0829740923 -0.6309811207 -2.5578105549
| 28> H 5.1533159531 -2.0784067733 -2.1487352696
| 29> H 4.187436999 0.8128326919 -1.8203801237
| 30> H 4.6910743506 -0.2904377393 -0.4988787644
| 31> H 0.9271247155 -2.8080087483 0.0482628763
| 32> H 0.9189550177 -2.4457556991 -1.6908601888
| 33> H 1.354083277 0.4499598134 3.1349909159
| 34> H 3.0718027769 0.3002757722 2.6405874116
| 35> H 2.4031080748 2.7023200663 3.0829001556
| 36> H 2.9005866493 2.4510383922 1.4013967272
| 37> H 1.1862056879 2.5730913273 1.8026691322
| 38> H -4.9840250928 0.093292129 -2.3564834693
| 39> H -5.1469495785 -0.1967210104 -0.5961024708
| 40> H -4.0189901058 -1.1897306145 -1.5617784645
| 41> H -2.5006112823 -0.0290961403 2.988829156
| 42> H -3.9157618671 1.072826119 2.9611024986
| 43> H -2.2834631562 1.6812782405 2.5484106098
| 44> *
| 45>
| 46>                          ****END OF INPUT****

CARTESIAN COORDINATES (ANGSTROEM)
---------------------------------
  C      5.083653   -1.047692   -2.488478
  C      4.265160   -0.227575   -1.503987
  O      2.902651   -0.690037   -1.451320
  C      2.610993   -1.683296   -0.633829
  O      3.409429   -2.253043    0.073704
  C      1.136189   -2.043451   -0.700160
  C      0.269047   -0.808717   -0.470827
  H      0.494806   -0.043689   -1.221196
  C      0.484882   -0.198087    0.900586
  O     -0.434956    0.040742    1.657030
  O      1.745015    0.034311    1.144538
  C      2.095864    0.707428    2.374833
  C      2.151894    2.209011    2.150099
  S     -1.496101   -1.243963   -0.607841
  P     -2.320424    0.668462   -0.135710
  S     -1.194123    2.263861   -0.254757
  O     -3.440416    0.785914   -1.259107
  C     -4.468030   -0.202482   -1.446677
  O     -3.262124    0.508061    1.144197
  C     -2.960424    0.828259    2.501683
  H      4.618424   -1.027625   -3.470132
  H      6.082974   -0.630981   -2.557811
  H      5.153316   -2.078407   -2.148735
  H      4.187437    0.812833   -1.820380
  H      4.691074   -0.290438   -0.498879
  H      0.927125   -2.808009    0.048263
  H      0.918955   -2.445756   -1.690860
  H      1.354083    0.449960    3.134991
  H      3.071803    0.300276    2.640587
  H      2.403108    2.702320    3.082900
  H      2.900587    2.451038    1.401397
  H      1.186206    2.573091    1.802669
  H     -4.984025    0.093292   -2.356483
  H     -5.146950   -0.196721   -0.596102
  H     -4.018990   -1.189731   -1.561778
  H     -2.500611   -0.029096    2.988829
  H     -3.915762    1.072826    2.961102
  H     -2.283463    1.681278    2.548411

 Total Charge           Charge          ....    0
 Multiplicity           Mult            ....    1
 Number of Electrons    NEL             ....  174
 Basis Dimension        Dim             ....  316

ORBITAL ENERGIES
----------------

  NO   OCC          E(Eh)            E(eV)
   0   2.0000     -88.033444     -2395.5118
   1   2.0000     -87.975113     -2393.9245
   2   2.0000     -76.420605     -2079.5104
   3   2.0000     -18.822312      -512.1811
   4   2.0000     -18.805520      -511.7242
   5   2.0000     -18.784985      -511.1654
   6   2.0000     -18.778103      -510.9782
   7   2.0000     -18.752996      -510.2950
   8   2.0000     -18.741206      -509.9741
   9   2.0000     -10.026011      -272.8216
  10   2.0000     -10.015438      -272.5339
  11   2.0000      -9.956264      -270.9237
  12   2.0000      -9.951948      -270.8063
  13   2.0000      -9.949013      -270.7264
  14   2.0000      -9.942599      -270.5519
  15   2.0000      -9.935156      -270.3493
  16   2.0000      -9.918632      -269.8997
  17   2.0000      -9.890067      -269.1224
  18   2.0000      -9.888616      -269.0829
  19   2.0000      -7.678548      -208.9439
  20   2.0000      -7.620449      -207.3630
  21   2.0000      -6.416830      -174.6108
  22   2.0000      -5.706478      -155.2812
  23   2.0000      -5.703411      -155.1977
  24   2.0000      -5.695127      -154.9723
  25   2.0000      -5.649702      -153.7362
  26   2.0000      -5.641133      -153.5030
  27   2.0000      -5.640124      -153.4756
  28   2.0000      -4.639640      -126.2510
  29   2.0000      -4.638692      -126.2252
  30   2.0000      -4.637320      -126.1879
  31   2.0000      -1.031184       -28.0599
  32   2.0000      -1.013538       -27.5798
  33   2.0000      -0.975421       -26.5426
  34   2.0000      -0.935041       -25.4438
  35   2.0000      -0.929733       -25.2993
  36   2.0000      -0.918493       -24.9935
  37   2.0000      -0.769176       -20.9303
  38   2.0000      -0.713262       -19.4089
  39   2.0000      -0.712328       -19.3834
  40   2.0000      -0.691212       -18.8088
  41   2.0000      -0.658149       -17.9091
  42   2.0000      -0.631630       -17.1875
  43   2.0000      -0.623507       -16.9665
  44   2.0000      -0.612356       -16.6630
  45   2.0000      -0.597780       -16.2664
  46   2.0000      -0.568637       -15.4734
  47   2.0000      -0.513028       -13.9602
  48   2.0000      -0.508739       -13.8435
  49   2.0000      -0.501636       -13.6502
  50   2.0000      -0.481334       -13.0978
  51   2.0000      -0.470663       -12.8074
  52   2.0000      -0.468707       -12.7542
  53   2.0000      -0.451052       -12.2737
  54   2.0000      -0.441421       -12.0117
  55   2.0000      -0.427763       -11.6400
  56   2.0000      -0.424277       -11.5452
  57   2.0000      -0.418913       -11.3992
  58   2.0000      -0.417033       -11.3481
  59   2.0000      -0.410421       -11.1681
  60   2.0000      -0.404307       -11.0018
  61   2.0000      -0.396669       -10.7939
  62   2.0000      -0.391334       -10.6487
  63   2.0000      -0.387265       -10.5380
  64   2.0000      -0.379431       -10.3248
  65   2.0000      -0.367536       -10.0012
  66   2.0000      -0.363885        -9.9018
  67   2.0000      -0.356673        -9.7056
  68   2.0000      -0.349436        -9.5086
  69   2.0000      -0.340662        -9.2699
  70   2.0000      -0.339163        -9.2291
  71   2.0000      -0.332291        -9.0421
  72   2.0000      -0.325401        -8.8546
  73   2.0000      -0.313643        -8.5347
  74   2.0000      -0.303173        -8.2498
  75   2.0000      -0.299775        -8.1573
  76   2.0000      -0.295396        -8.0381
  77   2.0000      -0.289753        -7.8846
  78   2.0000      -0.278391        -7.5754
  79   2.0000      -0.263521        -7.1708
  80   2.0000      -0.261741        -7.1223
  81   2.0000      -0.254402        -6.9226
  82   2.0000      -0.241900        -6.5824
  83   2.0000      -0.224862        -6.1188
  84   2.0000      -0.210385        -5.7249
  85   2.0000      -0.197191        -5.3658
  86   2.0000      -0.189417        -5.1543
  87   0.0000      -0.043229        -1.1763
  88   0.0000      -0.041847        -1.1387
  89   0.0000      -0.021662        -0.5895
  90   0.0000       0.006322         0.1720
  91   0.0000       0.028474         0.7748

MULLIKEN ATOMIC CHARGES
-----------------------
   0 C :   -0.305429
   1 C :   -0.010389
   2 O :   -0.239422
   3 C :    0.115842
   4 O :   -0.196053
   5 C :   -0.053923
   6 C :   -0.318929
   7 H :    0.169370
   8 C :    0.217515
   9 O :   -0.193261
  10 O :   -0.219777
  11 C :   -0.010570
  12 C :   -0.310390
  13 S :   -0.118609
  14 P :    0.642930
  15 S :   -0.333082
  16 O :   -0.366634
  17 C :   -0.111465
  18 O :   -0.397211
  19 C :   -0.081066
  20 H :    0.115674
  21 H :    0.113933
  22 H :    0.127685
  23 H :    0.106592
  24 H :    0.105571
  25 H :    0.108053
  26 H :    0.128667
  27 H :    0.111485
  28 H :    0.113510
  29 H :    0.113714
  30 H :    0.113754
  31 H :    0.141954
  32 H :    0.129828
  33 H :    0.120301
  34 H :    0.120104
  35 H :    0.120502
  36 H :    0.115110
  37 H :    0.114116
Sum of atomic charges:    0.0000000

LOEWDIN ATOMIC CHARGES
----------------------
   0 C :   -0.356163
   1 C :   -0.109221
   2 O :   -0.060049
   3 C :    0.025221
   4 O :   -0.162643
   5 C :   -0.239831
   6 C :   -0.271093
   7 H :    0.147908
   8 C :    0.022577
   9 O :   -0.160985
  10 O :   -0.027050
  11 C :   -0.104989
  12 C :   -0.357074
  13 S :    0.081995
  14 P :    0.587324
  15 S :   -0.322996
  16 O :   -0.252338
  17 C :   -0.212845
  18 O :   -0.252624
  19 C :   -0.205913
  20 H :    0.125665
  21 H :    0.131260
  22 H :    0.130814
  23 H :    0.119350
  24 H :    0.118733
  25 H :    0.139465
  26 H :    0.147538
  27 H :    0.121777
  28 H :    0.122409
  29 H :    0.131432
  30 H :    0.125215
  31 H :    0.132156
  32 H :    0.125152
  33 H :    0.114119
  34 H :    0.104766
  35 H :    0.114597
  36 H :    0.115355
  37 H :    0.110986

  Mayer bond orders larger than 0.100000
B(  0-C ,  1-C ) :   1.1750 B(  0-C , 20-H ) :   0.9485 B(  0-C , 21-H ) :   0.9441
B(  0-C , 22-H ) :   0.9457 B(  1-C ,  2-O ) :   0.9152 B(  1-C , 23-H ) :   0.9361
B(  1-C , 24-H ) :   0.9140 B(  2-O ,  3-C ) :   1.2041 B(  3-C ,  4-O ) :   2.0677
B(  3-C ,  5-C ) :   1.0277 B(  5-C ,  6-C ) :   1.0536 B(  5-C , 25-H ) :   0.9007
B(  5-C , 26-H ) :   0.8856 B(  6-C ,  7-H ) :   0.8512 B(  6-C ,  8-C ) :   0.8822
B(  6-C , 13-S ) :   1.0419 B(  8-C ,  9-O ) :   1.9703 B(  8-C , 10-O ) :   1.2694
B( 10-O , 11-C ) :   0.8894 B( 11-C , 12-C ) :   1.1789 B( 11-C , 27-H ) :   0.9114
B( 11-C , 28-H ) :   0.9340 B( 12-C , 29-H ) :   0.9421 B( 12-C , 30-H ) :   0.9491
B( 12-C , 31-H ) :   0.9333 B( 13-S , 14-P ) :   0.9245 B( 13-S , 15-S ) :   0.1098
B( 14-P , 15-S ) :   1.5999 B( 14-P , 16-O ) :   1.1128 B( 14-P , 18-O ) :   1.0935
B( 16-O , 17-C ) :   0.9316 B( 17-C , 32-H ) :   0.9605 B( 17-C , 33-H ) :   0.9469
B( 17-C , 34-H ) :   0.9357 B( 18-O , 19-C ) :   0.9258 B( 19-C , 35-H ) :   0.9518
B( 19-C , 36-H ) :   0.9537 B( 19-C , 37-H ) :   0.9423

Dispersion correction           -0.051488526
FINAL SINGLE POINT ENERGY     -1979.011604540270

DIPOLE MOMENT
-------------

Method             : SCF
Type of density    : Electron Density
Multiplicity       :   1
Irrep              :   0
Energy             : -1979.1437441680595839 Eh
Relativity type    :
Basis              : AO
                                X                 Y                 Z
Electronic contribution:    -15.935004701      -0.977299810      -2.422156501
Nuclear contribution   :     16.368816306       0.660009420       2.686287510
                        -----------------------------------------
Total Dipole Moment    :      0.433811605      -0.317290390       0.264131009
                        -----------------------------------------
Magnitude (a.u.)       :      0.598857988
Magnitude (Debye)      :      1.522176036

Rotational constants in cm-1:             0.016103             0.006032             0.005305
Rotational constants in MHz :           482.769023           180.837696           159.027582

                             ****ORCA TERMINATED NORMALLY****
TOTAL RUN TIME: 0 days 0 hours 0 minutes 30 seconds 713 msec
