                         Program Version 6.0.0  -   RELEASE  -
|  1> ! pbe def2-sv(p) def2/J RI DEFGRID1 loosescf d4 GCP(DFT/SV(P)) printgap
|  2> %output
|  3>     printlevel normal
|  4> end
|  5> * xyz 0 1
|  6> C 6.0946848659 -1.4791305182 -0.3624380325
|  7> C 4.6517839004 -1.4340582005 -0.8220943437
|  8> O 4.0072772639 -0.3334112424 -0.1450538156
|  9> P 2.6303131475 0.2657400448 -0.6620413023
| 10> S 2.5719115224 0.8074882375 -2.5400538171
| 11> O 2.4026211181 1.4743533625 0.3151926102
| 12> C 2.4206952063 1.3460365536 1.7619625794
| 13> C 1.5318208294 2.4291724283 2.3357717346
| 14> S 1.2351982729 -1.2545312444 -0.1276334841
| 15> C -0.1399964212 -0.5988519022 -1.0941910793
| 16> S -0.8459863456 0.9131122505 -0.3523979919
| 17> P -2.7225560438 0.1339867655 0.23143981
| 18> S -3.8925618796 1.3308859784 1.2447583349
| 19> O -2.4262634838 -1.2734492899 0.9207263144
| 20> C -2.3005238776 -1.4118003165 2.3459281869
| 21> C -0.9943731769 -0.8373707357 2.8545639886
| 22> O -3.2339159791 -0.323226328 -1.2017404955
| 23> C -4.6347798901 -0.5320939765 -1.4767181568
| 24> C -5.1917258264 -1.7196389263 -0.719997722
| 25> H 6.5987168174 -2.3053962761 -0.8527699957
| 26> H 6.5969241538 -0.5504478777 -0.6187027462
| 27> H 6.1377015706 -1.6178411673 0.7137497828
| 28> H 4.1184807829 -2.3515537439 -0.5603687465
| 29> H 4.5780230316 -1.2698230257 -1.9020053387
| 30> H 2.0630526857 0.3481071586 2.0312757325
| 31> H 3.4563670602 1.4593929173 2.0861483898
| 32> H 1.9030562628 3.4082151342 2.0476106135
| 33> H 0.5178064316 2.3236039807 1.9570399784
| 34> H 1.5239807275 2.3496555312 3.4179756976
| 35> H -0.904595787 -1.3681579917 -1.1445843099
| 36> H 0.2288066057 -0.3318655857 -2.0852324229
| 37> H -3.1512493297 -0.9091243663 2.8175621244
| 38> H -2.3606728475 -2.487798987 2.5136932494
| 39> H -0.1547984325 -1.3071309112 2.3474338888
| 40> H -0.9694858966 0.2365510686 2.6711662634
| 41> H -0.9154006185 -1.0136060319 3.9223156249
| 42> H -5.1774698435 0.3813559306 -1.2139969999
| 43> H -4.6668596674 -0.6851399925 -2.5563187199
| 44> H -4.5924510722 -2.6057345445 -0.9120197509
| 45> H -5.1858899928 -1.5123153567 0.3492249725
| 46> H -6.2140081537 -1.8989743984 -1.0379553981
| 47> *
| 48>
| 49>                          ****END OF INPUT****

CARTESIAN COORDINATES (ANGSTROEM)
---------------------------------
  C      6.094685   -1.479131   -0.362438
  C      4.651784   -1.434058   -0.822094
  O      4.007277   -0.333411   -0.145054
  P      2.630313    0.265740   -0.662041
  S      2.571912    0.807488   -2.540054
  O      2.402621    1.474353    0.315193
  C      2.420695    1.346037    1.761963
  C      1.531821    2.429172    2.335772
  S      1.235198   -1.254531   -0.127633
  C     -0.139996   -0.598852   -1.094191
  S     -0.845986    0.913112   -0.352398
  P     -2.722556    0.133987    0.231440
  S     -3.892562    1.330886    1.244758
  O     -2.426263   -1.273449    0.920726
  C     -2.300524   -1.411800    2.345928
  C     -0.994373   -0.837371    2.854564
  O     -3.233916   -0.323226   -1.201740
  C     -4.634780   -0.532094   -1.476718
  C     -5.191726   -1.719639   -0.719998
  H      6.598717   -2.305396   -0.852770
  H      6.596924   -0.550448   -0.618703
  H      6.137702   -1.617841    0.713750
  H      4.118481   -2.351554   -0.560369
  H      4.578023   -1.269823   -1.902005
  H      2.063053    0.348107    2.031276
  H      3.456367    1.459393    2.086148
  H      1.903056    3.408215    2.047611
  H      0.517806    2.323604    1.957040
  H      1.523981    2.349656    3.417976
  H     -0.904596   -1.368158   -1.144584
  H      0.228807   -0.331866   -2.085232
  H     -3.151249   -0.909124    2.817562
  H     -2.360673   -2.487799    2.513693
  H     -0.154798   -1.307131    2.347434
  H     -0.969486    0.236551    2.671166
  H     -0.915401   -1.013606    3.922316
  H     -5.177470    0.381356   -1.213997
  H     -4.666860   -0.685140   -2.556319
  H     -4.592451   -2.605735   -0.912020
  H     -5.185890   -1.512315    0.349225
  H     -6.214008   -1.898974   -1.037955

 Total Charge           Charge          ....    0
 Multiplicity           Mult            ....    1
 Number of Electrons    NEL             ....  202
 Basis Dimension        Dim             ....  334

ORBITAL ENERGIES
----------------

  NO   OCC          E(Eh)            E(eV)
   0   2.0000     -88.047441     -2395.8927
   1   2.0000     -88.041412     -2395.7286
   2   2.0000     -87.991003     -2394.3569
   3   2.0000     -87.987227     -2394.2542
   4   2.0000     -76.428495     -2079.7251
   5   2.0000     -76.428030     -2079.7124
   6   2.0000     -18.799060      -511.5484
   7   2.0000     -18.796408      -511.4763
   8   2.0000     -18.796138      -511.4689
   9   2.0000     -18.791931      -511.3545
  10   2.0000      -9.958530      -270.9854
  11   2.0000      -9.957212      -270.9495
  12   2.0000      -9.955685      -270.9080
  13   2.0000      -9.954925      -270.8873
  14   2.0000      -9.953789      -270.8564
  15   2.0000      -9.892927      -269.2002
  16   2.0000      -9.886443      -269.0238
  17   2.0000      -9.885561      -268.9998
  18   2.0000      -9.885423      -268.9960
  19   2.0000      -7.692334      -209.3191
  20   2.0000      -7.686455      -209.1591
  21   2.0000      -7.636153      -207.7903
  22   2.0000      -7.632525      -207.6916
  23   2.0000      -6.426343      -174.8697
  24   2.0000      -6.425842      -174.8560
  25   2.0000      -5.719872      -155.6456
  26   2.0000      -5.716859      -155.5637
  27   2.0000      -5.714675      -155.5042
  28   2.0000      -5.710871      -155.4007
  29   2.0000      -5.709667      -155.3679
  30   2.0000      -5.703159      -155.1908
  31   2.0000      -5.665119      -154.1557
  32   2.0000      -5.661531      -154.0581
  33   2.0000      -5.656733      -153.9275
  34   2.0000      -5.656311      -153.9160
  35   2.0000      -5.653057      -153.8275
  36   2.0000      -5.652654      -153.8165
  37   2.0000      -4.649203      -126.5112
  38   2.0000      -4.648199      -126.4839
  39   2.0000      -4.648146      -126.4825
  40   2.0000      -4.647783      -126.4726
  41   2.0000      -4.646440      -126.4360
  42   2.0000      -4.646312      -126.4326
  43   2.0000      -0.993373       -27.0311
  44   2.0000      -0.989141       -26.9159
  45   2.0000      -0.949918       -25.8486
  46   2.0000      -0.948032       -25.7973
  47   2.0000      -0.765355       -20.8264
  48   2.0000      -0.726216       -19.7613
  49   2.0000      -0.713627       -19.4188
  50   2.0000      -0.695013       -18.9123
  51   2.0000      -0.689466       -18.7613
  52   2.0000      -0.676070       -18.3968
  53   2.0000      -0.654986       -17.8231
  54   2.0000      -0.639838       -17.4109
  55   2.0000      -0.600579       -16.3426
  56   2.0000      -0.587743       -15.9933
  57   2.0000      -0.574405       -15.6304
  58   2.0000      -0.572269       -15.5722
  59   2.0000      -0.567150       -15.4329
  60   2.0000      -0.514587       -14.0026
  61   2.0000      -0.496733       -13.5168
  62   2.0000      -0.487063       -13.2536
  63   2.0000      -0.476288       -12.9604
  64   2.0000      -0.461548       -12.5594
  65   2.0000      -0.449555       -12.2330
  66   2.0000      -0.443639       -12.0720
  67   2.0000      -0.441921       -12.0253
  68   2.0000      -0.434264       -11.8169
  69   2.0000      -0.417281       -11.3548
  70   2.0000      -0.408776       -11.1234
  71   2.0000      -0.398820       -10.8525
  72   2.0000      -0.397585       -10.8188
  73   2.0000      -0.395574       -10.7641
  74   2.0000      -0.380625       -10.3573
  75   2.0000      -0.373567       -10.1653
  76   2.0000      -0.368962       -10.0400
  77   2.0000      -0.361465        -9.8360
  78   2.0000      -0.356379        -9.6976
  79   2.0000      -0.353332        -9.6147
  80   2.0000      -0.351564        -9.5665
  81   2.0000      -0.346846        -9.4382
  82   2.0000      -0.346123        -9.4185
  83   2.0000      -0.339759        -9.2453
  84   2.0000      -0.330733        -8.9997
  85   2.0000      -0.322994        -8.7891
  86   2.0000      -0.317437        -8.6379
  87   2.0000      -0.305987        -8.3263
  88   2.0000      -0.302786        -8.2392
  89   2.0000      -0.297493        -8.0952
  90   2.0000      -0.289373        -7.8742
  91   2.0000      -0.277810        -7.5596
  92   2.0000      -0.274692        -7.4747
  93   2.0000      -0.267794        -7.2870
  94   2.0000      -0.261304        -7.1104
  95   2.0000      -0.238935        -6.5017
  96   2.0000      -0.220775        -6.0076
  97   2.0000      -0.210774        -5.7355
  98   2.0000      -0.208568        -5.6754
  99   2.0000      -0.206951        -5.6314
 100   2.0000      -0.199875        -5.4389
 101   0.0000      -0.041815        -1.1378
 102   0.0000      -0.031691        -0.8624
 103   0.0000      -0.017331        -0.4716
 104   0.0000       0.007196         0.1958
 105   0.0000       0.015169         0.4128

MULLIKEN ATOMIC CHARGES
-----------------------
   0 C :   -0.280931
   1 C :   -0.011839
   2 O :   -0.387276
   3 P :    0.595163
   4 S :   -0.303190
   5 O :   -0.351089
   6 C :   -0.016022
   7 C :   -0.296413
   8 S :   -0.110751
   9 C :   -0.360875
  10 S :   -0.052848
  11 P :    0.596001
  12 S :   -0.318344
  13 O :   -0.381374
  14 C :   -0.003484
  15 C :   -0.343827
  16 O :   -0.378905
  17 C :   -0.002965
  18 C :   -0.309205
  19 H :    0.114322
  20 H :    0.123633
  21 H :    0.114790
  22 H :    0.104224
  23 H :    0.108629
  24 H :    0.107618
  25 H :    0.109152
  26 H :    0.121139
  27 H :    0.145240
  28 H :    0.108474
  29 H :    0.191804
  30 H :    0.200890
  31 H :    0.111139
  32 H :    0.104301
  33 H :    0.135082
  34 H :    0.133637
  35 H :    0.109516
  36 H :    0.114763
  37 H :    0.107885
  38 H :    0.114985
  39 H :    0.123384
  40 H :    0.113566
Sum of atomic charges:   -0.0000000

LOEWDIN ATOMIC CHARGES
----------------------
   0 C :   -0.350274
   1 C :   -0.118376
   2 O :   -0.252072
   3 P :    0.562219
   4 S :   -0.303770
   5 O :   -0.230889
   6 C :   -0.113201
   7 C :   -0.354456
   8 S :    0.073561
   9 C :   -0.479778
  10 S :    0.100560
  11 P :    0.567110
  12 S :   -0.317572
  13 O :   -0.248265
  14 C :   -0.120326
  15 C :   -0.374795
  16 O :   -0.249576
  17 C :   -0.115013
  18 C :   -0.365834
  19 H :    0.132087
  20 H :    0.130564
  21 H :    0.126146
  22 H :    0.109233
  23 H :    0.111367
  24 H :    0.104402
  25 H :    0.116715
  26 H :    0.130426
  27 H :    0.126759
  28 H :    0.129477
  29 H :    0.135079
  30 H :    0.130107
  31 H :    0.109081
  32 H :    0.118242
  33 H :    0.116396
  34 H :    0.122125
  35 H :    0.129980
  36 H :    0.113237
  37 H :    0.120250
  38 H :    0.125387
  39 H :    0.122483
  40 H :    0.131205

  Mayer bond orders larger than 0.100000
B(  0-C ,  1-C ) :   1.1609 B(  0-C , 19-H ) :   0.9415 B(  0-C , 20-H ) :   0.9506
B(  0-C , 21-H ) :   0.9509 B(  1-C ,  2-O ) :   0.9022 B(  1-C , 22-H ) :   0.9294
B(  1-C , 23-H ) :   0.9113 B(  2-O ,  3-P ) :   1.0890 B(  3-P ,  4-S ) :   1.6611
B(  3-P ,  5-O ) :   1.1523 B(  3-P ,  8-S ) :   0.9442 B(  4-S ,  8-S ) :   0.1085
B(  5-O ,  6-C ) :   0.8803 B(  6-C ,  7-C ) :   1.1685 B(  6-C , 24-H ) :   0.9098
B(  6-C , 25-H ) :   0.9313 B(  7-C , 26-H ) :   0.9470 B(  7-C , 27-H ) :   0.9331
B(  7-C , 28-H ) :   0.9402 B(  8-S ,  9-C ) :   1.0053 B(  9-C , 10-S ) :   0.9693
B(  9-C , 29-H ) :   0.8898 B(  9-C , 30-H ) :   0.8646 B( 10-S , 11-P ) :   0.9962
B( 11-P , 12-S ) :   1.6359 B( 11-P , 13-O ) :   1.0636 B( 11-P , 16-O ) :   1.0970
B( 13-O , 14-C ) :   0.9100 B( 14-C , 15-C ) :   1.1657 B( 14-C , 31-H ) :   0.9122
B( 14-C , 32-H ) :   0.9331 B( 15-C , 33-H ) :   0.9281 B( 15-C , 34-H ) :   0.9337
B( 15-C , 35-H ) :   0.9360 B( 16-O , 17-C ) :   0.9077 B( 17-C , 18-C ) :   1.1622
B( 17-C , 36-H ) :   0.9191 B( 17-C , 37-H ) :   0.9355 B( 18-C , 38-H ) :   0.9464
B( 18-C , 39-H ) :   0.9360 B( 18-C , 40-H ) :   0.9380

Dispersion correction           -0.062761959
FINAL SINGLE POINT ENERGY     -2929.521191539382

DIPOLE MOMENT
-------------

Method             : SCF
Type of density    : Electron Density
Multiplicity       :   1
Irrep              :   0
Energy             : -2929.6435851638111671 Eh
Relativity type    :
Basis              : AO
                                X                 Y                 Z
Electronic contribution:     -2.899684004       9.705388861     -12.593942164
Nuclear contribution   :      3.338447173     -11.400066574      13.560682084
                        -----------------------------------------
Total Dipole Moment    :      0.438763169      -1.694677713       0.966739920
                        -----------------------------------------
Magnitude (a.u.)       :      1.999757921
Magnitude (Debye)      :      5.082980684

Rotational constants in cm-1:             0.014078             0.004067             0.003842
Rotational constants in MHz :           422.035958           121.922607           115.192011

                             ****ORCA TERMINATED NORMALLY****
TOTAL RUN TIME: 0 days 0 hours 0 minutes 20 seconds 559 msec
