                         Program Version 6.0.0  -   RELEASE  -
|  1> ! pbe def2-sv(p) def2/J RI DEFGRID1 loosescf d4 GCP(DFT/SV(P)) printgap
|  2> %output
|  3>     printlevel normal
|  4> end
|  5> * xyz 0 1
|  6> C 4.0982774661 -0.8767287969 -2.7070166116
|  7> C 4.3753040665 -0.0749174979 -1.4506280615
|  8> O 3.1971115988 0.6773060381 -1.0617970381
|  9> P 2.2723937626 0.2992665927 0.1572388974
| 10> S 0.8359170534 1.6249818384 0.2792110124
| 11> O 3.3272591362 0.2416241025 1.3445615199
| 12> C 3.1100873142 -0.4007480626 2.6170059554
| 13> C 1.7998419033 -0.0021856863 3.2626828397
| 14> S 1.7245356756 -1.7494368213 -0.0724591469
| 15> C 0.0638261867 -1.5650792817 -0.7492825359
| 16> S -1.1800857347 -1.2249067103 0.5432458026
| 17> P -2.3043794763 0.3140377685 -0.4084261509
| 18> S -1.7794641966 0.8050021185 -2.2257895311
| 19> O -2.3272424043 1.5218719895 0.5974333651
| 20> C -2.6596690288 1.3722217533 2.0023170223
| 21> C -1.9781698744 2.4896700449 2.7627903968
| 22> O -3.8134613974 -0.1968782737 -0.273434798
| 23> C -4.4579736975 -1.0357553703 -1.2463638405
| 24> C -3.7983116822 -2.3938874231 -1.3750262056
| 25> H 5.0231552167 -1.3320420496 -3.0465146505
| 26> H 3.3693012607 -1.6589424865 -2.5106308821
| 27> H 3.7134150549 -0.2243225469 -3.4863263285
| 28> H 5.1401903488 0.6834541602 -1.624689944
| 29> H 4.6784369452 -0.7197703422 -0.6234853443
| 30> H 3.1500600886 -1.4821716742 2.4608637843
| 31> H 3.9642869783 -0.0782208209 3.2147654973
| 32> H 0.9608840451 -0.3516932653 2.6611144157
| 33> H 1.7336050911 -0.4475638649 4.2499725865
| 34> H 1.734474249 1.0800951358 3.3489534723
| 35> H -0.1730758985 -2.520843105 -1.2101527322
| 36> H 0.0335039748 -0.7515173541 -1.4787059257
| 37> H -3.7468927672 1.4215611445 2.0888493362
| 38> H -2.312264532 0.3914698731 2.3416012609
| 39> H -2.3524914241 3.4525583232 2.4279385874
| 40> H -2.1704056344 2.3713913502 3.8239094508
| 41> H -0.9070612712 2.4557558324 2.5789806394
| 42> H -5.4812650015 -1.117705777 -0.8769826872
| 43> H -4.4494565739 -0.5133459051 -2.2079604531
| 44> H -3.6965501573 -2.8613491492 -0.3988454554
| 45> H -4.4048111727 -3.0247960442 -2.0168034019
| 46> H -2.8122018279 -2.2819965874 -1.8239697596
| 47> *
| 48>
| 49>                          ****END OF INPUT****

CARTESIAN COORDINATES (ANGSTROEM)
---------------------------------
  C      4.098277   -0.876729   -2.707017
  C      4.375304   -0.074917   -1.450628
  O      3.197112    0.677306   -1.061797
  P      2.272394    0.299267    0.157239
  S      0.835917    1.624982    0.279211
  O      3.327259    0.241624    1.344562
  C      3.110087   -0.400748    2.617006
  C      1.799842   -0.002186    3.262683
  S      1.724536   -1.749437   -0.072459
  C      0.063826   -1.565079   -0.749283
  S     -1.180086   -1.224907    0.543246
  P     -2.304379    0.314038   -0.408426
  S     -1.779464    0.805002   -2.225790
  O     -2.327242    1.521872    0.597433
  C     -2.659669    1.372222    2.002317
  C     -1.978170    2.489670    2.762790
  O     -3.813461   -0.196878   -0.273435
  C     -4.457974   -1.035755   -1.246364
  C     -3.798312   -2.393887   -1.375026
  H      5.023155   -1.332042   -3.046515
  H      3.369301   -1.658942   -2.510631
  H      3.713415   -0.224323   -3.486326
  H      5.140190    0.683454   -1.624690
  H      4.678437   -0.719770   -0.623485
  H      3.150060   -1.482172    2.460864
  H      3.964287   -0.078221    3.214765
  H      0.960884   -0.351693    2.661114
  H      1.733605   -0.447564    4.249973
  H      1.734474    1.080095    3.348953
  H     -0.173076   -2.520843   -1.210153
  H      0.033504   -0.751517   -1.478706
  H     -3.746893    1.421561    2.088849
  H     -2.312265    0.391470    2.341601
  H     -2.352491    3.452558    2.427939
  H     -2.170406    2.371391    3.823909
  H     -0.907061    2.455756    2.578981
  H     -5.481265   -1.117706   -0.876983
  H     -4.449457   -0.513346   -2.207960
  H     -3.696550   -2.861349   -0.398845
  H     -4.404811   -3.024796   -2.016803
  H     -2.812202   -2.281997   -1.823970

 Total Charge           Charge          ....    0
 Multiplicity           Mult            ....    1
 Number of Electrons    NEL             ....  202
 Basis Dimension        Dim             ....  334

ORBITAL ENERGIES
----------------

  NO   OCC          E(Eh)            E(eV)
   0   2.0000     -88.048343     -2395.9172
   1   2.0000     -88.038674     -2395.6541
   2   2.0000     -87.981658     -2394.1026
   3   2.0000     -87.977900     -2394.0004
   4   2.0000     -76.422670     -2079.5666
   5   2.0000     -76.420943     -2079.5196
   6   2.0000     -18.791623      -511.3461
   7   2.0000     -18.785835      -511.1886
   8   2.0000     -18.784813      -511.1608
   9   2.0000     -18.781875      -511.0808
  10   2.0000      -9.958075      -270.9730
  11   2.0000      -9.956124      -270.9199
  12   2.0000      -9.954738      -270.8822
  13   2.0000      -9.952259      -270.8147
  14   2.0000      -9.948521      -270.7130
  15   2.0000      -9.884886      -268.9814
  16   2.0000      -9.882916      -268.9278
  17   2.0000      -9.882796      -268.9246
  18   2.0000      -9.879976      -268.8478
  19   2.0000      -7.693031      -209.3380
  20   2.0000      -7.683165      -209.0695
  21   2.0000      -7.626810      -207.5361
  22   2.0000      -7.622668      -207.4233
  23   2.0000      -6.419920      -174.6949
  24   2.0000      -6.418125      -174.6461
  25   2.0000      -5.720709      -155.6684
  26   2.0000      -5.717371      -155.5776
  27   2.0000      -5.711065      -155.4060
  28   2.0000      -5.710412      -155.3882
  29   2.0000      -5.707771      -155.3164
  30   2.0000      -5.700071      -155.1068
  31   2.0000      -5.655812      -153.9025
  32   2.0000      -5.651880      -153.7955
  33   2.0000      -5.647445      -153.6748
  34   2.0000      -5.646829      -153.6580
  35   2.0000      -5.643164      -153.5583
  36   2.0000      -5.642685      -153.5453
  37   2.0000      -4.642689      -126.3340
  38   2.0000      -4.642011      -126.3155
  39   2.0000      -4.640833      -126.2835
  40   2.0000      -4.639916      -126.2585
  41   2.0000      -4.639746      -126.2539
  42   2.0000      -4.638671      -126.2247
  43   2.0000      -0.985614       -26.8199
  44   2.0000      -0.980801       -26.6889
  45   2.0000      -0.941659       -25.6238
  46   2.0000      -0.936034       -25.4708
  47   2.0000      -0.761127       -20.7113
  48   2.0000      -0.718069       -19.5397
  49   2.0000      -0.710455       -19.3325
  50   2.0000      -0.689155       -18.7529
  51   2.0000      -0.684315       -18.6212
  52   2.0000      -0.677326       -18.4310
  53   2.0000      -0.648555       -17.6481
  54   2.0000      -0.632968       -17.2239
  55   2.0000      -0.591393       -16.0926
  56   2.0000      -0.584987       -15.9183
  57   2.0000      -0.574198       -15.6247
  58   2.0000      -0.567034       -15.4298
  59   2.0000      -0.564641       -15.3647
  60   2.0000      -0.505369       -13.7518
  61   2.0000      -0.499730       -13.5983
  62   2.0000      -0.468762       -12.7557
  63   2.0000      -0.467097       -12.7104
  64   2.0000      -0.453800       -12.3485
  65   2.0000      -0.448829       -12.2133
  66   2.0000      -0.438653       -11.9364
  67   2.0000      -0.434891       -11.8340
  68   2.0000      -0.431513       -11.7421
  69   2.0000      -0.420407       -11.4399
  70   2.0000      -0.414218       -11.2714
  71   2.0000      -0.398581       -10.8459
  72   2.0000      -0.388014       -10.5584
  73   2.0000      -0.387200       -10.5362
  74   2.0000      -0.383617       -10.4387
  75   2.0000      -0.359405        -9.7799
  76   2.0000      -0.356143        -9.6911
  77   2.0000      -0.353607        -9.6221
  78   2.0000      -0.352168        -9.5830
  79   2.0000      -0.348207        -9.4752
  80   2.0000      -0.345750        -9.4083
  81   2.0000      -0.345138        -9.3917
  82   2.0000      -0.339359        -9.2344
  83   2.0000      -0.337585        -9.1861
  84   2.0000      -0.331565        -9.0223
  85   2.0000      -0.314851        -8.5675
  86   2.0000      -0.309361        -8.4182
  87   2.0000      -0.298073        -8.1110
  88   2.0000      -0.293747        -7.9933
  89   2.0000      -0.292570        -7.9612
  90   2.0000      -0.288882        -7.8609
  91   2.0000      -0.275658        -7.5010
  92   2.0000      -0.266674        -7.2566
  93   2.0000      -0.259131        -7.0513
  94   2.0000      -0.255373        -6.9491
  95   2.0000      -0.237430        -6.4608
  96   2.0000      -0.216526        -5.8920
  97   2.0000      -0.208937        -5.6855
  98   2.0000      -0.200535        -5.4568
  99   2.0000      -0.188017        -5.1162
 100   2.0000      -0.183795        -5.0013
 101   0.0000      -0.041999        -1.1428
 102   0.0000      -0.031552        -0.8586
 103   0.0000      -0.017617        -0.4794
 104   0.0000       0.003333         0.0907
 105   0.0000       0.018691         0.5086

MULLIKEN ATOMIC CHARGES
-----------------------
   0 C :   -0.289150
   1 C :   -0.009851
   2 O :   -0.349781
   3 P :    0.584726
   4 S :   -0.282151
   5 O :   -0.379042
   6 C :   -0.000457
   7 C :   -0.336419
   8 S :   -0.131933
   9 C :   -0.332189
  10 S :   -0.116803
  11 P :    0.613646
  12 S :   -0.292933
  13 O :   -0.353583
  14 C :   -0.014911
  15 C :   -0.293187
  16 O :   -0.387621
  17 C :    0.007094
  18 C :   -0.319655
  19 H :    0.107829
  20 H :    0.116878
  21 H :    0.124388
  22 H :    0.112566
  23 H :    0.098086
  24 H :    0.109185
  25 H :    0.108214
  26 H :    0.140211
  27 H :    0.109113
  28 H :    0.130909
  29 H :    0.182296
  30 H :    0.202377
  31 H :    0.108196
  32 H :    0.107669
  33 H :    0.119594
  34 H :    0.105112
  35 H :    0.142064
  36 H :    0.101801
  37 H :    0.109630
  38 H :    0.118972
  39 H :    0.111011
  40 H :    0.118097
Sum of atomic charges:   -0.0000000

LOEWDIN ATOMIC CHARGES
----------------------
   0 C :   -0.361371
   1 C :   -0.113327
   2 O :   -0.235093
   3 P :    0.559033
   4 S :   -0.280530
   5 O :   -0.247109
   6 C :   -0.114224
   7 C :   -0.375249
   8 S :    0.066190
   9 C :   -0.476695
  10 S :    0.063787
  11 P :    0.574288
  12 S :   -0.291794
  13 O :   -0.230367
  14 C :   -0.110769
  15 C :   -0.354748
  16 O :   -0.257536
  17 C :   -0.115707
  18 C :   -0.371858
  19 H :    0.128758
  20 H :    0.118132
  21 H :    0.131024
  22 H :    0.122853
  23 H :    0.105682
  24 H :    0.107321
  25 H :    0.120838
  26 H :    0.117381
  27 H :    0.129194
  28 H :    0.129359
  29 H :    0.132978
  30 H :    0.124757
  31 H :    0.115475
  32 H :    0.102778
  33 H :    0.129520
  34 H :    0.127627
  35 H :    0.130049
  36 H :    0.117393
  37 H :    0.111477
  38 H :    0.123088
  39 H :    0.129525
  40 H :    0.117870

  Mayer bond orders larger than 0.100000
B(  0-C ,  1-C ) :   1.1643 B(  0-C , 19-H ) :   0.9401 B(  0-C , 20-H ) :   0.9381
B(  0-C , 21-H ) :   0.9460 B(  1-C ,  2-O ) :   0.8939 B(  1-C , 22-H ) :   0.9348
B(  1-C , 23-H ) :   0.9188 B(  2-O ,  3-P ) :   1.1379 B(  3-P ,  4-S ) :   1.6696
B(  3-P ,  5-O ) :   1.0900 B(  3-P ,  8-S ) :   0.9221 B(  4-S ,  8-S ) :   0.1138
B(  5-O ,  6-C ) :   0.9117 B(  6-C ,  7-C ) :   1.1680 B(  6-C , 24-H ) :   0.9269
B(  6-C , 25-H ) :   0.9333 B(  7-C , 26-H ) :   0.9243 B(  7-C , 27-H ) :   0.9335
B(  7-C , 28-H ) :   0.9396 B(  8-S ,  9-C ) :   1.0009 B(  9-C , 10-S ) :   0.9975
B(  9-C , 29-H ) :   0.9040 B(  9-C , 30-H ) :   0.8499 B( 10-S , 11-P ) :   0.9412
B( 10-S , 12-S ) :   0.1142 B( 11-P , 12-S ) :   1.6293 B( 11-P , 13-O ) :   1.1430
B( 11-P , 16-O ) :   1.0708 B( 12-S , 30-H ) :   0.1100 B( 13-O , 14-C ) :   0.8909
B( 14-C , 15-C ) :   1.1642 B( 14-C , 31-H ) :   0.9308 B( 14-C , 32-H ) :   0.9126
B( 15-C , 33-H ) :   0.9488 B( 15-C , 34-H ) :   0.9404 B( 15-C , 35-H ) :   0.9368
B( 16-O , 17-C ) :   0.9212 B( 17-C , 18-C ) :   1.1638 B( 17-C , 36-H ) :   0.9350
B( 17-C , 37-H ) :   0.9197 B( 18-C , 38-H ) :   0.9411 B( 18-C , 39-H ) :   0.9368
B( 18-C , 40-H ) :   0.9363

Dispersion correction           -0.065949760
FINAL SINGLE POINT ENERGY     -2929.512102539535

DIPOLE MOMENT
-------------

Method             : SCF
Type of density    : Electron Density
Multiplicity       :   1
Irrep              :   0
Energy             : -2929.6302530990274136 Eh
Relativity type    :
Basis              : AO
                                X                 Y                 Z
Electronic contribution:     -0.595355741       6.013720273      -6.689782062
Nuclear contribution   :      0.979142393      -7.544665749       7.680084257
                        -----------------------------------------
Total Dipole Moment    :      0.383786652      -1.530945475       0.990302195
                        -----------------------------------------
Magnitude (a.u.)       :      1.863272573
Magnitude (Debye)      :      4.736062498

Rotational constants in cm-1:             0.011527             0.005394             0.004657
Rotational constants in MHz :           345.571386           161.720629           139.617347

                             ****ORCA TERMINATED NORMALLY****
TOTAL RUN TIME: 0 days 0 hours 0 minutes 24 seconds 597 msec
