                         Program Version 6.0.0  -   RELEASE  -
|  1> ! pbe def2-sv(p) def2/J RI DEFGRID1 loosescf d4 GCP(DFT/SV(P)) printgap
|  2> %output
|  3>     printlevel normal
|  4> end
|  5> * xyz 0 1
|  6> C 5.3678658656 0.2246130352 -0.799777205
|  7> C 4.0824218266 -0.3013046677 -1.4086287126
|  8> O 3.1260207272 -0.6293766941 -0.3832228644
|  9> P 2.0146973816 0.4180006758 0.0867191825
| 10> S 2.6238215788 2.2053155225 0.6027845061
| 11> O 1.2794783654 -0.423530779 1.2023159148
| 12> C 1.5769566039 -0.2534864079 2.6017217912
| 13> C 2.9363549154 -0.8234794746 2.9450431545
| 14> S 0.6168451235 0.4094136603 -1.5002276723
| 15> C 0.1618137725 -1.3458960315 -1.540504347
| 16> S -0.8863119958 -1.8924652976 -0.1529560484
| 17> P -2.2297380892 -0.2823959563 -0.1063974381
| 18> S -2.8956386293 0.4477568593 -1.8056829069
| 19> O -1.439344719 0.6992806407 0.865247004
| 20> C -1.9537994212 2.0097831851 1.1910609525
| 21> C -1.3150416844 3.0752095354 0.322267325
| 22> O -3.3924582907 -0.7721939059 0.8646753437
| 23> C -4.5743972604 -1.4319558757 0.3765619163
| 24> C -4.272886125 -2.8237459585 -0.1400715201
| 25> H 5.1801290998 1.1557404043 -0.2694991414
| 26> H 5.774933761 -0.5021820046 -0.1024219023
| 27> H 6.0891488509 0.4080387705 -1.5895113694
| 28> H 4.2531019179 -1.2383515831 -1.942249591
| 29> H 3.6427701099 0.4337391724 -2.0908753788
| 30> H 1.5312965762 0.8139032454 2.8412089175
| 31> H 0.768175722 -0.7834080783 3.1069389067
| 32> H 2.9969594708 -1.8623544896 2.6321710588
| 33> H 3.7103834637 -0.2535071503 2.4324062895
| 34> H 3.0971345457 -0.7556349894 4.0163470249
| 35> H 1.0540841399 -1.9667518329 -1.508867655
| 36> H -0.3815730044 -1.4765723618 -2.4746889101
| 37> H -3.0409637636 2.006786453 1.0715066853
| 38> H -1.70191015 2.1517666738 2.243620986
| 39> H -1.6817552025 4.0511630582 0.6233143598
| 40> H -0.2323580449 3.0544422563 0.4303275551
| 41> H -1.5609908461 2.9088980177 -0.7248027027
| 42> H -5.2376420586 -1.4554445159 1.2421744169
| 43> H -5.0125512493 -0.8144329243 -0.4142602227
| 44> H -3.6595799726 -2.7609937626 -1.0378569769
| 45> H -3.7363043841 -3.3976763287 0.611108264
| 46> H -5.2037890801 -3.3257323448 -0.3832413681
| 47> *
| 48>
| 49>                          ****END OF INPUT****

CARTESIAN COORDINATES (ANGSTROEM)
---------------------------------
  C      5.367866    0.224613   -0.799777
  C      4.082422   -0.301305   -1.408629
  O      3.126021   -0.629377   -0.383223
  P      2.014697    0.418001    0.086719
  S      2.623822    2.205316    0.602785
  O      1.279478   -0.423531    1.202316
  C      1.576957   -0.253486    2.601722
  C      2.936355   -0.823479    2.945043
  S      0.616845    0.409414   -1.500228
  C      0.161814   -1.345896   -1.540504
  S     -0.886312   -1.892465   -0.152956
  P     -2.229738   -0.282396   -0.106397
  S     -2.895639    0.447757   -1.805683
  O     -1.439345    0.699281    0.865247
  C     -1.953799    2.009783    1.191061
  C     -1.315042    3.075210    0.322267
  O     -3.392458   -0.772194    0.864675
  C     -4.574397   -1.431956    0.376562
  C     -4.272886   -2.823746   -0.140072
  H      5.180129    1.155740   -0.269499
  H      5.774934   -0.502182   -0.102422
  H      6.089149    0.408039   -1.589511
  H      4.253102   -1.238352   -1.942250
  H      3.642770    0.433739   -2.090875
  H      1.531297    0.813903    2.841209
  H      0.768176   -0.783408    3.106939
  H      2.996959   -1.862354    2.632171
  H      3.710383   -0.253507    2.432406
  H      3.097135   -0.755635    4.016347
  H      1.054084   -1.966752   -1.508868
  H     -0.381573   -1.476572   -2.474689
  H     -3.040964    2.006786    1.071507
  H     -1.701910    2.151767    2.243621
  H     -1.681755    4.051163    0.623314
  H     -0.232358    3.054442    0.430328
  H     -1.560991    2.908898   -0.724803
  H     -5.237642   -1.455445    1.242174
  H     -5.012551   -0.814433   -0.414260
  H     -3.659580   -2.760994   -1.037857
  H     -3.736304   -3.397676    0.611108
  H     -5.203789   -3.325732   -0.383241

 Total Charge           Charge          ....    0
 Multiplicity           Mult            ....    1
 Number of Electrons    NEL             ....  202
 Basis Dimension        Dim             ....  334

ORBITAL ENERGIES
----------------

  NO   OCC          E(Eh)            E(eV)
   0   2.0000     -88.044220     -2395.8050
   1   2.0000     -88.041020     -2395.7180
   2   2.0000     -87.992074     -2394.3861
   3   2.0000     -87.984504     -2394.1801
   4   2.0000     -76.427456     -2079.6968
   5   2.0000     -76.424562     -2079.6180
   6   2.0000     -18.795581      -511.4538
   7   2.0000     -18.791673      -511.3474
   8   2.0000     -18.789417      -511.2860
   9   2.0000     -18.781922      -511.0821
  10   2.0000      -9.961599      -271.0689
  11   2.0000      -9.956998      -270.9437
  12   2.0000      -9.951231      -270.7868
  13   2.0000      -9.949959      -270.7521
  14   2.0000      -9.944810      -270.6120
  15   2.0000      -9.884144      -268.9612
  16   2.0000      -9.883412      -268.9413
  17   2.0000      -9.883226      -268.9363
  18   2.0000      -9.865836      -268.4631
  19   2.0000      -7.688835      -209.2238
  20   2.0000      -7.686467      -209.1594
  21   2.0000      -7.636924      -207.8113
  22   2.0000      -7.629466      -207.6083
  23   2.0000      -6.425253      -174.8400
  24   2.0000      -6.421747      -174.7446
  25   2.0000      -5.717132      -155.5711
  26   2.0000      -5.714499      -155.4994
  27   2.0000      -5.713048      -155.4599
  28   2.0000      -5.711117      -155.4074
  29   2.0000      -5.705682      -155.2595
  30   2.0000      -5.703003      -155.1866
  31   2.0000      -5.665791      -154.1740
  32   2.0000      -5.658313      -153.9705
  33   2.0000      -5.657530      -153.9492
  34   2.0000      -5.657162      -153.9392
  35   2.0000      -5.650257      -153.7513
  36   2.0000      -5.649579      -153.7329
  37   2.0000      -4.647586      -126.4673
  38   2.0000      -4.647267      -126.4586
  39   2.0000      -4.645714      -126.4163
  40   2.0000      -4.644323      -126.3784
  41   2.0000      -4.643464      -126.3551
  42   2.0000      -4.642344      -126.3246
  43   2.0000      -0.988706       -26.9041
  44   2.0000      -0.982196       -26.7269
  45   2.0000      -0.947175       -25.7739
  46   2.0000      -0.938723       -25.5440
  47   2.0000      -0.765364       -20.8266
  48   2.0000      -0.720561       -19.6075
  49   2.0000      -0.705160       -19.1884
  50   2.0000      -0.687302       -18.7024
  51   2.0000      -0.681808       -18.5529
  52   2.0000      -0.671581       -18.2746
  53   2.0000      -0.654996       -17.8233
  54   2.0000      -0.638876       -17.3847
  55   2.0000      -0.598353       -16.2820
  56   2.0000      -0.592398       -16.1200
  57   2.0000      -0.573030       -15.5929
  58   2.0000      -0.567760       -15.4495
  59   2.0000      -0.558293       -15.1919
  60   2.0000      -0.503466       -13.7000
  61   2.0000      -0.496305       -13.5052
  62   2.0000      -0.476561       -12.9679
  63   2.0000      -0.465094       -12.6558
  64   2.0000      -0.459037       -12.4910
  65   2.0000      -0.442259       -12.0345
  66   2.0000      -0.437793       -11.9130
  67   2.0000      -0.434236       -11.8162
  68   2.0000      -0.426700       -11.6111
  69   2.0000      -0.413334       -11.2474
  70   2.0000      -0.410208       -11.1623
  71   2.0000      -0.401529       -10.9261
  72   2.0000      -0.392261       -10.6740
  73   2.0000      -0.387761       -10.5515
  74   2.0000      -0.374976       -10.2036
  75   2.0000      -0.370396       -10.0790
  76   2.0000      -0.365368        -9.9422
  77   2.0000      -0.360999        -9.8233
  78   2.0000      -0.352180        -9.5833
  79   2.0000      -0.349413        -9.5080
  80   2.0000      -0.345297        -9.3960
  81   2.0000      -0.344393        -9.3714
  82   2.0000      -0.337272        -9.1776
  83   2.0000      -0.332792        -9.0557
  84   2.0000      -0.330712        -8.9991
  85   2.0000      -0.322279        -8.7697
  86   2.0000      -0.305626        -8.3165
  87   2.0000      -0.295620        -8.0442
  88   2.0000      -0.293378        -7.9832
  89   2.0000      -0.292419        -7.9571
  90   2.0000      -0.284153        -7.7322
  91   2.0000      -0.274645        -7.4735
  92   2.0000      -0.267844        -7.2884
  93   2.0000      -0.261928        -7.1274
  94   2.0000      -0.260656        -7.0928
  95   2.0000      -0.229508        -6.2452
  96   2.0000      -0.219909        -5.9840
  97   2.0000      -0.212916        -5.7937
  98   2.0000      -0.206331        -5.6146
  99   2.0000      -0.198683        -5.4064
 100   2.0000      -0.196152        -5.3376
 101   0.0000      -0.045628        -1.2416
 102   0.0000      -0.022418        -0.6100
 103   0.0000      -0.006964        -0.1895
 104   0.0000       0.001721         0.0468
 105   0.0000       0.008712         0.2371

MULLIKEN ATOMIC CHARGES
-----------------------
   0 C :   -0.291932
   1 C :   -0.013288
   2 O :   -0.379318
   3 P :    0.613313
   4 S :   -0.315989
   5 O :   -0.357057
   6 C :   -0.002145
   7 C :   -0.307549
   8 S :   -0.058710
   9 C :   -0.338791
  10 S :   -0.075625
  11 P :    0.609085
  12 S :   -0.336024
  13 O :   -0.363014
  14 C :   -0.002075
  15 C :   -0.304172
  16 O :   -0.374725
  17 C :   -0.004964
  18 C :   -0.314237
  19 H :    0.129996
  20 H :    0.113599
  21 H :    0.108924
  22 H :    0.104067
  23 H :    0.102428
  24 H :    0.111998
  25 H :    0.106424
  26 H :    0.115869
  27 H :    0.123421
  28 H :    0.111603
  29 H :    0.180108
  30 H :    0.191810
  31 H :    0.096773
  32 H :    0.103038
  33 H :    0.100354
  34 H :    0.122219
  35 H :    0.126077
  36 H :    0.103518
  37 H :    0.111884
  38 H :    0.124372
  39 H :    0.116258
  40 H :    0.112476
Sum of atomic charges:   -0.0000000

LOEWDIN ATOMIC CHARGES
----------------------
   0 C :   -0.363424
   1 C :   -0.119113
   2 O :   -0.252726
   3 P :    0.569266
   4 S :   -0.308962
   5 O :   -0.231564
   6 C :   -0.114777
   7 C :   -0.364574
   8 S :    0.113485
   9 C :   -0.472114
  10 S :    0.098076
  11 P :    0.567577
  12 S :   -0.331206
  13 O :   -0.244215
  14 C :   -0.111424
  15 C :   -0.369737
  16 O :   -0.247606
  17 C :   -0.121637
  18 C :   -0.369316
  19 H :    0.124510
  20 H :    0.124811
  21 H :    0.129357
  22 H :    0.116497
  23 H :    0.107360
  24 H :    0.109978
  25 H :    0.119442
  26 H :    0.126106
  27 H :    0.122145
  28 H :    0.130197
  29 H :    0.133381
  30 H :    0.137778
  31 H :    0.106528
  32 H :    0.116887
  33 H :    0.125496
  34 H :    0.117541
  35 H :    0.123742
  36 H :    0.117736
  37 H :    0.109702
  38 H :    0.120380
  39 H :    0.123708
  40 H :    0.130708

  Mayer bond orders larger than 0.100000
B(  0-C ,  1-C ) :   1.1697 B(  0-C , 19-H ) :   0.9315 B(  0-C , 20-H ) :   0.9460
B(  0-C , 21-H ) :   0.9397 B(  1-C ,  2-O ) :   0.9070 B(  1-C , 22-H ) :   0.9351
B(  1-C , 23-H ) :   0.9123 B(  2-O ,  3-P ) :   1.0710 B(  3-P ,  4-S ) :   1.6198
B(  3-P ,  5-O ) :   1.1362 B(  3-P ,  8-S ) :   0.9686 B(  5-O ,  6-C ) :   0.9009
B(  6-C ,  7-C ) :   1.1620 B(  6-C , 24-H ) :   0.9165 B(  6-C , 25-H ) :   0.9324
B(  7-C , 26-H ) :   0.9466 B(  7-C , 27-H ) :   0.9353 B(  7-C , 28-H ) :   0.9390
B(  8-S ,  9-C ) :   0.9989 B(  9-C , 10-S ) :   0.9861 B(  9-C , 29-H ) :   0.9025
B(  9-C , 30-H ) :   0.9007 B( 10-S , 11-P ) :   0.9791 B( 10-S , 12-S ) :   0.1155
B( 11-P , 12-S ) :   1.5909 B( 11-P , 13-O ) :   1.1232 B( 11-P , 16-O ) :   1.1021
B( 13-O , 14-C ) :   0.8944 B( 14-C , 15-C ) :   1.1720 B( 14-C , 31-H ) :   0.9166
B( 14-C , 32-H ) :   0.9338 B( 15-C , 33-H ) :   0.9390 B( 15-C , 34-H ) :   0.9264
B( 15-C , 35-H ) :   0.9350 B( 16-O , 17-C ) :   0.9094 B( 17-C , 18-C ) :   1.1654
B( 17-C , 36-H ) :   0.9335 B( 17-C , 37-H ) :   0.9127 B( 18-C , 38-H ) :   0.9352
B( 18-C , 39-H ) :   0.9453 B( 18-C , 40-H ) :   0.9383

Dispersion correction           -0.067478547
FINAL SINGLE POINT ENERGY     -2929.521762076360

DIPOLE MOMENT
-------------

Method             : SCF
Type of density    : Electron Density
Multiplicity       :   1
Irrep              :   0
Energy             : -2929.6393245884528369 Eh
Relativity type    :
Basis              : AO
                                X                 Y                 Z
Electronic contribution:     -6.168977879       2.399145393      -7.763330975
Nuclear contribution   :      6.439117715      -3.557159224       8.312159188
                        -----------------------------------------
Total Dipole Moment    :      0.270139835      -1.158013831       0.548828212
                        -----------------------------------------
Magnitude (a.u.)       :      1.309650324
Magnitude (Debye)      :      3.328866573

Rotational constants in cm-1:             0.013623             0.005027             0.004885
Rotational constants in MHz :           408.410480           150.696716           146.459295

                             ****ORCA TERMINATED NORMALLY****
TOTAL RUN TIME: 0 days 0 hours 0 minutes 21 seconds 681 msec
