                         Program Version 6.0.0  -   RELEASE  -
|  1> ! pbe def2-sv(p) def2/J RI DEFGRID1 loosescf d4 GCP(DFT/SV(P)) printgap
|  2> %output
|  3>     printlevel normal
|  4> end
|  5> * xyz 0 1
|  6> C 2.3065470405 -2.890307709 1.903189449
|  7> C 1.38406465 -2.1208984902 0.9789774135
|  8> O 1.7463919284 -0.7289376058 0.9975256268
|  9> P 2.3341751759 0.0805975556 -0.2460553309
| 10> S 3.0309391714 -0.9961352245 -1.7153088772
| 11> O 3.4310752897 0.996505812 0.4161651173
| 12> C 3.1582821002 1.8749857996 1.5395910721
| 13> C 4.4037758737 2.700011244 1.7843682944
| 14> S 0.8145320409 1.5009965187 -0.7466982125
| 15> C 0.0430458751 0.5476003221 -2.0745762001
| 16> S -0.7021092652 -0.9980451295 -1.4908998622
| 17> P -2.0673795951 -0.1100754653 -0.1298834265
| 18> S -2.8788856654 1.577001619 -0.7208301247
| 19> O -1.2211672003 -0.052389207 1.2052458022
| 20> C -1.3936971892 0.992762591 2.1823817777
| 21> C -2.6767441102 0.7993749163 2.9621002575
| 22> O -3.0368003561 -1.3194939567 0.2106259485
| 23> C -3.9731459173 -1.8683364286 -0.7386369096
| 24> C -5.3148323305 -1.1664437886 -0.6536008249
| 25> H 3.3307179512 -2.8222370567 1.5430143371
| 26> H 2.2567664226 -2.4846873081 2.9095736367
| 27> H 2.0037976594 -3.9322280687 1.9193001282
| 28> H 0.3440488477 -2.1690613877 1.3103510052
| 29> H 1.4577630303 -2.4991817162 -0.0459417141
| 30> H 2.3026099603 2.5058368578 1.2824091459
| 31> H 2.9072657605 1.2550284915 2.4024445593
| 32> H 5.2445350471 2.0485293687 2.0042975348
| 33> H 4.639868928 3.2887678307 0.9027268886
| 34> H 4.2315309653 3.3641046942 2.6251431927
| 35> H 0.793799952 0.2689013558 -2.8133841192
| 36> H -0.7270358694 1.1873493927 -2.5046278549
| 37> H -0.5104185612 0.9105814503 2.8173679304
| 38> H -1.390795481 1.9590122025 1.6671047093
| 39> H -2.6935312155 -0.1850116793 3.4219188749
| 40> H -2.7525733437 1.5620489552 3.7305509721
| 41> H -3.5283270855 0.8872560058 2.2882247725
| 42> H -3.5515450363 -1.7935656707 -1.7452699972
| 43> H -4.056619325 -2.9200097244 -0.4582106355
| 44> H -5.7082245582 -1.2330854494 0.3568854377
| 45> H -5.2112088617 -0.1172318633 -0.9211801283
| 46> H -6.0091509867 -1.6392250489 -1.3406879144
| 47> *
| 48>
| 49>                          ****END OF INPUT****

CARTESIAN COORDINATES (ANGSTROEM)
---------------------------------
  C      2.306547   -2.890308    1.903189
  C      1.384065   -2.120898    0.978977
  O      1.746392   -0.728938    0.997526
  P      2.334175    0.080598   -0.246055
  S      3.030939   -0.996135   -1.715309
  O      3.431075    0.996506    0.416165
  C      3.158282    1.874986    1.539591
  C      4.403776    2.700011    1.784368
  S      0.814532    1.500997   -0.746698
  C      0.043046    0.547600   -2.074576
  S     -0.702109   -0.998045   -1.490900
  P     -2.067380   -0.110075   -0.129883
  S     -2.878886    1.577002   -0.720830
  O     -1.221167   -0.052389    1.205246
  C     -1.393697    0.992763    2.182382
  C     -2.676744    0.799375    2.962100
  O     -3.036800   -1.319494    0.210626
  C     -3.973146   -1.868336   -0.738637
  C     -5.314832   -1.166444   -0.653601
  H      3.330718   -2.822237    1.543014
  H      2.256766   -2.484687    2.909574
  H      2.003798   -3.932228    1.919300
  H      0.344049   -2.169061    1.310351
  H      1.457763   -2.499182   -0.045942
  H      2.302610    2.505837    1.282409
  H      2.907266    1.255028    2.402445
  H      5.244535    2.048529    2.004298
  H      4.639869    3.288768    0.902727
  H      4.231531    3.364105    2.625143
  H      0.793800    0.268901   -2.813384
  H     -0.727036    1.187349   -2.504628
  H     -0.510419    0.910581    2.817368
  H     -1.390795    1.959012    1.667105
  H     -2.693531   -0.185012    3.421919
  H     -2.752573    1.562049    3.730551
  H     -3.528327    0.887256    2.288225
  H     -3.551545   -1.793566   -1.745270
  H     -4.056619   -2.920010   -0.458211
  H     -5.708225   -1.233085    0.356885
  H     -5.211209   -0.117232   -0.921180
  H     -6.009151   -1.639225   -1.340688

 Total Charge           Charge          ....    0
 Multiplicity           Mult            ....    1
 Number of Electrons    NEL             ....  202
 Basis Dimension        Dim             ....  334

ORBITAL ENERGIES
----------------

  NO   OCC          E(Eh)            E(eV)
   0   2.0000     -88.044678     -2395.8175
   1   2.0000     -88.038738     -2395.6558
   2   2.0000     -87.992585     -2394.4000
   3   2.0000     -87.985935     -2394.2190
   4   2.0000     -76.430673     -2079.7843
   5   2.0000     -76.424554     -2079.6178
   6   2.0000     -18.797977      -511.5190
   7   2.0000     -18.794495      -511.4242
   8   2.0000     -18.792763      -511.3771
   9   2.0000     -18.786581      -511.2088
  10   2.0000      -9.961729      -271.0724
  11   2.0000      -9.959006      -270.9983
  12   2.0000      -9.954058      -270.8637
  13   2.0000      -9.952876      -270.8315
  14   2.0000      -9.942472      -270.5484
  15   2.0000      -9.892487      -269.1883
  16   2.0000      -9.885525      -268.9988
  17   2.0000      -9.884397      -268.9681
  18   2.0000      -9.880955      -268.8745
  19   2.0000      -7.689342      -209.2376
  20   2.0000      -7.683516      -209.0791
  21   2.0000      -7.637460      -207.8259
  22   2.0000      -7.631221      -207.6561
  23   2.0000      -6.427971      -174.9140
  24   2.0000      -6.422150      -174.7556
  25   2.0000      -5.717145      -155.5714
  26   2.0000      -5.713900      -155.4831
  27   2.0000      -5.711335      -155.4133
  28   2.0000      -5.708159      -155.3269
  29   2.0000      -5.706382      -155.2785
  30   2.0000      -5.700455      -155.1173
  31   2.0000      -5.666237      -154.1862
  32   2.0000      -5.660192      -154.0216
  33   2.0000      -5.658041      -153.9631
  34   2.0000      -5.657818      -153.9570
  35   2.0000      -5.651770      -153.7925
  36   2.0000      -5.651340      -153.7808
  37   2.0000      -4.650366      -126.5429
  38   2.0000      -4.649822      -126.5281
  39   2.0000      -4.648537      -126.4931
  40   2.0000      -4.644939      -126.3952
  41   2.0000      -4.643677      -126.3609
  42   2.0000      -4.642655      -126.3331
  43   2.0000      -0.991490       -26.9798
  44   2.0000      -0.985528       -26.8176
  45   2.0000      -0.949621       -25.8405
  46   2.0000      -0.941076       -25.6080
  47   2.0000      -0.764999       -20.8167
  48   2.0000      -0.723886       -19.6979
  49   2.0000      -0.712905       -19.3991
  50   2.0000      -0.689402       -18.7596
  51   2.0000      -0.688184       -18.7264
  52   2.0000      -0.672890       -18.3103
  53   2.0000      -0.652291       -17.7497
  54   2.0000      -0.640896       -17.4397
  55   2.0000      -0.600438       -16.3387
  56   2.0000      -0.584932       -15.9168
  57   2.0000      -0.575163       -15.6510
  58   2.0000      -0.572170       -15.5695
  59   2.0000      -0.564032       -15.3481
  60   2.0000      -0.509651       -13.8683
  61   2.0000      -0.499796       -13.6001
  62   2.0000      -0.481271       -13.0960
  63   2.0000      -0.478925       -13.0322
  64   2.0000      -0.457932       -12.4610
  65   2.0000      -0.445098       -12.1117
  66   2.0000      -0.443475       -12.0676
  67   2.0000      -0.437740       -11.9115
  68   2.0000      -0.427442       -11.6313
  69   2.0000      -0.407877       -11.0989
  70   2.0000      -0.402553       -10.9540
  71   2.0000      -0.400580       -10.9003
  72   2.0000      -0.392529       -10.6813
  73   2.0000      -0.391669       -10.6578
  74   2.0000      -0.381048       -10.3689
  75   2.0000      -0.377118       -10.2619
  76   2.0000      -0.368154       -10.0180
  77   2.0000      -0.358207        -9.7473
  78   2.0000      -0.356116        -9.6904
  79   2.0000      -0.353360        -9.6154
  80   2.0000      -0.350036        -9.5250
  81   2.0000      -0.345187        -9.3930
  82   2.0000      -0.339738        -9.2448
  83   2.0000      -0.338991        -9.2244
  84   2.0000      -0.335089        -9.1182
  85   2.0000      -0.321699        -8.7539
  86   2.0000      -0.315228        -8.5778
  87   2.0000      -0.306682        -8.3452
  88   2.0000      -0.300957        -8.1895
  89   2.0000      -0.289311        -7.8725
  90   2.0000      -0.286660        -7.8004
  91   2.0000      -0.279349        -7.6015
  92   2.0000      -0.271002        -7.3743
  93   2.0000      -0.268338        -7.3019
  94   2.0000      -0.254222        -6.9177
  95   2.0000      -0.235078        -6.3968
  96   2.0000      -0.216369        -5.8877
  97   2.0000      -0.214283        -5.8309
  98   2.0000      -0.209642        -5.7047
  99   2.0000      -0.201406        -5.4805
 100   2.0000      -0.198164        -5.3923
 101   0.0000      -0.047215        -1.2848
 102   0.0000      -0.025457        -0.6927
 103   0.0000      -0.004611        -0.1255
 104   0.0000       0.001998         0.0544
 105   0.0000       0.008643         0.2352

MULLIKEN ATOMIC CHARGES
-----------------------
   0 C :   -0.275846
   1 C :   -0.020102
   2 O :   -0.388432
   3 P :    0.627871
   4 S :   -0.312176
   5 O :   -0.365872
   6 C :   -0.030496
   7 C :   -0.275178
   8 S :   -0.120190
   9 C :   -0.342120
  10 S :   -0.089960
  11 P :    0.616780
  12 S :   -0.330350
  13 O :   -0.357393
  14 C :   -0.006893
  15 C :   -0.300778
  16 O :   -0.370423
  17 C :   -0.013338
  18 C :   -0.296470
  19 H :    0.115039
  20 H :    0.106708
  21 H :    0.107635
  22 H :    0.104769
  23 H :    0.114227
  24 H :    0.115743
  25 H :    0.110221
  26 H :    0.123535
  27 H :    0.124645
  28 H :    0.111330
  29 H :    0.192705
  30 H :    0.191105
  31 H :    0.101277
  32 H :    0.115006
  33 H :    0.114184
  34 H :    0.111106
  35 H :    0.123113
  36 H :    0.105302
  37 H :    0.109109
  38 H :    0.114119
  39 H :    0.131156
  40 H :    0.109333
Sum of atomic charges:   -0.0000000

LOEWDIN ATOMIC CHARGES
----------------------
   0 C :   -0.355081
   1 C :   -0.127643
   2 O :   -0.248595
   3 P :    0.570669
   4 S :   -0.305823
   5 O :   -0.242722
   6 C :   -0.114350
   7 C :   -0.348862
   8 S :    0.067459
   9 C :   -0.478869
  10 S :    0.092020
  11 P :    0.570138
  12 S :   -0.316457
  13 O :   -0.228893
  14 C :   -0.119637
  15 C :   -0.363756
  16 O :   -0.243882
  17 C :   -0.116079
  18 C :   -0.364317
  19 H :    0.125849
  20 H :    0.121157
  21 H :    0.128857
  22 H :    0.108802
  23 H :    0.102985
  24 H :    0.107166
  25 H :    0.113621
  26 H :    0.130995
  27 H :    0.131662
  28 H :    0.130751
  29 H :    0.131534
  30 H :    0.131039
  31 H :    0.115847
  32 H :    0.108895
  33 H :    0.125336
  34 H :    0.130027
  35 H :    0.122740
  36 H :    0.107555
  37 H :    0.119798
  38 H :    0.125755
  39 H :    0.124607
  40 H :    0.129703

  Mayer bond orders larger than 0.100000
B(  0-C ,  1-C ) :   1.1586 B(  0-C , 19-H ) :   0.9476 B(  0-C , 20-H ) :   0.9504
B(  0-C , 21-H ) :   0.9419 B(  1-C ,  2-O ) :   0.8985 B(  1-C , 22-H ) :   0.9241
B(  1-C , 23-H ) :   0.9020 B(  2-O ,  3-P ) :   1.0835 B(  3-P ,  4-S ) :   1.6427
B(  3-P ,  5-O ) :   1.1391 B(  3-P ,  8-S ) :   0.9308 B(  4-S ,  8-S ) :   0.1034
B(  5-O ,  6-C ) :   0.8985 B(  6-C ,  7-C ) :   1.1633 B(  6-C , 24-H ) :   0.9174
B(  6-C , 25-H ) :   0.9255 B(  7-C , 26-H ) :   0.9501 B(  7-C , 27-H ) :   0.9496
B(  7-C , 28-H ) :   0.9403 B(  8-S ,  9-C ) :   1.0194 B(  9-C , 10-S ) :   0.9968
B(  9-C , 29-H ) :   0.8819 B(  9-C , 30-H ) :   0.8852 B( 10-S , 11-P ) :   0.9539
B( 10-S , 12-S ) :   0.1088 B( 11-P , 12-S ) :   1.5940 B( 11-P , 13-O ) :   1.1164
B( 11-P , 16-O ) :   1.1177 B( 13-O , 14-C ) :   0.8989 B( 14-C , 15-C ) :   1.1644
B( 14-C , 31-H ) :   0.9321 B( 14-C , 32-H ) :   0.9120 B( 15-C , 33-H ) :   0.9467
B( 15-C , 34-H ) :   0.9400 B( 15-C , 35-H ) :   0.9352 B( 16-O , 17-C ) :   0.9043
B( 17-C , 18-C ) :   1.1674 B( 17-C , 36-H ) :   0.9159 B( 17-C , 37-H ) :   0.9359
B( 18-C , 38-H ) :   0.9471 B( 18-C , 39-H ) :   0.9315 B( 18-C , 40-H ) :   0.9391

Dispersion correction           -0.065741015
FINAL SINGLE POINT ENERGY     -2929.524324306481

DIPOLE MOMENT
-------------

Method             : SCF
Type of density    : Electron Density
Multiplicity       :   1
Irrep              :   0
Energy             : -2929.6433680404311417 Eh
Relativity type    :
Basis              : AO
                                X                 Y                 Z
Electronic contribution:      5.816781920       2.258324820     -19.115502172
Nuclear contribution   :     -6.449428465      -2.421335124      20.544955755
                        -----------------------------------------
Total Dipole Moment    :     -0.632646545      -0.163010304       1.429453583
                        -----------------------------------------
Magnitude (a.u.)       :      1.571671580
Magnitude (Debye)      :      3.994871678

Rotational constants in cm-1:             0.012077             0.005136             0.004865
Rotational constants in MHz :           362.062944           153.972657           145.852755

                             ****ORCA TERMINATED NORMALLY****
TOTAL RUN TIME: 0 days 0 hours 0 minutes 21 seconds 466 msec
