                         Program Version 6.0.0  -   RELEASE  -
|  1> ! r2scan-3c def2/J RI DEFGRID2 scfconv6 printgap
|  2> %output
|  3>     printlevel normal
|  4> end
|  5> * xyz 0 1
|  6> C 0.7214388586 0.5579652741 3.5837823384
|  7> C 2.0134474688 0.5431844701 2.792956608
|  8> O 1.6977009367 0.6548426575 1.3831882342
|  9> P 2.4483659243 -0.1883418278 0.2735802761
| 10> S 2.9745810415 -2.0086189729 0.7919235748
| 11> O 3.6593430633 0.7754228919 -0.0903715818
| 12> C 4.811041558 0.3229375381 -0.8236985489
| 13> C 4.4700754344 -0.02826906 -2.2574009377
| 14> S 1.0836163928 0.0031211691 -1.3236559163
| 15> C 0.0044496711 -1.3624752704 -0.8049212948
| 16> S -1.1208038628 -0.9019539496 0.529035085
| 17> P -2.38908542 0.3311711406 -0.6675254986
| 18> S -2.6468645549 -0.2550949077 -2.5165746771
| 19> O -1.777061985 1.7825002344 -0.620117671
| 20> C -1.1938191166 2.4618651491 0.5168882069
| 21> C -2.1275666175 2.5242199577 1.7063174045
| 22> O -3.7245393943 0.4725594039 0.1815555455
| 23> C -4.818426469 -0.4530524133 0.0583916423
| 24> C -4.466624771 -1.8330033491 0.5756515032
| 25> H 0.9530916468 0.4548771741 4.6388880969
| 26> H 0.1920609281 1.4917070541 3.4212744546
| 27> H 0.0858529636 -0.2680253825 3.2737920184
| 28> H 2.5644739013 -0.3892494203 2.9550820225
| 29> H 2.6528995377 1.3910164442 3.0460108817
| 30> H 5.5045542038 1.1628612742 -0.7672364613
| 31> H 5.2311503369 -0.544620548 -0.304861628
| 32> H 3.9569765348 0.8007577225 -2.7387728303
| 33> H 5.3823947505 -0.2525390235 -2.8007135804
| 34> H 3.8205875947 -0.9027303708 -2.2827503803
| 35> H 0.6168265804 -2.189517204 -0.4439319256
| 36> H -0.5778137624 -1.6483520725 -1.6817545172
| 37> H -0.2583301696 1.9575524742 0.77534344
| 38> H -0.97419357 3.4553312722 0.1222460419
| 39> H -2.2904533887 1.5278117688 2.1118154479
| 40> H -1.685613968 3.1549264357 2.4720057842
| 41> H -3.0852652797 2.9431004184 1.4084080529
| 42> H -5.6140194568 0.00664068 0.6463306222
| 43> H -5.1135540771 -0.5014981383 -0.9944292917
| 44> H -5.3590134013 -2.4505822252 0.5822851239
| 45> H -3.7243498441 -2.2962752294 -0.0724148011
| 46> H -4.0635735286 -1.7699867926 1.5831129558
| 47> *
| 48>
| 49>                          ****END OF INPUT****

CARTESIAN COORDINATES (ANGSTROEM)
---------------------------------
  C      0.721439    0.557965    3.583782
  C      2.013447    0.543184    2.792957
  O      1.697701    0.654843    1.383188
  P      2.448366   -0.188342    0.273580
  S      2.974581   -2.008619    0.791924
  O      3.659343    0.775423   -0.090372
  C      4.811042    0.322938   -0.823699
  C      4.470075   -0.028269   -2.257401
  S      1.083616    0.003121   -1.323656
  C      0.004450   -1.362475   -0.804921
  S     -1.120804   -0.901954    0.529035
  P     -2.389085    0.331171   -0.667525
  S     -2.646865   -0.255095   -2.516575
  O     -1.777062    1.782500   -0.620118
  C     -1.193819    2.461865    0.516888
  C     -2.127567    2.524220    1.706317
  O     -3.724539    0.472559    0.181556
  C     -4.818426   -0.453052    0.058392
  C     -4.466625   -1.833003    0.575652
  H      0.953092    0.454877    4.638888
  H      0.192061    1.491707    3.421274
  H      0.085853   -0.268025    3.273792
  H      2.564474   -0.389249    2.955082
  H      2.652900    1.391016    3.046011
  H      5.504554    1.162861   -0.767236
  H      5.231150   -0.544621   -0.304862
  H      3.956977    0.800758   -2.738773
  H      5.382395   -0.252539   -2.800714
  H      3.820588   -0.902730   -2.282750
  H      0.616827   -2.189517   -0.443932
  H     -0.577814   -1.648352   -1.681755
  H     -0.258330    1.957552    0.775343
  H     -0.974194    3.455331    0.122246
  H     -2.290453    1.527812    2.111815
  H     -1.685614    3.154926    2.472006
  H     -3.085265    2.943100    1.408408
  H     -5.614019    0.006641    0.646331
  H     -5.113554   -0.501498   -0.994429
  H     -5.359013   -2.450582    0.582285
  H     -3.724350   -2.296275   -0.072415
  H     -4.063574   -1.769987    1.583113

 Total Charge           Charge          ....    0
 Multiplicity           Mult            ....    1
 Number of Electrons    NEL             ....  202
 Basis Dimension        Dim             ....  539

ORBITAL ENERGIES
----------------

  NO   OCC          E(Eh)            E(eV)
   0   2.0000     -88.577842     -2410.3256
   1   2.0000     -88.575130     -2410.2518
   2   2.0000     -88.524497     -2408.8740
   3   2.0000     -88.517759     -2408.6907
   4   2.0000     -76.917113     -2093.0211
   5   2.0000     -76.913965     -2092.9354
   6   2.0000     -18.996640      -516.9249
   7   2.0000     -18.994668      -516.8712
   8   2.0000     -18.993903      -516.8504
   9   2.0000     -18.988159      -516.6941
  10   2.0000     -10.103504      -274.9303
  11   2.0000     -10.101805      -274.8841
  12   2.0000     -10.100769      -274.8559
  13   2.0000     -10.099432      -274.8195
  14   2.0000     -10.097395      -274.7641
  15   2.0000     -10.035205      -273.0718
  16   2.0000     -10.032845      -273.0076
  17   2.0000     -10.030010      -272.9304
  18   2.0000     -10.028998      -272.9029
  19   2.0000      -7.871973      -214.2073
  20   2.0000      -7.869601      -214.1427
  21   2.0000      -7.819311      -212.7743
  22   2.0000      -7.812616      -212.5921
  23   2.0000      -6.595809      -179.4811
  24   2.0000      -6.592277      -179.3850
  25   2.0000      -5.818867      -158.3394
  26   2.0000      -5.816375      -158.2716
  27   2.0000      -5.815869      -158.2579
  28   2.0000      -5.813459      -158.1923
  29   2.0000      -5.809064      -158.0727
  30   2.0000      -5.806793      -158.0109
  31   2.0000      -5.766815      -156.9230
  32   2.0000      -5.760288      -156.7454
  33   2.0000      -5.759619      -156.7272
  34   2.0000      -5.759415      -156.7217
  35   2.0000      -5.752864      -156.5434
  36   2.0000      -5.752601      -156.5362
  37   2.0000      -4.741322      -129.0179
  38   2.0000      -4.740665      -129.0001
  39   2.0000      -4.739547      -128.9696
  40   2.0000      -4.737993      -128.9273
  41   2.0000      -4.737291      -128.9082
  42   2.0000      -4.735763      -128.8667
  43   2.0000      -1.053602       -28.6700
  44   2.0000      -1.049380       -28.5551
  45   2.0000      -1.014661       -27.6103
  46   2.0000      -1.010078       -27.4856
  47   2.0000      -0.803319       -21.8594
  48   2.0000      -0.761215       -20.7137
  49   2.0000      -0.751961       -20.4619
  50   2.0000      -0.734899       -19.9976
  51   2.0000      -0.734224       -19.9792
  52   2.0000      -0.714760       -19.4496
  53   2.0000      -0.687073       -18.6962
  54   2.0000      -0.669513       -18.2184
  55   2.0000      -0.634830       -17.2746
  56   2.0000      -0.626554       -17.0494
  57   2.0000      -0.609648       -16.5894
  58   2.0000      -0.608679       -16.5630
  59   2.0000      -0.589316       -16.0361
  60   2.0000      -0.532417       -14.4878
  61   2.0000      -0.516762       -14.0618
  62   2.0000      -0.496400       -13.5077
  63   2.0000      -0.490587       -13.3495
  64   2.0000      -0.477410       -12.9910
  65   2.0000      -0.464142       -12.6299
  66   2.0000      -0.462732       -12.5916
  67   2.0000      -0.456350       -12.4179
  68   2.0000      -0.450158       -12.2494
  69   2.0000      -0.440919       -11.9980
  70   2.0000      -0.428064       -11.6482
  71   2.0000      -0.415292       -11.3007
  72   2.0000      -0.413651       -11.2560
  73   2.0000      -0.406412       -11.0590
  74   2.0000      -0.395721       -10.7681
  75   2.0000      -0.392569       -10.6824
  76   2.0000      -0.383552       -10.4370
  77   2.0000      -0.377410       -10.2698
  78   2.0000      -0.373624       -10.1668
  79   2.0000      -0.369272       -10.0484
  80   2.0000      -0.366911        -9.9842
  81   2.0000      -0.361127        -9.8268
  82   2.0000      -0.359120        -9.7722
  83   2.0000      -0.355173        -9.6648
  84   2.0000      -0.351837        -9.5740
  85   2.0000      -0.334460        -9.1011
  86   2.0000      -0.325214        -8.8495
  87   2.0000      -0.313000        -8.5172
  88   2.0000      -0.309218        -8.4142
  89   2.0000      -0.306580        -8.3425
  90   2.0000      -0.305734        -8.3194
  91   2.0000      -0.296115        -8.0577
  92   2.0000      -0.283903        -7.7254
  93   2.0000      -0.279467        -7.6047
  94   2.0000      -0.276159        -7.5147
  95   2.0000      -0.249021        -6.7762
  96   2.0000      -0.232553        -6.3281
  97   2.0000      -0.226987        -6.1766
  98   2.0000      -0.219129        -5.9628
  99   2.0000      -0.216097        -5.8803
 100   2.0000      -0.213868        -5.8197
 101   0.0000      -0.046722        -1.2714
 102   0.0000      -0.028385        -0.7724
 103   0.0000      -0.005754        -0.1566
 104   0.0000       0.000128         0.0035
 105   0.0000       0.014461         0.3935

MULLIKEN ATOMIC CHARGES
-----------------------
   0 C :   -0.464831
   1 C :   -0.128255
   2 O :   -0.267586
   3 P :    0.685694
   4 S :   -0.492501
   5 O :   -0.314439
   6 C :   -0.146624
   7 C :   -0.456604
   8 S :   -0.095018
   9 C :   -0.251719
  10 S :   -0.158232
  11 P :    0.654544
  12 S :   -0.459245
  13 O :   -0.258372
  14 C :   -0.166104
  15 C :   -0.448128
  16 O :   -0.268995
  17 C :   -0.168878
  18 C :   -0.443182
  19 H :    0.147054
  20 H :    0.149879
  21 H :    0.171599
  22 H :    0.170794
  23 H :    0.150187
  24 H :    0.148063
  25 H :    0.171772
  26 H :    0.158111
  27 H :    0.148771
  28 H :    0.178409
  29 H :    0.213389
  30 H :    0.223442
  31 H :    0.189457
  32 H :    0.152690
  33 H :    0.162888
  34 H :    0.148223
  35 H :    0.160856
  36 H :    0.148378
  37 H :    0.176237
  38 H :    0.147844
  39 H :    0.178646
  40 H :    0.151784
Sum of atomic charges:    0.0000000

LOEWDIN ATOMIC CHARGES
----------------------
   0 C :   -0.392389
   1 C :    0.023408
   2 O :   -0.689861
   3 P :    0.374191
   4 S :   -0.142668
   5 O :   -0.656923
   6 C :    0.020603
   7 C :   -0.405907
   8 S :    0.186512
   9 C :   -0.423608
  10 S :    0.142206
  11 P :    0.385223
  12 S :   -0.109331
  13 O :   -0.652835
  14 C :    0.020408
  15 C :   -0.405306
  16 O :   -0.670982
  17 C :    0.021533
  18 C :   -0.408107
  19 H :    0.159693
  20 H :    0.158066
  21 H :    0.166098
  22 H :    0.183237
  23 H :    0.172559
  24 H :    0.179749
  25 H :    0.179770
  26 H :    0.160945
  27 H :    0.160144
  28 H :    0.166324
  29 H :    0.193786
  30 H :    0.194696
  31 H :    0.194280
  32 H :    0.183004
  33 H :    0.162789
  34 H :    0.158414
  35 H :    0.165169
  36 H :    0.179220
  37 H :    0.181323
  38 H :    0.159435
  39 H :    0.166218
  40 H :    0.158913

  Mayer bond orders larger than 0.100000
B(  0-C ,  1-C ) :   0.9568 B(  0-C , 19-H ) :   0.9635 B(  0-C , 20-H ) :   0.9672
B(  0-C , 21-H ) :   0.9678 B(  1-C ,  2-O ) :   0.7678 B(  1-C , 22-H ) :   0.9541
B(  1-C , 23-H ) :   0.9496 B(  2-O ,  3-P ) :   1.1442 B(  3-P ,  4-S ) :   1.7404
B(  3-P ,  5-O ) :   1.0723 B(  3-P ,  8-S ) :   1.1063 B(  5-O ,  6-C ) :   0.8143
B(  6-C ,  7-C ) :   0.9223 B(  6-C , 24-H ) :   0.9581 B(  6-C , 25-H ) :   0.9663
B(  7-C , 26-H ) :   0.9687 B(  7-C , 27-H ) :   0.9582 B(  7-C , 28-H ) :   0.9607
B(  8-S ,  9-C ) :   0.9096 B(  9-C , 10-S ) :   0.9137 B(  9-C , 29-H ) :   0.8993
B(  9-C , 30-H ) :   0.9025 B( 10-S , 11-P ) :   0.9949 B( 11-P , 12-S ) :   1.8106
B( 11-P , 13-O ) :   1.1805 B( 11-P , 16-O ) :   1.0396 B( 13-O , 14-C ) :   0.8121
B( 14-C , 15-C ) :   0.8953 B( 14-C , 31-H ) :   0.9557 B( 14-C , 32-H ) :   0.9618
B( 15-C , 33-H ) :   0.9665 B( 15-C , 34-H ) :   0.9607 B( 15-C , 35-H ) :   0.9635
B( 16-O , 17-C ) :   0.8097 B( 17-C , 18-C ) :   0.9127 B( 17-C , 36-H ) :   0.9618
B( 17-C , 37-H ) :   0.9677 B( 18-C , 38-H ) :   0.9573 B( 18-C , 39-H ) :   0.9635
B( 18-C , 40-H ) :   0.9689

Dispersion correction           -0.021833738
FINAL SINGLE POINT ENERGY     -2932.462328207084

DIPOLE MOMENT
-------------

Method             : SCF
Type of density    : Electron Density
Multiplicity       :   1
Irrep              :   0
Energy             : -2932.4872229086454354 Eh
Relativity type    :
Basis              : AO
                                X                 Y                 Z
Electronic contribution:      1.946833996      -4.107293838     -13.061272702
Nuclear contribution   :     -1.738447179       4.834338056      14.462984440
                        -----------------------------------------
Total Dipole Moment    :      0.208386817       0.727044218       1.401711738
                        -----------------------------------------
Magnitude (a.u.)       :      1.592737944
Magnitude (Debye)      :      4.048418120

Rotational constants in cm-1:             0.012747             0.004924             0.004489
Rotational constants in MHz :           382.137929           147.626351           134.563673

                             ****ORCA TERMINATED NORMALLY****
TOTAL RUN TIME: 0 days 0 hours 1 minutes 20 seconds 427 msec
