                         Program Version 6.0.0  -   RELEASE  -
|  1> ! r2scan-3c def2/J RI DEFGRID2 scfconv6 printgap
|  2> %output
|  3>     printlevel normal
|  4> end
|  5> %cpcm
|  6>     smd true
|  7>     smdsolvent "water"
|  8> end
|  9> * xyz 0 1
| 10> C 0.7214388586 0.5579652741 3.5837823384
| 11> C 2.0134474688 0.5431844701 2.792956608
| 12> O 1.6977009367 0.6548426575 1.3831882342
| 13> P 2.4483659243 -0.1883418278 0.2735802761
| 14> S 2.9745810415 -2.0086189729 0.7919235748
| 15> O 3.6593430633 0.7754228919 -0.0903715818
| 16> C 4.811041558 0.3229375381 -0.8236985489
| 17> C 4.4700754344 -0.02826906 -2.2574009377
| 18> S 1.0836163928 0.0031211691 -1.3236559163
| 19> C 0.0044496711 -1.3624752704 -0.8049212948
| 20> S -1.1208038628 -0.9019539496 0.529035085
| 21> P -2.38908542 0.3311711406 -0.6675254986
| 22> S -2.6468645549 -0.2550949077 -2.5165746771
| 23> O -1.777061985 1.7825002344 -0.620117671
| 24> C -1.1938191166 2.4618651491 0.5168882069
| 25> C -2.1275666175 2.5242199577 1.7063174045
| 26> O -3.7245393943 0.4725594039 0.1815555455
| 27> C -4.818426469 -0.4530524133 0.0583916423
| 28> C -4.466624771 -1.8330033491 0.5756515032
| 29> H 0.9530916468 0.4548771741 4.6388880969
| 30> H 0.1920609281 1.4917070541 3.4212744546
| 31> H 0.0858529636 -0.2680253825 3.2737920184
| 32> H 2.5644739013 -0.3892494203 2.9550820225
| 33> H 2.6528995377 1.3910164442 3.0460108817
| 34> H 5.5045542038 1.1628612742 -0.7672364613
| 35> H 5.2311503369 -0.544620548 -0.304861628
| 36> H 3.9569765348 0.8007577225 -2.7387728303
| 37> H 5.3823947505 -0.2525390235 -2.8007135804
| 38> H 3.8205875947 -0.9027303708 -2.2827503803
| 39> H 0.6168265804 -2.189517204 -0.4439319256
| 40> H -0.5778137624 -1.6483520725 -1.6817545172
| 41> H -0.2583301696 1.9575524742 0.77534344
| 42> H -0.97419357 3.4553312722 0.1222460419
| 43> H -2.2904533887 1.5278117688 2.1118154479
| 44> H -1.685613968 3.1549264357 2.4720057842
| 45> H -3.0852652797 2.9431004184 1.4084080529
| 46> H -5.6140194568 0.00664068 0.6463306222
| 47> H -5.1135540771 -0.5014981383 -0.9944292917
| 48> H -5.3590134013 -2.4505822252 0.5822851239
| 49> H -3.7243498441 -2.2962752294 -0.0724148011
| 50> H -4.0635735286 -1.7699867926 1.5831129558
| 51> *
| 52>
| 53>                          ****END OF INPUT****

CARTESIAN COORDINATES (ANGSTROEM)
---------------------------------
  C      0.721439    0.557965    3.583782
  C      2.013447    0.543184    2.792957
  O      1.697701    0.654843    1.383188
  P      2.448366   -0.188342    0.273580
  S      2.974581   -2.008619    0.791924
  O      3.659343    0.775423   -0.090372
  C      4.811042    0.322938   -0.823699
  C      4.470075   -0.028269   -2.257401
  S      1.083616    0.003121   -1.323656
  C      0.004450   -1.362475   -0.804921
  S     -1.120804   -0.901954    0.529035
  P     -2.389085    0.331171   -0.667525
  S     -2.646865   -0.255095   -2.516575
  O     -1.777062    1.782500   -0.620118
  C     -1.193819    2.461865    0.516888
  C     -2.127567    2.524220    1.706317
  O     -3.724539    0.472559    0.181556
  C     -4.818426   -0.453052    0.058392
  C     -4.466625   -1.833003    0.575652
  H      0.953092    0.454877    4.638888
  H      0.192061    1.491707    3.421274
  H      0.085853   -0.268025    3.273792
  H      2.564474   -0.389249    2.955082
  H      2.652900    1.391016    3.046011
  H      5.504554    1.162861   -0.767236
  H      5.231150   -0.544621   -0.304862
  H      3.956977    0.800758   -2.738773
  H      5.382395   -0.252539   -2.800714
  H      3.820588   -0.902730   -2.282750
  H      0.616827   -2.189517   -0.443932
  H     -0.577814   -1.648352   -1.681755
  H     -0.258330    1.957552    0.775343
  H     -0.974194    3.455331    0.122246
  H     -2.290453    1.527812    2.111815
  H     -1.685614    3.154926    2.472006
  H     -3.085265    2.943100    1.408408
  H     -5.614019    0.006641    0.646331
  H     -5.113554   -0.501498   -0.994429
  H     -5.359013   -2.450582    0.582285
  H     -3.724350   -2.296275   -0.072415
  H     -4.063574   -1.769987    1.583113

 Total Charge           Charge          ....    0
 Multiplicity           Mult            ....    1
 Number of Electrons    NEL             ....  202
 Basis Dimension        Dim             ....  539

ORBITAL ENERGIES
----------------

  NO   OCC          E(Eh)            E(eV)
   0   2.0000     -88.581394     -2410.4223
   1   2.0000     -88.577903     -2410.3273
   2   2.0000     -88.529378     -2409.0068
   3   2.0000     -88.528760     -2408.9900
   4   2.0000     -76.920773     -2093.1207
   5   2.0000     -76.919826     -2093.0949
   6   2.0000     -18.997070      -516.9366
   7   2.0000     -18.995997      -516.9074
   8   2.0000     -18.993977      -516.8524
   9   2.0000     -18.992623      -516.8155
  10   2.0000     -10.104132      -274.9474
  11   2.0000     -10.090191      -274.5681
  12   2.0000     -10.090095      -274.5654
  13   2.0000     -10.090054      -274.5643
  14   2.0000     -10.088745      -274.5287
  15   2.0000     -10.019702      -272.6500
  16   2.0000     -10.019148      -272.6349
  17   2.0000     -10.018270      -272.6110
  18   2.0000     -10.018013      -272.6040
  19   2.0000      -7.875645      -214.3072
  20   2.0000      -7.872290      -214.2159
  21   2.0000      -7.824470      -212.9147
  22   2.0000      -7.823985      -212.9014
  23   2.0000      -6.599155      -179.5721
  24   2.0000      -6.598522      -179.5549
  25   2.0000      -5.822503      -158.4384
  26   2.0000      -5.819526      -158.3574
  27   2.0000      -5.819113      -158.3461
  28   2.0000      -5.816171      -158.2661
  29   2.0000      -5.812784      -158.1739
  30   2.0000      -5.809420      -158.0824
  31   2.0000      -5.771922      -157.0620
  32   2.0000      -5.771532      -157.0514
  33   2.0000      -5.764782      -156.8677
  34   2.0000      -5.764571      -156.8619
  35   2.0000      -5.764247      -156.8531
  36   2.0000      -5.764009      -156.8467
  37   2.0000      -4.744838      -129.1136
  38   2.0000      -4.744103      -129.0936
  39   2.0000      -4.743956      -129.0896
  40   2.0000      -4.743378      -129.0739
  41   2.0000      -4.742770      -129.0573
  42   2.0000      -4.742374      -129.0465
  43   2.0000      -1.052932       -28.6517
  44   2.0000      -1.052513       -28.6403
  45   2.0000      -1.013367       -27.5751
  46   2.0000      -1.012643       -27.5554
  47   2.0000      -0.805390       -21.9158
  48   2.0000      -0.756945       -20.5975
  49   2.0000      -0.745670       -20.2907
  50   2.0000      -0.726175       -19.7602
  51   2.0000      -0.723312       -19.6823
  52   2.0000      -0.712291       -19.3824
  53   2.0000      -0.689563       -18.7640
  54   2.0000      -0.674817       -18.3627
  55   2.0000      -0.633049       -17.2261
  56   2.0000      -0.622625       -16.9425
  57   2.0000      -0.603509       -16.4223
  58   2.0000      -0.599233       -16.3060
  59   2.0000      -0.586774       -15.9669
  60   2.0000      -0.525815       -14.3081
  61   2.0000      -0.513604       -13.9759
  62   2.0000      -0.490899       -13.3580
  63   2.0000      -0.487728       -13.2718
  64   2.0000      -0.477683       -12.9984
  65   2.0000      -0.459375       -12.5002
  66   2.0000      -0.457215       -12.4415
  67   2.0000      -0.452001       -12.2996
  68   2.0000      -0.442393       -12.0381
  69   2.0000      -0.435870       -11.8606
  70   2.0000      -0.424582       -11.5535
  71   2.0000      -0.410275       -11.1641
  72   2.0000      -0.408184       -11.1072
  73   2.0000      -0.401245       -10.9184
  74   2.0000      -0.393148       -10.6981
  75   2.0000      -0.391967       -10.6660
  76   2.0000      -0.381800       -10.3893
  77   2.0000      -0.371122       -10.0987
  78   2.0000      -0.365638        -9.9495
  79   2.0000      -0.360082        -9.7983
  80   2.0000      -0.356754        -9.7078
  81   2.0000      -0.352457        -9.5908
  82   2.0000      -0.349196        -9.5021
  83   2.0000      -0.347496        -9.4558
  84   2.0000      -0.345665        -9.4060
  85   2.0000      -0.330411        -8.9909
  86   2.0000      -0.319100        -8.6831
  87   2.0000      -0.307065        -8.3557
  88   2.0000      -0.305998        -8.3266
  89   2.0000      -0.304307        -8.2806
  90   2.0000      -0.302223        -8.2239
  91   2.0000      -0.291543        -7.9333
  92   2.0000      -0.281841        -7.6693
  93   2.0000      -0.279065        -7.5938
  94   2.0000      -0.277717        -7.5571
  95   2.0000      -0.251898        -6.8545
  96   2.0000      -0.238330        -6.4853
  97   2.0000      -0.234225        -6.3736
  98   2.0000      -0.227469        -6.1898
  99   2.0000      -0.225539        -6.1372
 100   2.0000      -0.220997        -6.0136
 101   0.0000      -0.051500        -1.4014
 102   0.0000      -0.033959        -0.9241
 103   0.0000      -0.008144        -0.2216
 104   0.0000      -0.004003        -0.1089
 105   0.0000       0.014486         0.3942

MULLIKEN ATOMIC CHARGES
-----------------------
   0 C :   -0.505554
   1 C :   -0.117182
   2 O :   -0.285767
   3 P :    0.718905
   4 S :   -0.536743
   5 O :   -0.338199
   6 C :   -0.145829
   7 C :   -0.492471
   8 S :   -0.119768
   9 C :   -0.257434
  10 S :   -0.146334
  11 P :    0.667616
  12 S :   -0.516423
  13 O :   -0.293618
  14 C :   -0.161909
  15 C :   -0.476630
  16 O :   -0.287534
  17 C :   -0.161168
  18 C :   -0.481145
  19 H :    0.168381
  20 H :    0.171255
  21 H :    0.170362
  22 H :    0.169442
  23 H :    0.173368
  24 H :    0.175229
  25 H :    0.177638
  26 H :    0.171065
  27 H :    0.173416
  28 H :    0.172657
  29 H :    0.230601
  30 H :    0.236535
  31 H :    0.187285
  32 H :    0.177131
  33 H :    0.168162
  34 H :    0.176438
  35 H :    0.169355
  36 H :    0.176121
  37 H :    0.178874
  38 H :    0.172187
  39 H :    0.172799
  40 H :    0.168887
Sum of atomic charges:    0.0000000

LOEWDIN ATOMIC CHARGES
----------------------
   0 C :   -0.395270
   1 C :    0.029817
   2 O :   -0.694715
   3 P :    0.379822
   4 S :   -0.170620
   5 O :   -0.667695
   6 C :    0.025818
   7 C :   -0.409482
   8 S :    0.170689
   9 C :   -0.419351
  10 S :    0.153553
  11 P :    0.387242
  12 S :   -0.152918
  13 O :   -0.676145
  14 C :    0.025672
  15 C :   -0.404781
  16 O :   -0.677657
  17 C :    0.027110
  18 C :   -0.410679
  19 H :    0.167641
  20 H :    0.164578
  21 H :    0.163886
  22 H :    0.182981
  23 H :    0.182523
  24 H :    0.191184
  25 H :    0.181631
  26 H :    0.163874
  27 H :    0.169013
  28 H :    0.161681
  29 H :    0.198784
  30 H :    0.198270
  31 H :    0.194439
  32 H :    0.192724
  33 H :    0.163718
  34 H :    0.170237
  35 H :    0.166060
  36 H :    0.191169
  37 H :    0.181750
  38 H :    0.168290
  39 H :    0.161559
  40 H :    0.163601

  Mayer bond orders larger than 0.100000
B(  0-C ,  1-C ) :   0.9492 B(  0-C , 19-H ) :   0.9586 B(  0-C , 20-H ) :   0.9642
B(  0-C , 21-H ) :   0.9670 B(  1-C ,  2-O ) :   0.7571 B(  1-C , 22-H ) :   0.9527
B(  1-C , 23-H ) :   0.9399 B(  2-O ,  3-P ) :   1.1604 B(  3-P ,  4-S ) :   1.7053
B(  3-P ,  5-O ) :   1.0803 B(  3-P ,  8-S ) :   1.1094 B(  5-O ,  6-C ) :   0.8033
B(  6-C ,  7-C ) :   0.9093 B(  6-C , 24-H ) :   0.9486 B(  6-C , 25-H ) :   0.9648
B(  7-C , 26-H ) :   0.9660 B(  7-C , 27-H ) :   0.9529 B(  7-C , 28-H ) :   0.9623
B(  8-S ,  9-C ) :   0.8977 B(  9-C , 10-S ) :   0.9049 B(  9-C , 29-H ) :   0.8969
B(  9-C , 30-H ) :   0.8991 B( 10-S , 11-P ) :   1.0114 B( 11-P , 12-S ) :   1.7877
B( 11-P , 13-O ) :   1.1824 B( 11-P , 16-O ) :   1.0507 B( 13-O , 14-C ) :   0.8011
B( 14-C , 15-C ) :   0.8937 B( 14-C , 31-H ) :   0.9493 B( 14-C , 32-H ) :   0.9512
B( 15-C , 33-H ) :   0.9615 B( 15-C , 34-H ) :   0.9518 B( 15-C , 35-H ) :   0.9654
B( 16-O , 17-C ) :   0.7980 B( 17-C , 18-C ) :   0.9025 B( 17-C , 36-H ) :   0.9508
B( 17-C , 37-H ) :   0.9660 B( 18-C , 38-H ) :   0.9521 B( 18-C , 39-H ) :   0.9648
B( 18-C , 40-H ) :   0.9659

Dispersion correction           -0.021833738
FINAL SINGLE POINT ENERGY     -2932.470766608526

DIPOLE MOMENT
-------------

Method             : SCF
Type of density    : Electron Density
Multiplicity       :   1
Irrep              :   0
Energy             : -2932.4956613100871436 Eh
Relativity type    :
Basis              : AO
                                X                 Y                 Z
Electronic contribution:      2.047290285      -3.941000168     -12.372761685
Nuclear contribution   :     -1.738447179       4.834338056      14.462984440
                        -----------------------------------------
Total Dipole Moment    :      0.308843106       0.893337888       2.090222756
                        -----------------------------------------
Magnitude (a.u.)       :      2.294006934
Magnitude (Debye)      :      5.830902237

Rotational constants in cm-1:             0.012747             0.004924             0.004489
Rotational constants in MHz :           382.137929           147.626351           134.563673

                             ****ORCA TERMINATED NORMALLY****
TOTAL RUN TIME: 0 days 0 hours 1 minutes 49 seconds 641 msec
