                         Program Version 6.0.0  -   RELEASE  -
|  1> ! pbe def2-sv(p) def2/J RI DEFGRID1 loosescf d4 GCP(DFT/SV(P)) printgap
|  2> %output
|  3>     printlevel normal
|  4> end
|  5> * xyz 0 1
|  6> C 2.5393445135 0.5430829925 -2.5655210585
|  7> C 1.6920957614 1.4467486848 -1.6963576743
|  8> O 1.1199915311 0.7330481879 -0.5811728571
|  9> P 2.0315225955 0.2745704291 0.6445582122
| 10> S 3.5135060946 1.4799603849 1.0717886305
| 11> O 2.4714186319 -1.1935740865 0.2074795551
| 12> C 3.5955983038 -1.8636919678 0.8036139444
| 13> C 3.2317663225 -2.4973475341 2.131697175
| 14> S 0.6292631221 0.0826258598 2.1926004396
| 15> C -0.4103196093 -1.3516943497 1.6907316292
| 16> S -0.5131437248 -1.6529266627 -0.0854857692
| 17> P -1.7213988401 -0.0291493387 -0.7113167562
| 18> S -1.5822569399 0.3605155197 -2.6277184792
| 19> O -1.4076685753 1.1100930759 0.3410218834
| 20> C -2.3891150651 2.0640513468 0.8067668788
| 21> C -2.8516080495 2.9828094838 -0.3037747485
| 22> O -3.1943923628 -0.4505194348 -0.2524519118
| 23> C -3.9800624253 -1.3781568728 -1.0211432937
| 24> C -5.4184930863 -1.2689996981 -0.5569364883
| 25> H 2.8641879071 1.0950420326 -3.4418040776
| 26> H 3.4135316147 0.2048494023 -2.0112472726
| 27> H 1.9583027366 -0.3210577336 -2.8796353851
| 28> H 0.8246533955 1.8249315004 -2.2408095361
| 29> H 2.2817975546 2.2818756019 -1.3045406836
| 30> H 3.8789459463 -2.6147550627 0.064948912
| 31> H 4.4066505028 -1.1379466491 0.9278916963
| 32> H 2.4112212954 -3.197722395 2.0006924514
| 33> H 4.0949928478 -3.0288183592 2.5194532959
| 34> H 2.941445712 -1.7290497276 2.8470793414
| 35> H -1.3975879611 -1.1513537121 2.1006336683
| 36> H 0.0156144481 -2.2548770798 2.1206270059
| 37> H -3.2295939263 1.5180585381 1.2387889906
| 38> H -1.85641513 2.6091231678 1.5884135276
| 39> H -3.5545369639 3.7073403656 0.0952773097
| 40> H -2.0043235839 3.5062086707 -0.7408277991
| 41> H -3.3392206296 2.4044608532 -1.0879193779
| 42> H -3.8775629907 -1.1253869384 -2.0819633484
| 43> H -3.5813659904 -2.3834341401 -0.8581239374
| 44> H -5.7929005842 -0.2636408454 -0.727822059
| 45> H -6.025031898 -1.9745668255 -1.1149213081
| 46> H -5.486589201 -1.4965571929 0.5029072475
| 47> *
| 48>
| 49>                          ****END OF INPUT****

CARTESIAN COORDINATES (ANGSTROEM)
---------------------------------
  C      2.539345    0.543083   -2.565521
  C      1.692096    1.446749   -1.696358
  O      1.119992    0.733048   -0.581173
  P      2.031523    0.274570    0.644558
  S      3.513506    1.479960    1.071789
  O      2.471419   -1.193574    0.207480
  C      3.595598   -1.863692    0.803614
  C      3.231766   -2.497348    2.131697
  S      0.629263    0.082626    2.192600
  C     -0.410320   -1.351694    1.690732
  S     -0.513144   -1.652927   -0.085486
  P     -1.721399   -0.029149   -0.711317
  S     -1.582257    0.360516   -2.627718
  O     -1.407669    1.110093    0.341022
  C     -2.389115    2.064051    0.806767
  C     -2.851608    2.982809   -0.303775
  O     -3.194392   -0.450519   -0.252452
  C     -3.980062   -1.378157   -1.021143
  C     -5.418493   -1.269000   -0.556936
  H      2.864188    1.095042   -3.441804
  H      3.413532    0.204849   -2.011247
  H      1.958303   -0.321058   -2.879635
  H      0.824653    1.824932   -2.240810
  H      2.281798    2.281876   -1.304541
  H      3.878946   -2.614755    0.064949
  H      4.406651   -1.137947    0.927892
  H      2.411221   -3.197722    2.000692
  H      4.094993   -3.028818    2.519453
  H      2.941446   -1.729050    2.847079
  H     -1.397588   -1.151354    2.100634
  H      0.015614   -2.254877    2.120627
  H     -3.229594    1.518059    1.238789
  H     -1.856415    2.609123    1.588414
  H     -3.554537    3.707340    0.095277
  H     -2.004324    3.506209   -0.740828
  H     -3.339221    2.404461   -1.087919
  H     -3.877563   -1.125387   -2.081963
  H     -3.581366   -2.383434   -0.858124
  H     -5.792901   -0.263641   -0.727822
  H     -6.025032   -1.974567   -1.114921
  H     -5.486589   -1.496557    0.502907

 Total Charge           Charge          ....    0
 Multiplicity           Mult            ....    1
 Number of Electrons    NEL             ....  202
 Basis Dimension        Dim             ....  334

ORBITAL ENERGIES
----------------

  NO   OCC          E(Eh)            E(eV)
   0   2.0000     -88.045286     -2395.8340
   1   2.0000     -88.039801     -2395.6848
   2   2.0000     -87.988378     -2394.2855
   3   2.0000     -87.981207     -2394.0904
   4   2.0000     -76.430757     -2079.7866
   5   2.0000     -76.422122     -2079.5517
   6   2.0000     -18.796389      -511.4757
   7   2.0000     -18.792800      -511.3781
   8   2.0000     -18.789212      -511.2804
   9   2.0000     -18.779689      -511.0213
  10   2.0000      -9.964608      -271.1508
  11   2.0000      -9.957333      -270.9528
  12   2.0000      -9.954637      -270.8795
  13   2.0000      -9.949762      -270.7468
  14   2.0000      -9.933928      -270.3159
  15   2.0000      -9.892895      -269.1994
  16   2.0000      -9.886746      -269.0320
  17   2.0000      -9.885814      -269.0067
  18   2.0000      -9.869704      -268.5683
  19   2.0000      -7.690310      -209.2640
  20   2.0000      -7.684863      -209.1158
  21   2.0000      -7.633407      -207.7156
  22   2.0000      -7.626424      -207.5256
  23   2.0000      -6.427453      -174.8999
  24   2.0000      -6.419575      -174.6855
  25   2.0000      -5.718699      -155.6137
  26   2.0000      -5.714690      -155.5046
  27   2.0000      -5.713447      -155.4708
  28   2.0000      -5.709057      -155.3513
  29   2.0000      -5.706798      -155.2899
  30   2.0000      -5.701400      -155.1430
  31   2.0000      -5.662350      -154.0804
  32   2.0000      -5.655314      -153.8889
  33   2.0000      -5.654043      -153.8543
  34   2.0000      -5.653519      -153.8401
  35   2.0000      -5.646983      -153.6622
  36   2.0000      -5.646643      -153.6530
  37   2.0000      -4.650466      -126.5456
  38   2.0000      -4.649370      -126.5158
  39   2.0000      -4.647531      -126.4658
  40   2.0000      -4.641867      -126.3116
  41   2.0000      -4.641549      -126.3030
  42   2.0000      -4.640135      -126.2645
  43   2.0000      -0.991408       -26.9776
  44   2.0000      -0.978824       -26.6352
  45   2.0000      -0.946248       -25.7487
  46   2.0000      -0.937733       -25.5170
  47   2.0000      -0.763904       -20.7869
  48   2.0000      -0.721901       -19.6439
  49   2.0000      -0.705942       -19.2097
  50   2.0000      -0.693415       -18.8688
  51   2.0000      -0.682915       -18.5831
  52   2.0000      -0.671169       -18.2634
  53   2.0000      -0.654325       -17.8051
  54   2.0000      -0.635386       -17.2897
  55   2.0000      -0.596153       -16.2221
  56   2.0000      -0.592107       -16.1121
  57   2.0000      -0.575825       -15.6690
  58   2.0000      -0.571293       -15.5457
  59   2.0000      -0.559599       -15.2275
  60   2.0000      -0.510584       -13.8937
  61   2.0000      -0.488823       -13.3016
  62   2.0000      -0.478342       -13.0163
  63   2.0000      -0.467268       -12.7150
  64   2.0000      -0.459458       -12.5025
  65   2.0000      -0.442178       -12.0323
  66   2.0000      -0.440583       -11.9889
  67   2.0000      -0.434683       -11.8283
  68   2.0000      -0.427442       -11.6313
  69   2.0000      -0.417333       -11.3562
  70   2.0000      -0.409450       -11.1417
  71   2.0000      -0.401404       -10.9228
  72   2.0000      -0.394834       -10.7440
  73   2.0000      -0.387568       -10.5463
  74   2.0000      -0.380388       -10.3509
  75   2.0000      -0.366982        -9.9861
  76   2.0000      -0.366077        -9.9615
  77   2.0000      -0.358883        -9.7657
  78   2.0000      -0.355879        -9.6839
  79   2.0000      -0.350465        -9.5366
  80   2.0000      -0.347851        -9.4655
  81   2.0000      -0.343063        -9.3352
  82   2.0000      -0.340915        -9.2768
  83   2.0000      -0.334390        -9.0992
  84   2.0000      -0.331087        -9.0093
  85   2.0000      -0.323216        -8.7951
  86   2.0000      -0.312729        -8.5098
  87   2.0000      -0.303070        -8.2470
  88   2.0000      -0.296511        -8.0685
  89   2.0000      -0.291758        -7.9391
  90   2.0000      -0.276568        -7.5258
  91   2.0000      -0.275895        -7.5075
  92   2.0000      -0.264729        -7.2036
  93   2.0000      -0.262161        -7.1338
  94   2.0000      -0.256948        -6.9919
  95   2.0000      -0.227544        -6.1918
  96   2.0000      -0.211932        -5.7670
  97   2.0000      -0.207892        -5.6570
  98   2.0000      -0.204342        -5.5604
  99   2.0000      -0.200279        -5.4499
 100   2.0000      -0.196113        -5.3365
 101   0.0000      -0.043493        -1.1835
 102   0.0000      -0.029319        -0.7978
 103   0.0000      -0.016989        -0.4623
 104   0.0000       0.001080         0.0294
 105   0.0000       0.010706         0.2913

MULLIKEN ATOMIC CHARGES
-----------------------
   0 C :   -0.301103
   1 C :   -0.009734
   2 O :   -0.375949
   3 P :    0.632309
   4 S :   -0.327526
   5 O :   -0.373981
   6 C :   -0.009684
   7 C :   -0.319308
   8 S :   -0.089925
   9 C :   -0.329691
  10 S :   -0.081427
  11 P :    0.650884
  12 S :   -0.320864
  13 O :   -0.368199
  14 C :   -0.002578
  15 C :   -0.313217
  16 O :   -0.393703
  17 C :   -0.011207
  18 C :   -0.281138
  19 H :    0.106542
  20 H :    0.112716
  21 H :    0.117987
  22 H :    0.111473
  23 H :    0.107778
  24 H :    0.106193
  25 H :    0.111863
  26 H :    0.113651
  27 H :    0.113856
  28 H :    0.129029
  29 H :    0.177319
  30 H :    0.187349
  31 H :    0.106744
  32 H :    0.111655
  33 H :    0.110956
  34 H :    0.126351
  35 H :    0.125356
  36 H :    0.108521
  37 H :    0.096624
  38 H :    0.117276
  39 H :    0.113982
  40 H :    0.112819
Sum of atomic charges:   -0.0000000

LOEWDIN ATOMIC CHARGES
----------------------
   0 C :   -0.363072
   1 C :   -0.126651
   2 O :   -0.242576
   3 P :    0.565771
   4 S :   -0.323065
   5 O :   -0.244364
   6 C :   -0.122484
   7 C :   -0.366404
   8 S :    0.084500
   9 C :   -0.470257
  10 S :    0.107010
  11 P :    0.580430
  12 S :   -0.306685
  13 O :   -0.233679
  14 C :   -0.111052
  15 C :   -0.364571
  16 O :   -0.258277
  17 C :   -0.124738
  18 C :   -0.350831
  19 H :    0.128416
  20 H :    0.117916
  21 H :    0.126631
  22 H :    0.110642
  23 H :    0.106332
  24 H :    0.118724
  25 H :    0.108832
  26 H :    0.120024
  27 H :    0.131962
  28 H :    0.122849
  29 H :    0.132097
  30 H :    0.133712
  31 H :    0.110610
  32 H :    0.121685
  33 H :    0.129862
  34 H :    0.131060
  35 H :    0.121475
  36 H :    0.107704
  37 H :    0.107231
  38 H :    0.126665
  39 H :    0.131860
  40 H :    0.124706

  Mayer bond orders larger than 0.100000
B(  0-C ,  1-C ) :   1.1681 B(  0-C , 19-H ) :   0.9396 B(  0-C , 20-H ) :   0.9387
B(  0-C , 21-H ) :   0.9439 B(  1-C ,  2-O ) :   0.8988 B(  1-C , 22-H ) :   0.9113
B(  1-C , 23-H ) :   0.9148 B(  2-O ,  3-P ) :   1.0977 B(  3-P ,  4-S ) :   1.6296
B(  3-P ,  5-O ) :   1.0697 B(  3-P ,  8-S ) :   0.9995 B(  5-O ,  6-C ) :   0.9145
B(  6-C ,  7-C ) :   1.1645 B(  6-C , 24-H ) :   0.9333 B(  6-C , 25-H ) :   0.9069
B(  7-C , 26-H ) :   0.9420 B(  7-C , 27-H ) :   0.9385 B(  7-C , 28-H ) :   0.9364
B(  8-S ,  9-C ) :   0.9546 B(  9-C , 10-S ) :   1.0175 B(  9-C , 29-H ) :   0.9070
B(  9-C , 30-H ) :   0.9019 B( 10-S , 11-P ) :   0.9572 B( 11-P , 12-S ) :   1.6483
B( 11-P , 13-O ) :   1.1174 B( 11-P , 16-O ) :   1.0436 B( 13-O , 14-C ) :   0.9009
B( 14-C , 15-C ) :   1.1714 B( 14-C , 31-H ) :   0.9250 B( 14-C , 32-H ) :   0.9294
B( 15-C , 33-H ) :   0.9370 B( 15-C , 34-H ) :   0.9459 B( 15-C , 35-H ) :   0.9347
B( 16-O , 17-C ) :   0.9108 B( 17-C , 18-C ) :   1.1582 B( 17-C , 36-H ) :   0.9083
B( 17-C , 37-H ) :   0.9255 B( 18-C , 38-H ) :   0.9520 B( 18-C , 39-H ) :   0.9423
B( 18-C , 40-H ) :   0.9510

Dispersion correction           -0.068134285
FINAL SINGLE POINT ENERGY     -2929.511429149475

DIPOLE MOMENT
-------------

Method             : SCF
Type of density    : Electron Density
Multiplicity       :   1
Irrep              :   0
Energy             : -2929.6301336204933250 Eh
Relativity type    :
Basis              : AO
                                X                 Y                 Z
Electronic contribution:      9.353148574       2.548675533       2.854667839
Nuclear contribution   :    -10.721679962      -3.533349226      -2.289916953
                        -----------------------------------------
Total Dipole Moment    :     -1.368531388      -0.984673693       0.564750886
                        -----------------------------------------
Magnitude (a.u.)       :      1.778033746
Magnitude (Debye)      :      4.519402621

Rotational constants in cm-1:             0.012742             0.005486             0.005107
Rotational constants in MHz :           382.000638           164.477536           153.095773

                             ****ORCA TERMINATED NORMALLY****
TOTAL RUN TIME: 0 days 0 hours 0 minutes 22 seconds 32 msec
