                         Program Version 6.0.1  -  RELEASE   -
|  1> ! pbe def2-sv(p) def2/J RI DEFGRID1 loosescf d4 GCP(DFT/SV(P)) printgap
|  2> %output
|  3>     printlevel normal
|  4> end
|  5> * xyz 0 1
|  6> C 3.986252381 -4.3223300351 -0.6929523248
|  7> C 2.6051790379 -3.6992168858 -0.6575678813
|  8> O 2.7589601383 -2.2961342837 -0.3562210642
|  9> C 1.6776216914 -1.5752759071 -0.201139122
| 10> O 0.5491177103 -2.0205320229 -0.3141434533
| 11> C 1.9939345341 -0.1433985928 0.1604704824
| 12> C 1.3028648683 0.8894133813 -0.7253805612
| 13> H 1.9022636881 1.1812090493 -1.5874352992
| 14> C 0.8307233231 2.1150296586 0.0335275775
| 15> O 0.2880776381 2.0481262945 1.1165132222
| 16> O 1.0186510645 3.2125482059 -0.6573224596
| 17> C 0.417426463 4.4340071825 -0.177587609
| 18> C -0.9969749829 4.5643707289 -0.7191185307
| 19> S -0.2946658152 0.3429769982 -1.4543211004
| 20> P -1.3698614666 -0.2308608103 0.2805481213
| 21> S -0.7921374495 -0.7611269198 2.088145306
| 22> O -2.2943222904 1.0778044432 0.2806437354
| 23> C -3.2714801618 1.3000716766 1.3024866051
| 24> O -2.413968376 -1.2763799255 -0.3324642112
| 25> C -2.3006325518 -2.694909395 -0.2196489068
| 26> H 3.8963419356 -5.3785321466 -0.9233518433
| 27> H 4.5928902165 -3.8394503903 -1.4528362886
| 28> H 4.4723929821 -4.2062099308 0.2709308171
| 29> H 1.9716081199 -4.1485631275 0.1131648908
| 30> H 2.0939955648 -3.7867240827 -1.6209774307
| 31> H 3.0733968458 -0.0035845455 0.1282618731
| 32> H 1.6396876441 -0.0030109576 1.1889909512
| 33> H 0.4193736339 4.4182231706 0.915756006
| 34> H 1.0665621689 5.2249553108 -0.5520254157
| 35> H -0.9834457238 4.5667681629 -1.8053630561
| 36> H -1.6018551529 3.7245755915 -0.3810826868
| 37> H -1.4389205958 5.4876935626 -0.3600206415
| 38> H -2.8097720748 1.1960159503 2.2860789791
| 39> H -4.0880710634 0.5861460232 1.1990202102
| 40> H -3.6279000354 2.3163879168 1.1550809885
| 41> H -3.3132021848 -3.0811515394 -0.3079029821
| 42> H -1.8688936773 -2.9577856116 0.7475620126
| 43> H -1.6652354753 -3.0755609049 -1.0165250143
| 44> *
| 45>
| 46>                          ****END OF INPUT****

CARTESIAN COORDINATES (ANGSTROEM)
---------------------------------
  C      3.986252   -4.322330   -0.692952
  C      2.605179   -3.699217   -0.657568
  O      2.758960   -2.296134   -0.356221
  C      1.677622   -1.575276   -0.201139
  O      0.549118   -2.020532   -0.314143
  C      1.993935   -0.143399    0.160470
  C      1.302865    0.889413   -0.725381
  H      1.902264    1.181209   -1.587435
  C      0.830723    2.115030    0.033528
  O      0.288078    2.048126    1.116513
  O      1.018651    3.212548   -0.657322
  C      0.417426    4.434007   -0.177588
  C     -0.996975    4.564371   -0.719119
  S     -0.294666    0.342977   -1.454321
  P     -1.369861   -0.230861    0.280548
  S     -0.792137   -0.761127    2.088145
  O     -2.294322    1.077804    0.280644
  C     -3.271480    1.300072    1.302487
  O     -2.413968   -1.276380   -0.332464
  C     -2.300633   -2.694909   -0.219649
  H      3.896342   -5.378532   -0.923352
  H      4.592890   -3.839450   -1.452836
  H      4.472393   -4.206210    0.270931
  H      1.971608   -4.148563    0.113165
  H      2.093996   -3.786724   -1.620977
  H      3.073397   -0.003585    0.128262
  H      1.639688   -0.003011    1.188991
  H      0.419374    4.418223    0.915756
  H      1.066562    5.224955   -0.552025
  H     -0.983446    4.566768   -1.805363
  H     -1.601855    3.724576   -0.381083
  H     -1.438921    5.487694   -0.360021
  H     -2.809772    1.196016    2.286079
  H     -4.088071    0.586146    1.199020
  H     -3.627900    2.316388    1.155081
  H     -3.313202   -3.081152   -0.307903
  H     -1.868894   -2.957786    0.747562
  H     -1.665235   -3.075561   -1.016525

 Total Charge           Charge          ....    0
 Multiplicity           Mult            ....    1
 Number of Electrons    NEL             ....  174
 Basis Dimension        Dim             ....  316

ORBITAL ENERGIES
----------------

  NO   OCC          E(Eh)            E(eV)
   0   2.0000     -88.033446     -2395.5119
   1   2.0000     -87.965659     -2393.6673
   2   2.0000     -76.413330     -2079.3124
   3   2.0000     -18.811207      -511.8790
   4   2.0000     -18.804270      -511.6902
   5   2.0000     -18.774564      -510.8819
   6   2.0000     -18.770118      -510.7609
   7   2.0000     -18.747635      -510.1491
   8   2.0000     -18.735934      -509.8307
   9   2.0000     -10.016242      -272.5558
  10   2.0000     -10.011897      -272.4376
  11   2.0000      -9.954909      -270.8868
  12   2.0000      -9.948679      -270.7173
  13   2.0000      -9.947258      -270.6787
  14   2.0000      -9.926283      -270.1079
  15   2.0000      -9.925092      -270.0755
  16   2.0000      -9.907507      -269.5970
  17   2.0000      -9.894587      -269.2454
  18   2.0000      -9.883003      -268.9302
  19   2.0000      -7.678231      -208.9353
  20   2.0000      -7.610875      -207.1024
  21   2.0000      -6.409063      -174.3995
  22   2.0000      -5.706443      -155.2802
  23   2.0000      -5.703358      -155.1963
  24   2.0000      -5.694227      -154.9478
  25   2.0000      -5.640312      -153.4807
  26   2.0000      -5.631556      -153.2424
  27   2.0000      -5.630383      -153.2105
  28   2.0000      -4.631553      -126.0310
  29   2.0000      -4.631252      -126.0228
  30   2.0000      -4.629563      -125.9768
  31   2.0000      -1.020791       -27.7771
  32   2.0000      -1.013415       -27.5764
  33   2.0000      -0.965172       -26.2637
  34   2.0000      -0.924045       -25.1446
  35   2.0000      -0.921938       -25.0872
  36   2.0000      -0.916355       -24.9353
  37   2.0000      -0.762463       -20.7477
  38   2.0000      -0.720444       -19.6043
  39   2.0000      -0.701923       -19.1003
  40   2.0000      -0.684602       -18.6290
  41   2.0000      -0.654003       -17.7963
  42   2.0000      -0.615842       -16.7579
  43   2.0000      -0.613517       -16.6947
  44   2.0000      -0.610359       -16.6087
  45   2.0000      -0.594237       -16.1700
  46   2.0000      -0.558569       -15.1994
  47   2.0000      -0.518167       -14.1000
  48   2.0000      -0.501467       -13.6456
  49   2.0000      -0.492313       -13.3965
  50   2.0000      -0.477638       -12.9972
  51   2.0000      -0.458298       -12.4709
  52   2.0000      -0.453506       -12.3405
  53   2.0000      -0.449452       -12.2302
  54   2.0000      -0.439269       -11.9531
  55   2.0000      -0.430212       -11.7067
  56   2.0000      -0.419936       -11.4270
  57   2.0000      -0.411218       -11.1898
  58   2.0000      -0.407092       -11.0775
  59   2.0000      -0.399927       -10.8826
  60   2.0000      -0.395721       -10.7681
  61   2.0000      -0.388812       -10.5801
  62   2.0000      -0.387697       -10.5498
  63   2.0000      -0.377536       -10.2733
  64   2.0000      -0.373377       -10.1601
  65   2.0000      -0.365537        -9.9468
  66   2.0000      -0.360882        -9.8201
  67   2.0000      -0.355360        -9.6698
  68   2.0000      -0.350277        -9.5315
  69   2.0000      -0.342993        -9.3333
  70   2.0000      -0.332656        -9.0520
  71   2.0000      -0.325701        -8.8628
  72   2.0000      -0.317017        -8.6265
  73   2.0000      -0.307594        -8.3701
  74   2.0000      -0.297051        -8.0832
  75   2.0000      -0.291965        -7.9448
  76   2.0000      -0.286906        -7.8071
  77   2.0000      -0.275564        -7.4985
  78   2.0000      -0.270691        -7.3659
  79   2.0000      -0.262627        -7.1465
  80   2.0000      -0.253556        -6.8996
  81   2.0000      -0.247526        -6.7355
  82   2.0000      -0.240699        -6.5497
  83   2.0000      -0.233422        -6.3517
  84   2.0000      -0.195476        -5.3192
  85   2.0000      -0.182976        -4.9790
  86   2.0000      -0.175400        -4.7729
  87   0.0000      -0.052544        -1.4298
  88   0.0000      -0.033069        -0.8999
  89   0.0000      -0.021627        -0.5885
  90   0.0000       0.021097         0.5741
  91   0.0000       0.036660         0.9976

MULLIKEN ATOMIC CHARGES
-----------------------
   0 C :   -0.272717
   1 C :   -0.033780
   2 O :   -0.219302
   3 C :    0.116007
   4 O :   -0.207620
   5 C :   -0.045342
   6 C :   -0.306691
   7 H :    0.131917
   8 C :    0.189754
   9 O :   -0.188994
  10 O :   -0.219113
  11 C :   -0.014496
  12 C :   -0.316832
  13 S :   -0.077544
  14 P :    0.648464
  15 S :   -0.332650
  16 O :   -0.375227
  17 C :   -0.095593
  18 O :   -0.391681
  19 C :   -0.089240
  20 H :    0.113696
  21 H :    0.116240
  22 H :    0.119172
  23 H :    0.113140
  24 H :    0.108074
  25 H :    0.107017
  26 H :    0.156054
  27 H :    0.112070
  28 H :    0.102571
  29 H :    0.114262
  30 H :    0.145787
  31 H :    0.110027
  32 H :    0.122511
  33 H :    0.107944
  34 H :    0.115213
  35 H :    0.111223
  36 H :    0.113101
  37 H :    0.112577
Sum of atomic charges:    0.0000000

LOEWDIN ATOMIC CHARGES
----------------------
   0 C :   -0.350196
   1 C :   -0.106319
   2 O :   -0.050290
   3 C :    0.035634
   4 O :   -0.166945
   5 C :   -0.263648
   6 C :   -0.252082
   7 H :    0.138711
   8 C :   -0.002432
   9 O :   -0.162961
  10 O :   -0.052027
  11 C :   -0.108910
  12 C :   -0.358035
  13 S :    0.137575
  14 P :    0.598581
  15 S :   -0.306859
  16 O :   -0.257306
  17 C :   -0.215841
  18 O :   -0.257977
  19 C :   -0.214763
  20 H :    0.131956
  21 H :    0.127404
  22 H :    0.128778
  23 H :    0.120306
  24 H :    0.117661
  25 H :    0.138839
  26 H :    0.155500
  27 H :    0.121286
  28 H :    0.117477
  29 H :    0.125947
  30 H :    0.135092
  31 H :    0.129019
  32 H :    0.111744
  33 H :    0.109263
  34 H :    0.114802
  35 H :    0.113821
  36 H :    0.106681
  37 H :    0.110515

  Mayer bond orders larger than 0.100000
B(  0-C ,  1-C ) :   1.1533 B(  0-C , 20-H ) :   0.9435 B(  0-C , 21-H ) :   0.9495
B(  0-C , 22-H ) :   0.9499 B(  1-C ,  2-O ) :   0.8991 B(  1-C , 23-H ) :   0.9292
B(  1-C , 24-H ) :   0.9325 B(  2-O ,  3-C ) :   1.2649 B(  3-C ,  4-O ) :   1.9123
B(  3-C ,  5-C ) :   1.0442 B(  5-C ,  6-C ) :   1.0205 B(  5-C , 25-H ) :   0.8940
B(  5-C , 26-H ) :   0.8432 B(  6-C ,  7-H ) :   0.8839 B(  6-C ,  8-C ) :   0.8858
B(  6-C , 13-S ) :   1.0337 B(  8-C ,  9-O ) :   2.0037 B(  8-C , 10-O ) :   1.2603
B( 10-O , 11-C ) :   0.9080 B( 11-C , 12-C ) :   1.1747 B( 11-C , 27-H ) :   0.9117
B( 11-C , 28-H ) :   0.9374 B( 12-C , 29-H ) :   0.9478 B( 12-C , 30-H ) :   0.9333
B( 12-C , 31-H ) :   0.9430 B( 13-S , 14-P ) :   0.9049 B( 13-S , 15-S ) :   0.1212
B( 14-P , 15-S ) :   1.5684 B( 14-P , 16-O ) :   1.0838 B( 14-P , 18-O ) :   1.0964
B( 16-O , 17-C ) :   0.9366 B( 17-C , 32-H ) :   0.9344 B( 17-C , 33-H ) :   0.9521
B( 17-C , 34-H ) :   0.9558 B( 18-O , 19-C ) :   0.9327 B( 19-C , 35-H ) :   0.9565
B( 19-C , 36-H ) :   0.9302 B( 19-C , 37-H ) :   0.9500

Dispersion correction           -0.053746303
FINAL SINGLE POINT ENERGY     -1979.001016704691

DIPOLE MOMENT
-------------

Method             : SCF
Type of density    : Electron Density
Multiplicity       :   1
Irrep              :   0
Energy             : -1979.1308733329701681 Eh
Relativity type    :
Basis              : AO
                                X                 Y                 Z
Electronic contribution:     -3.971785624       1.334062632       1.321347937
Nuclear contribution   :      4.754577819      -1.439209603      -2.151766293
                        -----------------------------------------
Total Dipole Moment    :      0.782792195      -0.105146971      -0.830418356
                        -----------------------------------------
Magnitude (a.u.)       :      1.146042823
Magnitude (Debye)      :      2.913009356

Rotational constants in cm-1:             0.013767             0.007472             0.005705
Rotational constants in MHz :           412.721060           224.006659           171.034970

                             ****ORCA TERMINATED NORMALLY****
TOTAL RUN TIME: 0 days 0 hours 0 minutes 40 seconds 725 msec
