                         Program Version 6.0.1  -  RELEASE   -
|  1> ! pbe def2-sv(p) def2/J RI DEFGRID1 loosescf d4 GCP(DFT/SV(P)) printgap
|  2> %output
|  3>     printlevel normal
|  4> end
|  5> * xyz 0 1
|  6> C 5.1917805685 -3.0480506266 -0.0205470287
|  7> C 4.4317143841 -1.7728099366 0.284413859
|  8> O 3.1545814524 -1.8463988295 -0.3828067741
|  9> C 2.3887734672 -0.7814844977 -0.3691679148
| 10> O 2.6945898177 0.2744108826 0.1510640312
| 11> C 1.0655477283 -1.0223005685 -1.0537944854
| 12> C 0.3766372707 0.3031904381 -1.3542152792
| 13> H 0.75380932 0.7645509394 -2.268079334
| 14> C 0.4985184583 1.2919775797 -0.2092390441
| 15> O 0.019131744 1.0677694179 0.8872353292
| 16> O 1.012531155 2.4285284889 -0.5979330427
| 17> C 1.2037639306 3.4828323941 0.3692538427
| 18> C 2.6815714553 3.6170145629 0.6941767655
| 19> S -1.4141357017 0.0923343836 -1.6044388133
| 20> P -2.1531664095 -0.3230899177 0.3601165286
| 21> S -1.282426261 -1.6480817727 1.513771731
| 22> O -2.5766240985 1.0368070978 1.0531973542
| 23> C -3.5004309361 1.9539262903 0.4348383652
| 24> O -3.6118482478 -0.8270582866 -0.0898693099
| 25> C -3.8132037608 -2.1134498196 -0.6821838371
| 26> H 4.6281845688 -3.9072732571 0.3299344996
| 27> H 5.3474486777 -3.1428685656 -1.0908097635
| 28> H 6.1530612826 -3.0202578732 0.4813778498
| 29> H 4.9579593191 -0.8838749968 -0.0771786423
| 30> H 4.2494943543 -1.6538819263 1.3569540727
| 31> H 0.4676883537 -1.6114873001 -0.3468377431
| 32> H 1.2020210882 -1.6159219095 -1.9562566665
| 33> H 0.815802962 4.3832379158 -0.1102199886
| 34> H 0.6205587267 3.2431530103 1.2628297833
| 35> H 2.8176195243 4.3908316369 1.4422125917
| 36> H 3.0579587227 2.6718431612 1.0786084471
| 37> H 3.2385546479 3.8747439653 -0.20159808
| 38> H -3.2048300578 2.1511318916 -0.5963718777
| 39> H -3.4432063336 2.8596367043 1.0333437395
| 40> H -4.5041494935 1.5338178893 0.4586638675
| 41> H -3.4857196666 -2.0966257419 -1.7210517358
| 42> H -4.8818554465 -2.3015222428 -0.6187878278
| 43> H -3.2588793754 -2.8713576562 -0.1259632239
| 44> *
| 45>
| 46>                          ****END OF INPUT****

CARTESIAN COORDINATES (ANGSTROEM)
---------------------------------
  C      5.191781   -3.048051   -0.020547
  C      4.431714   -1.772810    0.284414
  O      3.154581   -1.846399   -0.382807
  C      2.388773   -0.781484   -0.369168
  O      2.694590    0.274411    0.151064
  C      1.065548   -1.022301   -1.053794
  C      0.376637    0.303190   -1.354215
  H      0.753809    0.764551   -2.268079
  C      0.498518    1.291978   -0.209239
  O      0.019132    1.067769    0.887235
  O      1.012531    2.428528   -0.597933
  C      1.203764    3.482832    0.369254
  C      2.681571    3.617015    0.694177
  S     -1.414136    0.092334   -1.604439
  P     -2.153166   -0.323090    0.360117
  S     -1.282426   -1.648082    1.513772
  O     -2.576624    1.036807    1.053197
  C     -3.500431    1.953926    0.434838
  O     -3.611848   -0.827058   -0.089869
  C     -3.813204   -2.113450   -0.682184
  H      4.628185   -3.907273    0.329934
  H      5.347449   -3.142869   -1.090810
  H      6.153061   -3.020258    0.481378
  H      4.957959   -0.883875   -0.077179
  H      4.249494   -1.653882    1.356954
  H      0.467688   -1.611487   -0.346838
  H      1.202021   -1.615922   -1.956257
  H      0.815803    4.383238   -0.110220
  H      0.620559    3.243153    1.262830
  H      2.817620    4.390832    1.442213
  H      3.057959    2.671843    1.078608
  H      3.238555    3.874744   -0.201598
  H     -3.204830    2.151132   -0.596372
  H     -3.443206    2.859637    1.033344
  H     -4.504149    1.533818    0.458664
  H     -3.485720   -2.096626   -1.721052
  H     -4.881855   -2.301522   -0.618788
  H     -3.258879   -2.871358   -0.125963

 Total Charge           Charge          ....    0
 Multiplicity           Mult            ....    1
 Number of Electrons    NEL             ....  174
 Basis Dimension        Dim             ....  316

ORBITAL ENERGIES
----------------

  NO   OCC          E(Eh)            E(eV)
   0   2.0000     -88.038794     -2395.6574
   1   2.0000     -87.970339     -2393.7946
   2   2.0000     -76.419282     -2079.4744
   3   2.0000     -18.808121      -511.7950
   4   2.0000     -18.800889      -511.5982
   5   2.0000     -18.781360      -511.0668
   6   2.0000     -18.780890      -511.0540
   7   2.0000     -18.749532      -510.2007
   8   2.0000     -18.729330      -509.6510
   9   2.0000     -10.015967      -272.5483
  10   2.0000     -10.012268      -272.4477
  11   2.0000      -9.953207      -270.8405
  12   2.0000      -9.945051      -270.6186
  13   2.0000      -9.942279      -270.5432
  14   2.0000      -9.941245      -270.5150
  15   2.0000      -9.935789      -270.3666
  16   2.0000      -9.905850      -269.5519
  17   2.0000      -9.892664      -269.1931
  18   2.0000      -9.878621      -268.8109
  19   2.0000      -7.683311      -209.0735
  20   2.0000      -7.615547      -207.2296
  21   2.0000      -6.415094      -174.5636
  22   2.0000      -5.711175      -155.4090
  23   2.0000      -5.707608      -155.3119
  24   2.0000      -5.700591      -155.1210
  25   2.0000      -5.644848      -153.6041
  26   2.0000      -5.636310      -153.3718
  27   2.0000      -5.635111      -153.3392
  28   2.0000      -4.638178      -126.2112
  29   2.0000      -4.637112      -126.1822
  30   2.0000      -4.635224      -126.1309
  31   2.0000      -1.019055       -27.7299
  32   2.0000      -1.008898       -27.4535
  33   2.0000      -0.976504       -26.5720
  34   2.0000      -0.930746       -25.3269
  35   2.0000      -0.924693       -25.1622
  36   2.0000      -0.911839       -24.8124
  37   2.0000      -0.761690       -20.7266
  38   2.0000      -0.717982       -19.5373
  39   2.0000      -0.700809       -19.0700
  40   2.0000      -0.686722       -18.6867
  41   2.0000      -0.659159       -17.9366
  42   2.0000      -0.628523       -17.1030
  43   2.0000      -0.617918       -16.8144
  44   2.0000      -0.607934       -16.5427
  45   2.0000      -0.590564       -16.0701
  46   2.0000      -0.555328       -15.1113
  47   2.0000      -0.515856       -14.0371
  48   2.0000      -0.507888       -13.8203
  49   2.0000      -0.494334       -13.4515
  50   2.0000      -0.479834       -13.0569
  51   2.0000      -0.466587       -12.6965
  52   2.0000      -0.455711       -12.4005
  53   2.0000      -0.444408       -12.0930
  54   2.0000      -0.439281       -11.9534
  55   2.0000      -0.432890       -11.7795
  56   2.0000      -0.424498       -11.5512
  57   2.0000      -0.421841       -11.4789
  58   2.0000      -0.409733       -11.1494
  59   2.0000      -0.402086       -10.9413
  60   2.0000      -0.400343       -10.8939
  61   2.0000      -0.394924       -10.7464
  62   2.0000      -0.386174       -10.5083
  63   2.0000      -0.381307       -10.3759
  64   2.0000      -0.373383       -10.1603
  65   2.0000      -0.363528        -9.8921
  66   2.0000      -0.361581        -9.8391
  67   2.0000      -0.354557        -9.6480
  68   2.0000      -0.340851        -9.2750
  69   2.0000      -0.338004        -9.1975
  70   2.0000      -0.330623        -8.9967
  71   2.0000      -0.324867        -8.8401
  72   2.0000      -0.317332        -8.6351
  73   2.0000      -0.309886        -8.4324
  74   2.0000      -0.304602        -8.2886
  75   2.0000      -0.293666        -7.9911
  76   2.0000      -0.289525        -7.8784
  77   2.0000      -0.283747        -7.7211
  78   2.0000      -0.270080        -7.3492
  79   2.0000      -0.263240        -7.1631
  80   2.0000      -0.253412        -6.8957
  81   2.0000      -0.245206        -6.6724
  82   2.0000      -0.235095        -6.3973
  83   2.0000      -0.232217        -6.3190
  84   2.0000      -0.221997        -6.0408
  85   2.0000      -0.189196        -5.1483
  86   2.0000      -0.178537        -4.8582
  87   0.0000      -0.046048        -1.2530
  88   0.0000      -0.027472        -0.7476
  89   0.0000      -0.012899        -0.3510
  90   0.0000       0.018616         0.5066
  91   0.0000       0.030228         0.8225

MULLIKEN ATOMIC CHARGES
-----------------------
   0 C :   -0.273373
   1 C :   -0.033104
   2 O :   -0.225256
   3 C :    0.134247
   4 O :   -0.209149
   5 C :   -0.064468
   6 C :   -0.284815
   7 H :    0.126344
   8 C :    0.190829
   9 O :   -0.195143
  10 O :   -0.219374
  11 C :   -0.023335
  12 C :   -0.295184
  13 S :   -0.101892
  14 P :    0.619625
  15 S :   -0.299426
  16 O :   -0.356615
  17 C :   -0.100887
  18 O :   -0.399748
  19 C :   -0.099125
  20 H :    0.120852
  21 H :    0.115336
  22 H :    0.113502
  23 H :    0.108290
  24 H :    0.114422
  25 H :    0.143646
  26 H :    0.115374
  27 H :    0.099769
  28 H :    0.118240
  29 H :    0.107200
  30 H :    0.138226
  31 H :    0.107231
  32 H :    0.111321
  33 H :    0.126829
  34 H :    0.123506
  35 H :    0.110829
  36 H :    0.120218
  37 H :    0.115059
Sum of atomic charges:    0.0000000

LOEWDIN ATOMIC CHARGES
----------------------
   0 C :   -0.350250
   1 C :   -0.105185
   2 O :   -0.054487
   3 C :    0.047605
   4 O :   -0.153431
   5 C :   -0.265306
   6 C :   -0.257855
   7 H :    0.138832
   8 C :    0.006481
   9 O :   -0.166288
  10 O :   -0.044315
  11 C :   -0.108490
  12 C :   -0.354674
  13 S :    0.097793
  14 P :    0.586796
  15 S :   -0.300219
  16 O :   -0.233373
  17 C :   -0.210129
  18 O :   -0.267279
  19 C :   -0.220075
  20 H :    0.129621
  21 H :    0.126929
  22 H :    0.131845
  23 H :    0.117265
  24 H :    0.121089
  25 H :    0.142406
  26 H :    0.141662
  27 H :    0.115232
  28 H :    0.123324
  29 H :    0.127266
  30 H :    0.135156
  31 H :    0.122647
  32 H :    0.105575
  33 H :    0.123306
  34 H :    0.116068
  35 H :    0.106281
  36 H :    0.119922
  37 H :    0.108256

  Mayer bond orders larger than 0.100000
B(  0-C ,  1-C ) :   1.1545 B(  0-C , 20-H ) :   0.9485 B(  0-C , 21-H ) :   0.9508
B(  0-C , 22-H ) :   0.9435 B(  1-C ,  2-O ) :   0.9000 B(  1-C , 23-H ) :   0.9294
B(  1-C , 24-H ) :   0.9335 B(  2-O ,  3-C ) :   1.2548 B(  3-C ,  4-O ) :   1.9478
B(  3-C ,  5-C ) :   1.0259 B(  4-O ,  8-C ) :   0.1174 B(  5-C ,  6-C ) :   1.0082
B(  5-C , 25-H ) :   0.8268 B(  5-C , 26-H ) :   0.9006 B(  6-C ,  7-H ) :   0.8833
B(  6-C ,  8-C ) :   0.8948 B(  6-C , 13-S ) :   1.0116 B(  8-C ,  9-O ) :   1.9585
B(  8-C , 10-O ) :   1.2595 B(  9-O , 14-P ) :   0.1078 B( 10-O , 11-C ) :   0.9083
B( 11-C , 12-C ) :   1.1783 B( 11-C , 27-H ) :   0.9370 B( 11-C , 28-H ) :   0.9052
B( 12-C , 29-H ) :   0.9438 B( 12-C , 30-H ) :   0.9372 B( 12-C , 31-H ) :   0.9505
B( 13-S , 14-P ) :   0.9391 B( 13-S , 15-S ) :   0.1148 B( 14-P , 15-S ) :   1.6155
B( 14-P , 16-O ) :   1.1116 B( 14-P , 18-O ) :   1.0353 B( 15-S , 25-H ) :   0.1178
B( 16-O , 17-C ) :   0.9250 B( 17-C , 32-H ) :   0.9365 B( 17-C , 33-H ) :   0.9584
B( 17-C , 34-H ) :   0.9489 B( 18-O , 19-C ) :   0.9377 B( 19-C , 35-H ) :   0.9488
B( 19-C , 36-H ) :   0.9589 B( 19-C , 37-H ) :   0.9290

Dispersion correction           -0.051076198
FINAL SINGLE POINT ENERGY     -1979.009945375481

DIPOLE MOMENT
-------------

Method             : SCF
Type of density    : Electron Density
Multiplicity       :   1
Irrep              :   0
Energy             : -1979.1421941332887400 Eh
Relativity type    :
Basis              : AO
                                X                 Y                 Z
Electronic contribution:    -15.972472249      -2.552128631       0.659607382
Nuclear contribution   :     16.583411869       2.962067083      -1.870046098
                        -----------------------------------------
Total Dipole Moment    :      0.610939620       0.409938452      -1.210438717
                        -----------------------------------------
Magnitude (a.u.)       :      1.416495196
Magnitude (Debye)      :      3.600444657

Rotational constants in cm-1:             0.013030             0.006810             0.005231
Rotational constants in MHz :           390.624995           204.150582           156.827919

                             ****ORCA TERMINATED NORMALLY****
TOTAL RUN TIME: 0 days 0 hours 0 minutes 44 seconds 362 msec
