                         Program Version 6.0.0  -   RELEASE  -
|  1> ! pbe def2-sv(p) def2/J RI DEFGRID1 loosescf d4 GCP(DFT/SV(P)) printgap
|  2> %output
|  3>     printlevel normal
|  4> end
|  5> * xyz 0 1
|  6> C 1.4472549316 -0.7313642122 -0.2254813977
|  7> C 1.4474876156 0.7312392928 0.2254117545
|  8> C 0.0431537725 1.2170624228 -0.127073711
|  9> C -0.836103916 4.50008e-05 0.0001424497
| 10> O -2.049784195 0.0001088974 -7.39664e-05
| 11> C 0.0429399367 -1.2171063437 0.1271036736
| 12> H 2.2236141676 -1.3157609557 0.262816313
| 13> H 1.5986851845 -0.7882067993 -1.3039339709
| 14> H 1.5990570205 0.7880428243 1.3038589393
| 15> H 2.2239113658 1.3155343935 -0.262993702
| 16> H -0.321374177 2.035580047 0.491225539
| 17> H -0.0109241554 1.5429801192 -1.1685307166
| 18> H -0.0110674498 -1.5428304369 1.1685966792
| 19> H -0.3218154593 -2.035592074 -0.4910895961
| 20> *
| 21>
| 22>                          ****END OF INPUT****

CARTESIAN COORDINATES (ANGSTROEM)
---------------------------------
  C      1.447255   -0.731364   -0.225481
  C      1.447488    0.731239    0.225412
  C      0.043154    1.217062   -0.127074
  C     -0.836104    0.000045    0.000142
  O     -2.049784    0.000109   -0.000074
  C      0.042940   -1.217106    0.127104
  H      2.223614   -1.315761    0.262816
  H      1.598685   -0.788207   -1.303934
  H      1.599057    0.788043    1.303859
  H      2.223911    1.315534   -0.262994
  H     -0.321374    2.035580    0.491226
  H     -0.010924    1.542980   -1.168531
  H     -0.011067   -1.542830    1.168597
  H     -0.321815   -2.035592   -0.491090

 Total Charge           Charge          ....    0
 Multiplicity           Mult            ....    1
 Number of Electrons    NEL             ....   46
 Basis Dimension        Dim             ....  100

ORBITAL ENERGIES
----------------

  NO   OCC          E(Eh)            E(eV)
   0   2.0000     -18.733187      -509.7559
   1   2.0000      -9.969958      -271.2964
   2   2.0000      -9.897117      -269.3142
   3   2.0000      -9.897074      -269.3131
   4   2.0000      -9.892485      -269.1882
   5   2.0000      -9.892469      -269.1878
   6   2.0000      -0.930755       -25.3271
   7   2.0000      -0.767990       -20.8981
   8   2.0000      -0.657295       -17.8859
   9   2.0000      -0.618901       -16.8411
  10   2.0000      -0.528358       -14.3774
  11   2.0000      -0.478005       -13.0072
  12   2.0000      -0.450346       -12.2545
  13   2.0000      -0.409949       -11.1553
  14   2.0000      -0.388356       -10.5677
  15   2.0000      -0.378561       -10.3012
  16   2.0000      -0.356576        -9.7029
  17   2.0000      -0.339236        -9.2311
  18   2.0000      -0.316388        -8.6094
  19   2.0000      -0.312825        -8.5124
  20   2.0000      -0.298706        -8.1282
  21   2.0000      -0.295422        -8.0388
  22   2.0000      -0.190573        -5.1857
  23   0.0000      -0.053640        -1.4596
  24   0.0000       0.026606         0.7240
  25   0.0000       0.058884         1.6023
  26   0.0000       0.076341         2.0774
  27   0.0000       0.087262         2.3745

MULLIKEN ATOMIC CHARGES
-----------------------
   0 C :   -0.179316
   1 C :   -0.179319
   2 C :   -0.142135
   3 C :   -0.045053
   4 O :   -0.160935
   5 C :   -0.142044
   6 H :    0.096065
   7 H :    0.096212
   8 H :    0.096212
   9 H :    0.096087
  10 H :    0.114272
  11 H :    0.117850
  12 H :    0.117814
  13 H :    0.114289
Sum of atomic charges:   -0.0000000

LOEWDIN ATOMIC CHARGES
----------------------
   0 C :   -0.227761
   1 C :   -0.227759
   2 C :   -0.255415
   3 C :    0.041268
   4 O :   -0.130793
   5 C :   -0.255412
   6 H :    0.121255
   7 H :    0.120487
   8 H :    0.120481
   9 H :    0.121260
  10 H :    0.138769
  11 H :    0.147422
  12 H :    0.147421
  13 H :    0.138777

  Mayer bond orders larger than 0.100000
B(  0-C ,  1-C ) :   1.1090 B(  0-C ,  5-C ) :   1.1115 B(  0-C ,  6-H ) :   0.9240
B(  0-C ,  7-H ) :   0.9269 B(  1-C ,  2-C ) :   1.1115 B(  1-C ,  8-H ) :   0.9269
B(  1-C ,  9-H ) :   0.9240 B(  2-C ,  3-C ) :   1.0257 B(  2-C , 10-H ) :   0.9064
B(  2-C , 11-H ) :   0.8867 B(  3-C ,  4-O ) :   2.2096 B(  3-C ,  5-C ) :   1.0257
B(  5-C , 12-H ) :   0.8867 B(  5-C , 13-H ) :   0.9064

Dispersion correction           -0.010815763
FINAL SINGLE POINT ENERGY      -269.963144188236

DIPOLE MOMENT
-------------

Method             : SCF
Type of density    : Electron Density
Multiplicity       :   1
Irrep              :   0
Energy             :  -270.0104117585990480 Eh
Relativity type    :
Basis              : AO
                                X                 Y                 Z
Electronic contribution:     -5.449415470       0.000176692       0.000138200
Nuclear contribution   :      6.518075852      -0.000235629      -0.000048491
                        -----------------------------------------
Total Dipole Moment    :      1.068660381      -0.000058937       0.000089710
                        -----------------------------------------
Magnitude (a.u.)       :      1.068660387
Magnitude (Debye)      :      2.716318834

Rotational constants in cm-1:             0.225550             0.112585             0.081186
Rotational constants in MHz :          6761.815403          3375.208794          2433.887210

                             ****ORCA TERMINATED NORMALLY****
TOTAL RUN TIME: 0 days 0 hours 0 minutes 5 seconds 793 msec
