                         Program Version 6.0.0  -   RELEASE  -
|  1> ! wb97x-v def2-tzvp def2/J RIJCOSX DEFGRID2 scfconv7 GCP(DFT/TZ) printgap
|  2> %output
|  3>     printlevel normal
|  4> end
|  5> * xyz 0 1
|  6> C -1.8732223554275285 0.00599911135167983 6.664833991194704e-05
|  7> C -1.1719499331340186 -1.1992425203108692 0.00046325852067473914
|  8> C 0.21919905628904535 -1.2122242433283656 0.0004842895227043965
|  9> C 0.913618680796467 -0.0027356367779841897 0.0001153126077077474
| 10> C 0.22566581316280623 1.21069442969688 -0.0003004112373492552
| 11> C -1.166565489196591 1.2067947875383187 -0.00032508270531062694
| 12> O 2.2904159061976417 -0.06052072987100282 0.00019223901625003336
| 13> H -2.9579738434908953 0.008945078778664125 5.480465134327806e-05
| 14> H -1.7109986573068023 -2.141678403974089 0.0008099857047905107
| 15> H 0.771383098645069 -2.146469996921758 0.00081776284721449
| 16> H 0.7812065467803709 2.1446237189759554 -0.0006039853977853423
| 17> H -1.6990470697404039 2.1529795599886232 -0.0006523566470677505
| 18> H 2.640081133823128 0.841596795540239 -8.494264826926223e-05
| 19> *
| 20>
| 21>                          ****END OF INPUT****

CARTESIAN COORDINATES (ANGSTROEM)
---------------------------------
  C     -1.873222    0.005999    0.000067
  C     -1.171950   -1.199243    0.000463
  C      0.219199   -1.212224    0.000484
  C      0.913619   -0.002736    0.000115
  C      0.225666    1.210694   -0.000300
  C     -1.166565    1.206795   -0.000325
  O      2.290416   -0.060521    0.000192
  H     -2.957974    0.008945    0.000055
  H     -1.710999   -2.141678    0.000810
  H      0.771383   -2.146470    0.000818
  H      0.781207    2.144624   -0.000604
  H     -1.699047    2.152980   -0.000652
  H      2.640081    0.841597   -0.000085

 Total Charge           Charge          ....    0
 Multiplicity           Mult            ....    1
 Number of Electrons    NEL             ....   50
 Basis Dimension        Dim             ....  253

ORBITAL ENERGIES
----------------

  NO   OCC          E(Eh)            E(eV)
   0   2.0000     -21.704310      -590.6043
   1   2.0000     -12.115786      -329.6873
   2   2.0000     -12.058280      -328.1225
   3   2.0000     -12.056126      -328.0639
   4   2.0000     -12.053699      -327.9978
   5   2.0000     -12.048067      -327.8446
   6   2.0000     -12.046236      -327.7947
   7   2.0000      -1.717053       -46.7234
   8   2.0000      -1.385467       -37.7005
   9   2.0000      -1.281450       -34.8700
  10   2.0000      -1.278658       -34.7941
  11   2.0000      -1.155795       -31.4508
  12   2.0000      -1.118680       -30.4408
  13   2.0000      -1.061220       -28.8773
  14   2.0000      -1.004722       -27.3399
  15   2.0000      -0.952958       -25.9313
  16   2.0000      -0.948245       -25.8031
  17   2.0000      -0.939329       -25.5604
  18   2.0000      -0.901874       -24.5412
  19   2.0000      -0.879386       -23.9293
  20   2.0000      -0.832893       -22.6642
  21   2.0000      -0.811484       -22.0816
  22   2.0000      -0.769901       -20.9501
  23   2.0000      -0.643996       -17.5240
  24   2.0000      -0.637132       -17.3373
  25   0.0000      -0.245254        -6.6737
  26   0.0000      -0.240766        -6.5516
  27   0.0000      -0.145085        -3.9480
  28   0.0000      -0.069480        -1.8907
  29   0.0000      -0.069140        -1.8814

MULLIKEN ATOMIC CHARGES
-----------------------
   0 C :   -0.148667
   1 C :   -0.085304
   2 C :   -0.204907
   3 C :    0.260410
   4 C :   -0.208895
   5 C :   -0.120179
   6 O :   -0.391912
   7 H :    0.116441
   8 H :    0.119029
   9 H :    0.123514
  10 H :    0.108909
  11 H :    0.119637
  12 H :    0.311924
Sum of atomic charges:    0.0000000

LOEWDIN ATOMIC CHARGES
----------------------
   0 C :   -0.160078
   1 C :   -0.133329
   2 C :   -0.122342
   3 C :   -0.259226
   4 C :   -0.148205
   5 C :   -0.136842
   6 O :    0.062736
   7 H :    0.140118
   8 H :    0.143058
   9 H :    0.147483
  10 H :    0.139250
  11 H :    0.142709
  12 H :    0.184670

  Mayer bond orders larger than 0.100000
B(  0-C ,  1-C ) :   1.4234 B(  0-C ,  5-C ) :   1.4430 B(  0-C ,  7-H ) :   0.9722
B(  1-C ,  2-C ) :   1.4490 B(  1-C ,  8-H ) :   0.9721 B(  2-C ,  3-C ) :   1.4117
B(  2-C ,  9-H ) :   0.9707 B(  3-C ,  4-C ) :   1.3732 B(  3-C ,  6-O ) :   1.1368
B(  4-C ,  5-C ) :   1.4270 B(  4-C , 10-H ) :   0.9607 B(  5-C , 11-H ) :   0.9618
B(  6-O , 12-H ) :   0.8913

FINAL SINGLE POINT ENERGY      -307.485644056793

DIPOLE MOMENT
-------------

Method             : SCF
Type of density    : Electron Density
Multiplicity       :   1
Irrep              :   0
Energy             :  -307.4922321547928732 Eh
Relativity type    :
Basis              : AO
                                X                 Y                 Z
Electronic contribution:      1.974656469      -0.280692783       0.000094788
Nuclear contribution   :     -2.017852204       0.805325597      -0.000245093
                        -----------------------------------------
Total Dipole Moment    :     -0.043195735       0.524632814      -0.000150305
                        -----------------------------------------
Magnitude (a.u.)       :      0.526408096
Magnitude (Debye)      :      1.338023046

Rotational constants in cm-1:             0.188625             0.087321             0.059689
Rotational constants in MHz :          5654.838034          2617.809280          1789.425673

                             ****ORCA TERMINATED NORMALLY****
TOTAL RUN TIME: 0 days 0 hours 1 minutes 29 seconds 104 msec
