                         Program Version 6.0.0  -   RELEASE  -
|  1> ! wb97x-v def2-tzvp def2/J RIJCOSX DEFGRID2 scfconv7 GCP(DFT/TZ) printgap
|  2> %output
|  3>     printlevel normal
|  4> end
|  5> %cpcm
|  6>     smd true
|  7>     smdsolvent "water"
|  8> end
|  9> * xyz 0 1
| 10> C -1.8732223554275285 0.00599911135167983 6.664833991194704e-05
| 11> C -1.1719499331340186 -1.1992425203108692 0.00046325852067473914
| 12> C 0.21919905628904535 -1.2122242433283656 0.0004842895227043965
| 13> C 0.913618680796467 -0.0027356367779841897 0.0001153126077077474
| 14> C 0.22566581316280623 1.21069442969688 -0.0003004112373492552
| 15> C -1.166565489196591 1.2067947875383187 -0.00032508270531062694
| 16> O 2.2904159061976417 -0.06052072987100282 0.00019223901625003336
| 17> H -2.9579738434908953 0.008945078778664125 5.480465134327806e-05
| 18> H -1.7109986573068023 -2.141678403974089 0.0008099857047905107
| 19> H 0.771383098645069 -2.146469996921758 0.00081776284721449
| 20> H 0.7812065467803709 2.1446237189759554 -0.0006039853977853423
| 21> H -1.6990470697404039 2.1529795599886232 -0.0006523566470677505
| 22> H 2.640081133823128 0.841596795540239 -8.494264826926223e-05
| 23> *
| 24>
| 25>                          ****END OF INPUT****

CARTESIAN COORDINATES (ANGSTROEM)
---------------------------------
  C     -1.873222    0.005999    0.000067
  C     -1.171950   -1.199243    0.000463
  C      0.219199   -1.212224    0.000484
  C      0.913619   -0.002736    0.000115
  C      0.225666    1.210694   -0.000300
  C     -1.166565    1.206795   -0.000325
  O      2.290416   -0.060521    0.000192
  H     -2.957974    0.008945    0.000055
  H     -1.710999   -2.141678    0.000810
  H      0.771383   -2.146470    0.000818
  H      0.781207    2.144624   -0.000604
  H     -1.699047    2.152980   -0.000652
  H      2.640081    0.841597   -0.000085

 Total Charge           Charge          ....    0
 Multiplicity           Mult            ....    1
 Number of Electrons    NEL             ....   50
 Basis Dimension        Dim             ....  253

ORBITAL ENERGIES
----------------

  NO   OCC          E(Eh)            E(eV)
   0   2.0000     -21.701214      -590.5201
   1   2.0000     -12.114122      -329.6420
   2   2.0000     -12.053721      -327.9984
   3   2.0000     -12.053224      -327.9849
   4   2.0000     -12.048106      -327.8456
   5   2.0000     -12.046395      -327.7991
   6   2.0000     -12.043166      -327.7112
   7   2.0000      -1.714350       -46.6498
   8   2.0000      -1.384105       -37.6634
   9   2.0000      -1.279832       -34.8260
  10   2.0000      -1.275909       -34.7193
  11   2.0000      -1.152781       -31.3688
  12   2.0000      -1.115795       -30.3623
  13   2.0000      -1.058188       -28.7948
  14   2.0000      -1.004650       -27.3379
  15   2.0000      -0.948238       -25.8029
  16   2.0000      -0.948058       -25.7980
  17   2.0000      -0.937408       -25.5082
  18   2.0000      -0.896347       -24.3908
  19   2.0000      -0.874225       -23.7889
  20   2.0000      -0.828356       -22.5407
  21   2.0000      -0.806343       -21.9417
  22   2.0000      -0.769931       -20.9509
  23   2.0000      -0.642880       -17.4937
  24   2.0000      -0.637237       -17.3401
  25   0.0000      -0.244901        -6.6641
  26   0.0000      -0.239437        -6.5154
  27   0.0000      -0.141412        -3.8480
  28   0.0000      -0.067950        -1.8490
  29   0.0000      -0.036026        -0.9803

MULLIKEN ATOMIC CHARGES
-----------------------
   0 C :   -0.200709
   1 C :   -0.134785
   2 C :   -0.256875
   3 C :    0.274986
   4 C :   -0.259344
   5 C :   -0.145522
   6 O :   -0.470649
   7 H :    0.160364
   8 H :    0.162313
   9 H :    0.156830
  10 H :    0.170332
  11 H :    0.164772
  12 H :    0.378287
Sum of atomic charges:    0.0000000

LOEWDIN ATOMIC CHARGES
----------------------
   0 C :   -0.172015
   1 C :   -0.144661
   2 C :   -0.137735
   3 C :   -0.269821
   4 C :   -0.142864
   5 C :   -0.144819
   6 O :    0.037417
   7 H :    0.148836
   8 H :    0.152516
   9 H :    0.153967
  10 H :    0.156182
  11 H :    0.152705
  12 H :    0.210292

  Mayer bond orders larger than 0.100000
B(  0-C ,  1-C ) :   1.4055 B(  0-C ,  5-C ) :   1.4084 B(  0-C ,  7-H ) :   0.9747
B(  1-C ,  2-C ) :   1.4355 B(  1-C ,  8-H ) :   0.9727 B(  2-C ,  3-C ) :   1.3814
B(  2-C ,  9-H ) :   0.9777 B(  3-C ,  4-C ) :   1.3708 B(  3-C ,  6-O ) :   1.0979
B(  4-C ,  5-C ) :   1.3853 B(  4-C , 10-H ) :   0.9678 B(  5-C , 11-H ) :   0.9637
B(  6-O , 12-H ) :   0.8495

FINAL SINGLE POINT ENERGY      -307.495207873781

DIPOLE MOMENT
-------------

Method             : SCF
Type of density    : Electron Density
Multiplicity       :   1
Irrep              :   0
Energy             :  -307.5017959717808935 Eh
Relativity type    :
Basis              : AO
                                X                 Y                 Z
Electronic contribution:      1.972074172      -0.022100442       0.000018296
Nuclear contribution   :     -2.017852204       0.805325597      -0.000245093
                        -----------------------------------------
Total Dipole Moment    :     -0.045778032       0.783225155      -0.000226797
                        -----------------------------------------
Magnitude (a.u.)       :      0.784561867
Magnitude (Debye)      :      1.994197785

Rotational constants in cm-1:             0.188625             0.087321             0.059689
Rotational constants in MHz :          5654.838034          2617.809280          1789.425673

                             ****ORCA TERMINATED NORMALLY****
TOTAL RUN TIME: 0 days 0 hours 1 minutes 31 seconds 889 msec
