                         Program Version 6.0.0  -   RELEASE  -
|  1> ! pbe def2-sv(p) def2/J RI DEFGRID1 loosescf d4 GCP(DFT/SV(P)) printgap
|  2> %output
|  3>     printlevel normal
|  4> end
|  5> * xyz 0 1
|  6> C 3.2933104273 1.3143318489 -2.0982744855
|  7> C 2.1719512176 0.3495028248 -1.7781310049
|  8> O 1.5879227141 0.6620754663 -0.4842980637
|  9> P 2.0079089073 -0.0677433535 0.8452242758
| 10> S 1.3933196482 0.84845281 2.459323631
| 11> O 3.5873237558 -0.1752071024 0.7276815503
| 12> C 4.3678464986 -0.7561433288 1.7923350583
| 13> C 5.8213131053 -0.4075113868 1.5446708346
| 14> S 1.4483902978 -2.1259848769 0.5801868492
| 15> C -0.2226915879 -1.9286411538 -0.081829295
| 16> S -1.2719957256 -0.851060843 0.957896157
| 17> P -2.3629468701 0.0405196498 -0.6096340652
| 18> S -1.4351960867 0.4008299009 -2.3014847403
| 19> O -3.0830456836 1.2895234955 0.0552941705
| 20> C -2.5406834766 2.6200624629 0.0044823914
| 21> C -1.2601719673 2.7492129654 0.80136496
| 22> O -3.5324931951 -1.0227657276 -0.7083114263
| 23> C -4.4018258169 -1.1184020105 -1.8574031383
| 24> C -5.3105383739 0.0860615869 -1.9836927972
| 25> H 3.6669672453 1.101155248 -3.0948599127
| 26> H 2.9256663135 2.3361024113 -2.0642823481
| 27> H 4.0999024465 1.2055125173 -1.3782881252
| 28> H 2.5294326502 -0.6831607498 -1.7667498543
| 29> H 1.3438161538 0.4516745524 -2.4838236581
| 30> H 4.0116933027 -0.3506868541 2.7449898446
| 31> H 4.2060813308 -1.8376521555 1.7811326259
| 32> H 5.9526033106 0.6708596732 1.5510013695
| 33> H 6.4297634537 -0.8460016596 2.328578405
| 34> H 6.1389441963 -0.7979445599 0.582262912
| 35> H -0.6472490394 -2.9297417044 -0.1050231919
| 36> H -0.174017898 -1.4961573649 -1.0841468878
| 37> H -2.3654058698 2.8830072594 -1.0439476818
| 38> H -3.3351743675 3.2424000183 0.4182312896
| 39> H -0.9491228746 3.7885235475 0.8275451803
| 40> H -1.3995875269 2.3935624805 1.8200448135
| 41> H -0.4651073459 2.161230673 0.3412807213
| 42> H -3.7799801561 -1.2294386292 -2.7514559592
| 43> H -4.9657214539 -2.0346256378 -1.6789866896
| 44> H -5.8482389772 0.2499715338 -1.0534484766
| 45> H -4.7226696858 0.974520925 -2.2109314709
| 46> H -6.0201914779 -0.0815095024 -2.7878888135
| 47> *
| 48>
| 49>                          ****END OF INPUT****

CARTESIAN COORDINATES (ANGSTROEM)
---------------------------------
  C      3.293310    1.314332   -2.098274
  C      2.171951    0.349503   -1.778131
  O      1.587923    0.662075   -0.484298
  P      2.007909   -0.067743    0.845224
  S      1.393320    0.848453    2.459324
  O      3.587324   -0.175207    0.727682
  C      4.367846   -0.756143    1.792335
  C      5.821313   -0.407511    1.544671
  S      1.448390   -2.125985    0.580187
  C     -0.222692   -1.928641   -0.081829
  S     -1.271996   -0.851061    0.957896
  P     -2.362947    0.040520   -0.609634
  S     -1.435196    0.400830   -2.301485
  O     -3.083046    1.289523    0.055294
  C     -2.540683    2.620062    0.004482
  C     -1.260172    2.749213    0.801365
  O     -3.532493   -1.022766   -0.708311
  C     -4.401826   -1.118402   -1.857403
  C     -5.310538    0.086062   -1.983693
  H      3.666967    1.101155   -3.094860
  H      2.925666    2.336102   -2.064282
  H      4.099902    1.205513   -1.378288
  H      2.529433   -0.683161   -1.766750
  H      1.343816    0.451675   -2.483824
  H      4.011693   -0.350687    2.744990
  H      4.206081   -1.837652    1.781133
  H      5.952603    0.670860    1.551001
  H      6.429763   -0.846002    2.328578
  H      6.138944   -0.797945    0.582263
  H     -0.647249   -2.929742   -0.105023
  H     -0.174018   -1.496157   -1.084147
  H     -2.365406    2.883007   -1.043948
  H     -3.335174    3.242400    0.418231
  H     -0.949123    3.788524    0.827545
  H     -1.399588    2.393562    1.820045
  H     -0.465107    2.161231    0.341281
  H     -3.779980   -1.229439   -2.751456
  H     -4.965721   -2.034626   -1.678987
  H     -5.848239    0.249972   -1.053448
  H     -4.722670    0.974521   -2.210931
  H     -6.020191   -0.081510   -2.787889

 Total Charge           Charge          ....    0
 Multiplicity           Mult            ....    1
 Number of Electrons    NEL             ....  202
 Basis Dimension        Dim             ....  334

ORBITAL ENERGIES
----------------

  NO   OCC          E(Eh)            E(eV)
   0   2.0000     -88.040528     -2395.7046
   1   2.0000     -88.039054     -2395.6644
   2   2.0000     -87.992165     -2394.3885
   3   2.0000     -87.978320     -2394.0118
   4   2.0000     -76.426721     -2079.6768
   5   2.0000     -76.424692     -2079.6216
   6   2.0000     -18.794732      -511.4306
   7   2.0000     -18.793815      -511.4057
   8   2.0000     -18.793688      -511.4022
   9   2.0000     -18.788672      -511.2658
  10   2.0000      -9.955919      -270.9143
  11   2.0000      -9.955536      -270.9039
  12   2.0000      -9.951653      -270.7982
  13   2.0000      -9.950614      -270.7700
  14   2.0000      -9.947578      -270.6874
  15   2.0000      -9.891103      -269.1506
  16   2.0000      -9.884871      -268.9810
  17   2.0000      -9.883352      -268.9397
  18   2.0000      -9.869522      -268.5633
  19   2.0000      -7.685700      -209.1385
  20   2.0000      -7.684068      -209.0941
  21   2.0000      -7.636955      -207.8121
  22   2.0000      -7.623605      -207.4488
  23   2.0000      -6.424484      -174.8191
  24   2.0000      -6.422030      -174.7523
  25   2.0000      -5.713616      -155.4754
  26   2.0000      -5.711993      -155.4312
  27   2.0000      -5.710182      -155.3819
  28   2.0000      -5.708808      -155.3446
  29   2.0000      -5.702701      -155.1784
  30   2.0000      -5.700719      -155.1245
  31   2.0000      -5.665581      -154.1683
  32   2.0000      -5.657812      -153.9569
  33   2.0000      -5.657154      -153.9390
  34   2.0000      -5.652689      -153.8175
  35   2.0000      -5.644152      -153.5852
  36   2.0000      -5.643633      -153.5711
  37   2.0000      -4.646915      -126.4490
  38   2.0000      -4.646109      -126.4271
  39   2.0000      -4.645203      -126.4024
  40   2.0000      -4.645193      -126.4021
  41   2.0000      -4.643961      -126.3686
  42   2.0000      -4.641788      -126.3095
  43   2.0000      -0.990188       -26.9444
  44   2.0000      -0.986220       -26.8364
  45   2.0000      -0.947284       -25.7769
  46   2.0000      -0.945550       -25.7297
  47   2.0000      -0.760130       -20.6842
  48   2.0000      -0.720860       -19.6156
  49   2.0000      -0.708998       -19.2928
  50   2.0000      -0.692896       -18.8547
  51   2.0000      -0.682896       -18.5825
  52   2.0000      -0.671867       -18.2824
  53   2.0000      -0.648706       -17.6522
  54   2.0000      -0.638045       -17.3621
  55   2.0000      -0.598584       -16.2883
  56   2.0000      -0.586169       -15.9505
  57   2.0000      -0.570071       -15.5124
  58   2.0000      -0.569676       -15.5017
  59   2.0000      -0.561848       -15.2886
  60   2.0000      -0.508932       -13.8488
  61   2.0000      -0.492040       -13.3891
  62   2.0000      -0.482134       -13.1195
  63   2.0000      -0.470828       -12.8119
  64   2.0000      -0.449782       -12.2392
  65   2.0000      -0.445144       -12.1130
  66   2.0000      -0.442545       -12.0423
  67   2.0000      -0.436136       -11.8679
  68   2.0000      -0.430526       -11.7152
  69   2.0000      -0.417663       -11.3652
  70   2.0000      -0.405667       -11.0388
  71   2.0000      -0.393891       -10.7183
  72   2.0000      -0.391616       -10.6564
  73   2.0000      -0.386826       -10.5261
  74   2.0000      -0.381387       -10.3781
  75   2.0000      -0.381180       -10.3724
  76   2.0000      -0.361998        -9.8505
  77   2.0000      -0.355864        -9.6835
  78   2.0000      -0.354361        -9.6426
  79   2.0000      -0.350323        -9.5328
  80   2.0000      -0.344977        -9.3873
  81   2.0000      -0.343716        -9.3530
  82   2.0000      -0.338129        -9.2010
  83   2.0000      -0.334965        -9.1149
  84   2.0000      -0.328645        -8.9429
  85   2.0000      -0.319158        -8.6847
  86   2.0000      -0.311289        -8.4706
  87   2.0000      -0.302573        -8.2334
  88   2.0000      -0.296657        -8.0724
  89   2.0000      -0.288157        -7.8412
  90   2.0000      -0.282911        -7.6984
  91   2.0000      -0.273880        -7.4526
  92   2.0000      -0.271364        -7.3842
  93   2.0000      -0.264521        -7.1980
  94   2.0000      -0.256521        -6.9803
  95   2.0000      -0.239985        -6.5303
  96   2.0000      -0.221246        -6.0204
  97   2.0000      -0.211186        -5.7467
  98   2.0000      -0.208754        -5.6805
  99   2.0000      -0.192742        -5.2448
 100   2.0000      -0.185946        -5.0599
 101   0.0000      -0.045411        -1.2357
 102   0.0000      -0.031916        -0.8685
 103   0.0000      -0.014407        -0.3920
 104   0.0000       0.007738         0.2106
 105   0.0000       0.024342         0.6624

MULLIKEN ATOMIC CHARGES
-----------------------
   0 C :   -0.284654
   1 C :   -0.030369
   2 O :   -0.351411
   3 P :    0.601235
   4 S :   -0.295315
   5 O :   -0.381742
   6 C :   -0.017018
   7 C :   -0.282425
   8 S :   -0.123426
   9 C :   -0.346572
  10 S :   -0.055898
  11 P :    0.616316
  12 S :   -0.344271
  13 O :   -0.370637
  14 C :   -0.002788
  15 C :   -0.336282
  16 O :   -0.366576
  17 C :   -0.003706
  18 C :   -0.308235
  19 H :    0.108619
  20 H :    0.119904
  21 H :    0.120704
  22 H :    0.100175
  23 H :    0.126481
  24 H :    0.108728
  25 H :    0.106526
  26 H :    0.123781
  27 H :    0.114228
  28 H :    0.116479
  29 H :    0.183741
  30 H :    0.193346
  31 H :    0.106383
  32 H :    0.103380
  33 H :    0.107596
  34 H :    0.124631
  35 H :    0.150787
  36 H :    0.108376
  37 H :    0.105613
  38 H :    0.120155
  39 H :    0.122222
  40 H :    0.111919
Sum of atomic charges:    0.0000000

LOEWDIN ATOMIC CHARGES
----------------------
   0 C :   -0.358047
   1 C :   -0.120584
   2 O :   -0.226916
   3 P :    0.565791
   4 S :   -0.300149
   5 O :   -0.249493
   6 C :   -0.121246
   7 C :   -0.350478
   8 S :    0.050497
   9 C :   -0.477034
  10 S :    0.106448
  11 P :    0.576874
  12 S :   -0.314929
  13 O :   -0.238858
  14 C :   -0.119371
  15 C :   -0.373962
  16 O :   -0.245599
  17 C :   -0.117741
  18 C :   -0.364221
  19 H :    0.129788
  20 H :    0.128966
  21 H :    0.124512
  22 H :    0.105695
  23 H :    0.114306
  24 H :    0.110676
  25 H :    0.109305
  26 H :    0.129990
  27 H :    0.132091
  28 H :    0.126153
  29 H :    0.135629
  30 H :    0.117889
  31 H :    0.108424
  32 H :    0.117909
  33 H :    0.130230
  34 H :    0.125832
  35 H :    0.122305
  36 H :    0.109099
  37 H :    0.119187
  38 H :    0.128051
  39 H :    0.122764
  40 H :    0.130215

  Mayer bond orders larger than 0.100000
B(  0-C ,  1-C ) :   1.1690 B(  0-C , 19-H ) :   0.9396 B(  0-C , 20-H ) :   0.9470
B(  0-C , 21-H ) :   0.9417 B(  1-C ,  2-O ) :   0.8833 B(  1-C , 22-H ) :   0.9114
B(  1-C , 23-H ) :   0.9141 B(  2-O ,  3-P ) :   1.1267 B(  3-P ,  4-S ) :   1.6811
B(  3-P ,  5-O ) :   1.0664 B(  3-P ,  8-S ) :   0.9371 B(  4-S ,  8-S ) :   0.1102
B(  5-O ,  6-C ) :   0.9078 B(  6-C ,  7-C ) :   1.1611 B(  6-C , 24-H ) :   0.9078
B(  6-C , 25-H ) :   0.9272 B(  7-C , 26-H ) :   0.9507 B(  7-C , 27-H ) :   0.9415
B(  7-C , 28-H ) :   0.9508 B(  8-S ,  9-C ) :   1.0091 B(  9-C , 10-S ) :   0.9927
B(  9-C , 29-H ) :   0.9111 B(  9-C , 30-H ) :   0.8594 B( 10-S , 11-P ) :   0.9841
B( 10-S , 12-S ) :   0.1136 B( 11-P , 12-S ) :   1.5604 B( 11-P , 13-O ) :   1.1239
B( 11-P , 16-O ) :   1.1258 B( 13-O , 14-C ) :   0.8974 B( 14-C , 15-C ) :   1.1597
B( 14-C , 31-H ) :   0.9178 B( 14-C , 32-H ) :   0.9322 B( 15-C , 33-H ) :   0.9374
B( 15-C , 34-H ) :   0.9418 B( 15-C , 35-H ) :   0.9243 B( 16-O , 17-C ) :   0.9108
B( 17-C , 18-C ) :   1.1640 B( 17-C , 36-H ) :   0.9167 B( 17-C , 37-H ) :   0.9350
B( 18-C , 38-H ) :   0.9460 B( 18-C , 39-H ) :   0.9385 B( 18-C , 40-H ) :   0.9386

Dispersion correction           -0.065040890
FINAL SINGLE POINT ENERGY     -2929.516877675612

DIPOLE MOMENT
-------------

Method             : SCF
Type of density    : Electron Density
Multiplicity       :   1
Irrep              :   0
Energy             : -2929.6374378265486484 Eh
Relativity type    :
Basis              : AO
                                X                 Y                 Z
Electronic contribution:     -6.266382274      -9.005714108       9.777533262
Nuclear contribution   :      6.514337462       8.690038215     -10.687590946
                        -----------------------------------------
Total Dipole Moment    :      0.247955187      -0.315675893      -0.910057683
                        -----------------------------------------
Magnitude (a.u.)       :      0.994654730
Magnitude (Debye)      :      2.528211403

Rotational constants in cm-1:             0.014621             0.004459             0.004452
Rotational constants in MHz :           438.312478           133.688667           133.470010

                             ****ORCA TERMINATED NORMALLY****
TOTAL RUN TIME: 0 days 0 hours 0 minutes 21 seconds 12 msec
