                         Program Version 6.0.0  -   RELEASE  -
|  1> ! pbe def2-sv(p) def2/J RI DEFGRID1 loosescf d4 GCP(DFT/SV(P)) printgap
|  2> %output
|  3>     printlevel normal
|  4> end
|  5> * xyz 0 1
|  6> C 4.6580665101 -1.3701821022 -1.4335010875
|  7> C 4.2880717994 0.0944825461 -1.3032430212
|  8> O 3.4584546422 0.3178600022 -0.14476407
|  9> P 1.8916145414 0.5724986861 -0.260827466
| 10> S 1.4027342006 1.9897811195 -1.5135356514
| 11> O 1.5146323783 0.9064790456 1.227861657
| 12> C 2.0207125177 0.1649456144 2.3667161047
| 13> C 3.2124199028 0.8714416008 2.9763963593
| 14> S 1.1399183998 -1.3662907133 -0.7542338317
| 15> C -0.1168157788 -0.92641618 -1.9845004826
| 16> S -1.830103327 -1.2725918289 -1.4951471431
| 17> P -1.907302059 -0.2997220012 0.4042060998
| 18> S -1.0561540595 -1.1673786117 1.9356706035
| 19> O -3.4621330086 -0.0164191869 0.5586136692
| 20> C -4.5041393388 -0.9858981614 0.3325237919
| 21> C -4.3043923895 -2.2637154316 1.1191895409
| 22> O -1.3102783425 1.1462046949 0.1796255996
| 23> C -1.9762775251 2.1539777125 -0.6260284754
| 24> C -2.7453673826 3.1087527463 0.2616301023
| 25> H 3.7717878674 -1.9790396423 -1.5937509669
| 26> H 5.3293965667 -1.4889483234 -2.2778010136
| 27> H 5.1563868099 -1.7094005567 -0.5298114048
| 28> H 3.7646245808 0.459334926 -2.1925798647
| 29> H 5.1741775041 0.7097919543 -1.1347376325
| 30> H 1.1787000189 0.1214068616 3.060303716
| 31> H 2.270708377 -0.8502442122 2.0488871334
| 32> H 3.5164959255 0.3361239101 3.8703690322
| 33> H 4.0394191067 0.8969234539 2.2718973965
| 34> H 2.9429920877 1.8902308379 3.2413912846
| 35> H 0.0528023652 -1.5454502485 -2.8625062937
| 36> H -0.0038014361 0.1350149937 -2.2253222353
| 37> H -5.4102511245 -0.4632011766 0.6438421172
| 38> H -4.5453007145 -1.1966570174 -0.7398880855
| 39> H -5.1577749936 -2.9164561731 0.9665863749
| 40> H -3.4024580857 -2.7742889937 0.7836156646
| 41> H -4.2005392077 -2.0459430042 2.1796101087
| 42> H -1.1691586725 2.6648995278 -1.1559018629
| 43> H -2.6349202157 1.6591461837 -1.3441839454
| 44> H -3.1888653297 3.8843157384 -0.3548256715
| 45> H -3.5284025933 2.5778912449 0.7972673204
| 46> H -2.0729096994 3.5641741904 0.9837330956
| 47> *
| 48>
| 49>                          ****END OF INPUT****

CARTESIAN COORDINATES (ANGSTROEM)
---------------------------------
  C      4.658067   -1.370182   -1.433501
  C      4.288072    0.094483   -1.303243
  O      3.458455    0.317860   -0.144764
  P      1.891615    0.572499   -0.260827
  S      1.402734    1.989781   -1.513536
  O      1.514632    0.906479    1.227862
  C      2.020713    0.164946    2.366716
  C      3.212420    0.871442    2.976396
  S      1.139918   -1.366291   -0.754234
  C     -0.116816   -0.926416   -1.984500
  S     -1.830103   -1.272592   -1.495147
  P     -1.907302   -0.299722    0.404206
  S     -1.056154   -1.167379    1.935671
  O     -3.462133   -0.016419    0.558614
  C     -4.504139   -0.985898    0.332524
  C     -4.304392   -2.263715    1.119190
  O     -1.310278    1.146205    0.179626
  C     -1.976278    2.153978   -0.626028
  C     -2.745367    3.108753    0.261630
  H      3.771788   -1.979040   -1.593751
  H      5.329397   -1.488948   -2.277801
  H      5.156387   -1.709401   -0.529811
  H      3.764625    0.459335   -2.192580
  H      5.174178    0.709792   -1.134738
  H      1.178700    0.121407    3.060304
  H      2.270708   -0.850244    2.048887
  H      3.516496    0.336124    3.870369
  H      4.039419    0.896923    2.271897
  H      2.942992    1.890231    3.241391
  H      0.052802   -1.545450   -2.862506
  H     -0.003801    0.135015   -2.225322
  H     -5.410251   -0.463201    0.643842
  H     -4.545301   -1.196657   -0.739888
  H     -5.157775   -2.916456    0.966586
  H     -3.402458   -2.774289    0.783616
  H     -4.200539   -2.045943    2.179610
  H     -1.169159    2.664900   -1.155902
  H     -2.634920    1.659146   -1.344184
  H     -3.188865    3.884316   -0.354826
  H     -3.528403    2.577891    0.797267
  H     -2.072910    3.564174    0.983733

 Total Charge           Charge          ....    0
 Multiplicity           Mult            ....    1
 Number of Electrons    NEL             ....  202
 Basis Dimension        Dim             ....  334

ORBITAL ENERGIES
----------------

  NO   OCC          E(Eh)            E(eV)
   0   2.0000     -88.042013     -2395.7450
   1   2.0000     -88.040204     -2395.6957
   2   2.0000     -87.987006     -2394.2482
   3   2.0000     -87.975920     -2393.9465
   4   2.0000     -76.425012     -2079.6303
   5   2.0000     -76.422900     -2079.5728
   6   2.0000     -18.793325      -511.3924
   7   2.0000     -18.792044      -511.3575
   8   2.0000     -18.785395      -511.1766
   9   2.0000     -18.784883      -511.1627
  10   2.0000      -9.959499      -271.0117
  11   2.0000      -9.955649      -270.9070
  12   2.0000      -9.953750      -270.8553
  13   2.0000      -9.945481      -270.6303
  14   2.0000      -9.942415      -270.5469
  15   2.0000      -9.885271      -268.9919
  16   2.0000      -9.883079      -268.9322
  17   2.0000      -9.878876      -268.8179
  18   2.0000      -9.877590      -268.7829
  19   2.0000      -7.686457      -209.1591
  20   2.0000      -7.685377      -209.1297
  21   2.0000      -7.632160      -207.6816
  22   2.0000      -7.621153      -207.3821
  23   2.0000      -6.422614      -174.7682
  24   2.0000      -6.420020      -174.6976
  25   2.0000      -5.714271      -155.4932
  26   2.0000      -5.713186      -155.4637
  27   2.0000      -5.710972      -155.4034
  28   2.0000      -5.709780      -155.3710
  29   2.0000      -5.703525      -155.2008
  30   2.0000      -5.702543      -155.1741
  31   2.0000      -5.661018      -154.0441
  32   2.0000      -5.652657      -153.8166
  33   2.0000      -5.652378      -153.8090
  34   2.0000      -5.650297      -153.7524
  35   2.0000      -5.641505      -153.5132
  36   2.0000      -5.641287      -153.5072
  37   2.0000      -4.645406      -126.4079
  38   2.0000      -4.644196      -126.3750
  39   2.0000      -4.643165      -126.3469
  40   2.0000      -4.643050      -126.3438
  41   2.0000      -4.642131      -126.3188
  42   2.0000      -4.639708      -126.2529
  43   2.0000      -0.986465       -26.8431
  44   2.0000      -0.984941       -26.8016
  45   2.0000      -0.941470       -25.6187
  46   2.0000      -0.940054       -25.5802
  47   2.0000      -0.759555       -20.6685
  48   2.0000      -0.717373       -19.5207
  49   2.0000      -0.707522       -19.2527
  50   2.0000      -0.688595       -18.7376
  51   2.0000      -0.687928       -18.7195
  52   2.0000      -0.672400       -18.2969
  53   2.0000      -0.647212       -17.6115
  54   2.0000      -0.637558       -17.3488
  55   2.0000      -0.593284       -16.1441
  56   2.0000      -0.585000       -15.9187
  57   2.0000      -0.569202       -15.4888
  58   2.0000      -0.567165       -15.4333
  59   2.0000      -0.565000       -15.3744
  60   2.0000      -0.504861       -13.7380
  61   2.0000      -0.496878       -13.5208
  62   2.0000      -0.476808       -12.9746
  63   2.0000      -0.470117       -12.7925
  64   2.0000      -0.452661       -12.3175
  65   2.0000      -0.450737       -12.2652
  66   2.0000      -0.436206       -11.8698
  67   2.0000      -0.429138       -11.6774
  68   2.0000      -0.427282       -11.6269
  69   2.0000      -0.418266       -11.3816
  70   2.0000      -0.407862       -11.0985
  71   2.0000      -0.394017       -10.7217
  72   2.0000      -0.387283       -10.5385
  73   2.0000      -0.386577       -10.5193
  74   2.0000      -0.381386       -10.3781
  75   2.0000      -0.368046       -10.0150
  76   2.0000      -0.356224        -9.6933
  77   2.0000      -0.354600        -9.6492
  78   2.0000      -0.351982        -9.5779
  79   2.0000      -0.349707        -9.5160
  80   2.0000      -0.345559        -9.4031
  81   2.0000      -0.343593        -9.3497
  82   2.0000      -0.338987        -9.2243
  83   2.0000      -0.335606        -9.1323
  84   2.0000      -0.329704        -8.9717
  85   2.0000      -0.317869        -8.6497
  86   2.0000      -0.313819        -8.5395
  87   2.0000      -0.295748        -8.0477
  88   2.0000      -0.294102        -8.0029
  89   2.0000      -0.290555        -7.9064
  90   2.0000      -0.285182        -7.7602
  91   2.0000      -0.273675        -7.4471
  92   2.0000      -0.268033        -7.2936
  93   2.0000      -0.258783        -7.0418
  94   2.0000      -0.253929        -6.9098
  95   2.0000      -0.239791        -6.5250
  96   2.0000      -0.223176        -6.0729
  97   2.0000      -0.205983        -5.6051
  98   2.0000      -0.202720        -5.5163
  99   2.0000      -0.190556        -5.1853
 100   2.0000      -0.182946        -4.9782
 101   0.0000      -0.045539        -1.2392
 102   0.0000      -0.030804        -0.8382
 103   0.0000      -0.016641        -0.4528
 104   0.0000       0.003893         0.1059
 105   0.0000       0.015421         0.4196

MULLIKEN ATOMIC CHARGES
-----------------------
   0 C :   -0.296371
   1 C :   -0.002672
   2 O :   -0.384160
   3 P :    0.625453
   4 S :   -0.314848
   5 O :   -0.343852
   6 C :   -0.017798
   7 C :   -0.280503
   8 S :   -0.097147
   9 C :   -0.335042
  10 S :   -0.132676
  11 P :    0.595452
  12 S :   -0.302276
  13 O :   -0.379544
  14 C :   -0.014898
  15 C :   -0.310821
  16 O :   -0.349529
  17 C :   -0.020342
  18 C :   -0.286378
  19 H :    0.123584
  20 H :    0.109780
  21 H :    0.112833
  22 H :    0.099904
  23 H :    0.108836
  24 H :    0.122779
  25 H :    0.100574
  26 H :    0.107494
  27 H :    0.117034
  28 H :    0.118023
  29 H :    0.178893
  30 H :    0.195570
  31 H :    0.110479
  32 H :    0.115233
  33 H :    0.111156
  34 H :    0.129521
  35 H :    0.128527
  36 H :    0.122537
  37 H :    0.091047
  38 H :    0.105933
  39 H :    0.116125
  40 H :    0.122090
Sum of atomic charges:   -0.0000000

LOEWDIN ATOMIC CHARGES
----------------------
   0 C :   -0.364650
   1 C :   -0.117707
   2 O :   -0.248146
   3 P :    0.577257
   4 S :   -0.290604
   5 O :   -0.220841
   6 C :   -0.116606
   7 C :   -0.359533
   8 S :    0.084806
   9 C :   -0.482372
  10 S :    0.047516
  11 P :    0.564228
  12 S :   -0.299673
  13 O :   -0.245141
  14 C :   -0.115874
  15 C :   -0.370555
  16 O :   -0.229971
  17 C :   -0.124273
  18 C :   -0.357194
  19 H :    0.118040
  20 H :    0.129972
  21 H :    0.125073
  22 H :    0.106436
  23 H :    0.120267
  24 H :    0.117854
  25 H :    0.106454
  26 H :    0.128919
  27 H :    0.123472
  28 H :    0.128321
  29 H :    0.137741
  30 H :    0.119469
  31 H :    0.121853
  32 H :    0.107617
  33 H :    0.129960
  34 H :    0.122531
  35 H :    0.131009
  36 H :    0.111092
  37 H :    0.101922
  38 H :    0.128113
  39 H :    0.123256
  40 H :    0.129963

  Mayer bond orders larger than 0.100000
B(  0-C ,  1-C ) :   1.1642 B(  0-C , 19-H ) :   0.9333 B(  0-C , 20-H ) :   0.9400
B(  0-C , 21-H ) :   0.9478 B(  1-C ,  2-O ) :   0.9005 B(  1-C , 22-H ) :   0.9059
B(  1-C , 23-H ) :   0.9356 B(  2-O ,  3-P ) :   1.0724 B(  3-P ,  4-S ) :   1.6044
B(  3-P ,  5-O ) :   1.1667 B(  3-P ,  8-S ) :   0.9473 B(  4-S ,  8-S ) :   0.1178
B(  4-S , 30-H ) :   0.1274 B(  5-O ,  6-C ) :   0.8829 B(  6-C ,  7-C ) :   1.1591
B(  6-C , 24-H ) :   0.9196 B(  6-C , 25-H ) :   0.9230 B(  7-C , 26-H ) :   0.9401
B(  7-C , 27-H ) :   0.9417 B(  7-C , 28-H ) :   0.9468 B(  8-S ,  9-C ) :   1.0207
B(  9-C , 10-S ) :   0.9843 B(  9-C , 29-H ) :   0.9124 B(  9-C , 30-H ) :   0.8463
B( 10-S , 11-P ) :   0.9441 B( 10-S , 12-S ) :   0.1112 B( 11-P , 12-S ) :   1.6699
B( 11-P , 13-O ) :   1.0672 B( 11-P , 16-O ) :   1.1286 B( 13-O , 14-C ) :   0.9159
B( 14-C , 15-C ) :   1.1676 B( 14-C , 31-H ) :   0.9332 B( 14-C , 32-H ) :   0.9234
B( 15-C , 33-H ) :   0.9341 B( 15-C , 34-H ) :   0.9324 B( 15-C , 35-H ) :   0.9415
B( 16-O , 17-C ) :   0.8888 B( 17-C , 18-C ) :   1.1685 B( 17-C , 36-H ) :   0.9071
B( 17-C , 37-H ) :   0.9144 B( 18-C , 38-H ) :   0.9406 B( 18-C , 39-H ) :   0.9444
B( 18-C , 40-H ) :   0.9468

Dispersion correction           -0.067765341
FINAL SINGLE POINT ENERGY     -2929.511291030103

DIPOLE MOMENT
-------------

Method             : SCF
Type of density    : Electron Density
Multiplicity       :   1
Irrep              :   0
Energy             : -2929.6305399808702532 Eh
Relativity type    :
Basis              : AO
                                X                 Y                 Z
Electronic contribution:     -1.889672105      -1.964043763      -4.621720508
Nuclear contribution   :      1.793615142       1.654038894       4.113670879
                        -----------------------------------------
Total Dipole Moment    :     -0.096056962      -0.310004870      -0.508049629
                        -----------------------------------------
Magnitude (a.u.)       :      0.602863488
Magnitude (Debye)      :      1.532357207

Rotational constants in cm-1:             0.012431             0.005289             0.005273
Rotational constants in MHz :           372.676259           158.553328           158.090585

                             ****ORCA TERMINATED NORMALLY****
TOTAL RUN TIME: 0 days 0 hours 0 minutes 21 seconds 889 msec
