                         Program Version 6.0.0  -   RELEASE  -
|  1> ! pbe def2-sv(p) def2/J RI DEFGRID1 loosescf d4 GCP(DFT/SV(P)) printgap
|  2> %output
|  3>     printlevel normal
|  4> end
|  5> * xyz 0 1
|  6> C 3.3445762463 0.2253979704 -2.5358482591
|  7> C 1.944317734 0.6212582269 -2.1213935701
|  8> O 1.3457812335 -0.3579867956 -1.2514248402
|  9> P 1.8969967428 -0.6463446594 0.2030890501
| 10> S 2.6046109354 0.872571589 1.2290001936
| 11> O 2.9248588725 -1.8217386128 -0.1058416338
| 12> C 3.7072608466 -2.4524948485 0.9273123211
| 13> C 5.0842592923 -1.8243625618 1.0233015312
| 14> S 0.3227862919 -1.7166689708 1.0917465767
| 15> C -0.4981470996 -0.4128556648 2.0695453731
| 16> S -2.2126332339 -0.1472674175 1.5717034312
| 17> P -1.8461318013 0.8576500595 -0.2667733721
| 18> S -0.4393653428 2.2160970547 -0.18038081
| 19> O -3.290921451 1.3997949968 -0.6406647812
| 20> C -3.902871443 2.4714814985 0.1075521196
| 21> C -5.0555761496 3.0112830498 -0.7140446276
| 22> O -1.5902681506 -0.2026875916 -1.3996521227
| 23> C -2.555518184 -1.2050864946 -1.8237836335
| 24> C -2.2192487374 -2.5615376719 -1.2388678797
| 25> H 3.9996586349 0.2313102787 -1.6653714084
| 26> H 3.3397343974 -0.7719630095 -2.9677497046
| 27> H 3.7178300687 0.9382211827 -3.2644916809
| 28> H 1.2589843063 0.6660769642 -2.9693802051
| 29> H 1.9452666826 1.588195291 -1.6064509015
| 30> H 3.1761764014 -2.3768982185 1.8804979787
| 31> H 3.7670743678 -3.4998877307 0.6260071955
| 32> H 5.6673626702 -2.3542387951 1.7694191234
| 33> H 5.5899997971 -1.8821177495 0.0634994595
| 34> H 5.0005043235 -0.7798116355 1.3158304973
| 35> H 0.0702439838 0.515916653 1.9654499037
| 36> H -0.5300632384 -0.7403175518 3.1053128329
| 37> H -4.2455144658 2.0659204282 1.0629994615
| 38> H -3.1464605173 3.2406784096 0.2944059513
| 39> H -5.7799592637 2.2242640531 -0.9015107238
| 40> H -5.5336598939 3.8172296249 -0.1672535501
| 41> H -4.6910939003 3.3898503208 -1.6648785141
| 42> H -3.5555062977 -0.8789939006 -1.5349110089
| 43> H -2.4687227461 -1.2104385046 -2.9114079418
| 44> H -1.1874346108 -2.8203194643 -1.4633325045
| 45> H -2.349145541 -2.5641427179 -0.1592905802
| 46> H -2.8778014761 -3.305078569 -1.676545672
| 47> *
| 48>
| 49>                          ****END OF INPUT****

CARTESIAN COORDINATES (ANGSTROEM)
---------------------------------
  C      3.344576    0.225398   -2.535848
  C      1.944318    0.621258   -2.121394
  O      1.345781   -0.357987   -1.251425
  P      1.896997   -0.646345    0.203089
  S      2.604611    0.872572    1.229000
  O      2.924859   -1.821739   -0.105842
  C      3.707261   -2.452495    0.927312
  C      5.084259   -1.824363    1.023302
  S      0.322786   -1.716669    1.091747
  C     -0.498147   -0.412856    2.069545
  S     -2.212633   -0.147267    1.571703
  P     -1.846132    0.857650   -0.266773
  S     -0.439365    2.216097   -0.180381
  O     -3.290921    1.399795   -0.640665
  C     -3.902871    2.471481    0.107552
  C     -5.055576    3.011283   -0.714045
  O     -1.590268   -0.202688   -1.399652
  C     -2.555518   -1.205086   -1.823784
  C     -2.219249   -2.561538   -1.238868
  H      3.999659    0.231310   -1.665371
  H      3.339734   -0.771963   -2.967750
  H      3.717830    0.938221   -3.264492
  H      1.258984    0.666077   -2.969380
  H      1.945267    1.588195   -1.606451
  H      3.176176   -2.376898    1.880498
  H      3.767074   -3.499888    0.626007
  H      5.667363   -2.354239    1.769419
  H      5.590000   -1.882118    0.063499
  H      5.000504   -0.779812    1.315830
  H      0.070244    0.515917    1.965450
  H     -0.530063   -0.740318    3.105313
  H     -4.245514    2.065920    1.062999
  H     -3.146461    3.240678    0.294406
  H     -5.779959    2.224264   -0.901511
  H     -5.533660    3.817230   -0.167254
  H     -4.691094    3.389850   -1.664879
  H     -3.555506   -0.878994   -1.534911
  H     -2.468723   -1.210439   -2.911408
  H     -1.187435   -2.820319   -1.463333
  H     -2.349146   -2.564143   -0.159291
  H     -2.877801   -3.305079   -1.676546

 Total Charge           Charge          ....    0
 Multiplicity           Mult            ....    1
 Number of Electrons    NEL             ....  202
 Basis Dimension        Dim             ....  334

ORBITAL ENERGIES
----------------

  NO   OCC          E(Eh)            E(eV)
   0   2.0000     -88.043204     -2395.7774
   1   2.0000     -88.039856     -2395.6863
   2   2.0000     -87.979904     -2394.0549
   3   2.0000     -87.979666     -2394.0484
   4   2.0000     -76.423817     -2079.5978
   5   2.0000     -76.420068     -2079.4958
   6   2.0000     -18.795727      -511.4577
   7   2.0000     -18.790125      -511.3053
   8   2.0000     -18.787621      -511.2372
   9   2.0000     -18.779109      -511.0055
  10   2.0000      -9.954918      -270.8871
  11   2.0000      -9.954878      -270.8860
  12   2.0000      -9.953635      -270.8522
  13   2.0000      -9.950263      -270.7604
  14   2.0000      -9.937512      -270.4134
  15   2.0000      -9.890414      -269.1318
  16   2.0000      -9.880931      -268.8738
  17   2.0000      -9.877786      -268.7882
  18   2.0000      -9.874716      -268.7047
  19   2.0000      -7.688427      -209.2127
  20   2.0000      -7.685062      -209.1212
  21   2.0000      -7.624880      -207.4835
  22   2.0000      -7.624597      -207.4758
  23   2.0000      -6.421452      -174.7366
  24   2.0000      -6.417553      -174.6305
  25   2.0000      -5.716156      -155.5445
  26   2.0000      -5.712896      -155.4558
  27   2.0000      -5.712825      -155.4539
  28   2.0000      -5.709459      -155.3623
  29   2.0000      -5.705648      -155.2586
  30   2.0000      -5.702096      -155.1619
  31   2.0000      -5.653924      -153.8511
  32   2.0000      -5.653462      -153.8385
  33   2.0000      -5.645386      -153.6188
  34   2.0000      -5.645373      -153.6184
  35   2.0000      -5.644986      -153.6079
  36   2.0000      -5.644663      -153.5991
  37   2.0000      -4.644349      -126.3792
  38   2.0000      -4.643247      -126.3492
  39   2.0000      -4.641530      -126.3025
  40   2.0000      -4.639895      -126.2580
  41   2.0000      -4.639247      -126.2403
  42   2.0000      -4.638315      -126.2150
  43   2.0000      -0.988907       -26.9095
  44   2.0000      -0.979721       -26.6596
  45   2.0000      -0.944567       -25.7030
  46   2.0000      -0.936958       -25.4959
  47   2.0000      -0.761185       -20.7129
  48   2.0000      -0.720130       -19.5957
  49   2.0000      -0.706891       -19.2355
  50   2.0000      -0.691581       -18.8189
  51   2.0000      -0.680177       -18.5086
  52   2.0000      -0.671158       -18.2631
  53   2.0000      -0.646603       -17.5950
  54   2.0000      -0.631057       -17.1719
  55   2.0000      -0.593206       -16.1420
  56   2.0000      -0.584589       -15.9075
  57   2.0000      -0.572842       -15.5878
  58   2.0000      -0.566034       -15.4026
  59   2.0000      -0.558472       -15.1968
  60   2.0000      -0.509900       -13.8751
  61   2.0000      -0.493746       -13.4355
  62   2.0000      -0.478012       -13.0074
  63   2.0000      -0.465730       -12.6732
  64   2.0000      -0.449881       -12.2419
  65   2.0000      -0.445099       -12.1118
  66   2.0000      -0.434930       -11.8351
  67   2.0000      -0.433726       -11.8023
  68   2.0000      -0.432551       -11.7703
  69   2.0000      -0.414337       -11.2747
  70   2.0000      -0.404491       -11.0068
  71   2.0000      -0.394277       -10.7288
  72   2.0000      -0.384977       -10.4758
  73   2.0000      -0.382835       -10.4175
  74   2.0000      -0.379901       -10.3376
  75   2.0000      -0.368083       -10.0161
  76   2.0000      -0.365944        -9.9578
  77   2.0000      -0.353939        -9.6312
  78   2.0000      -0.351283        -9.5589
  79   2.0000      -0.349401        -9.5077
  80   2.0000      -0.342076        -9.3084
  81   2.0000      -0.341557        -9.2942
  82   2.0000      -0.337522        -9.1844
  83   2.0000      -0.332625        -9.0512
  84   2.0000      -0.328057        -8.9269
  85   2.0000      -0.315981        -8.5983
  86   2.0000      -0.309062        -8.4100
  87   2.0000      -0.304109        -8.2752
  88   2.0000      -0.296068        -8.0564
  89   2.0000      -0.291792        -7.9401
  90   2.0000      -0.276617        -7.5271
  91   2.0000      -0.271332        -7.3833
  92   2.0000      -0.263432        -7.1683
  93   2.0000      -0.260314        -7.0835
  94   2.0000      -0.256845        -6.9891
  95   2.0000      -0.234783        -6.3888
  96   2.0000      -0.221298        -6.0218
  97   2.0000      -0.212141        -5.7726
  98   2.0000      -0.200815        -5.4645
  99   2.0000      -0.190888        -5.1943
 100   2.0000      -0.182741        -4.9726
 101   0.0000      -0.038867        -1.0576
 102   0.0000      -0.028998        -0.7891
 103   0.0000      -0.006159        -0.1676
 104   0.0000       0.014898         0.4054
 105   0.0000       0.019404         0.5280

MULLIKEN ATOMIC CHARGES
-----------------------
   0 C :   -0.305382
   1 C :   -0.002628
   2 O :   -0.352369
   3 P :    0.606119
   4 S :   -0.318699
   5 O :   -0.375375
   6 C :   -0.007253
   7 C :   -0.292774
   8 S :   -0.097062
   9 C :   -0.354835
  10 S :   -0.119737
  11 P :    0.603341
  12 S :   -0.297879
  13 O :   -0.386204
  14 C :   -0.012419
  15 C :   -0.280086
  16 O :   -0.344737
  17 C :   -0.016001
  18 C :   -0.287174
  19 H :    0.123857
  20 H :    0.111473
  21 H :    0.108490
  22 H :    0.100170
  23 H :    0.123649
  24 H :    0.097843
  25 H :    0.104489
  26 H :    0.105830
  27 H :    0.113525
  28 H :    0.128744
  29 H :    0.212341
  30 H :    0.181866
  31 H :    0.105019
  32 H :    0.107834
  33 H :    0.114056
  34 H :    0.113634
  35 H :    0.121946
  36 H :    0.105592
  37 H :    0.108961
  38 H :    0.124940
  39 H :    0.121737
  40 H :    0.105158
Sum of atomic charges:   -0.0000000

LOEWDIN ATOMIC CHARGES
----------------------
   0 C :   -0.366712
   1 C :   -0.118871
   2 O :   -0.230073
   3 P :    0.566745
   4 S :   -0.312944
   5 O :   -0.247494
   6 C :   -0.117417
   7 C :   -0.363815
   8 S :    0.086250
   9 C :   -0.478478
  10 S :    0.060817
  11 P :    0.561088
  12 S :   -0.287739
  13 O :   -0.251409
  14 C :   -0.120196
  15 C :   -0.350154
  16 O :   -0.228335
  17 C :   -0.108746
  18 C :   -0.364375
  19 H :    0.121459
  20 H :    0.123568
  21 H :    0.128881
  22 H :    0.117569
  23 H :    0.109307
  24 H :    0.105559
  25 H :    0.117267
  26 H :    0.127878
  27 H :    0.124540
  28 H :    0.124405
  29 H :    0.126941
  30 H :    0.137141
  31 H :    0.108706
  32 H :    0.110766
  33 H :    0.125489
  34 H :    0.131812
  35 H :    0.129778
  36 H :    0.109608
  37 H :    0.121552
  38 H :    0.127283
  39 H :    0.115288
  40 H :    0.127063

  Mayer bond orders larger than 0.100000
B(  0-C ,  1-C ) :   1.1580 B(  0-C , 19-H ) :   0.9346 B(  0-C , 20-H ) :   0.9447
B(  0-C , 21-H ) :   0.9388 B(  1-C ,  2-O ) :   0.9011 B(  1-C , 22-H ) :   0.9357
B(  1-C , 23-H ) :   0.9120 B(  2-O ,  3-P ) :   1.1496 B(  3-P ,  4-S ) :   1.6021
B(  3-P ,  5-O ) :   1.0940 B(  3-P ,  8-S ) :   0.9681 B(  4-S ,  8-S ) :   0.1164
B(  5-O ,  6-C ) :   0.9081 B(  6-C ,  7-C ) :   1.1679 B(  6-C , 24-H ) :   0.9130
B(  6-C , 25-H ) :   0.9362 B(  7-C , 26-H ) :   0.9398 B(  7-C , 27-H ) :   0.9458
B(  7-C , 28-H ) :   0.9305 B(  8-S ,  9-C ) :   0.9930 B(  9-C , 10-S ) :   1.0095
B(  9-C , 29-H ) :   0.8458 B(  9-C , 30-H ) :   0.9112 B( 10-S , 11-P ) :   0.9358
B( 10-S , 12-S ) :   0.1063 B( 11-P , 12-S ) :   1.6567 B( 11-P , 13-O ) :   1.0801
B( 11-P , 16-O ) :   1.1528 B( 13-O , 14-C ) :   0.9017 B( 14-C , 15-C ) :   1.1604
B( 14-C , 31-H ) :   0.9287 B( 14-C , 32-H ) :   0.9092 B( 15-C , 33-H ) :   0.9513
B( 15-C , 34-H ) :   0.9417 B( 15-C , 35-H ) :   0.9506 B( 16-O , 17-C ) :   0.8922
B( 17-C , 18-C ) :   1.1695 B( 17-C , 36-H ) :   0.9192 B( 17-C , 37-H ) :   0.9350
B( 18-C , 38-H ) :   0.9423 B( 18-C , 39-H ) :   0.9331 B( 18-C , 40-H ) :   0.9369

Dispersion correction           -0.066872605
FINAL SINGLE POINT ENERGY     -2929.520646250122

DIPOLE MOMENT
-------------

Method             : SCF
Type of density    : Electron Density
Multiplicity       :   1
Irrep              :   0
Energy             : -2929.6389831882829640 Eh
Relativity type    :
Basis              : AO
                                X                 Y                 Z
Electronic contribution:     -1.985317198       3.556896601       9.902055238
Nuclear contribution   :      1.032828332      -4.466720969     -10.298002620
                        -----------------------------------------
Total Dipole Moment    :     -0.952488867      -0.909824368      -0.395947382
                        -----------------------------------------
Magnitude (a.u.)       :      1.375423480
Magnitude (Debye)      :      3.496048651

Rotational constants in cm-1:             0.013770             0.004982             0.004794
Rotational constants in MHz :           412.813014           149.359550           143.713564

                             ****ORCA TERMINATED NORMALLY****
TOTAL RUN TIME: 0 days 0 hours 0 minutes 21 seconds 686 msec
