                         Program Version 6.0.0  -   RELEASE  -
|  1> ! pbe def2-sv(p) def2/J RI DEFGRID1 loosescf d4 GCP(DFT/SV(P)) printgap
|  2> %output
|  3>     printlevel normal
|  4> end
|  5> * xyz 0 1
|  6> C 4.4645566463 0.2455699511 -2.6088288455
|  7> C 4.5487685448 0.0431699498 -1.1093334158
|  8> O 3.6334644394 0.9380556061 -0.4290345287
|  9> P 2.2995137916 0.4562187918 0.2774014878
| 10> S 1.4694932931 1.9844643409 1.1606991314
| 11> O 2.7194499813 -0.7564237732 1.227836745
| 12> C 2.6187024207 -0.7438692003 2.6689951101
| 13> C 1.7132313258 -1.8641859397 3.1393003559
| 14> S 1.2906197807 -0.5601264524 -1.2825697287
| 15> C 0.2269306225 -1.675643744 -0.3172132654
| 16> S -0.8950798878 -0.8379286348 0.826747071
| 17> P -2.2367796151 0.0507487211 -0.5719336801
| 18> S -2.0461942263 -0.6175971688 -2.4037174076
| 19> O -2.0422754073 1.6135361019 -0.5225149928
| 20> C -2.5933271076 2.5063975963 0.4778385473
| 21> C -2.1646910772 2.1608723052 1.8876726339
| 22> O -3.656432135 -0.1158994888 0.1260445924
| 23> C -4.2478780424 -1.3886668762 0.4512726805
| 24> C -4.9599856808 -2.0017300688 -0.7382033514
| 25> H 3.4757866291 -0.0235939374 -2.9751018375
| 26> H 4.6546183582 1.286856882 -2.8543015882
| 27> H 5.2065502042 -0.3797303041 -3.0950511309
| 28> H 5.5355142625 0.3134924352 -0.7295406794
| 29> H 4.3149731033 -0.9869403967 -0.8314515494
| 30> H 3.63795049 -0.8765645125 3.0371153608
| 31> H 2.2399505684 0.2329101657 2.9873535432
| 32> H 0.6940773034 -1.699291528 2.7949521336
| 33> H 2.070634676 -2.8192027169 2.7643371832
| 34> H 1.7184503861 -1.883893207 4.2241506777
| 35> H 0.8442722656 -2.3394089625 0.2823980161
| 36> H -0.3494056025 -2.2233387511 -1.0628068915
| 37> H -2.2100208556 3.4820540268 0.1752938044
| 38> H -3.6804924596 2.4827884668 0.3801756363
| 39> H -2.5313953097 1.1758553833 2.1700250747
| 40> H -1.0799853193 2.1719264659 1.9684908485
| 41> H -2.5749200262 2.8995234431 2.5689345461
| 42> H -3.4688424337 -2.0553952325 0.8319637899
| 43> H -4.9512649626 -1.154114545 1.2528826186
| 44> H -4.2536063086 -2.2148278682 -1.5372579368
| 45> H -5.438373477 -2.9256422996 -0.4297440915
| 46> H -5.7131569876 -1.3166843797 -1.1180053247
| 47> *
| 48>
| 49>                          ****END OF INPUT****

CARTESIAN COORDINATES (ANGSTROEM)
---------------------------------
  C      4.464557    0.245570   -2.608829
  C      4.548769    0.043170   -1.109333
  O      3.633464    0.938056   -0.429035
  P      2.299514    0.456219    0.277401
  S      1.469493    1.984464    1.160699
  O      2.719450   -0.756424    1.227837
  C      2.618702   -0.743869    2.668995
  C      1.713231   -1.864186    3.139300
  S      1.290620   -0.560126   -1.282570
  C      0.226931   -1.675644   -0.317213
  S     -0.895080   -0.837929    0.826747
  P     -2.236780    0.050749   -0.571934
  S     -2.046194   -0.617597   -2.403717
  O     -2.042275    1.613536   -0.522515
  C     -2.593327    2.506398    0.477839
  C     -2.164691    2.160872    1.887673
  O     -3.656432   -0.115899    0.126045
  C     -4.247878   -1.388667    0.451273
  C     -4.959986   -2.001730   -0.738203
  H      3.475787   -0.023594   -2.975102
  H      4.654618    1.286857   -2.854302
  H      5.206550   -0.379730   -3.095051
  H      5.535514    0.313492   -0.729541
  H      4.314973   -0.986940   -0.831452
  H      3.637950   -0.876565    3.037115
  H      2.239951    0.232910    2.987354
  H      0.694077   -1.699292    2.794952
  H      2.070635   -2.819203    2.764337
  H      1.718450   -1.883893    4.224151
  H      0.844272   -2.339409    0.282398
  H     -0.349406   -2.223339   -1.062807
  H     -2.210021    3.482054    0.175294
  H     -3.680492    2.482788    0.380176
  H     -2.531395    1.175855    2.170025
  H     -1.079985    2.171926    1.968491
  H     -2.574920    2.899523    2.568935
  H     -3.468842   -2.055395    0.831964
  H     -4.951265   -1.154115    1.252883
  H     -4.253606   -2.214828   -1.537258
  H     -5.438373   -2.925642   -0.429744
  H     -5.713157   -1.316684   -1.118005

 Total Charge           Charge          ....    0
 Multiplicity           Mult            ....    1
 Number of Electrons    NEL             ....  202
 Basis Dimension        Dim             ....  334

ORBITAL ENERGIES
----------------

  NO   OCC          E(Eh)            E(eV)
   0   2.0000     -88.045653     -2395.8440
   1   2.0000     -88.039158     -2395.6673
   2   2.0000     -87.983167     -2394.1437
   3   2.0000     -87.978742     -2394.0233
   4   2.0000     -76.426296     -2079.6652
   5   2.0000     -76.422454     -2079.5607
   6   2.0000     -18.796011      -511.4655
   7   2.0000     -18.793546      -511.3984
   8   2.0000     -18.787831      -511.2429
   9   2.0000     -18.784830      -511.1612
  10   2.0000      -9.957515      -270.9577
  11   2.0000      -9.957423      -270.9553
  12   2.0000      -9.954169      -270.8667
  13   2.0000      -9.953068      -270.8368
  14   2.0000      -9.949291      -270.7340
  15   2.0000      -9.890630      -269.1377
  16   2.0000      -9.884763      -268.9781
  17   2.0000      -9.881833      -268.8983
  18   2.0000      -9.877805      -268.7887
  19   2.0000      -7.689672      -209.2466
  20   2.0000      -7.684082      -209.0945
  21   2.0000      -7.628318      -207.5771
  22   2.0000      -7.624021      -207.4602
  23   2.0000      -6.423458      -174.7912
  24   2.0000      -6.420076      -174.6992
  25   2.0000      -5.717505      -155.5812
  26   2.0000      -5.714090      -155.4883
  27   2.0000      -5.712180      -155.4363
  28   2.0000      -5.708429      -155.3342
  29   2.0000      -5.706946      -155.2939
  30   2.0000      -5.701000      -155.1321
  31   2.0000      -5.657383      -153.9452
  32   2.0000      -5.652996      -153.8258
  33   2.0000      -5.648688      -153.7086
  34   2.0000      -5.648540      -153.7046
  35   2.0000      -5.644409      -153.5922
  36   2.0000      -5.644243      -153.5877
  37   2.0000      -4.646413      -126.4353
  38   2.0000      -4.645208      -126.4025
  39   2.0000      -4.643672      -126.3607
  40   2.0000      -4.643182      -126.3474
  41   2.0000      -4.641649      -126.3057
  42   2.0000      -4.640245      -126.2675
  43   2.0000      -0.987120       -26.8609
  44   2.0000      -0.982559       -26.7368
  45   2.0000      -0.942682       -25.6517
  46   2.0000      -0.940998       -25.6059
  47   2.0000      -0.762412       -20.7463
  48   2.0000      -0.720664       -19.6103
  49   2.0000      -0.709683       -19.3114
  50   2.0000      -0.692580       -18.8461
  51   2.0000      -0.688790       -18.7429
  52   2.0000      -0.673018       -18.3138
  53   2.0000      -0.648598       -17.6492
  54   2.0000      -0.636449       -17.3187
  55   2.0000      -0.592411       -16.1203
  56   2.0000      -0.586791       -15.9674
  57   2.0000      -0.577150       -15.7051
  58   2.0000      -0.573494       -15.6056
  59   2.0000      -0.563220       -15.3260
  60   2.0000      -0.506163       -13.7734
  61   2.0000      -0.499473       -13.5914
  62   2.0000      -0.478478       -13.0200
  63   2.0000      -0.470425       -12.8009
  64   2.0000      -0.459128       -12.4935
  65   2.0000      -0.446743       -12.1565
  66   2.0000      -0.442572       -12.0430
  67   2.0000      -0.433356       -11.7922
  68   2.0000      -0.422629       -11.5003
  69   2.0000      -0.417504       -11.3609
  70   2.0000      -0.409096       -11.1321
  71   2.0000      -0.400234       -10.8909
  72   2.0000      -0.390854       -10.6357
  73   2.0000      -0.386430       -10.5153
  74   2.0000      -0.377909       -10.2834
  75   2.0000      -0.376404       -10.2425
  76   2.0000      -0.363957        -9.9038
  77   2.0000      -0.357417        -9.7258
  78   2.0000      -0.351758        -9.5718
  79   2.0000      -0.351156        -9.5554
  80   2.0000      -0.347527        -9.4567
  81   2.0000      -0.346130        -9.4187
  82   2.0000      -0.339521        -9.2388
  83   2.0000      -0.337330        -9.1792
  84   2.0000      -0.331813        -9.0291
  85   2.0000      -0.324514        -8.8305
  86   2.0000      -0.311029        -8.4635
  87   2.0000      -0.299748        -8.1566
  88   2.0000      -0.298042        -8.1101
  89   2.0000      -0.287020        -7.8102
  90   2.0000      -0.284661        -7.7460
  91   2.0000      -0.275397        -7.4939
  92   2.0000      -0.268598        -7.3089
  93   2.0000      -0.264013        -7.1842
  94   2.0000      -0.258747        -7.0409
  95   2.0000      -0.239271        -6.5109
  96   2.0000      -0.218578        -5.9478
  97   2.0000      -0.203258        -5.5309
  98   2.0000      -0.198947        -5.4136
  99   2.0000      -0.194256        -5.2860
 100   2.0000      -0.189245        -5.1496
 101   0.0000      -0.047618        -1.2958
 102   0.0000      -0.023923        -0.6510
 103   0.0000      -0.007860        -0.2139
 104   0.0000      -0.001937        -0.0527
 105   0.0000       0.014563         0.3963

MULLIKEN ATOMIC CHARGES
-----------------------
   0 C :   -0.291888
   1 C :   -0.019617
   2 O :   -0.362357
   3 P :    0.611839
   4 S :   -0.304121
   5 O :   -0.396688
   6 C :   -0.006810
   7 C :   -0.314531
   8 S :   -0.077823
   9 C :   -0.341137
  10 S :   -0.126082
  11 P :    0.637003
  12 S :   -0.309261
  13 O :   -0.355763
  14 C :    0.018298
  15 C :   -0.349461
  16 O :   -0.383003
  17 C :   -0.009695
  18 C :   -0.295648
  19 H :    0.130010
  20 H :    0.122317
  21 H :    0.109121
  22 H :    0.108528
  23 H :    0.104553
  24 H :    0.102116
  25 H :    0.113432
  26 H :    0.133357
  27 H :    0.115992
  28 H :    0.114136
  29 H :    0.184632
  30 H :    0.185440
  31 H :    0.113228
  32 H :    0.105070
  33 H :    0.112017
  34 H :    0.157967
  35 H :    0.109502
  36 H :    0.098835
  37 H :    0.105269
  38 H :    0.128743
  39 H :    0.106671
  40 H :    0.115806
Sum of atomic charges:    0.0000000

LOEWDIN ATOMIC CHARGES
----------------------
   0 C :   -0.358969
   1 C :   -0.118738
   2 O :   -0.243631
   3 P :    0.559846
   4 S :   -0.296985
   5 O :   -0.261241
   6 C :   -0.118305
   7 C :   -0.362086
   8 S :    0.094406
   9 C :   -0.480696
  10 S :    0.083522
  11 P :    0.573594
  12 S :   -0.301031
  13 O :   -0.229705
  14 C :   -0.104178
  15 C :   -0.377987
  16 O :   -0.244360
  17 C :   -0.117835
  18 C :   -0.365862
  19 H :    0.122209
  20 H :    0.130085
  21 H :    0.129661
  22 H :    0.120192
  23 H :    0.107415
  24 H :    0.115541
  25 H :    0.108173
  26 H :    0.115743
  27 H :    0.123662
  28 H :    0.133055
  29 H :    0.131209
  30 H :    0.129079
  31 H :    0.125676
  32 H :    0.112571
  33 H :    0.112703
  34 H :    0.123574
  35 H :    0.130983
  36 H :    0.101979
  37 H :    0.117945
  38 H :    0.122951
  39 H :    0.128386
  40 H :    0.127450

  Mayer bond orders larger than 0.100000
B(  0-C ,  1-C ) :   1.1652 B(  0-C , 19-H ) :   0.9389 B(  0-C , 20-H ) :   0.9460
B(  0-C , 21-H ) :   0.9397 B(  1-C ,  2-O ) :   0.8958 B(  1-C , 22-H ) :   0.9328
B(  1-C , 23-H ) :   0.9160 B(  2-O ,  3-P ) :   1.1322 B(  3-P ,  4-S ) :   1.6570
B(  3-P ,  5-O ) :   1.0589 B(  3-P ,  8-S ) :   0.9717 B(  4-S ,  8-S ) :   0.1004
B(  5-O ,  6-C ) :   0.9055 B(  6-C ,  7-C ) :   1.1667 B(  6-C , 24-H ) :   0.9340
B(  6-C , 25-H ) :   0.8973 B(  7-C , 26-H ) :   0.9307 B(  7-C , 27-H ) :   0.9446
B(  7-C , 28-H ) :   0.9378 B(  8-S ,  9-C ) :   0.9970 B(  9-C , 10-S ) :   1.0140
B(  9-C , 29-H ) :   0.8960 B(  9-C , 30-H ) :   0.8812 B( 10-S , 11-P ) :   0.9271
B( 10-S , 12-S ) :   0.1113 B( 11-P , 12-S ) :   1.6468 B( 11-P , 13-O ) :   1.1587
B( 11-P , 16-O ) :   1.0715 B( 13-O , 14-C ) :   0.8920 B( 14-C , 15-C ) :   1.1710
B( 14-C , 31-H ) :   0.9318 B( 14-C , 32-H ) :   0.9312 B( 15-C , 33-H ) :   0.9376
B( 15-C , 34-H ) :   0.9191 B( 15-C , 35-H ) :   0.9346 B( 16-O , 17-C ) :   0.9092
B( 17-C , 18-C ) :   1.1676 B( 17-C , 36-H ) :   0.9128 B( 17-C , 37-H ) :   0.9356
B( 18-C , 38-H ) :   0.9294 B( 18-C , 39-H ) :   0.9383 B( 18-C , 40-H ) :   0.9472

Dispersion correction           -0.065396133
FINAL SINGLE POINT ENERGY     -2929.515059735336

DIPOLE MOMENT
-------------

Method             : SCF
Type of density    : Electron Density
Multiplicity       :   1
Irrep              :   0
Energy             : -2929.6345326818523063 Eh
Relativity type    :
Basis              : AO
                                X                 Y                 Z
Electronic contribution:      1.918202330       7.485785653      -9.187084164
Nuclear contribution   :     -1.784886615      -8.733047615      10.455071595
                        -----------------------------------------
Total Dipole Moment    :      0.133315715      -1.247261962       1.267987432
                        -----------------------------------------
Magnitude (a.u.)       :      1.783599621
Magnitude (Debye)      :      4.533549950

Rotational constants in cm-1:             0.012041             0.005019             0.004700
Rotational constants in MHz :           360.965196           150.457003           140.903836

                             ****ORCA TERMINATED NORMALLY****
TOTAL RUN TIME: 0 days 0 hours 0 minutes 21 seconds 67 msec
