                         Program Version 6.0.0  -   RELEASE  -
|  1> ! wb97x-v def2-tzvp def2/J RIJCOSX DEFGRID2 scfconv7 GCP(DFT/TZ) printgap
|  2> %output
|  3>     printlevel normal
|  4> end
|  5> * xyz 0 1
|  6> C -1.9319758910645992 0.00025825751667679484 -9.12865226532265e-05
|  7> I 0.236404327895021 -0.0003909551721157528 0.0001447106253948558
|  8> H -2.2461366680817867 -1.0118730182809934 -0.24176663110980298
|  9> H -2.246679720178339 0.2965876025528799 0.9971982632762906
| 10> H -2.247296122285897 0.7153723225634362 -0.7554600669882411
| 11> *
| 12>
| 13>                          ****END OF INPUT****

CARTESIAN COORDINATES (ANGSTROEM)
---------------------------------
  C     -1.931976    0.000258   -0.000091
  I      0.236404   -0.000391    0.000145
  H     -2.246137   -1.011873   -0.241767
  H     -2.246680    0.296588    0.997198
  H     -2.247296    0.715372   -0.755460

 Total Charge           Charge          ....    0
 Multiplicity           Mult            ....    1
 Number of Electrons    NEL             ....   34
 Basis Dimension        Dim             ....   99

ORBITAL ENERGIES
----------------

  NO   OCC          E(Eh)            E(eV)
   0   2.0000     -12.097876      -329.1999
   1   2.0000      -8.119623      -220.9462
   2   2.0000      -6.090982      -165.7440
   3   2.0000      -6.080493      -165.4586
   4   2.0000      -6.080491      -165.4586
   5   2.0000      -3.011234       -81.9398
   6   2.0000      -3.008143       -81.8557
   7   2.0000      -3.008142       -81.8557
   8   2.0000      -2.998379       -81.5900
   9   2.0000      -2.998368       -81.5897
  10   2.0000      -1.233717       -33.5711
  11   2.0000      -1.125780       -30.6340
  12   2.0000      -0.866929       -23.5903
  13   2.0000      -0.866909       -23.5898
  14   2.0000      -0.752005       -20.4631
  15   2.0000      -0.624644       -16.9974
  16   2.0000      -0.624640       -16.9973
  17   0.0000      -0.262611        -7.1460
  18   0.0000       0.000155         0.0042
  19   0.0000       0.027953         0.7606
  20   0.0000       0.027969         0.7611
  21   0.0000       0.105964         2.8834

MULLIKEN ATOMIC CHARGES
-----------------------
   0 C :   -0.392297
   1 I :   -0.061650
   2 H :    0.151356
   3 H :    0.151332
   4 H :    0.151259
Sum of atomic charges:   -0.0000000

LOEWDIN ATOMIC CHARGES
----------------------
   0 C :   -0.505066
   1 I :    0.185746
   2 H :    0.106458
   3 H :    0.106440
   4 H :    0.106423

  Mayer bond orders larger than 0.100000
B(  0-C ,  1-I ) :   1.0499 B(  0-C ,  2-H ) :   0.9636 B(  0-C ,  3-H ) :   0.9636
B(  0-C ,  4-H ) :   0.9635

FINAL SINGLE POINT ENERGY      -337.603435631072

DIPOLE MOMENT
-------------

Method             : SCF
Type of density    : Electron Density
Multiplicity       :   1
Irrep              :   0
Energy             :  -337.6073863465722411 Eh
Relativity type    :
Basis              : AO
                                X                 Y                 Z
Electronic contribution:     22.782281640      -0.005606883       0.002039387
Nuclear contribution   :    -23.474235757       0.005636963      -0.002055735
                        -----------------------------------------
Total Dipole Moment    :     -0.691954117       0.000030079      -0.000016348
                        -----------------------------------------
Magnitude (a.u.)       :      0.691954118
Magnitude (Debye)      :      1.758807593

Rotational constants in cm-1:             5.150264             0.244938             0.244937
Rotational constants in MHz :        154401.038744          7343.047513          7343.037948

                             ****ORCA TERMINATED NORMALLY****
TOTAL RUN TIME: 0 days 0 hours 0 minutes 16 seconds 918 msec
