                         Program Version 6.0.0  -   RELEASE  -
|  1> ! wb97x-v def2-tzvp def2/J RIJCOSX DEFGRID2 scfconv7 GCP(DFT/TZ) printgap
|  2> %output
|  3>     printlevel normal
|  4> end
|  5> %cpcm
|  6>     smd true
|  7>     smdsolvent "water"
|  8> end
|  9> * xyz 0 1
| 10> C -1.9319758910645992 0.00025825751667679484 -9.12865226532265e-05
| 11> I 0.236404327895021 -0.0003909551721157528 0.0001447106253948558
| 12> H -2.2461366680817867 -1.0118730182809934 -0.24176663110980298
| 13> H -2.246679720178339 0.2965876025528799 0.9971982632762906
| 14> H -2.247296122285897 0.7153723225634362 -0.7554600669882411
| 15> *
| 16>
| 17>                          ****END OF INPUT****

CARTESIAN COORDINATES (ANGSTROEM)
---------------------------------
  C     -1.931976    0.000258   -0.000091
  I      0.236404   -0.000391    0.000145
  H     -2.246137   -1.011873   -0.241767
  H     -2.246680    0.296588    0.997198
  H     -2.247296    0.715372   -0.755460

 Total Charge           Charge          ....    0
 Multiplicity           Mult            ....    1
 Number of Electrons    NEL             ....   34
 Basis Dimension        Dim             ....   99

ORBITAL ENERGIES
----------------

  NO   OCC          E(Eh)            E(eV)
   0   2.0000     -12.078508      -328.6729
   1   2.0000      -8.113704      -220.7851
   2   2.0000      -6.084556      -165.5692
   3   2.0000      -6.074848      -165.3050
   4   2.0000      -6.074846      -165.3050
   5   2.0000      -3.004782       -81.7643
   6   2.0000      -3.002002       -81.6886
   7   2.0000      -3.002001       -81.6886
   8   2.0000      -2.992937       -81.4420
   9   2.0000      -2.992927       -81.4417
  10   2.0000      -1.218953       -33.1694
  11   2.0000      -1.114445       -30.3256
  12   2.0000      -0.846123       -23.0242
  13   2.0000      -0.846112       -23.0239
  14   2.0000      -0.738450       -20.0942
  15   2.0000      -0.620761       -16.8918
  16   2.0000      -0.620758       -16.8917
  17   0.0000      -0.248737        -6.7685
  18   0.0000       0.023186         0.6309
  19   0.0000       0.048392         1.3168
  20   0.0000       0.048402         1.3171
  21   0.0000       0.113947         3.1006

MULLIKEN ATOMIC CHARGES
-----------------------
   0 C :   -0.402387
   1 I :   -0.116091
   2 H :    0.172843
   3 H :    0.172822
   4 H :    0.172812
Sum of atomic charges:   -0.0000000

LOEWDIN ATOMIC CHARGES
----------------------
   0 C :   -0.490560
   1 I :    0.150921
   2 H :    0.113221
   3 H :    0.113202
   4 H :    0.113216

  Mayer bond orders larger than 0.100000
B(  0-C ,  1-I ) :   1.0223 B(  0-C ,  2-H ) :   0.9576 B(  0-C ,  3-H ) :   0.9576
B(  0-C ,  4-H ) :   0.9576

FINAL SINGLE POINT ENERGY      -337.605329502777

DIPOLE MOMENT
-------------

Method             : SCF
Type of density    : Electron Density
Multiplicity       :   1
Irrep              :   0
Energy             :  -337.6092802182769219 Eh
Relativity type    :
Basis              : AO
                                X                 Y                 Z
Electronic contribution:     22.552727211      -0.005466888       0.001830603
Nuclear contribution   :    -23.474235757       0.005636963      -0.002055735
                        -----------------------------------------
Total Dipole Moment    :     -0.921508547       0.000170074      -0.000225132
                        -----------------------------------------
Magnitude (a.u.)       :      0.921508590
Magnitude (Debye)      :      2.342288690

Rotational constants in cm-1:             5.150264             0.244938             0.244937
Rotational constants in MHz :        154401.038744          7343.047513          7343.037948

                             ****ORCA TERMINATED NORMALLY****
TOTAL RUN TIME: 0 days 0 hours 0 minutes 16 seconds 514 msec
