                         Program Version 6.0.0  -   RELEASE  -
|  1> ! pbe def2-sv(p) def2/J RI DEFGRID1 loosescf d4 GCP(DFT/SV(P)) printgap
|  2> %output
|  3>     printlevel normal
|  4> end
|  5> * xyz 0 1
|  6> C 5.5560281568 -0.6125570596 -1.0308022818
|  7> C 4.2878125045 -1.4398338615 -0.9892009772
|  8> O 3.1873285744 -0.7358985447 -1.6179871046
|  9> P 2.133429075 0.1351105706 -0.832204426
| 10> S 0.8478841878 0.8858947063 -2.1032193024
| 11> O 3.0599250967 1.1469152251 -0.0399360536
| 12> C 2.6007800114 2.2208566265 0.8032539765
| 13> C 2.6147799696 1.8044674379 2.2601769764
| 14> S 1.351593958 -1.1853948632 0.6450205037
| 15> C -0.0091727114 -1.8781015476 -0.3487480114
| 16> S -1.5850389461 -1.9086548211 0.5325854205
| 17> P -2.1062390814 0.160086746 0.4066420192
| 18> S -0.8734647288 1.4915152191 1.1311785
| 19> O -3.5781972219 0.150558862 1.0030098684
| 20> C -3.9625526678 -0.4542190863 2.2534116393
| 21> C -3.0779569159 -0.0367860203 3.4086465805
| 22> O -2.3486902267 0.4567599407 -1.1204031497
| 23> C -3.2690895618 -0.2772526645 -1.9629411498
| 24> C -4.5845730375 0.4637580566 -2.0864344418
| 25> H 6.3730866711 -1.196202113 -0.618267876
| 26> H 5.7896334459 -0.3418985067 -2.0568669454
| 27> H 5.4341898297 0.2969668425 -0.449181554
| 28> H 4.0076571747 -1.6878837946 0.0386130676
| 29> H 4.3918359575 -2.3540300352 -1.5763344651
| 30> H 3.3035854737 3.0346582318 0.6147108046
| 31> H 1.5978898791 2.5274771205 0.4931439537
| 32> H 1.8734890558 1.0292032827 2.4389457818
| 33> H 3.5975540692 1.4329741932 2.5357131551
| 34> H 2.3660807997 2.6651359892 2.8720718363
| 35> H 0.2191134645 -2.9153914655 -0.5791223497
| 36> H -0.1055067976 -1.274935333 -1.2560997363
| 37> H -4.9905599974 -0.1164404539 2.3962005878
| 38> H -3.9412201238 -1.5396679115 2.1228871709
| 39> H -2.0607453553 -0.3936516325 3.2511495983
| 40> H -3.0508316175 1.0470773763 3.4946853559
| 41> H -3.4633779558 -0.4625302069 4.3294264127
| 42> H -2.7583771033 -0.3457787255 -2.9259655059
| 43> H -3.4155515446 -1.2780144119 -1.5461464635
| 44> H -5.232751587 -0.075445192 -2.7701214969
| 45> H -5.066415904 0.5402145204 -1.1152912314
| 46> H -4.4102708446 1.4653771066 -2.4701009144
| 47> *
| 48>
| 49>                          ****END OF INPUT****

CARTESIAN COORDINATES (ANGSTROEM)
---------------------------------
  C      5.556028   -0.612557   -1.030802
  C      4.287813   -1.439834   -0.989201
  O      3.187329   -0.735899   -1.617987
  P      2.133429    0.135111   -0.832204
  S      0.847884    0.885895   -2.103219
  O      3.059925    1.146915   -0.039936
  C      2.600780    2.220857    0.803254
  C      2.614780    1.804467    2.260177
  S      1.351594   -1.185395    0.645021
  C     -0.009173   -1.878102   -0.348748
  S     -1.585039   -1.908655    0.532585
  P     -2.106239    0.160087    0.406642
  S     -0.873465    1.491515    1.131178
  O     -3.578197    0.150559    1.003010
  C     -3.962553   -0.454219    2.253412
  C     -3.077957   -0.036786    3.408647
  O     -2.348690    0.456760   -1.120403
  C     -3.269090   -0.277253   -1.962941
  C     -4.584573    0.463758   -2.086434
  H      6.373087   -1.196202   -0.618268
  H      5.789633   -0.341899   -2.056867
  H      5.434190    0.296967   -0.449182
  H      4.007657   -1.687884    0.038613
  H      4.391836   -2.354030   -1.576334
  H      3.303585    3.034658    0.614711
  H      1.597890    2.527477    0.493144
  H      1.873489    1.029203    2.438946
  H      3.597554    1.432974    2.535713
  H      2.366081    2.665136    2.872072
  H      0.219113   -2.915391   -0.579122
  H     -0.105507   -1.274935   -1.256100
  H     -4.990560   -0.116440    2.396201
  H     -3.941220   -1.539668    2.122887
  H     -2.060745   -0.393652    3.251150
  H     -3.050832    1.047077    3.494685
  H     -3.463378   -0.462530    4.329426
  H     -2.758377   -0.345779   -2.925966
  H     -3.415552   -1.278014   -1.546146
  H     -5.232752   -0.075445   -2.770121
  H     -5.066416    0.540215   -1.115291
  H     -4.410271    1.465377   -2.470101

 Total Charge           Charge          ....    0
 Multiplicity           Mult            ....    1
 Number of Electrons    NEL             ....  202
 Basis Dimension        Dim             ....  334

ORBITAL ENERGIES
----------------

  NO   OCC          E(Eh)            E(eV)
   0   2.0000     -88.045856     -2395.8496
   1   2.0000     -88.036719     -2395.6009
   2   2.0000     -87.975746     -2393.9418
   3   2.0000     -87.974479     -2393.9073
   4   2.0000     -76.423560     -2079.5908
   5   2.0000     -76.418629     -2079.4566
   6   2.0000     -18.793292      -511.3915
   7   2.0000     -18.790500      -511.3155
   8   2.0000     -18.786314      -511.2016
   9   2.0000     -18.781922      -511.0821
  10   2.0000      -9.960571      -271.0409
  11   2.0000      -9.955354      -270.8990
  12   2.0000      -9.951050      -270.7818
  13   2.0000      -9.950891      -270.7775
  14   2.0000      -9.946273      -270.6518
  15   2.0000      -9.883499      -268.9437
  16   2.0000      -9.882881      -268.9269
  17   2.0000      -9.882424      -268.9144
  18   2.0000      -9.877574      -268.7825
  19   2.0000      -7.690676      -209.2739
  20   2.0000      -7.681544      -209.0254
  21   2.0000      -7.620912      -207.3756
  22   2.0000      -7.619751      -207.3440
  23   2.0000      -6.420657      -174.7150
  24   2.0000      -6.416256      -174.5952
  25   2.0000      -5.718307      -155.6030
  26   2.0000      -5.715082      -155.5153
  27   2.0000      -5.709355      -155.3594
  28   2.0000      -5.708047      -155.3239
  29   2.0000      -5.706155      -155.2724
  30   2.0000      -5.698503      -155.0641
  31   2.0000      -5.649999      -153.7443
  32   2.0000      -5.648885      -153.7140
  33   2.0000      -5.641294      -153.5074
  34   2.0000      -5.641072      -153.5014
  35   2.0000      -5.640520      -153.4864
  36   2.0000      -5.639504      -153.4587
  37   2.0000      -4.643622      -126.3594
  38   2.0000      -4.642835      -126.3380
  39   2.0000      -4.640445      -126.2729
  40   2.0000      -4.639095      -126.2362
  41   2.0000      -4.638056      -126.2079
  42   2.0000      -4.636396      -126.1628
  43   2.0000      -0.986542       -26.8452
  44   2.0000      -0.982456       -26.7340
  45   2.0000      -0.943520       -25.6745
  46   2.0000      -0.938912       -25.5491
  47   2.0000      -0.760378       -20.6909
  48   2.0000      -0.718054       -19.5392
  49   2.0000      -0.709494       -19.3063
  50   2.0000      -0.690499       -18.7894
  51   2.0000      -0.685632       -18.6570
  52   2.0000      -0.673425       -18.3248
  53   2.0000      -0.647390       -17.6164
  54   2.0000      -0.630650       -17.1609
  55   2.0000      -0.589419       -16.0389
  56   2.0000      -0.585666       -15.9368
  57   2.0000      -0.572959       -15.5910
  58   2.0000      -0.569796       -15.5049
  59   2.0000      -0.561994       -15.2926
  60   2.0000      -0.502658       -13.6780
  61   2.0000      -0.496329       -13.5058
  62   2.0000      -0.474618       -12.9150
  63   2.0000      -0.472522       -12.8580
  64   2.0000      -0.454262       -12.3611
  65   2.0000      -0.446387       -12.1468
  66   2.0000      -0.437981       -11.9181
  67   2.0000      -0.434758       -11.8304
  68   2.0000      -0.431868       -11.7517
  69   2.0000      -0.414375       -11.2757
  70   2.0000      -0.411545       -11.1987
  71   2.0000      -0.397041       -10.8040
  72   2.0000      -0.387806       -10.5527
  73   2.0000      -0.384592       -10.4653
  74   2.0000      -0.381899       -10.3920
  75   2.0000      -0.365322        -9.9409
  76   2.0000      -0.355270        -9.6674
  77   2.0000      -0.354387        -9.6434
  78   2.0000      -0.351780        -9.5724
  79   2.0000      -0.347818        -9.4646
  80   2.0000      -0.346724        -9.4348
  81   2.0000      -0.342609        -9.3229
  82   2.0000      -0.340671        -9.2701
  83   2.0000      -0.338369        -9.2075
  84   2.0000      -0.328297        -8.9334
  85   2.0000      -0.319288        -8.6883
  86   2.0000      -0.313003        -8.5172
  87   2.0000      -0.296508        -8.0684
  88   2.0000      -0.288501        -7.8505
  89   2.0000      -0.285956        -7.7813
  90   2.0000      -0.283257        -7.7078
  91   2.0000      -0.275284        -7.4909
  92   2.0000      -0.269378        -7.3301
  93   2.0000      -0.261816        -7.1244
  94   2.0000      -0.255372        -6.9490
  95   2.0000      -0.241543        -6.5727
  96   2.0000      -0.220638        -6.0039
  97   2.0000      -0.200505        -5.4560
  98   2.0000      -0.195094        -5.3088
  99   2.0000      -0.185044        -5.0353
 100   2.0000      -0.177912        -4.8412
 101   0.0000      -0.038688        -1.0527
 102   0.0000      -0.027562        -0.7500
 103   0.0000      -0.016440        -0.4473
 104   0.0000       0.002618         0.0712
 105   0.0000       0.022810         0.6207

MULLIKEN ATOMIC CHARGES
-----------------------
   0 C :   -0.289410
   1 C :   -0.010825
   2 O :   -0.357918
   3 P :    0.600845
   4 S :   -0.293268
   5 O :   -0.381692
   6 C :   -0.011626
   7 C :   -0.310879
   8 S :   -0.100652
   9 C :   -0.337221
  10 S :   -0.126644
  11 P :    0.603355
  12 S :   -0.304712
  13 O :   -0.379841
  14 C :   -0.013955
  15 C :   -0.311965
  16 O :   -0.341660
  17 C :   -0.013607
  18 C :   -0.286869
  19 H :    0.106523
  20 H :    0.119007
  21 H :    0.122133
  22 H :    0.097435
  23 H :    0.104803
  24 H :    0.104450
  25 H :    0.131841
  26 H :    0.141370
  27 H :    0.106693
  28 H :    0.111548
  29 H :    0.181018
  30 H :    0.191624
  31 H :    0.110778
  32 H :    0.114421
  33 H :    0.129023
  34 H :    0.129367
  35 H :    0.110816
  36 H :    0.112899
  37 H :    0.093859
  38 H :    0.107407
  39 H :    0.118590
  40 H :    0.122940
Sum of atomic charges:    0.0000000

LOEWDIN ATOMIC CHARGES
----------------------
   0 C :   -0.360175
   1 C :   -0.117350
   2 O :   -0.242173
   3 P :    0.566950
   4 S :   -0.297215
   5 O :   -0.239753
   6 C :   -0.114942
   7 C :   -0.365761
   8 S :    0.067557
   9 C :   -0.480734
  10 S :    0.061337
  11 P :    0.568370
  12 S :   -0.297181
  13 O :   -0.246279
  14 C :   -0.114737
  15 C :   -0.371549
  16 O :   -0.224156
  17 C :   -0.117141
  18 C :   -0.358519
  19 H :    0.127756
  20 H :    0.128502
  21 H :    0.125598
  22 H :    0.100409
  23 H :    0.118807
  24 H :    0.118180
  25 H :    0.112266
  26 H :    0.122342
  27 H :    0.121165
  28 H :    0.131947
  29 H :    0.135724
  30 H :    0.121759
  31 H :    0.121894
  32 H :    0.108301
  33 H :    0.122084
  34 H :    0.131025
  35 H :    0.129865
  36 H :    0.121873
  37 H :    0.100264
  38 H :    0.128335
  39 H :    0.125173
  40 H :    0.130180

  Mayer bond orders larger than 0.100000
B(  0-C ,  1-C ) :   1.1628 B(  0-C , 19-H ) :   0.9399 B(  0-C , 20-H ) :   0.9471
B(  0-C , 21-H ) :   0.9416 B(  1-C ,  2-O ) :   0.9023 B(  1-C , 22-H ) :   0.9099
B(  1-C , 23-H ) :   0.9372 B(  2-O ,  3-P ) :   1.1239 B(  3-P ,  4-S ) :   1.6527
B(  3-P ,  5-O ) :   1.1034 B(  3-P ,  8-S ) :   0.9435 B(  4-S ,  8-S ) :   0.1152
B(  4-S , 30-H ) :   0.1174 B(  5-O ,  6-C ) :   0.8894 B(  6-C ,  7-C ) :   1.1723
B(  6-C , 24-H ) :   0.9342 B(  6-C , 25-H ) :   0.9033 B(  7-C , 26-H ) :   0.9303
B(  7-C , 27-H ) :   0.9477 B(  7-C , 28-H ) :   0.9400 B(  8-S ,  9-C ) :   0.9920
B(  9-C , 10-S ) :   1.0015 B(  9-C , 29-H ) :   0.9114 B(  9-C , 30-H ) :   0.8482
B( 10-S , 11-P ) :   0.9350 B( 10-S , 12-S ) :   0.1150 B( 11-P , 12-S ) :   1.6737
B( 11-P , 13-O ) :   1.0765 B( 11-P , 16-O ) :   1.1390 B( 13-O , 14-C ) :   0.9128
B( 14-C , 15-C ) :   1.1682 B( 14-C , 31-H ) :   0.9331 B( 14-C , 32-H ) :   0.9269
B( 15-C , 33-H ) :   0.9311 B( 15-C , 34-H ) :   0.9410 B( 15-C , 35-H ) :   0.9334
B( 16-O , 17-C ) :   0.8962 B( 17-C , 18-C ) :   1.1667 B( 17-C , 36-H ) :   0.9324
B( 17-C , 37-H ) :   0.9103 B( 18-C , 38-H ) :   0.9403 B( 18-C , 39-H ) :   0.9432
B( 18-C , 40-H ) :   0.9472

Dispersion correction           -0.066071131
FINAL SINGLE POINT ENERGY     -2929.509710895588

DIPOLE MOMENT
-------------

Method             : SCF
Type of density    : Electron Density
Multiplicity       :   1
Irrep              :   0
Energy             : -2929.6285876327870028 Eh
Relativity type    :
Basis              : AO
                                X                 Y                 Z
Electronic contribution:     -0.692375327      -0.988049003      -6.450610095
Nuclear contribution   :      0.418106647      -0.174256505       7.125398287
                        -----------------------------------------
Total Dipole Moment    :     -0.274268680      -1.162305509       0.674788193
                        -----------------------------------------
Magnitude (a.u.)       :      1.371683822
Magnitude (Debye)      :      3.486543196

Rotational constants in cm-1:             0.013174             0.004944             0.004591
Rotational constants in MHz :           394.954834           148.221647           137.639691

                             ****ORCA TERMINATED NORMALLY****
TOTAL RUN TIME: 0 days 0 hours 0 minutes 20 seconds 793 msec
