                         Program Version 6.0.0  -   RELEASE  -
|  1> ! pbe def2-sv(p) def2/J RI DEFGRID1 loosescf d4 GCP(DFT/SV(P)) printgap
|  2> %output
|  3>     printlevel normal
|  4> end
|  5> * xyz 0 1
|  6> C 5.4790292008 -1.2843765578 -1.5743258947
|  7> C 4.0484340497 -1.5852294958 -1.9775254429
|  8> O 3.2075827877 -1.7327448523 -0.8141774389
|  9> P 2.3436501442 -0.53363074 -0.2269535963
| 10> S 3.3167493714 1.1306557897 0.1495455833
| 11> O 1.6678029117 -1.2510221596 1.0118483465
| 12> C 2.2362090462 -1.2071451462 2.3427067921
| 13> C 1.4754408669 -0.2238566491 3.2094214095
| 14> S 0.7323224442 -0.3987251999 -1.5811092322
| 15> C 0.1624908839 1.2483957089 -1.0736711217
| 16> S -0.534965262 1.2698277618 0.5954889653
| 17> P -2.4698246653 0.4733430364 0.1629141725
| 18> S -3.0204226754 0.6317227052 -1.7176612003
| 19> O -3.4152727372 1.2044519403 1.1946620888
| 20> C -3.9656728256 2.5100077997 0.9298696439
| 21> C -5.3468690545 2.5765721933 1.5509893383
| 22> O -2.5543531472 -0.93401703 0.8771295118
| 23> C -1.7229406146 -2.0752209085 0.607249588
| 24> C -2.0301278174 -2.7118001544 -0.7339002526
| 25> H 5.8512948098 -2.0610957959 -0.9122786356
| 26> H 6.0994325078 -1.2420914047 -2.4636845828
| 27> H 5.5326511412 -0.3276803487 -1.0593209891
| 28> H 3.9731358926 -2.5437507079 -2.4941516316
| 29> H 3.646115025 -0.7947750134 -2.6172570307
| 30> H 2.1477868087 -2.2277473569 2.7177794163
| 31> H 3.2912044155 -0.9290669842 2.2743149277
| 32> H 1.8682086405 -0.2612223764 4.2203365098
| 33> H 1.5887271375 0.7858403765 2.8197487368
| 34> H 0.4172697257 -0.4713231764 3.2242726236
| 35> H -0.6009576285 1.546223643 -1.793313654
| 36> H 1.0067737409 1.936937969 -1.0687665594
| 37> H -3.2939447658 3.2495675129 1.3729372948
| 38> H -4.0123705373 2.6655087027 -0.1540638483
| 39> H -5.9985233112 1.8391969412 1.0903102138
| 40> H -5.2835583527 2.3730561715 2.6158646164
| 41> H -5.7606050101 3.5676045817 1.3959082107
| 42> H -0.6707140313 -1.7803685888 0.6672499819
| 43> H -1.9539613168 -2.756891127 1.4284122495
| 44> H -1.7658736794 -2.0390503404 -1.5479336184
| 45> H -1.4524687202 -3.6250154798 -0.8353844788
| 46> H -3.0896285832 -2.9443994009 -0.8043669381
| 47> *
| 48>
| 49>                          ****END OF INPUT****

CARTESIAN COORDINATES (ANGSTROEM)
---------------------------------
  C      5.479029   -1.284377   -1.574326
  C      4.048434   -1.585229   -1.977525
  O      3.207583   -1.732745   -0.814177
  P      2.343650   -0.533631   -0.226954
  S      3.316749    1.130656    0.149546
  O      1.667803   -1.251022    1.011848
  C      2.236209   -1.207145    2.342707
  C      1.475441   -0.223857    3.209421
  S      0.732322   -0.398725   -1.581109
  C      0.162491    1.248396   -1.073671
  S     -0.534965    1.269828    0.595489
  P     -2.469825    0.473343    0.162914
  S     -3.020423    0.631723   -1.717661
  O     -3.415273    1.204452    1.194662
  C     -3.965673    2.510008    0.929870
  C     -5.346869    2.576572    1.550989
  O     -2.554353   -0.934017    0.877130
  C     -1.722941   -2.075221    0.607250
  C     -2.030128   -2.711800   -0.733900
  H      5.851295   -2.061096   -0.912279
  H      6.099433   -1.242091   -2.463685
  H      5.532651   -0.327680   -1.059321
  H      3.973136   -2.543751   -2.494152
  H      3.646115   -0.794775   -2.617257
  H      2.147787   -2.227747    2.717779
  H      3.291204   -0.929067    2.274315
  H      1.868209   -0.261222    4.220337
  H      1.588727    0.785840    2.819749
  H      0.417270   -0.471323    3.224273
  H     -0.600958    1.546224   -1.793314
  H      1.006774    1.936938   -1.068767
  H     -3.293945    3.249568    1.372937
  H     -4.012371    2.665509   -0.154064
  H     -5.998523    1.839197    1.090310
  H     -5.283558    2.373056    2.615865
  H     -5.760605    3.567605    1.395908
  H     -0.670714   -1.780369    0.667250
  H     -1.953961   -2.756891    1.428412
  H     -1.765874   -2.039050   -1.547934
  H     -1.452469   -3.625015   -0.835384
  H     -3.089629   -2.944399   -0.804367

 Total Charge           Charge          ....    0
 Multiplicity           Mult            ....    1
 Number of Electrons    NEL             ....  202
 Basis Dimension        Dim             ....  334

ORBITAL ENERGIES
----------------

  NO   OCC          E(Eh)            E(eV)
   0   2.0000     -88.048342     -2395.9172
   1   2.0000     -88.042996     -2395.7717
   2   2.0000     -87.994564     -2394.4538
   3   2.0000     -87.989828     -2394.3250
   4   2.0000     -76.432403     -2079.8314
   5   2.0000     -76.427012     -2079.6847
   6   2.0000     -18.796930      -511.4905
   7   2.0000     -18.796453      -511.4775
   8   2.0000     -18.790148      -511.3059
   9   2.0000     -18.789065      -511.2764
  10   2.0000      -9.958381      -270.9813
  11   2.0000      -9.956984      -270.9433
  12   2.0000      -9.954006      -270.8623
  13   2.0000      -9.950507      -270.7671
  14   2.0000      -9.947131      -270.6752
  15   2.0000      -9.885064      -268.9863
  16   2.0000      -9.884536      -268.9719
  17   2.0000      -9.882480      -268.9159
  18   2.0000      -9.874476      -268.6982
  19   2.0000      -7.693332      -209.3462
  20   2.0000      -7.687706      -209.1931
  21   2.0000      -7.639473      -207.8806
  22   2.0000      -7.634706      -207.7509
  23   2.0000      -6.430005      -174.9693
  24   2.0000      -6.424312      -174.8144
  25   2.0000      -5.721106      -155.6792
  26   2.0000      -5.717849      -155.5906
  27   2.0000      -5.715560      -155.5283
  28   2.0000      -5.712112      -155.4345
  29   2.0000      -5.710392      -155.3877
  30   2.0000      -5.704888      -155.2379
  31   2.0000      -5.668296      -154.2422
  32   2.0000      -5.663491      -154.1114
  33   2.0000      -5.660167      -154.0210
  34   2.0000      -5.659678      -154.0077
  35   2.0000      -5.655299      -153.8885
  36   2.0000      -5.655040      -153.8815
  37   2.0000      -4.652467      -126.6001
  38   2.0000      -4.651797      -126.5818
  39   2.0000      -4.650540      -126.5476
  40   2.0000      -4.646593      -126.4402
  41   2.0000      -4.646415      -126.4354
  42   2.0000      -4.644706      -126.3889
  43   2.0000      -0.991594       -26.9827
  44   2.0000      -0.988330       -26.8938
  45   2.0000      -0.949552       -25.8386
  46   2.0000      -0.942930       -25.6584
  47   2.0000      -0.766311       -20.8524
  48   2.0000      -0.724188       -19.7062
  49   2.0000      -0.712124       -19.3779
  50   2.0000      -0.688505       -18.7352
  51   2.0000      -0.680908       -18.5285
  52   2.0000      -0.676305       -18.4032
  53   2.0000      -0.653153       -17.7732
  54   2.0000      -0.641855       -17.4658
  55   2.0000      -0.598983       -16.2991
  56   2.0000      -0.593691       -16.1552
  57   2.0000      -0.576867       -15.6973
  58   2.0000      -0.563796       -15.3417
  59   2.0000      -0.559572       -15.2267
  60   2.0000      -0.510558       -13.8930
  61   2.0000      -0.500654       -13.6235
  62   2.0000      -0.480932       -13.0868
  63   2.0000      -0.470038       -12.7904
  64   2.0000      -0.459061       -12.4917
  65   2.0000      -0.444265       -12.0891
  66   2.0000      -0.438440       -11.9306
  67   2.0000      -0.436395       -11.8749
  68   2.0000      -0.427995       -11.6463
  69   2.0000      -0.413926       -11.2635
  70   2.0000      -0.406669       -11.0660
  71   2.0000      -0.403291       -10.9741
  72   2.0000      -0.400130       -10.8881
  73   2.0000      -0.385660       -10.4943
  74   2.0000      -0.377437       -10.2706
  75   2.0000      -0.374141       -10.1809
  76   2.0000      -0.368001       -10.0138
  77   2.0000      -0.359613        -9.7856
  78   2.0000      -0.353708        -9.6249
  79   2.0000      -0.352141        -9.5822
  80   2.0000      -0.347876        -9.4662
  81   2.0000      -0.342848        -9.3294
  82   2.0000      -0.339578        -9.2404
  83   2.0000      -0.335504        -9.1295
  84   2.0000      -0.332410        -9.0453
  85   2.0000      -0.320762        -8.7284
  86   2.0000      -0.309182        -8.4133
  87   2.0000      -0.302818        -8.2401
  88   2.0000      -0.298578        -8.1247
  89   2.0000      -0.295554        -8.0424
  90   2.0000      -0.287430        -7.8214
  91   2.0000      -0.281183        -7.6514
  92   2.0000      -0.268105        -7.2955
  93   2.0000      -0.266116        -7.2414
  94   2.0000      -0.258309        -7.0290
  95   2.0000      -0.239945        -6.5292
  96   2.0000      -0.221746        -6.0340
  97   2.0000      -0.215900        -5.8749
  98   2.0000      -0.208617        -5.6767
  99   2.0000      -0.206059        -5.6072
 100   2.0000      -0.202674        -5.5150
 101   0.0000      -0.048662        -1.3242
 102   0.0000      -0.030536        -0.8309
 103   0.0000      -0.006593        -0.1794
 104   0.0000      -0.001808        -0.0492
 105   0.0000       0.009117         0.2481

MULLIKEN ATOMIC CHARGES
-----------------------
   0 C :   -0.291630
   1 C :   -0.009254
   2 O :   -0.371595
   3 P :    0.608529
   4 S :   -0.331728
   5 O :   -0.360746
   6 C :   -0.003204
   7 C :   -0.289165
   8 S :   -0.080385
   9 C :   -0.364401
  10 S :   -0.098573
  11 P :    0.607549
  12 S :   -0.331326
  13 O :   -0.361344
  14 C :   -0.009187
  15 C :   -0.280908
  16 O :   -0.353329
  17 C :   -0.041701
  18 C :   -0.305653
  19 H :    0.112382
  20 H :    0.109304
  21 H :    0.128983
  22 H :    0.109240
  23 H :    0.103155
  24 H :    0.107386
  25 H :    0.106218
  26 H :    0.108232
  27 H :    0.129113
  28 H :    0.118786
  29 H :    0.193558
  30 H :    0.194305
  31 H :    0.101551
  32 H :    0.104971
  33 H :    0.120384
  34 H :    0.116916
  35 H :    0.110622
  36 H :    0.139009
  37 H :    0.101353
  38 H :    0.133579
  39 H :    0.104774
  40 H :    0.114232
Sum of atomic charges:   -0.0000000

LOEWDIN ATOMIC CHARGES
----------------------
   0 C :   -0.362469
   1 C :   -0.115508
   2 O :   -0.248552
   3 P :    0.567660
   4 S :   -0.317885
   5 O :   -0.237641
   6 C :   -0.111797
   7 C :   -0.360134
   8 S :    0.098773
   9 C :   -0.487652
  10 S :    0.080172
  11 P :    0.567657
  12 S :   -0.309656
  13 O :   -0.237259
  14 C :   -0.120716
  15 C :   -0.350585
  16 O :   -0.229829
  17 C :   -0.124043
  18 C :   -0.367716
  19 H :    0.125316
  20 H :    0.129627
  21 H :    0.124786
  22 H :    0.119735
  23 H :    0.108237
  24 H :    0.118555
  25 H :    0.110107
  26 H :    0.128444
  27 H :    0.124229
  28 H :    0.124727
  29 H :    0.127257
  30 H :    0.130086
  31 H :    0.111751
  32 H :    0.105728
  33 H :    0.129190
  34 H :    0.126908
  35 H :    0.129989
  36 H :    0.105410
  37 H :    0.117821
  38 H :    0.115625
  39 H :    0.128125
  40 H :    0.125527

  Mayer bond orders larger than 0.100000
B(  0-C ,  1-C ) :   1.1673 B(  0-C , 19-H ) :   0.9476 B(  0-C , 20-H ) :   0.9396
B(  0-C , 21-H ) :   0.9332 B(  1-C ,  2-O ) :   0.9004 B(  1-C , 22-H ) :   0.9358
B(  1-C , 23-H ) :   0.9154 B(  2-O ,  3-P ) :   1.1197 B(  3-P ,  4-S ) :   1.5937
B(  3-P ,  5-O ) :   1.1256 B(  3-P ,  8-S ) :   0.9700 B(  4-S ,  8-S ) :   0.1098
B(  5-O ,  6-C ) :   0.8812 B(  6-C ,  7-C ) :   1.1730 B(  6-C , 24-H ) :   0.9338
B(  6-C , 25-H ) :   0.9119 B(  7-C , 26-H ) :   0.9390 B(  7-C , 27-H ) :   0.9374
B(  7-C , 28-H ) :   0.9469 B(  8-S ,  9-C ) :   0.9970 B(  9-C , 10-S ) :   1.0136
B(  9-C , 29-H ) :   0.8651 B(  9-C , 30-H ) :   0.8753 B( 10-S , 11-P ) :   0.9334
B( 10-S , 12-S ) :   0.1206 B( 11-P , 12-S ) :   1.6076 B( 11-P , 13-O ) :   1.1308
B( 11-P , 16-O ) :   1.1431 B( 13-O , 14-C ) :   0.9080 B( 14-C , 15-C ) :   1.1617
B( 14-C , 31-H ) :   0.9318 B( 14-C , 32-H ) :   0.9023 B( 15-C , 33-H ) :   0.9505
B( 15-C , 34-H ) :   0.9509 B( 15-C , 35-H ) :   0.9418 B( 16-O , 17-C ) :   0.9074
B( 17-C , 18-C ) :   1.1661 B( 17-C , 36-H ) :   0.8961 B( 17-C , 37-H ) :   0.9346
B( 18-C , 38-H ) :   0.9301 B( 18-C , 39-H ) :   0.9385 B( 18-C , 40-H ) :   0.9451

Dispersion correction           -0.064546228
FINAL SINGLE POINT ENERGY     -2929.528209077235

DIPOLE MOMENT
-------------

Method             : SCF
Type of density    : Electron Density
Multiplicity       :   1
Irrep              :   0
Energy             : -2929.6472872832782741 Eh
Relativity type    :
Basis              : AO
                                X                 Y                 Z
Electronic contribution:     -1.021912875       5.197856348      -7.221871162
Nuclear contribution   :      1.527019849      -5.729615981       7.742004676
                        -----------------------------------------
Total Dipole Moment    :      0.505106975      -0.531759633       0.520133514
                        -----------------------------------------
Magnitude (a.u.)       :      0.899133046
Magnitude (Debye)      :      2.285414579

Rotational constants in cm-1:             0.014120             0.004424             0.004244
Rotational constants in MHz :           423.306498           132.617195           127.246288

                             ****ORCA TERMINATED NORMALLY****
TOTAL RUN TIME: 0 days 0 hours 0 minutes 20 seconds 842 msec
