                         Program Version 6.0.0  -   RELEASE  -
|  1> ! pbe def2-sv(p) def2/J RI DEFGRID1 loosescf d4 GCP(DFT/SV(P)) printgap
|  2> %output
|  3>     printlevel normal
|  4> end
|  5> * xyz 0 1
|  6> C 1.9321156085 0.0004340654 -0.785424113
|  7> N 1.1126603459 -0.0002238625 0.4217101983
|  8> C 0.2939897685 1.1917948333 0.591387145
|  9> C -0.9500464461 1.1946511404 -0.3128559416
| 10> N -1.7654576179 0.0001458489 -0.1298844006
| 11> C -0.9505409679 -1.1947234548 -0.3127029629
| 12> C 0.2937499962 -1.1921026952 0.5912443421
| 13> H 2.985443111 0.0101042954 -0.4932147492
| 14> H 1.7419550937 0.8773654661 -1.4048273991
| 15> H 1.7553282267 -0.8858241685 -1.395158676
| 16> H -0.0254971007 1.2164653141 1.6395757198
| 17> H 0.9112854253 2.0712392149 0.4031215219
| 18> H -1.566099615 2.0718753144 -0.1083729662
| 19> H -0.6469331332 1.222274054 -1.3643103934
| 20> H -2.133999664 0.0002815158 0.818417419
| 21> H -1.5668986901 -2.0715809449 -0.1074134941
| 22> H -0.6477751684 -1.2230206225 -1.3641706099
| 23> H -0.0253481837 -1.2170118801 1.6395069815
| 24> H 0.9106798838 -2.0717256015 0.4026010167
| 25> *
| 26>
| 27>                          ****END OF INPUT****

CARTESIAN COORDINATES (ANGSTROEM)
---------------------------------
  C      1.932116    0.000434   -0.785424
  N      1.112660   -0.000224    0.421710
  C      0.293990    1.191795    0.591387
  C     -0.950046    1.194651   -0.312856
  N     -1.765458    0.000146   -0.129884
  C     -0.950541   -1.194723   -0.312703
  C      0.293750   -1.192103    0.591244
  H      2.985443    0.010104   -0.493215
  H      1.741955    0.877365   -1.404827
  H      1.755328   -0.885824   -1.395159
  H     -0.025497    1.216465    1.639576
  H      0.911285    2.071239    0.403122
  H     -1.566100    2.071875   -0.108373
  H     -0.646933    1.222274   -1.364310
  H     -2.134000    0.000282    0.818417
  H     -1.566899   -2.071581   -0.107413
  H     -0.647775   -1.223021   -1.364171
  H     -0.025348   -1.217012    1.639507
  H      0.910680   -2.071726    0.402601

 Total Charge           Charge          ....    0
 Multiplicity           Mult            ....    1
 Number of Electrons    NEL             ....   56
 Basis Dimension        Dim             ....  122

ORBITAL ENERGIES
----------------

  NO   OCC          E(Eh)            E(eV)
   0   2.0000     -13.974912      -380.2767
   1   2.0000     -13.967378      -380.0717
   2   2.0000      -9.903733      -269.4943
   3   2.0000      -9.903715      -269.4938
   4   2.0000      -9.902927      -269.4723
   5   2.0000      -9.902898      -269.4715
   6   2.0000      -9.900525      -269.4070
   7   2.0000      -0.850674       -23.1480
   8   2.0000      -0.798362       -21.7245
   9   2.0000      -0.678929       -18.4746
  10   2.0000      -0.636730       -17.3263
  11   2.0000      -0.569314       -15.4918
  12   2.0000      -0.568915       -15.4810
  13   2.0000      -0.508613       -13.8401
  14   2.0000      -0.444236       -12.0883
  15   2.0000      -0.423506       -11.5242
  16   2.0000      -0.404936       -11.0189
  17   2.0000      -0.400632       -10.9018
  18   2.0000      -0.389683       -10.6038
  19   2.0000      -0.371260       -10.1025
  20   2.0000      -0.340373        -9.2620
  21   2.0000      -0.332917        -9.0591
  22   2.0000      -0.332559        -9.0494
  23   2.0000      -0.305161        -8.3039
  24   2.0000      -0.297799        -8.1035
  25   2.0000      -0.293782        -7.9942
  26   2.0000      -0.199079        -5.4172
  27   2.0000      -0.139363        -3.7923
  28   0.0000       0.031839         0.8664
  29   0.0000       0.046128         1.2552
  30   0.0000       0.069327         1.8865
  31   0.0000       0.078409         2.1336
  32   0.0000       0.092163         2.5079

MULLIKEN ATOMIC CHARGES
-----------------------
   0 C :   -0.188457
   1 N :   -0.281810
   2 C :   -0.083268
   3 C :   -0.082019
   4 N :   -0.329203
   5 C :   -0.081754
   6 C :   -0.083524
   7 H :    0.107151
   8 H :    0.101518
   9 H :    0.101850
  10 H :    0.068380
  11 H :    0.084388
  12 H :    0.084470
  13 H :    0.078680
  14 H :    0.187860
  15 H :    0.084418
  16 H :    0.078534
  17 H :    0.068347
  18 H :    0.084439
Sum of atomic charges:    0.0000000

LOEWDIN ATOMIC CHARGES
----------------------
   0 C :   -0.258797
   1 N :   -0.156737
   2 C :   -0.178938
   3 C :   -0.189803
   4 N :   -0.259257
   5 C :   -0.189832
   6 C :   -0.178995
   7 H :    0.110371
   8 H :    0.109381
   9 H :    0.109841
  10 H :    0.105917
  11 H :    0.111231
  12 H :    0.112118
  13 H :    0.111456
  14 H :    0.201432
  15 H :    0.112085
  16 H :    0.111441
  17 H :    0.105885
  18 H :    0.111201

  Mayer bond orders larger than 0.100000
B(  0-C ,  1-N ) :   1.0147 B(  0-C ,  7-H ) :   0.9593 B(  0-C ,  8-H ) :   0.9444
B(  0-C ,  9-H ) :   0.9449 B(  1-N ,  2-C ) :   1.0664 B(  1-N ,  6-C ) :   1.0668
B(  2-C ,  3-C ) :   1.0823 B(  2-C , 10-H ) :   0.9114 B(  2-C , 11-H ) :   0.9188
B(  3-C ,  4-N ) :   1.0968 B(  3-C , 12-H ) :   0.9254 B(  3-C , 13-H ) :   0.9102
B(  4-N ,  5-C ) :   1.0969 B(  4-N , 14-H ) :   0.8792 B(  5-C ,  6-C ) :   1.0821
B(  5-C , 15-H ) :   0.9254 B(  5-C , 16-H ) :   0.9103 B(  6-C , 17-H ) :   0.9115
B(  6-C , 18-H ) :   0.9188

Dispersion correction           -0.017147030
FINAL SINGLE POINT ENERGY      -306.491234894910

DIPOLE MOMENT
-------------

Method             : SCF
Type of density    : Electron Density
Multiplicity       :   1
Irrep              :   0
Energy             :  -306.5655477315501116 Eh
Relativity type    :
Basis              : AO
                                X                 Y                 Z
Electronic contribution:     -1.464366933      -0.000860380       1.303474580
Nuclear contribution   :      1.583934282       0.000414202      -1.250145638
                        -----------------------------------------
Total Dipole Moment    :      0.119567349      -0.000446177       0.053328943
                        -----------------------------------------
Magnitude (a.u.)       :      0.130921832
Magnitude (Debye)      :      0.332776850

Rotational constants in cm-1:             0.131177             0.087759             0.067391
Rotational constants in MHz :          3932.573610          2630.958850          2020.337160

                             ****ORCA TERMINATED NORMALLY****
TOTAL RUN TIME: 0 days 0 hours 0 minutes 8 seconds 565 msec
