                         Program Version 6.0.0  -   RELEASE  -
|  1> ! wb97x-v def2-tzvp def2/J RIJCOSX DEFGRID2 scfconv7 GCP(DFT/TZ) printgap
|  2> %output
|  3>     printlevel normal
|  4> end
|  5> * xyz 0 1
|  6> C 4.230393735092659 1.233100071519005 8.711074054718814e-05
|  7> C 2.926785423650094 1.7220536344425283 9.154231112621642e-05
|  8> C 1.8585725633666694 0.8430760540902222 1.5200670675514265e-05
|  9> C 2.0792742185713657 -0.5300968055643442 -5.390354876176643e-05
| 10> C 3.3669955836824 -1.0395571946398907 -6.60925065423123e-05
| 11> C 4.428202276457444 -0.14090792576625272 3.8030898039570884e-06
| 12> Cl 6.066654317943784 -0.773689284840137 -8.932723727841964e-06
| 13> O 1.034028265048213 -1.4392439035873326 -0.00011009668535941664
| 14> C -0.23734236318199178 -0.902775072529499 -6.992604052504481e-05
| 15> C -1.2972077448572141 -1.7889948722810125 -7.684401645493398e-05
| 16> C -2.5971088777575484 -1.2983745994621245 -5.8464855230401784e-05
| 17> C -2.846433316665759 0.07434187287468134 -3.388545071550317e-05
| 18> C -1.7579996646825837 0.9582648268034974 -2.021961034207689e-05
| 19> C -0.45255370107710086 0.47426278396040544 -2.467156218137412e-05
| 20> O 0.5776323578178947 1.3799888464559233 8.491755950144488e-06
| 21> Cl -2.0003565045295124 2.6751650316883007 2.87246136192614e-06
| 22> Cl -4.465632748530901 0.6887982542189646 -2.4469087772598457e-05
| 23> Cl -3.9134122278051695 -2.4388712559029453 -6.674109558042123e-05
| 24> H 5.06969299507574 1.9177125479915282 0.00014707663722046715
| 25> H 2.7344763006375485 2.789480569221187 0.00015280392127194731
| 26> H 3.5180517272884644 -2.1127212897336682 -0.00012705730137049865
| 27> H -1.1010185811042608 -2.8545981578268145 -0.00010025944828068586
| 28> *
| 29>
| 30>                          ****END OF INPUT****

CARTESIAN COORDINATES (ANGSTROEM)
---------------------------------
  C      4.230394    1.233100    0.000087
  C      2.926785    1.722054    0.000092
  C      1.858573    0.843076    0.000015
  C      2.079274   -0.530097   -0.000054
  C      3.366996   -1.039557   -0.000066
  C      4.428202   -0.140908    0.000004
  Cl     6.066654   -0.773689   -0.000009
  O      1.034028   -1.439244   -0.000110
  C     -0.237342   -0.902775   -0.000070
  C     -1.297208   -1.788995   -0.000077
  C     -2.597109   -1.298375   -0.000058
  C     -2.846433    0.074342   -0.000034
  C     -1.758000    0.958265   -0.000020
  C     -0.452554    0.474263   -0.000025
  O      0.577632    1.379989    0.000008
  Cl    -2.000357    2.675165    0.000003
  Cl    -4.465633    0.688798   -0.000024
  Cl    -3.913412   -2.438871   -0.000067
  H      5.069693    1.917713    0.000147
  H      2.734476    2.789481    0.000153
  H      3.518052   -2.112721   -0.000127
  H     -1.101019   -2.854598   -0.000100

 Total Charge           Charge          ....    0
 Multiplicity           Mult            ....    1
 Number of Electrons    NEL             ....  160
 Basis Dimension        Dim             ....  606

ORBITAL ENERGIES
----------------

  NO   OCC          E(Eh)            E(eV)
   0   2.0000    -107.165386     -2916.1184
   1   2.0000    -107.163224     -2916.0596
   2   2.0000    -107.162247     -2916.0330
   3   2.0000    -107.155147     -2915.8398
   4   2.0000     -21.756092      -592.0133
   5   2.0000     -21.755751      -592.0041
   6   2.0000     -12.158949      -330.8618
   7   2.0000     -12.155688      -330.7731
   8   2.0000     -12.151218      -330.6515
   9   2.0000     -12.150189      -330.6235
  10   2.0000     -12.147904      -330.5613
  11   2.0000     -12.146575      -330.5251
  12   2.0000     -12.145437      -330.4941
  13   2.0000     -12.135171      -330.2148
  14   2.0000     -12.091745      -329.0331
  15   2.0000     -12.086594      -328.8929
  16   2.0000     -12.085957      -328.8756
  17   2.0000     -12.082342      -328.7772
  18   2.0000     -11.318238      -307.9849
  19   2.0000     -11.316149      -307.9281
  20   2.0000     -11.315244      -307.9034
  21   2.0000     -11.308215      -307.7122
  22   2.0000      -9.110029      -247.8965
  23   2.0000      -9.107941      -247.8397
  24   2.0000      -9.107092      -247.8166
  25   2.0000      -9.107086      -247.8164
  26   2.0000      -9.106705      -247.8060
  27   2.0000      -9.104980      -247.7591
  28   2.0000      -9.104945      -247.7582
  29   2.0000      -9.104061      -247.7341
  30   2.0000      -9.103859      -247.7286
  31   2.0000      -9.099748      -247.6167
  32   2.0000      -9.097114      -247.5451
  33   2.0000      -9.097068      -247.5438
  34   2.0000      -1.788842       -48.6769
  35   2.0000      -1.772009       -48.2188
  36   2.0000      -1.487334       -40.4724
  37   2.0000      -1.454350       -39.5749
  38   2.0000      -1.447065       -39.3766
  39   2.0000      -1.430277       -38.9198
  40   2.0000      -1.418164       -38.5902
  41   2.0000      -1.393813       -37.9276
  42   2.0000      -1.348270       -36.6883
  43   2.0000      -1.328169       -36.1413
  44   2.0000      -1.302251       -35.4360
  45   2.0000      -1.293689       -35.2031
  46   2.0000      -1.238227       -33.6939
  47   2.0000      -1.188238       -32.3336
  48   2.0000      -1.178487       -32.0683
  49   2.0000      -1.142624       -31.0924
  50   2.0000      -1.118095       -30.4249
  51   2.0000      -1.072562       -29.1859
  52   2.0000      -1.062905       -28.9231
  53   2.0000      -1.051701       -28.6182
  54   2.0000      -1.033500       -28.1230
  55   2.0000      -1.015891       -27.6438
  56   2.0000      -1.005641       -27.3649
  57   2.0000      -0.993711       -27.0403
  58   2.0000      -0.975471       -26.5439
  59   2.0000      -0.962238       -26.1838
  60   2.0000      -0.957023       -26.0419
  61   2.0000      -0.934762       -25.4362
  62   2.0000      -0.927966       -25.2512
  63   2.0000      -0.900667       -24.5084
  64   2.0000      -0.896537       -24.3960
  65   2.0000      -0.876231       -23.8434
  66   2.0000      -0.867089       -23.5947
  67   2.0000      -0.842145       -22.9159
  68   2.0000      -0.834651       -22.7120
  69   2.0000      -0.820477       -22.3263
  70   2.0000      -0.817905       -22.2563
  71   2.0000      -0.814618       -22.1669
  72   2.0000      -0.804208       -21.8836
  73   2.0000      -0.802081       -21.8257
  74   2.0000      -0.800293       -21.7771
  75   2.0000      -0.779171       -21.2023
  76   2.0000      -0.695631       -18.9291
  77   2.0000      -0.691997       -18.8302
  78   2.0000      -0.676145       -18.3988
  79   2.0000      -0.671179       -18.2637
  80   0.0000      -0.341521        -9.2933
  81   0.0000      -0.312225        -8.4961
  82   0.0000      -0.306719        -8.3462
  83   0.0000      -0.286708        -7.8017
  84   0.0000      -0.286446        -7.7946

MULLIKEN ATOMIC CHARGES
-----------------------
   0 C :   -0.155636
   1 C :   -0.243424
   2 C :    0.189816
   3 C :    0.268396
   4 C :   -0.347665
   5 C :    0.201736
   6 Cl:   -0.089691
   7 O :   -0.228058
   8 C :    0.237193
   9 C :   -0.379021
  10 C :    0.128323
  11 C :    0.046867
  12 C :   -0.078837
  13 C :    0.221753
  14 O :   -0.225399
  15 Cl:   -0.030418
  16 Cl:   -0.029084
  17 Cl:   -0.055844
  18 H :    0.139926
  19 H :    0.140464
  20 H :    0.143694
  21 H :    0.144908
Sum of atomic charges:    0.0000000

LOEWDIN ATOMIC CHARGES
----------------------
   0 C :   -0.139708
   1 C :   -0.093426
   2 C :   -0.191513
   3 C :   -0.189879
   4 C :   -0.105506
   5 C :   -0.409512
   6 Cl:    0.377086
   7 O :    0.322162
   8 C :   -0.195532
   9 C :   -0.107275
  10 C :   -0.430934
  11 C :   -0.449263
  12 C :   -0.405633
  13 C :   -0.211280
  14 O :    0.324000
  15 Cl:    0.438123
  16 Cl:    0.430351
  17 Cl:    0.411654
  18 H :    0.150942
  19 H :    0.156971
  20 H :    0.157863
  21 H :    0.160310

  Mayer bond orders larger than 0.100000
B(  0-C ,  1-C ) :   1.3839 B(  0-C ,  5-C ) :   1.3989 B(  0-C , 18-H ) :   0.9715
B(  1-C ,  2-C ) :   1.4176 B(  1-C , 19-H ) :   0.9689 B(  2-C ,  3-C ) :   1.3623
B(  2-C , 14-O ) :   1.0162 B(  3-C ,  4-C ) :   1.3765 B(  3-C ,  7-O ) :   1.0098
B(  4-C ,  5-C ) :   1.3814 B(  4-C , 20-H ) :   0.9703 B(  5-C ,  6-Cl) :   0.9689
B(  7-O ,  8-C ) :   1.0207 B(  8-C ,  9-C ) :   1.4132 B(  8-C , 13-C ) :   1.3852
B(  9-C , 10-C ) :   1.3911 B(  9-C , 21-H ) :   0.9697 B( 10-C , 11-C ) :   1.3358
B( 10-C , 17-Cl) :   1.0526 B( 11-C , 12-C ) :   1.2905 B( 11-C , 16-Cl) :   1.1836
B( 12-C , 13-C ) :   1.2803 B( 12-C , 15-Cl) :   1.2185 B( 13-C , 14-O ) :   1.0967

FINAL SINGLE POINT ENERGY     -2450.740439489251

DIPOLE MOMENT
-------------

Method             : SCF
Type of density    : Electron Density
Multiplicity       :   1
Irrep              :   0
Energy             : -2450.7520762153503711 Eh
Relativity type    :
Basis              : AO
                                X                 Y                 Z
Electronic contribution:    -14.852183436       0.469232056      -0.000140686
Nuclear contribution   :     15.400317303      -0.451062506       0.000160277
                        -----------------------------------------
Total Dipole Moment    :      0.548133867       0.018169549       0.000019591
                        -----------------------------------------
Magnitude (a.u.)       :      0.548434927
Magnitude (Debye)      :      1.394010800

Rotational constants in cm-1:             0.022423             0.004450             0.003713
Rotational constants in MHz :           672.227081           133.417010           111.322764

                             ****ORCA TERMINATED NORMALLY****
TOTAL RUN TIME: 0 days 0 hours 10 minutes 46 seconds 408 msec
