                         Program Version 6.0.0  -   RELEASE  -
|  1> ! wb97x-v def2-tzvp def2/J RIJCOSX DEFGRID2 scfconv7 GCP(DFT/TZ) printgap
|  2> %output
|  3>     printlevel normal
|  4> end
|  5> %cpcm
|  6>     smd true
|  7>     smdsolvent "water"
|  8> end
|  9> * xyz 0 1
| 10> C 4.230393735092659 1.233100071519005 8.711074054718814e-05
| 11> C 2.926785423650094 1.7220536344425283 9.154231112621642e-05
| 12> C 1.8585725633666694 0.8430760540902222 1.5200670675514265e-05
| 13> C 2.0792742185713657 -0.5300968055643442 -5.390354876176643e-05
| 14> C 3.3669955836824 -1.0395571946398907 -6.60925065423123e-05
| 15> C 4.428202276457444 -0.14090792576625272 3.8030898039570884e-06
| 16> Cl 6.066654317943784 -0.773689284840137 -8.932723727841964e-06
| 17> O 1.034028265048213 -1.4392439035873326 -0.00011009668535941664
| 18> C -0.23734236318199178 -0.902775072529499 -6.992604052504481e-05
| 19> C -1.2972077448572141 -1.7889948722810125 -7.684401645493398e-05
| 20> C -2.5971088777575484 -1.2983745994621245 -5.8464855230401784e-05
| 21> C -2.846433316665759 0.07434187287468134 -3.388545071550317e-05
| 22> C -1.7579996646825837 0.9582648268034974 -2.021961034207689e-05
| 23> C -0.45255370107710086 0.47426278396040544 -2.467156218137412e-05
| 24> O 0.5776323578178947 1.3799888464559233 8.491755950144488e-06
| 25> Cl -2.0003565045295124 2.6751650316883007 2.87246136192614e-06
| 26> Cl -4.465632748530901 0.6887982542189646 -2.4469087772598457e-05
| 27> Cl -3.9134122278051695 -2.4388712559029453 -6.674109558042123e-05
| 28> H 5.06969299507574 1.9177125479915282 0.00014707663722046715
| 29> H 2.7344763006375485 2.789480569221187 0.00015280392127194731
| 30> H 3.5180517272884644 -2.1127212897336682 -0.00012705730137049865
| 31> H -1.1010185811042608 -2.8545981578268145 -0.00010025944828068586
| 32> *
| 33>
| 34>                          ****END OF INPUT****

CARTESIAN COORDINATES (ANGSTROEM)
---------------------------------
  C      4.230394    1.233100    0.000087
  C      2.926785    1.722054    0.000092
  C      1.858573    0.843076    0.000015
  C      2.079274   -0.530097   -0.000054
  C      3.366996   -1.039557   -0.000066
  C      4.428202   -0.140908    0.000004
  Cl     6.066654   -0.773689   -0.000009
  O      1.034028   -1.439244   -0.000110
  C     -0.237342   -0.902775   -0.000070
  C     -1.297208   -1.788995   -0.000077
  C     -2.597109   -1.298375   -0.000058
  C     -2.846433    0.074342   -0.000034
  C     -1.758000    0.958265   -0.000020
  C     -0.452554    0.474263   -0.000025
  O      0.577632    1.379989    0.000008
  Cl    -2.000357    2.675165    0.000003
  Cl    -4.465633    0.688798   -0.000024
  Cl    -3.913412   -2.438871   -0.000067
  H      5.069693    1.917713    0.000147
  H      2.734476    2.789481    0.000153
  H      3.518052   -2.112721   -0.000127
  H     -1.101019   -2.854598   -0.000100

 Total Charge           Charge          ....    0
 Multiplicity           Mult            ....    1
 Number of Electrons    NEL             ....  160
 Basis Dimension        Dim             ....  606

ORBITAL ENERGIES
----------------

  NO   OCC          E(Eh)            E(eV)
   0   2.0000    -107.165181     -2916.1128
   1   2.0000    -107.164067     -2916.0825
   2   2.0000    -107.160421     -2915.9833
   3   2.0000    -107.150743     -2915.7199
   4   2.0000     -21.748075      -591.7952
   5   2.0000     -21.745984      -591.7383
   6   2.0000     -12.151544      -330.6603
   7   2.0000     -12.146646      -330.5270
   8   2.0000     -12.144514      -330.4690
   9   2.0000     -12.142534      -330.4151
  10   2.0000     -12.139246      -330.3257
  11   2.0000     -12.139141      -330.3228
  12   2.0000     -12.135005      -330.2103
  13   2.0000     -12.124189      -329.9159
  14   2.0000     -12.080983      -328.7403
  15   2.0000     -12.073127      -328.5265
  16   2.0000     -12.070869      -328.4650
  17   2.0000     -12.068059      -328.3886
  18   2.0000     -11.318095      -307.9810
  19   2.0000     -11.317063      -307.9529
  20   2.0000     -11.313481      -307.8555
  21   2.0000     -11.303901      -307.5948
  22   2.0000      -9.109910      -247.8932
  23   2.0000      -9.108703      -247.8604
  24   2.0000      -9.107066      -247.8159
  25   2.0000      -9.106971      -247.8133
  26   2.0000      -9.105889      -247.7838
  27   2.0000      -9.105721      -247.7793
  28   2.0000      -9.105037      -247.7606
  29   2.0000      -9.102336      -247.6872
  30   2.0000      -9.102279      -247.6856
  31   2.0000      -9.095416      -247.4988
  32   2.0000      -9.092849      -247.4290
  33   2.0000      -9.092806      -247.4278
  34   2.0000      -1.779576       -48.4247
  35   2.0000      -1.762603       -47.9629
  36   2.0000      -1.483362       -40.3643
  37   2.0000      -1.446884       -39.3717
  38   2.0000      -1.443669       -39.2842
  39   2.0000      -1.428345       -38.8672
  40   2.0000      -1.412591       -38.4385
  41   2.0000      -1.386014       -37.7154
  42   2.0000      -1.338374       -36.4190
  43   2.0000      -1.319758       -35.9124
  44   2.0000      -1.292971       -35.1835
  45   2.0000      -1.284676       -34.9578
  46   2.0000      -1.228859       -33.4389
  47   2.0000      -1.179113       -32.0853
  48   2.0000      -1.168855       -31.8062
  49   2.0000      -1.132086       -30.8056
  50   2.0000      -1.109465       -30.1901
  51   2.0000      -1.064027       -28.9537
  52   2.0000      -1.053171       -28.6582
  53   2.0000      -1.043497       -28.3950
  54   2.0000      -1.024120       -27.8677
  55   2.0000      -1.006078       -27.3768
  56   2.0000      -0.996614       -27.1192
  57   2.0000      -0.987635       -26.8749
  58   2.0000      -0.967282       -26.3211
  59   2.0000      -0.954456       -25.9721
  60   2.0000      -0.950580       -25.8666
  61   2.0000      -0.930620       -25.3235
  62   2.0000      -0.912238       -24.8233
  63   2.0000      -0.890247       -24.2249
  64   2.0000      -0.884392       -24.0655
  65   2.0000      -0.872594       -23.7445
  66   2.0000      -0.851733       -23.1768
  67   2.0000      -0.835366       -22.7315
  68   2.0000      -0.833287       -22.6749
  69   2.0000      -0.820879       -22.3373
  70   2.0000      -0.818439       -22.2709
  71   2.0000      -0.814060       -22.1517
  72   2.0000      -0.804215       -21.8838
  73   2.0000      -0.797622       -21.7044
  74   2.0000      -0.793190       -21.5838
  75   2.0000      -0.772495       -21.0206
  76   2.0000      -0.687971       -18.7206
  77   2.0000      -0.683721       -18.6050
  78   2.0000      -0.664869       -18.0920
  79   2.0000      -0.660953       -17.9854
  80   0.0000      -0.337462        -9.1828
  81   0.0000      -0.304502        -8.2859
  82   0.0000      -0.298280        -8.1166
  83   0.0000      -0.278471        -7.5776
  84   0.0000      -0.275396        -7.4939

MULLIKEN ATOMIC CHARGES
-----------------------
   0 C :   -0.188108
   1 C :   -0.287377
   2 C :    0.219079
   3 C :    0.278225
   4 C :   -0.367662
   5 C :    0.211322
   6 Cl:   -0.111361
   7 O :   -0.244530
   8 C :    0.245894
   9 C :   -0.389618
  10 C :    0.129413
  11 C :    0.056942
  12 C :   -0.075070
  13 C :    0.251180
  14 O :   -0.251511
  15 Cl:   -0.050679
  16 Cl:   -0.050466
  17 Cl:   -0.073270
  18 H :    0.174698
  19 H :    0.171533
  20 H :    0.173937
  21 H :    0.177428
Sum of atomic charges:   -0.0000000

LOEWDIN ATOMIC CHARGES
----------------------
   0 C :   -0.139750
   1 C :   -0.091106
   2 C :   -0.187952
   3 C :   -0.186528
   4 C :   -0.104194
   5 C :   -0.417690
   6 Cl:    0.359659
   7 O :    0.318016
   8 C :   -0.184996
   9 C :   -0.095191
  10 C :   -0.432241
  11 C :   -0.450795
  12 C :   -0.406390
  13 C :   -0.201434
  14 O :    0.315985
  15 Cl:    0.423698
  16 Cl:    0.415262
  17 Cl:    0.398843
  18 H :    0.160454
  19 H :    0.167116
  20 H :    0.167319
  21 H :    0.171913

  Mayer bond orders larger than 0.100000
B(  0-C ,  1-C ) :   1.3858 B(  0-C ,  5-C ) :   1.3677 B(  0-C , 18-H ) :   0.9751
B(  1-C ,  2-C ) :   1.3659 B(  1-C , 19-H ) :   0.9847 B(  2-C ,  3-C ) :   1.3605
B(  2-C , 14-O ) :   1.0000 B(  3-C ,  4-C ) :   1.3695 B(  3-C ,  7-O ) :   0.9992
B(  4-C ,  5-C ) :   1.3557 B(  4-C , 20-H ) :   0.9710 B(  5-C ,  6-Cl) :   0.9586
B(  7-O ,  8-C ) :   1.0154 B(  8-C ,  9-C ) :   1.4067 B(  8-C , 13-C ) :   1.3880
B(  9-C , 10-C ) :   1.3713 B(  9-C , 21-H ) :   0.9692 B( 10-C , 11-C ) :   1.3326
B( 10-C , 17-Cl) :   1.0462 B( 11-C , 12-C ) :   1.2909 B( 11-C , 16-Cl) :   1.1558
B( 12-C , 13-C ) :   1.2768 B( 12-C , 15-Cl) :   1.1872 B( 13-C , 14-O ) :   1.0843

FINAL SINGLE POINT ENERGY     -2450.742843777465

DIPOLE MOMENT
-------------

Method             : SCF
Type of density    : Electron Density
Multiplicity       :   1
Irrep              :   0
Energy             : -2450.7544805035649915 Eh
Relativity type    :
Basis              : AO
                                X                 Y                 Z
Electronic contribution:    -14.603486877       0.364472482      -0.000136325
Nuclear contribution   :     15.400317303      -0.451062506       0.000160277
                        -----------------------------------------
Total Dipole Moment    :      0.796830426      -0.086590024       0.000023952
                        -----------------------------------------
Magnitude (a.u.)       :      0.801521404
Magnitude (Debye)      :      2.037305502

Rotational constants in cm-1:             0.022423             0.004450             0.003713
Rotational constants in MHz :           672.227081           133.417010           111.322764

                             ****ORCA TERMINATED NORMALLY****
TOTAL RUN TIME: 0 days 0 hours 10 minutes 23 seconds 243 msec
