                         Program Version 6.0.0  -   RELEASE  -
|  1> ! pbe def2-sv(p) def2/J RI DEFGRID1 loosescf d4 GCP(DFT/SV(P)) printgap
|  2> %output
|  3>     printlevel normal
|  4> end
|  5> * xyz 0 1
|  6> C 0.6130904898 1.6947503537 -0.0001012368
|  7> C 1.4125305952 0.4012855626 -0.2296521147
|  8> H 1.653277424 0.2954520001 -1.292763386
|  9> C 0.5486038294 -0.7972283093 0.1933683723
| 10> H 0.3572918756 -0.7368680535 1.2768921735
| 11> C -0.801868102 -0.7402012071 -0.5399324031
| 12> H -0.6176937142 -0.8716267646 -1.6125935335
| 13> C -1.4665327233 0.6357023746 -0.3072323548
| 14> H -2.3516799972 0.7476555151 -0.9549332968
| 15> O -0.6246674164 1.6769844627 -0.6965332415
| 16> O -1.836765573 0.7749382307 1.0360965817
| 17> O -1.6123889632 -1.7671058833 -0.0149015924
| 18> O 1.2354795393 -1.985529443 -0.1089517619
| 19> O 2.6499809177 0.4387344873 0.4265004237
| 20> H 1.1565071446 2.5531972806 -0.3929363224
| 21> H 0.4282786598 1.833670177 1.0722819606
| 22> H -2.1344447443 -0.0937507312 1.3575011191
| 23> H -2.3300732259 -1.979397414 -0.6278020167
| 24> H 0.6685897965 -2.736739202 0.1232076147
| 25> H 2.5155344178 0.4390376645 1.3858362975
| 26> *
| 27>
| 28>                          ****END OF INPUT****

CARTESIAN COORDINATES (ANGSTROEM)
---------------------------------
  C      0.613090    1.694750   -0.000101
  C      1.412531    0.401286   -0.229652
  H      1.653277    0.295452   -1.292763
  C      0.548604   -0.797228    0.193368
  H      0.357292   -0.736868    1.276892
  C     -0.801868   -0.740201   -0.539932
  H     -0.617694   -0.871627   -1.612594
  C     -1.466533    0.635702   -0.307232
  H     -2.351680    0.747656   -0.954933
  O     -0.624667    1.676984   -0.696533
  O     -1.836766    0.774938    1.036097
  O     -1.612389   -1.767106   -0.014902
  O      1.235480   -1.985529   -0.108952
  O      2.649981    0.438734    0.426500
  H      1.156507    2.553197   -0.392936
  H      0.428279    1.833670    1.072282
  H     -2.134445   -0.093751    1.357501
  H     -2.330073   -1.979397   -0.627802
  H      0.668590   -2.736739    0.123208
  H      2.515534    0.439038    1.385836

 Total Charge           Charge          ....    0
 Multiplicity           Mult            ....    1
 Number of Electrons    NEL             ....   80
 Basis Dimension        Dim             ....  160

ORBITAL ENERGIES
----------------

  NO   OCC          E(Eh)            E(eV)
   0   2.0000     -18.786556      -511.2082
   1   2.0000     -18.768320      -510.7119
   2   2.0000     -18.758189      -510.4363
   3   2.0000     -18.748410      -510.1702
   4   2.0000     -18.748183      -510.1640
   5   2.0000      -9.986342      -271.7422
   6   2.0000      -9.951110      -270.7835
   7   2.0000      -9.945362      -270.6271
   8   2.0000      -9.940825      -270.5036
   9   2.0000      -9.929848      -270.2049
  10   2.0000      -0.983360       -26.7586
  11   2.0000      -0.956678       -26.0325
  12   2.0000      -0.935766       -25.4635
  13   2.0000      -0.916201       -24.9311
  14   2.0000      -0.910188       -24.7675
  15   2.0000      -0.703601       -19.1459
  16   2.0000      -0.678484       -18.4625
  17   2.0000      -0.591701       -16.1010
  18   2.0000      -0.574509       -15.6332
  19   2.0000      -0.532573       -14.4921
  20   2.0000      -0.506346       -13.7784
  21   2.0000      -0.485354       -13.2072
  22   2.0000      -0.473326       -12.8799
  23   2.0000      -0.455085       -12.3835
  24   2.0000      -0.435402       -11.8479
  25   2.0000      -0.426843       -11.6150
  26   2.0000      -0.411345       -11.1933
  27   2.0000      -0.378993       -10.3129
  28   2.0000      -0.356959        -9.7134
  29   2.0000      -0.349653        -9.5145
  30   2.0000      -0.328433        -8.9371
  31   2.0000      -0.312155        -8.4942
  32   2.0000      -0.300449        -8.1756
  33   2.0000      -0.293530        -7.9874
  34   2.0000      -0.270175        -7.3518
  35   2.0000      -0.269373        -7.3300
  36   2.0000      -0.242873        -6.6089
  37   2.0000      -0.234372        -6.3776
  38   2.0000      -0.219133        -5.9629
  39   2.0000      -0.200378        -5.4526
  40   0.0000      -0.001419        -0.0386
  41   0.0000       0.023455         0.6382
  42   0.0000       0.043194         1.1754
  43   0.0000       0.051332         1.3968
  44   0.0000       0.064961         1.7677

MULLIKEN ATOMIC CHARGES
-----------------------
   0 C :    0.076778
   1 C :    0.032053
   2 H :    0.073436
   3 C :    0.060068
   4 H :    0.034082
   5 C :   -0.036600
   6 H :    0.074772
   7 C :    0.196403
   8 H :    0.051495
   9 O :   -0.303074
  10 O :   -0.408929
  11 O :   -0.417883
  12 O :   -0.404854
  13 O :   -0.406938
  14 H :    0.101961
  15 H :    0.064335
  16 H :    0.302302
  17 H :    0.313619
  18 H :    0.300617
  19 H :    0.296357
Sum of atomic charges:    0.0000000

LOEWDIN ATOMIC CHARGES
----------------------
   0 C :   -0.127153
   1 C :   -0.074227
   2 H :    0.120537
   3 C :   -0.076246
   4 H :    0.094921
   5 C :   -0.107735
   6 H :    0.112783
   7 C :   -0.002607
   8 H :    0.089480
   9 O :   -0.138565
  10 O :   -0.322622
  11 O :   -0.317679
  12 O :   -0.317242
  13 O :   -0.303732
  14 H :    0.121642
  15 H :    0.103393
  16 H :    0.281295
  17 H :    0.295917
  18 H :    0.283806
  19 H :    0.284032

  Mayer bond orders larger than 0.100000
B(  0-C ,  1-C ) :   1.0420 B(  0-C ,  9-O ) :   0.9858 B(  0-C , 14-H ) :   0.9265
B(  0-C , 15-H ) :   0.8904 B(  1-C ,  2-H ) :   0.8715 B(  1-C ,  3-C ) :   1.0147
B(  1-C , 13-O ) :   1.0512 B(  3-C ,  4-H ) :   0.8722 B(  3-C ,  5-C ) :   0.9832
B(  3-C , 12-O ) :   1.1024 B(  5-C ,  6-H ) :   0.8821 B(  5-C ,  7-C ) :   0.9852
B(  5-C , 11-O ) :   1.0507 B(  7-C ,  8-H ) :   0.9001 B(  7-C ,  9-O ) :   1.0951
B(  7-C , 10-O ) :   1.0579 B( 10-O , 16-H ) :   0.8159 B( 11-O , 17-H ) :   0.8441
B( 12-O , 18-H ) :   0.8404 B( 13-O , 19-H ) :   0.8486

Dispersion correction           -0.019188471
FINAL SINGLE POINT ENERGY      -571.414959781069

DIPOLE MOMENT
-------------

Method             : SCF
Type of density    : Electron Density
Multiplicity       :   1
Irrep              :   0
Energy             :  -571.5231926923806896 Eh
Relativity type    :
Basis              : AO
                                X                 Y                 Z
Electronic contribution:     -0.418511459      -0.332323995      -0.189308069
Nuclear contribution   :     -0.616740604      -0.528171843       0.323510750
                        -----------------------------------------
Total Dipole Moment    :     -1.035252063      -0.860495837       0.134202680
                        -----------------------------------------
Magnitude (a.u.)       :      1.352852645
Magnitude (Debye)      :      3.438678148

Rotational constants in cm-1:             0.056980             0.044633             0.028993
Rotational constants in MHz :          1708.215914          1338.068448           869.180893

                             ****ORCA TERMINATED NORMALLY****
TOTAL RUN TIME: 0 days 0 hours 0 minutes 11 seconds 809 msec
