                         Program Version 6.0.0  -   RELEASE  -
|  1> ! pbe def2-sv(p) def2/J RI DEFGRID1 loosescf d4 GCP(DFT/SV(P)) printgap
|  2> %output
|  3>     printlevel normal
|  4> end
|  5> * xyz 0 1
|  6> C 4.5805007396 0.5475323548 -2.1726416912
|  7> C 4.4704041691 1.1782770173 -0.7998537326
|  8> O 3.7122832314 0.3611430909 0.1088480697
|  9> P 2.15040223 0.1105141173 -0.0657354523
| 10> S 1.1650834467 1.7172291862 -0.627439668
| 11> O 1.7732897012 -0.4878262145 1.350349248
| 12> C 1.7243664251 0.3415952257 2.5326498583
| 13> C 0.9561730291 -0.4155011161 3.59571121
| 14> S 2.0245996292 -1.6329498766 -1.2270944238
| 15> C 0.2433928773 -1.6570361401 -1.558277455
| 16> S -0.7631111352 -1.9189991381 -0.0661262137
| 17> P -1.8934702326 -0.1359533992 -0.0447102288
| 18> S -2.0869096991 0.730600223 -1.8003067681
| 19> O -1.2518036349 0.6360874608 1.1787412248
| 20> C -1.9408426514 1.6598579469 1.9334306191
| 21> C -2.2545121456 2.8772708448 1.0895557702
| 22> O -3.2792447131 -0.5842665273 0.5944227487
| 23> C -4.3160552255 -1.2096869073 -0.1862497495
| 24> C -5.6474901044 -0.9184000991 0.4769093947
| 25> H 3.6015318612 0.525486607 -2.650279452
| 26> H 5.2573538327 1.1343366444 -2.7852510347
| 27> H 4.9527361909 -0.4705977226 -2.092041686
| 28> H 3.9891311952 2.159604195 -0.8641739213
| 29> H 5.4442040249 1.2710708036 -0.3173684774
| 30> H 2.7522221521 0.5439851856 2.8436926806
| 31> H 1.2364029052 1.2866544978 2.2704208541
| 32> H 1.4485691651 -1.361388094 3.8014138018
| 33> H 0.9186088316 0.1785533008 4.5031531438
| 34> H -0.0544986806 -0.6171834448 3.2504300729
| 35> H 0.0832117582 -2.4989060804 -2.2270977002
| 36> H -0.0698770431 -0.7191755827 -2.0275593371
| 37> H -2.8500650934 1.2234130649 2.3522038409
| 38> H -1.239556189 1.9013779258 2.7342516635
| 39> H -1.350534426 3.2367765474 0.600509047
| 40> H -2.9809275028 2.6257507077 0.3180474361
| 41> H -2.6605325252 3.6620440257 1.7197488994
| 42> H -4.2778306031 -0.8064955656 -1.2040078958
| 43> H -4.1104075754 -2.2823323738 -0.2159348432
| 44> H -5.6421876681 -1.2869869055 1.4986587876
| 45> H -5.8364873209 0.1515497882 0.4872778835
| 46> H -6.436013014 -1.413820521 -0.0797857097
| 47> *
| 48>
| 49>                          ****END OF INPUT****

CARTESIAN COORDINATES (ANGSTROEM)
---------------------------------
  C      4.580501    0.547532   -2.172642
  C      4.470404    1.178277   -0.799854
  O      3.712283    0.361143    0.108848
  P      2.150402    0.110514   -0.065735
  S      1.165083    1.717229   -0.627440
  O      1.773290   -0.487826    1.350349
  C      1.724366    0.341595    2.532650
  C      0.956173   -0.415501    3.595711
  S      2.024600   -1.632950   -1.227094
  C      0.243393   -1.657036   -1.558277
  S     -0.763111   -1.918999   -0.066126
  P     -1.893470   -0.135953   -0.044710
  S     -2.086910    0.730600   -1.800307
  O     -1.251804    0.636087    1.178741
  C     -1.940843    1.659858    1.933431
  C     -2.254512    2.877271    1.089556
  O     -3.279245   -0.584267    0.594423
  C     -4.316055   -1.209687   -0.186250
  C     -5.647490   -0.918400    0.476909
  H      3.601532    0.525487   -2.650279
  H      5.257354    1.134337   -2.785251
  H      4.952736   -0.470598   -2.092042
  H      3.989131    2.159604   -0.864174
  H      5.444204    1.271071   -0.317368
  H      2.752222    0.543985    2.843693
  H      1.236403    1.286654    2.270421
  H      1.448569   -1.361388    3.801414
  H      0.918609    0.178553    4.503153
  H     -0.054499   -0.617183    3.250430
  H      0.083212   -2.498906   -2.227098
  H     -0.069877   -0.719176   -2.027559
  H     -2.850065    1.223413    2.352204
  H     -1.239556    1.901378    2.734252
  H     -1.350534    3.236777    0.600509
  H     -2.980928    2.625751    0.318047
  H     -2.660533    3.662044    1.719749
  H     -4.277831   -0.806496   -1.204008
  H     -4.110408   -2.282332   -0.215935
  H     -5.642188   -1.286987    1.498659
  H     -5.836487    0.151550    0.487278
  H     -6.436013   -1.413821   -0.079786

 Total Charge           Charge          ....    0
 Multiplicity           Mult            ....    1
 Number of Electrons    NEL             ....  202
 Basis Dimension        Dim             ....  334

ORBITAL ENERGIES
----------------

  NO   OCC          E(Eh)            E(eV)
   0   2.0000     -88.040577     -2395.7059
   1   2.0000     -88.039036     -2395.6640
   2   2.0000     -87.981713     -2394.1041
   3   2.0000     -87.978422     -2394.0146
   4   2.0000     -76.424466     -2079.6155
   5   2.0000     -76.419815     -2079.4889
   6   2.0000     -18.793375      -511.3937
   7   2.0000     -18.788890      -511.2717
   8   2.0000     -18.788704      -511.2666
   9   2.0000     -18.781937      -511.0825
  10   2.0000      -9.953591      -270.8510
  11   2.0000      -9.952127      -270.8111
  12   2.0000      -9.950661      -270.7713
  13   2.0000      -9.948161      -270.7032
  14   2.0000      -9.946111      -270.6475
  15   2.0000      -9.888792      -269.0877
  16   2.0000      -9.880946      -268.8742
  17   2.0000      -9.880920      -268.8735
  18   2.0000      -9.877856      -268.7901
  19   2.0000      -7.686265      -209.1539
  20   2.0000      -7.684329      -209.1012
  21   2.0000      -7.626663      -207.5321
  22   2.0000      -7.623260      -207.4394
  23   2.0000      -6.421745      -174.7446
  24   2.0000      -6.417519      -174.6296
  25   2.0000      -5.714282      -155.4935
  26   2.0000      -5.712195      -155.4367
  27   2.0000      -5.710647      -155.3946
  28   2.0000      -5.708860      -155.3460
  29   2.0000      -5.703108      -155.1895
  30   2.0000      -5.701238      -155.1386
  31   2.0000      -5.655543      -153.8951
  32   2.0000      -5.651982      -153.7982
  33   2.0000      -5.647518      -153.6768
  34   2.0000      -5.646597      -153.6517
  35   2.0000      -5.644005      -153.5812
  36   2.0000      -5.643489      -153.5671
  37   2.0000      -4.644550      -126.3846
  38   2.0000      -4.643315      -126.3510
  39   2.0000      -4.642169      -126.3198
  40   2.0000      -4.640111      -126.2639
  41   2.0000      -4.639233      -126.2399
  42   2.0000      -4.637964      -126.2054
  43   2.0000      -0.987278       -26.8652
  44   2.0000      -0.981141       -26.6982
  45   2.0000      -0.942423       -25.6446
  46   2.0000      -0.938549       -25.5392
  47   2.0000      -0.760856       -20.7039
  48   2.0000      -0.720365       -19.6021
  49   2.0000      -0.706690       -19.2300
  50   2.0000      -0.688371       -18.7315
  51   2.0000      -0.683241       -18.5919
  52   2.0000      -0.672226       -18.2922
  53   2.0000      -0.647309       -17.6142
  54   2.0000      -0.629707       -17.1352
  55   2.0000      -0.596098       -16.2207
  56   2.0000      -0.587538       -15.9877
  57   2.0000      -0.571424       -15.5492
  58   2.0000      -0.568755       -15.4766
  59   2.0000      -0.554486       -15.0883
  60   2.0000      -0.504357       -13.7242
  61   2.0000      -0.498198       -13.5567
  62   2.0000      -0.471991       -12.8435
  63   2.0000      -0.468718       -12.7545
  64   2.0000      -0.452079       -12.3017
  65   2.0000      -0.442132       -12.0310
  66   2.0000      -0.438250       -11.9254
  67   2.0000      -0.435415       -11.8483
  68   2.0000      -0.423145       -11.5144
  69   2.0000      -0.414751       -11.2860
  70   2.0000      -0.408578       -11.1180
  71   2.0000      -0.403893       -10.9905
  72   2.0000      -0.386252       -10.5105
  73   2.0000      -0.384373       -10.4593
  74   2.0000      -0.377575       -10.2743
  75   2.0000      -0.368386       -10.0243
  76   2.0000      -0.366831        -9.9820
  77   2.0000      -0.354230        -9.6391
  78   2.0000      -0.351543        -9.5660
  79   2.0000      -0.347981        -9.4690
  80   2.0000      -0.343032        -9.3344
  81   2.0000      -0.338932        -9.2228
  82   2.0000      -0.335275        -9.1233
  83   2.0000      -0.334752        -9.1091
  84   2.0000      -0.331277        -9.0145
  85   2.0000      -0.313976        -8.5437
  86   2.0000      -0.310796        -8.4572
  87   2.0000      -0.299636        -8.1535
  88   2.0000      -0.292707        -7.9650
  89   2.0000      -0.289125        -7.8675
  90   2.0000      -0.283809        -7.7228
  91   2.0000      -0.272313        -7.4100
  92   2.0000      -0.268055        -7.2941
  93   2.0000      -0.259126        -7.0512
  94   2.0000      -0.257614        -7.0100
  95   2.0000      -0.233631        -6.3574
  96   2.0000      -0.220428        -5.9982
  97   2.0000      -0.212697        -5.7878
  98   2.0000      -0.197870        -5.3843
  99   2.0000      -0.190768        -5.1911
 100   2.0000      -0.182099        -4.9552
 101   0.0000      -0.037946        -1.0326
 102   0.0000      -0.031240        -0.8501
 103   0.0000      -0.008437        -0.2296
 104   0.0000       0.012197         0.3319
 105   0.0000       0.020159         0.5486

MULLIKEN ATOMIC CHARGES
-----------------------
   0 C :   -0.319771
   1 C :   -0.001281
   2 O :   -0.380866
   3 P :    0.604602
   4 S :   -0.316144
   5 O :   -0.361448
   6 C :   -0.005147
   7 C :   -0.287394
   8 S :   -0.081386
   9 C :   -0.362883
  10 S :   -0.086226
  11 P :    0.629703
  12 S :   -0.308415
  13 O :   -0.361378
  14 C :   -0.009448
  15 C :   -0.313892
  16 O :   -0.389605
  17 C :   -0.006048
  18 C :   -0.284809
  19 H :    0.129288
  20 H :    0.112825
  21 H :    0.117611
  22 H :    0.109000
  23 H :    0.102388
  24 H :    0.099845
  25 H :    0.103480
  26 H :    0.115641
  27 H :    0.102927
  28 H :    0.127382
  29 H :    0.181424
  30 H :    0.207636
  31 H :    0.108517
  32 H :    0.106065
  33 H :    0.136455
  34 H :    0.124874
  35 H :    0.106172
  36 H :    0.105274
  37 H :    0.100078
  38 H :    0.115175
  39 H :    0.117049
  40 H :    0.112730
Sum of atomic charges:    0.0000000

LOEWDIN ATOMIC CHARGES
----------------------
   0 C :   -0.370205
   1 C :   -0.120703
   2 O :   -0.249344
   3 P :    0.560872
   4 S :   -0.309713
   5 O :   -0.240791
   6 C :   -0.114825
   7 C :   -0.353488
   8 S :    0.092555
   9 C :   -0.481424
  10 S :    0.082266
  11 P :    0.570049
  12 S :   -0.297252
  13 O :   -0.233788
  14 C :   -0.110090
  15 C :   -0.367912
  16 O :   -0.251759
  17 C :   -0.122695
  18 C :   -0.351347
  19 H :    0.122249
  20 H :    0.130985
  21 H :    0.123816
  22 H :    0.109370
  23 H :    0.117291
  24 H :    0.110741
  25 H :    0.105476
  26 H :    0.127490
  27 H :    0.126035
  28 H :    0.126197
  29 H :    0.137366
  30 H :    0.125669
  31 H :    0.111283
  32 H :    0.115461
  33 H :    0.131859
  34 H :    0.120744
  35 H :    0.127348
  36 H :    0.105950
  37 H :    0.110831
  38 H :    0.125587
  39 H :    0.126584
  40 H :    0.131261

  Mayer bond orders larger than 0.100000
B(  0-C ,  1-C ) :   1.1650 B(  0-C , 19-H ) :   0.9347 B(  0-C , 20-H ) :   0.9381
B(  0-C , 21-H ) :   0.9448 B(  1-C ,  2-O ) :   0.9111 B(  1-C , 22-H ) :   0.9128
B(  1-C , 23-H ) :   0.9335 B(  2-O ,  3-P ) :   1.0922 B(  3-P ,  4-S ) :   1.6318
B(  3-P ,  5-O ) :   1.1318 B(  3-P ,  8-S ) :   0.9633 B(  4-S ,  8-S ) :   0.1139
B(  5-O ,  6-C ) :   0.8994 B(  6-C ,  7-C ) :   1.1651 B(  6-C , 24-H ) :   0.9300
B(  6-C , 25-H ) :   0.9066 B(  7-C , 26-H ) :   0.9484 B(  7-C , 27-H ) :   0.9412
B(  7-C , 28-H ) :   0.9432 B(  8-S ,  9-C ) :   0.9967 B(  9-C , 10-S ) :   1.0034
B(  9-C , 29-H ) :   0.9117 B(  9-C , 30-H ) :   0.8458 B( 10-S , 11-P ) :   0.9725
B( 10-S , 12-S ) :   0.1257 B( 11-P , 12-S ) :   1.6125 B( 11-P , 13-O ) :   1.1227
B( 11-P , 16-O ) :   1.0784 B( 12-S , 30-H ) :   0.1009 B( 13-O , 14-C ) :   0.9005
B( 14-C , 15-C ) :   1.1708 B( 14-C , 31-H ) :   0.9285 B( 14-C , 32-H ) :   0.9263
B( 15-C , 33-H ) :   0.9408 B( 15-C , 34-H ) :   0.9339 B( 15-C , 35-H ) :   0.9362
B( 16-O , 17-C ) :   0.9061 B( 17-C , 18-C ) :   1.1594 B( 17-C , 36-H ) :   0.9018
B( 17-C , 37-H ) :   0.9302 B( 18-C , 38-H ) :   0.9510 B( 18-C , 39-H ) :   0.9513
B( 18-C , 40-H ) :   0.9422

Dispersion correction           -0.067098416
FINAL SINGLE POINT ENERGY     -2929.518658641131

DIPOLE MOMENT
-------------

Method             : SCF
Type of density    : Electron Density
Multiplicity       :   1
Irrep              :   0
Energy             : -2929.6371523594593782 Eh
Relativity type    :
Basis              : AO
                                X                 Y                 Z
Electronic contribution:      7.360208933      -8.142518158     -10.487733501
Nuclear contribution   :     -7.566409014       7.975239845      11.433811584
                        -----------------------------------------
Total Dipole Moment    :     -0.206200081      -0.167278314       0.946078083
                        -----------------------------------------
Magnitude (a.u.)       :      0.982631288
Magnitude (Debye)      :      2.497650242

Rotational constants in cm-1:             0.012894             0.005290             0.004983
Rotational constants in MHz :           386.556838           158.603977           149.384521

                             ****ORCA TERMINATED NORMALLY****
TOTAL RUN TIME: 0 days 0 hours 0 minutes 21 seconds 671 msec
