                         Program Version 6.0.0  -   RELEASE  -
|  1> ! pbe def2-sv(p) def2/J RI DEFGRID1 loosescf d4 GCP(DFT/SV(P)) printgap
|  2> %output
|  3>     printlevel normal
|  4> end
|  5> * xyz 0 1
|  6> C 2.4578595232 -3.1784817985 -1.11494846
|  7> C 3.356605177 -2.0981942988 -1.6792124425
|  8> O 3.5760410805 -1.0128771444 -0.748656676
|  9> P 2.4646006638 -0.0648284345 -0.1278223163
| 10> S 3.3033046129 1.5576049366 0.564590655
| 11> O 1.6603518759 -0.9330043157 0.947047085
| 12> C 1.9477284692 -0.9106755517 2.3597761309
| 13> C 0.9717265535 -0.0173625107 3.0991580802
| 14> S 1.027170552 0.1136647813 -1.6669893385
| 15> C 0.3930266785 1.7429878495 -1.2000875518
| 16> S -0.4508171892 1.7509547447 0.4027144576
| 17> P -1.9523150368 0.3475718206 -0.0941190372
| 18> S -2.6615789526 0.4512976302 -1.9231634559
| 19> O -3.0211103428 0.5530191931 1.0615036998
| 20> C -3.9421542256 1.6620436673 1.0505456742
| 21> C -5.0598745052 1.3481194408 2.0244200451
| 22> O -1.287266274 -1.0174666315 0.343006207
| 23> C -1.6586217545 -2.2755053666 -0.2563543905
| 24> C -3.0622756457 -2.6839739148 0.1368835601
| 25> H 2.8668439439 -3.562746684 -0.1840105043
| 26> H 1.4645606447 -2.7751429119 -0.9275242099
| 27> H 2.381040739 -3.9874647484 -1.8346594594
| 28> H 2.933653488 -1.6809718719 -2.5968502155
| 29> H 4.3643313654 -2.4698027103 -1.8718608776
| 30> H 1.851032087 -1.9506218066 2.676963667
| 31> H 2.9766386451 -0.5715176534 2.5133032438
| 32> H -0.0498512364 -0.2935387582 2.8485072705
| 33> H 1.1250521046 -0.1282411386 4.1677463911
| 34> H 1.1297898887 1.0230230277 2.8228380277
| 35> H -0.305119419 2.0325071481 -1.9850809241
| 36> H 1.2192308115 2.4484666142 -1.1164670043
| 37> H -3.3966970789 2.562816038 1.3451278143
| 38> H -4.3204720541 1.7906329111 0.0307811203
| 39> H -5.5926767713 0.4554378153 1.709595575
| 40> H -4.6495687175 1.1826894978 3.0162710241
| 41> H -5.7500332198 2.1847461316 2.055216335
| 42> H -1.5701737511 -2.1827427245 -1.34386655
| 43> H -0.911385138 -2.9757792903 0.1199452633
| 44> H -3.1592901063 -2.7036257184 1.2190839154
| 45> H -3.7782928529 -1.9695643619 -0.2681154398
| 46> H -3.2788739457 -3.6682617841 -0.2661558466
| 47> *
| 48>
| 49>                          ****END OF INPUT****

CARTESIAN COORDINATES (ANGSTROEM)
---------------------------------
  C      2.457860   -3.178482   -1.114948
  C      3.356605   -2.098194   -1.679212
  O      3.576041   -1.012877   -0.748657
  P      2.464601   -0.064828   -0.127822
  S      3.303305    1.557605    0.564591
  O      1.660352   -0.933004    0.947047
  C      1.947728   -0.910676    2.359776
  C      0.971727   -0.017363    3.099158
  S      1.027171    0.113665   -1.666989
  C      0.393027    1.742988   -1.200088
  S     -0.450817    1.750955    0.402714
  P     -1.952315    0.347572   -0.094119
  S     -2.661579    0.451298   -1.923163
  O     -3.021110    0.553019    1.061504
  C     -3.942154    1.662044    1.050546
  C     -5.059875    1.348119    2.024420
  O     -1.287266   -1.017467    0.343006
  C     -1.658622   -2.275505   -0.256354
  C     -3.062276   -2.683974    0.136884
  H      2.866844   -3.562747   -0.184011
  H      1.464561   -2.775143   -0.927524
  H      2.381041   -3.987465   -1.834659
  H      2.933653   -1.680972   -2.596850
  H      4.364331   -2.469803   -1.871861
  H      1.851032   -1.950622    2.676964
  H      2.976639   -0.571518    2.513303
  H     -0.049851   -0.293539    2.848507
  H      1.125052   -0.128241    4.167746
  H      1.129790    1.023023    2.822838
  H     -0.305119    2.032507   -1.985081
  H      1.219231    2.448467   -1.116467
  H     -3.396697    2.562816    1.345128
  H     -4.320472    1.790633    0.030781
  H     -5.592677    0.455438    1.709596
  H     -4.649569    1.182689    3.016271
  H     -5.750033    2.184746    2.055216
  H     -1.570174   -2.182743   -1.343867
  H     -0.911385   -2.975779    0.119945
  H     -3.159290   -2.703626    1.219084
  H     -3.778293   -1.969564   -0.268115
  H     -3.278874   -3.668262   -0.266156

 Total Charge           Charge          ....    0
 Multiplicity           Mult            ....    1
 Number of Electrons    NEL             ....  202
 Basis Dimension        Dim             ....  334

ORBITAL ENERGIES
----------------

  NO   OCC          E(Eh)            E(eV)
   0   2.0000     -88.044744     -2395.8193
   1   2.0000     -88.042626     -2395.7617
   2   2.0000     -87.990478     -2394.3426
   3   2.0000     -87.982210     -2394.1176
   4   2.0000     -76.428159     -2079.7159
   5   2.0000     -76.423559     -2079.5908
   6   2.0000     -18.796892      -511.4894
   7   2.0000     -18.791809      -511.3511
   8   2.0000     -18.791017      -511.3296
   9   2.0000     -18.783689      -511.1302
  10   2.0000      -9.959823      -271.0206
  11   2.0000      -9.956298      -270.9246
  12   2.0000      -9.955457      -270.9017
  13   2.0000      -9.953538      -270.8495
  14   2.0000      -9.947226      -270.6778
  15   2.0000      -9.892728      -269.1948
  16   2.0000      -9.890971      -269.1470
  17   2.0000      -9.885617      -269.0013
  18   2.0000      -9.872652      -268.6485
  19   2.0000      -7.689656      -209.2462
  20   2.0000      -7.687589      -209.1899
  21   2.0000      -7.635378      -207.7692
  22   2.0000      -7.627542      -207.5560
  23   2.0000      -6.425722      -174.8528
  24   2.0000      -6.421281      -174.7319
  25   2.0000      -5.717499      -155.5811
  26   2.0000      -5.715483      -155.5262
  27   2.0000      -5.714259      -155.4929
  28   2.0000      -5.712139      -155.4352
  29   2.0000      -5.706555      -155.2833
  30   2.0000      -5.704467      -155.2264
  31   2.0000      -5.664186      -154.1303
  32   2.0000      -5.656617      -153.9244
  33   2.0000      -5.655983      -153.9071
  34   2.0000      -5.655698      -153.8994
  35   2.0000      -5.648478      -153.7029
  36   2.0000      -5.647161      -153.6671
  37   2.0000      -4.648094      -126.4811
  38   2.0000      -4.647526      -126.4656
  39   2.0000      -4.646291      -126.4320
  40   2.0000      -4.644081      -126.3719
  41   2.0000      -4.642844      -126.3382
  42   2.0000      -4.641752      -126.3085
  43   2.0000      -0.990211       -26.9450
  44   2.0000      -0.979381       -26.6503
  45   2.0000      -0.948902       -25.8209
  46   2.0000      -0.939934       -25.5769
  47   2.0000      -0.767126       -20.8746
  48   2.0000      -0.723262       -19.6810
  49   2.0000      -0.711534       -19.3618
  50   2.0000      -0.691446       -18.8152
  51   2.0000      -0.689057       -18.7502
  52   2.0000      -0.672281       -18.2937
  53   2.0000      -0.650021       -17.6880
  54   2.0000      -0.639865       -17.4116
  55   2.0000      -0.601376       -16.3643
  56   2.0000      -0.591134       -16.0856
  57   2.0000      -0.578587       -15.7442
  58   2.0000      -0.567464       -15.4415
  59   2.0000      -0.559398       -15.2220
  60   2.0000      -0.507045       -13.7974
  61   2.0000      -0.496678       -13.5153
  62   2.0000      -0.479564       -13.0496
  63   2.0000      -0.474773       -12.9192
  64   2.0000      -0.458617       -12.4796
  65   2.0000      -0.448269       -12.1980
  66   2.0000      -0.440328       -11.9819
  67   2.0000      -0.436747       -11.8845
  68   2.0000      -0.429298       -11.6818
  69   2.0000      -0.413507       -11.2521
  70   2.0000      -0.405208       -11.0263
  71   2.0000      -0.399231       -10.8636
  72   2.0000      -0.394868       -10.7449
  73   2.0000      -0.386270       -10.5109
  74   2.0000      -0.378596       -10.3021
  75   2.0000      -0.375465       -10.2169
  76   2.0000      -0.366504        -9.9731
  77   2.0000      -0.359872        -9.7926
  78   2.0000      -0.355143        -9.6639
  79   2.0000      -0.354501        -9.6465
  80   2.0000      -0.349558        -9.5119
  81   2.0000      -0.346016        -9.4156
  82   2.0000      -0.345676        -9.4063
  83   2.0000      -0.339786        -9.2460
  84   2.0000      -0.334576        -9.1043
  85   2.0000      -0.320558        -8.7228
  86   2.0000      -0.308973        -8.4076
  87   2.0000      -0.303780        -8.2663
  88   2.0000      -0.301221        -8.1966
  89   2.0000      -0.287748        -7.8300
  90   2.0000      -0.278855        -7.5880
  91   2.0000      -0.277736        -7.5576
  92   2.0000      -0.273284        -7.4364
  93   2.0000      -0.265575        -7.2267
  94   2.0000      -0.257558        -7.0085
  95   2.0000      -0.231423        -6.2973
  96   2.0000      -0.218232        -5.9384
  97   2.0000      -0.214668        -5.8414
  98   2.0000      -0.206815        -5.6277
  99   2.0000      -0.200254        -5.4492
 100   2.0000      -0.194647        -5.2966
 101   0.0000      -0.046917        -1.2767
 102   0.0000      -0.025443        -0.6923
 103   0.0000      -0.001110        -0.0302
 104   0.0000       0.004651         0.1265
 105   0.0000       0.008810         0.2397

MULLIKEN ATOMIC CHARGES
-----------------------
   0 C :   -0.334660
   1 C :   -0.016308
   2 O :   -0.370166
   3 P :    0.620516
   4 S :   -0.319195
   5 O :   -0.376771
   6 C :   -0.008379
   7 C :   -0.294272
   8 S :   -0.105737
   9 C :   -0.345943
  10 S :   -0.076054
  11 P :    0.619452
  12 S :   -0.337743
  13 O :   -0.377610
  14 C :   -0.014042
  15 C :   -0.280873
  16 O :   -0.354472
  17 C :   -0.025629
  18 C :   -0.293018
  19 H :    0.118532
  20 H :    0.148554
  21 H :    0.114588
  22 H :    0.119258
  23 H :    0.114873
  24 H :    0.095797
  25 H :    0.105384
  26 H :    0.116115
  27 H :    0.101325
  28 H :    0.130017
  29 H :    0.191794
  30 H :    0.193809
  31 H :    0.104880
  32 H :    0.106955
  33 H :    0.118965
  34 H :    0.117915
  35 H :    0.113628
  36 H :    0.113973
  37 H :    0.116188
  38 H :    0.114723
  39 H :    0.122716
  40 H :    0.110915
Sum of atomic charges:   -0.0000000

LOEWDIN ATOMIC CHARGES
----------------------
   0 C :   -0.369006
   1 C :   -0.116000
   2 O :   -0.247608
   3 P :    0.570716
   4 S :   -0.315030
   5 O :   -0.250396
   6 C :   -0.114689
   7 C :   -0.365545
   8 S :    0.087962
   9 C :   -0.476948
  10 S :    0.101324
  11 P :    0.569814
  12 S :   -0.327637
  13 O :   -0.247011
  14 C :   -0.120804
  15 C :   -0.350264
  16 O :   -0.228008
  17 C :   -0.118902
  18 C :   -0.365104
  19 H :    0.127765
  20 H :    0.123108
  21 H :    0.131745
  22 H :    0.109915
  23 H :    0.124344
  24 H :    0.113068
  25 H :    0.108502
  26 H :    0.120671
  27 H :    0.124916
  28 H :    0.121497
  29 H :    0.131557
  30 H :    0.132862
  31 H :    0.110708
  32 H :    0.108941
  33 H :    0.127919
  34 H :    0.127574
  35 H :    0.131731
  36 H :    0.110476
  37 H :    0.117745
  38 H :    0.125824
  39 H :    0.121998
  40 H :    0.130270

  Mayer bond orders larger than 0.100000
B(  0-C ,  1-C ) :   1.1622 B(  0-C , 19-H ) :   0.9452 B(  0-C , 20-H ) :   0.9300
B(  0-C , 21-H ) :   0.9356 B(  1-C ,  2-O ) :   0.9136 B(  1-C , 22-H ) :   0.9187
B(  1-C , 23-H ) :   0.9347 B(  2-O ,  3-P ) :   1.1206 B(  3-P ,  4-S ) :   1.6239
B(  3-P ,  5-O ) :   1.0896 B(  3-P ,  8-S ) :   0.9494 B(  4-S ,  8-S ) :   0.1004
B(  5-O ,  6-C ) :   0.9030 B(  6-C ,  7-C ) :   1.1734 B(  6-C , 24-H ) :   0.9335
B(  6-C , 25-H ) :   0.9133 B(  7-C , 26-H ) :   0.9419 B(  7-C , 27-H ) :   0.9383
B(  7-C , 28-H ) :   0.9356 B(  8-S ,  9-C ) :   1.0127 B(  9-C , 10-S ) :   1.0059
B(  9-C , 29-H ) :   0.8852 B(  9-C , 30-H ) :   0.8831 B( 10-S , 11-P ) :   0.9635
B( 10-S , 12-S ) :   0.1078 B( 11-P , 12-S ) :   1.5905 B( 11-P , 13-O ) :   1.1059
B( 11-P , 16-O ) :   1.1255 B( 13-O , 14-C ) :   0.9035 B( 14-C , 15-C ) :   1.1608
B( 14-C , 31-H ) :   0.9282 B( 14-C , 32-H ) :   0.9109 B( 15-C , 33-H ) :   0.9515
B( 15-C , 34-H ) :   0.9503 B( 15-C , 35-H ) :   0.9418 B( 16-O , 17-C ) :   0.9029
B( 17-C , 18-C ) :   1.1617 B( 17-C , 36-H ) :   0.9162 B( 17-C , 37-H ) :   0.9247
B( 18-C , 38-H ) :   0.9454 B( 18-C , 39-H ) :   0.9324 B( 18-C , 40-H ) :   0.9390

Dispersion correction           -0.067027298
FINAL SINGLE POINT ENERGY     -2929.522485670484

DIPOLE MOMENT
-------------

Method             : SCF
Type of density    : Electron Density
Multiplicity       :   1
Irrep              :   0
Energy             : -2929.6408407434410037 Eh
Relativity type    :
Basis              : AO
                                X                 Y                 Z
Electronic contribution:     13.249309920      15.268309030     -11.208008310
Nuclear contribution   :    -14.036072736     -16.574261092      11.678732950
                        -----------------------------------------
Total Dipole Moment    :     -0.786762817      -1.305952062       0.470724640
                        -----------------------------------------
Magnitude (a.u.)       :      1.595646642
Magnitude (Debye)      :      4.055811443

Rotational constants in cm-1:             0.012109             0.005429             0.005060
Rotational constants in MHz :           363.014087           162.750433           151.709911

                             ****ORCA TERMINATED NORMALLY****
TOTAL RUN TIME: 0 days 0 hours 0 minutes 22 seconds 173 msec
