                         Program Version 6.0.0  -   RELEASE  -
|  1> ! pbe def2-sv(p) def2/J RI DEFGRID1 loosescf d4 GCP(DFT/SV(P)) printgap
|  2> %output
|  3>     printlevel normal
|  4> end
|  5> * xyz 0 1
|  6> C 3.3242310134 2.741360884 1.6715724352
|  7> C 2.0440678411 2.0649907397 1.2248643289
|  8> O 2.0362533039 0.6712995483 1.6173108207
|  9> P 2.4419991565 -0.5138652609 0.6611807737
| 10> S 2.4189118379 -2.1887670765 1.66993102
| 11> O 3.8179750471 -0.000563471 0.0565311373
| 12> C 4.4528147603 -0.5222876747 -1.1256917343
| 13> C 4.6505513399 -2.0223686803 -1.0735512553
| 14> S 1.1261019292 -0.4288176909 -1.0297743566
| 15> C -0.1618480123 -1.4798072105 -0.3267489927
| 16> S -1.2659982658 -0.5916000652 0.7941850992
| 17> P -2.4684100719 0.2994856607 -0.7389800474
| 18> S -2.7638575572 -0.7865755064 -2.3357267011
| 19> O -1.7452672263 1.6566747526 -1.0884202616
| 20> C -1.4536761163 2.6942313944 -0.1212702622
| 21> C -2.5578200805 3.7307686944 -0.0807827639
| 22> O -3.7728779868 0.7766125341 0.0335523223
| 23> C -4.9220110574 -0.0730954286 0.2048227258
| 24> C -4.6296550572 -1.2730171249 1.0817691452
| 25> H 3.444921489 2.6318839677 2.7456773874
| 26> H 4.1814117945 2.2929328903 1.1768838737
| 27> H 3.2750908327 3.7964314276 1.421081139
| 28> H 1.9180519309 2.1286303852 0.1400518283
| 29> H 1.1754015241 2.4947335306 1.7273211267
| 30> H 3.8454081692 -0.2421770788 -1.9908795573
| 31> H 5.4086737103 0.0037007364 -1.1573504526
| 32> H 5.2155323126 -2.342319127 -1.9431654982
| 33> H 5.1877011721 -2.3034251668 -0.1707358852
| 34> H 3.6868641536 -2.529945157 -1.0708401129
| 35> H 0.3082380998 -2.277256447 0.2520294842
| 36> H -0.7433485357 -1.876289934 -1.1605797856
| 37> H -1.3093606984 2.230800051 0.8593074275
| 38> H -0.516024152 3.130183869 -0.4715659391
| 39> H -2.2621709704 4.5365501875 0.5839132169
| 40> H -2.7270861361 4.1308013425 -1.0766393803
| 41> H -3.4812697716 3.287603221 0.2811628048
| 42> H -5.6656572873 0.5838176267 0.6582011375
| 43> H -5.261835605 -0.3942962616 -0.7843847147
| 44> H -4.1818253026 -0.9581887007 2.0212242945
| 45> H -5.555111975 -1.8028060148 1.2834330602
| 46> H -3.9425289188 -1.9485588286 0.5741737258
| 47> *
| 48>
| 49>                          ****END OF INPUT****

CARTESIAN COORDINATES (ANGSTROEM)
---------------------------------
  C      3.324231    2.741361    1.671572
  C      2.044068    2.064991    1.224864
  O      2.036253    0.671300    1.617311
  P      2.441999   -0.513865    0.661181
  S      2.418912   -2.188767    1.669931
  O      3.817975   -0.000563    0.056531
  C      4.452815   -0.522288   -1.125692
  C      4.650551   -2.022369   -1.073551
  S      1.126102   -0.428818   -1.029774
  C     -0.161848   -1.479807   -0.326749
  S     -1.265998   -0.591600    0.794185
  P     -2.468410    0.299486   -0.738980
  S     -2.763858   -0.786576   -2.335727
  O     -1.745267    1.656675   -1.088420
  C     -1.453676    2.694231   -0.121270
  C     -2.557820    3.730769   -0.080783
  O     -3.772878    0.776613    0.033552
  C     -4.922011   -0.073095    0.204823
  C     -4.629655   -1.273017    1.081769
  H      3.444921    2.631884    2.745677
  H      4.181412    2.292933    1.176884
  H      3.275091    3.796431    1.421081
  H      1.918052    2.128630    0.140052
  H      1.175402    2.494734    1.727321
  H      3.845408   -0.242177   -1.990880
  H      5.408674    0.003701   -1.157350
  H      5.215532   -2.342319   -1.943165
  H      5.187701   -2.303425   -0.170736
  H      3.686864   -2.529945   -1.070840
  H      0.308238   -2.277256    0.252029
  H     -0.743349   -1.876290   -1.160580
  H     -1.309361    2.230800    0.859307
  H     -0.516024    3.130184   -0.471566
  H     -2.262171    4.536550    0.583913
  H     -2.727086    4.130801   -1.076639
  H     -3.481270    3.287603    0.281163
  H     -5.665657    0.583818    0.658201
  H     -5.261836   -0.394296   -0.784385
  H     -4.181825   -0.958189    2.021224
  H     -5.555112   -1.802806    1.283433
  H     -3.942529   -1.948559    0.574174

 Total Charge           Charge          ....    0
 Multiplicity           Mult            ....    1
 Number of Electrons    NEL             ....  202
 Basis Dimension        Dim             ....  334

ORBITAL ENERGIES
----------------

  NO   OCC          E(Eh)            E(eV)
   0   2.0000     -88.043105     -2395.7747
   1   2.0000     -88.041683     -2395.7360
   2   2.0000     -87.988865     -2394.2987
   3   2.0000     -87.984733     -2394.1863
   4   2.0000     -76.428289     -2079.7195
   5   2.0000     -76.427825     -2079.7068
   6   2.0000     -18.799602      -511.5632
   7   2.0000     -18.798785      -511.5409
   8   2.0000     -18.793788      -511.4050
   9   2.0000     -18.792273      -511.3638
  10   2.0000      -9.961721      -271.0722
  11   2.0000      -9.960155      -271.0296
  12   2.0000      -9.959712      -271.0175
  13   2.0000      -9.956846      -270.9396
  14   2.0000      -9.948577      -270.7145
  15   2.0000      -9.889732      -269.1133
  16   2.0000      -9.889521      -269.1075
  17   2.0000      -9.885592      -269.0006
  18   2.0000      -9.884770      -268.9783
  19   2.0000      -7.687860      -209.1973
  20   2.0000      -7.686446      -209.1588
  21   2.0000      -7.634148      -207.7357
  22   2.0000      -7.630067      -207.6247
  23   2.0000      -6.425978      -174.8597
  24   2.0000      -6.425200      -174.8386
  25   2.0000      -5.715439      -155.5250
  26   2.0000      -5.714095      -155.4884
  27   2.0000      -5.712422      -155.4429
  28   2.0000      -5.711107      -155.4071
  29   2.0000      -5.705177      -155.2458
  30   2.0000      -5.703561      -155.2018
  31   2.0000      -5.663127      -154.1015
  32   2.0000      -5.659115      -153.9924
  33   2.0000      -5.654647      -153.8708
  34   2.0000      -5.654322      -153.8619
  35   2.0000      -5.650644      -153.7619
  36   2.0000      -5.650078      -153.7464
  37   2.0000      -4.648906      -126.5032
  38   2.0000      -4.648131      -126.4821
  39   2.0000      -4.647585      -126.4672
  40   2.0000      -4.647120      -126.4546
  41   2.0000      -4.646231      -126.4304
  42   2.0000      -4.645194      -126.4022
  43   2.0000      -0.992284       -27.0014
  44   2.0000      -0.991870       -26.9902
  45   2.0000      -0.949461       -25.8361
  46   2.0000      -0.948600       -25.8127
  47   2.0000      -0.763129       -20.7658
  48   2.0000      -0.724021       -19.7016
  49   2.0000      -0.714533       -19.4434
  50   2.0000      -0.694569       -18.9002
  51   2.0000      -0.693654       -18.8753
  52   2.0000      -0.677841       -18.4450
  53   2.0000      -0.652516       -17.7559
  54   2.0000      -0.639845       -17.4111
  55   2.0000      -0.598520       -16.2866
  56   2.0000      -0.592333       -16.1182
  57   2.0000      -0.580678       -15.8011
  58   2.0000      -0.577989       -15.7279
  59   2.0000      -0.562825       -15.3153
  60   2.0000      -0.507809       -13.8182
  61   2.0000      -0.500496       -13.6192
  62   2.0000      -0.479142       -13.0381
  63   2.0000      -0.476576       -12.9683
  64   2.0000      -0.460538       -12.5319
  65   2.0000      -0.452669       -12.3177
  66   2.0000      -0.446355       -12.1459
  67   2.0000      -0.439724       -11.9655
  68   2.0000      -0.432901       -11.7798
  69   2.0000      -0.421962       -11.4822
  70   2.0000      -0.413579       -11.2541
  71   2.0000      -0.401074       -10.9138
  72   2.0000      -0.397295       -10.8110
  73   2.0000      -0.390288       -10.6203
  74   2.0000      -0.379104       -10.3159
  75   2.0000      -0.371834       -10.1181
  76   2.0000      -0.366421        -9.9708
  77   2.0000      -0.359734        -9.7889
  78   2.0000      -0.357750        -9.7349
  79   2.0000      -0.353788        -9.6270
  80   2.0000      -0.352932        -9.6038
  81   2.0000      -0.348919        -9.4946
  82   2.0000      -0.346505        -9.4289
  83   2.0000      -0.340720        -9.2714
  84   2.0000      -0.339622        -9.2416
  85   2.0000      -0.324495        -8.8300
  86   2.0000      -0.317250        -8.6328
  87   2.0000      -0.300917        -8.1884
  88   2.0000      -0.299848        -8.1593
  89   2.0000      -0.295346        -8.0368
  90   2.0000      -0.292114        -7.9488
  91   2.0000      -0.281900        -7.6709
  92   2.0000      -0.274516        -7.4700
  93   2.0000      -0.266730        -7.2581
  94   2.0000      -0.257304        -7.0016
  95   2.0000      -0.237116        -6.4522
  96   2.0000      -0.219989        -5.9862
  97   2.0000      -0.211829        -5.7642
  98   2.0000      -0.204383        -5.5616
  99   2.0000      -0.201438        -5.4814
 100   2.0000      -0.199361        -5.4249
 101   0.0000      -0.042398        -1.1537
 102   0.0000      -0.027502        -0.7484
 103   0.0000      -0.008731        -0.2376
 104   0.0000      -0.000384        -0.0104
 105   0.0000       0.013627         0.3708

MULLIKEN ATOMIC CHARGES
-----------------------
   0 C :   -0.283027
   1 C :   -0.028438
   2 O :   -0.347633
   3 P :    0.595823
   4 S :   -0.304796
   5 O :   -0.382763
   6 C :   -0.010468
   7 C :   -0.309436
   8 S :   -0.100071
   9 C :   -0.376532
  10 S :   -0.083092
  11 P :    0.601177
  12 S :   -0.311439
  13 O :   -0.349762
  14 C :   -0.033021
  15 C :   -0.285448
  16 O :   -0.383107
  17 C :   -0.001827
  18 C :   -0.317750
  19 H :    0.121147
  20 H :    0.122594
  21 H :    0.106949
  22 H :    0.105865
  23 H :    0.111606
  24 H :    0.115397
  25 H :    0.108425
  26 H :    0.112917
  27 H :    0.127542
  28 H :    0.126847
  29 H :    0.196273
  30 H :    0.194837
  31 H :    0.113697
  32 H :    0.111088
  33 H :    0.107498
  34 H :    0.120156
  35 H :    0.124017
  36 H :    0.105295
  37 H :    0.114826
  38 H :    0.119579
  39 H :    0.115029
  40 H :    0.130028
Sum of atomic charges:   -0.0000000

LOEWDIN ATOMIC CHARGES
----------------------
   0 C :   -0.358352
   1 C :   -0.116087
   2 O :   -0.233068
   3 P :    0.569413
   4 S :   -0.299428
   5 O :   -0.244744
   6 C :   -0.115041
   7 C :   -0.368762
   8 S :    0.065377
   9 C :   -0.495031
  10 S :    0.080763
  11 P :    0.573370
  12 S :   -0.305040
  13 O :   -0.234441
  14 C :   -0.116857
  15 C :   -0.359611
  16 O :   -0.247001
  17 C :   -0.116198
  18 C :   -0.370812
  19 H :    0.129801
  20 H :    0.126963
  21 H :    0.128165
  22 H :    0.103096
  23 H :    0.117994
  24 H :    0.109445
  25 H :    0.120588
  26 H :    0.131013
  27 H :    0.130699
  28 H :    0.122226
  29 H :    0.126635
  30 H :    0.126463
  31 H :    0.103937
  32 H :    0.118096
  33 H :    0.128641
  34 H :    0.129313
  35 H :    0.126835
  36 H :    0.118521
  37 H :    0.113979
  38 H :    0.124365
  39 H :    0.132207
  40 H :    0.122571

  Mayer bond orders larger than 0.100000
B(  0-C ,  1-C ) :   1.1605 B(  0-C , 19-H ) :   0.9462 B(  0-C , 20-H ) :   0.9418
B(  0-C , 21-H ) :   0.9402 B(  1-C ,  2-O ) :   0.8988 B(  1-C , 22-H ) :   0.9103
B(  1-C , 23-H ) :   0.9306 B(  2-O ,  3-P ) :   1.1384 B(  3-P ,  4-S ) :   1.6464
B(  3-P ,  5-O ) :   1.0804 B(  3-P ,  8-S ) :   0.9408 B(  4-S ,  8-S ) :   0.1136
B(  4-S , 29-H ) :   0.1048 B(  5-O ,  6-C ) :   0.9088 B(  6-C ,  7-C ) :   1.1680
B(  6-C , 24-H ) :   0.9259 B(  6-C , 25-H ) :   0.9328 B(  7-C , 26-H ) :   0.9347
B(  7-C , 27-H ) :   0.9431 B(  7-C , 28-H ) :   0.9323 B(  8-S ,  9-C ) :   1.0048
B(  9-C , 10-S ) :   1.0054 B(  9-C , 29-H ) :   0.8573 B(  9-C , 30-H ) :   0.8616
B( 10-S , 11-P ) :   0.9488 B( 10-S , 12-S ) :   0.1114 B( 11-P , 12-S ) :   1.6332
B( 11-P , 13-O ) :   1.1412 B( 11-P , 16-O ) :   1.0844 B( 13-O , 14-C ) :   0.8992
B( 14-C , 15-C ) :   1.1598 B( 14-C , 31-H ) :   0.9066 B( 14-C , 32-H ) :   0.9319
B( 15-C , 33-H ) :   0.9396 B( 15-C , 34-H ) :   0.9462 B( 15-C , 35-H ) :   0.9405
B( 16-O , 17-C ) :   0.9029 B( 17-C , 18-C ) :   1.1669 B( 17-C , 36-H ) :   0.9338
B( 17-C , 37-H ) :   0.9191 B( 18-C , 38-H ) :   0.9433 B( 18-C , 39-H ) :   0.9366
B( 18-C , 40-H ) :   0.9344

Dispersion correction           -0.063834273
FINAL SINGLE POINT ENERGY     -2929.518383751561

DIPOLE MOMENT
-------------

Method             : SCF
Type of density    : Electron Density
Multiplicity       :   1
Irrep              :   0
Energy             : -2929.6396375441236160 Eh
Relativity type    :
Basis              : AO
                                X                 Y                 Z
Electronic contribution:     -1.809360227     -12.435295775      -3.624776734
Nuclear contribution   :      1.919963501      14.024982870       3.762066872
                        -----------------------------------------
Total Dipole Moment    :      0.110603274       1.589687095       0.137290138
                        -----------------------------------------
Magnitude (a.u.)       :      1.599433252
Magnitude (Debye)      :      4.065436240

Rotational constants in cm-1:             0.012468             0.004578             0.004141
Rotational constants in MHz :           373.789455           137.247140           124.155966

                             ****ORCA TERMINATED NORMALLY****
TOTAL RUN TIME: 0 days 0 hours 0 minutes 20 seconds 922 msec
