                         Program Version 6.0.0  -   RELEASE  -
|  1> ! r2scan-3c def2/J RI DEFGRID2 scfconv6 printgap
|  2> %output
|  3>     printlevel normal
|  4> end
|  5> * xyz 0 1
|  6> C -1.7438006234 -0.6661398378 2.31589e-05
|  7> C -0.4666331349 0.1178989499 -2.46961e-05
|  8> O -0.3951575483 1.3301406163 2.40555e-05
|  9> O 0.5937401217 -0.6821406601 1.09985e-05
| 10> C 1.9044024982 -0.1088852295 2.2618e-06
| 11> H -1.5262860109 -1.7284772369 0.0041897232
| 12> H -2.3222307541 -0.3987232184 -0.8805743238
| 13> H -2.3263631933 -0.3922148769 0.8758442198
| 14> H 2.4154046573 -0.4489100627 -0.8987959227
| 15> H 2.4217148695 -0.4665286566 0.8881806924
| 16> H 1.8322911268 0.9793074957 0.0105905516
| 17> *
| 18>
| 19>                          ****END OF INPUT****

CARTESIAN COORDINATES (ANGSTROEM)
---------------------------------
  C     -1.743801   -0.666140    0.000023
  C     -0.466633    0.117899   -0.000025
  O     -0.395158    1.330141    0.000024
  O      0.593740   -0.682141    0.000011
  C      1.904402   -0.108885    0.000002
  H     -1.526286   -1.728477    0.004190
  H     -2.322231   -0.398723   -0.880574
  H     -2.326363   -0.392215    0.875844
  H      2.415405   -0.448910   -0.898796
  H      2.421715   -0.466529    0.888181
  H      1.832291    0.979307    0.010591

 Total Charge           Charge          ....    0
 Multiplicity           Mult            ....    1
 Number of Electrons    NEL             ....   40
 Basis Dimension        Dim             ....  135

ORBITAL ENERGIES
----------------

  NO   OCC          E(Eh)            E(eV)
   0   2.0000     -19.001285      -517.0512
   1   2.0000     -18.928803      -515.0789
   2   2.0000     -10.157916      -276.4109
   3   2.0000     -10.085985      -274.4536
   4   2.0000     -10.040346      -273.2117
   5   2.0000      -1.074124       -29.2284
   6   2.0000      -0.977146       -26.5895
   7   2.0000      -0.740881       -20.1604
   8   2.0000      -0.674706       -18.3597
   9   2.0000      -0.538063       -14.6415
  10   2.0000      -0.465627       -12.6704
  11   2.0000      -0.458445       -12.4749
  12   2.0000      -0.445183       -12.1141
  13   2.0000      -0.407181       -11.0800
  14   2.0000      -0.383802       -10.4438
  15   2.0000      -0.374401       -10.1880
  16   2.0000      -0.343266        -9.3408
  17   2.0000      -0.318147        -8.6572
  18   2.0000      -0.273204        -7.4343
  19   2.0000      -0.239963        -6.5297
  20   0.0000      -0.014977        -0.4076
  21   0.0000       0.067501         1.8368
  22   0.0000       0.098480         2.6798
  23   0.0000       0.126943         3.4543
  24   0.0000       0.146069         3.9747

MULLIKEN ATOMIC CHARGES
-----------------------
   0 C :   -0.505697
   1 C :    0.432072
   2 O :   -0.432251
   3 O :   -0.195225
   4 C :   -0.301473
   5 H :    0.170307
   6 H :    0.173300
   7 H :    0.173285
   8 H :    0.147901
   9 H :    0.147858
  10 H :    0.189924
Sum of atomic charges:    0.0000000

LOEWDIN ATOMIC CHARGES
----------------------
   0 C :   -0.334770
   1 C :    0.353356
   2 O :   -0.441794
   3 O :   -0.606526
   4 C :   -0.046042
   5 H :    0.174343
   6 H :    0.180229
   7 H :    0.180184
   8 H :    0.173564
   9 H :    0.173637
  10 H :    0.193818

  Mayer bond orders larger than 0.100000
B(  0-C ,  1-C ) :   0.9602 B(  0-C ,  5-H ) :   0.9808 B(  0-C ,  6-H ) :   0.9501
B(  0-C ,  7-H ) :   0.9505 B(  1-C ,  2-O ) :   1.8460 B(  1-C ,  3-O ) :   1.0618
B(  3-O ,  4-C ) :   0.8417 B(  4-C ,  8-H ) :   0.9642 B(  4-C ,  9-H ) :   0.9645
B(  4-C , 10-H ) :   0.9650

Dispersion correction           -0.002011489
FINAL SINGLE POINT ENERGY      -268.331602039400

DIPOLE MOMENT
-------------

Method             : SCF
Type of density    : Electron Density
Multiplicity       :   1
Irrep              :   0
Energy             :  -268.3378632236253338 Eh
Relativity type    :
Basis              : AO
                                X                 Y                 Z
Electronic contribution:     -0.225851839       1.529339592       0.000459872
Nuclear contribution   :      0.466904010      -2.294107990      -0.000529603
                        -----------------------------------------
Total Dipole Moment    :      0.241052172      -0.764768398      -0.000069731
                        -----------------------------------------
Magnitude (a.u.)       :      0.801858378
Magnitude (Debye)      :      2.038162020

Rotational constants in cm-1:             0.342142             0.137705             0.101945
Rotational constants in MHz :         10257.160348          4128.292817          3056.228612

                             ****ORCA TERMINATED NORMALLY****
TOTAL RUN TIME: 0 days 0 hours 0 minutes 10 seconds 28 msec
