                         Program Version 6.0.0  -   RELEASE  -
|  1> ! r2scan-3c def2/J RI DEFGRID2 scfconv6 printgap
|  2> %output
|  3>     printlevel normal
|  4> end
|  5> %cpcm
|  6>     smd true
|  7>     smdsolvent "water"
|  8> end
|  9> * xyz 0 1
| 10> C -1.7438006234 -0.6661398378 2.31589e-05
| 11> C -0.4666331349 0.1178989499 -2.46961e-05
| 12> O -0.3951575483 1.3301406163 2.40555e-05
| 13> O 0.5937401217 -0.6821406601 1.09985e-05
| 14> C 1.9044024982 -0.1088852295 2.2618e-06
| 15> H -1.5262860109 -1.7284772369 0.0041897232
| 16> H -2.3222307541 -0.3987232184 -0.8805743238
| 17> H -2.3263631933 -0.3922148769 0.8758442198
| 18> H 2.4154046573 -0.4489100627 -0.8987959227
| 19> H 2.4217148695 -0.4665286566 0.8881806924
| 20> H 1.8322911268 0.9793074957 0.0105905516
| 21> *
| 22>
| 23>                          ****END OF INPUT****

CARTESIAN COORDINATES (ANGSTROEM)
---------------------------------
  C     -1.743801   -0.666140    0.000023
  C     -0.466633    0.117899   -0.000025
  O     -0.395158    1.330141    0.000024
  O      0.593740   -0.682141    0.000011
  C      1.904402   -0.108885    0.000002
  H     -1.526286   -1.728477    0.004190
  H     -2.322231   -0.398723   -0.880574
  H     -2.326363   -0.392215    0.875844
  H      2.415405   -0.448910   -0.898796
  H      2.421715   -0.466529    0.888181
  H      1.832291    0.979307    0.010591

 Total Charge           Charge          ....    0
 Multiplicity           Mult            ....    1
 Number of Electrons    NEL             ....   40
 Basis Dimension        Dim             ....  135

ORBITAL ENERGIES
----------------

  NO   OCC          E(Eh)            E(eV)
   0   2.0000     -19.005154      -517.1565
   1   2.0000     -18.942661      -515.4560
   2   2.0000     -10.166290      -276.6388
   3   2.0000     -10.074867      -274.1511
   4   2.0000     -10.030507      -272.9440
   5   2.0000      -1.079333       -29.3702
   6   2.0000      -0.989110       -26.9150
   7   2.0000      -0.736051       -20.0290
   8   2.0000      -0.666491       -18.1361
   9   2.0000      -0.534738       -14.5510
  10   2.0000      -0.465544       -12.6681
  11   2.0000      -0.456695       -12.4273
  12   2.0000      -0.455475       -12.3941
  13   2.0000      -0.397927       -10.8281
  14   2.0000      -0.384529       -10.4636
  15   2.0000      -0.364750        -9.9254
  16   2.0000      -0.341464        -9.2917
  17   2.0000      -0.319387        -8.6909
  18   2.0000      -0.279371        -7.6021
  19   2.0000      -0.255180        -6.9438
  20   0.0000      -0.020716        -0.5637
  21   0.0000       0.074087         2.0160
  22   0.0000       0.107592         2.9277
  23   0.0000       0.140904         3.8342
  24   0.0000       0.153936         4.1888

MULLIKEN ATOMIC CHARGES
-----------------------
   0 C :   -0.543096
   1 C :    0.474230
   2 O :   -0.518741
   3 O :   -0.213207
   4 C :   -0.314810
   5 H :    0.186217
   6 H :    0.197824
   7 H :    0.197624
   8 H :    0.174963
   9 H :    0.174878
  10 H :    0.184117
Sum of atomic charges:   -0.0000000

LOEWDIN ATOMIC CHARGES
----------------------
   0 C :   -0.333462
   1 C :    0.363932
   2 O :   -0.504584
   3 O :   -0.608229
   4 C :   -0.040733
   5 H :    0.182053
   6 H :    0.189667
   7 H :    0.189554
   8 H :    0.184772
   9 H :    0.184878
  10 H :    0.192152

  Mayer bond orders larger than 0.100000
B(  0-C ,  1-C ) :   0.9608 B(  0-C ,  5-H ) :   0.9712 B(  0-C ,  6-H ) :   0.9397
B(  0-C ,  7-H ) :   0.9401 B(  1-C ,  2-O ) :   1.7758 B(  1-C ,  3-O ) :   1.0887
B(  3-O ,  4-C ) :   0.8298 B(  4-C ,  8-H ) :   0.9551 B(  4-C ,  9-H ) :   0.9553
B(  4-C , 10-H ) :   0.9619

Dispersion correction           -0.002011489
FINAL SINGLE POINT ENERGY      -268.336482689970

DIPOLE MOMENT
-------------

Method             : SCF
Type of density    : Electron Density
Multiplicity       :   1
Irrep              :   0
Energy             :  -268.3427438741950937 Eh
Relativity type    :
Basis              : AO
                                X                 Y                 Z
Electronic contribution:     -0.153368855       1.217593069       0.000254112
Nuclear contribution   :      0.466904010      -2.294107990      -0.000529603
                        -----------------------------------------
Total Dipole Moment    :      0.313535155      -1.076514921      -0.000275491
                        -----------------------------------------
Magnitude (a.u.)       :      1.121244284
Magnitude (Debye)      :      2.849976480

Rotational constants in cm-1:             0.342142             0.137705             0.101945
Rotational constants in MHz :         10257.160348          4128.292817          3056.228612

                             ****ORCA TERMINATED NORMALLY****
TOTAL RUN TIME: 0 days 0 hours 0 minutes 12 seconds 793 msec
