                         Program Version 6.0.0  -   RELEASE  -
|  1> ! r2scan-3c def2/J RI DEFGRID2 scfconv6 printgap
|  2> %output
|  3>     printlevel normal
|  4> end
|  5> * xyz 0 1
|  6> C 0.857858326 1.3838756752 -0.6056185292
|  7> C 1.5937614167 0.1636329187 -0.0379962541
|  8> H 2.5654640549 0.0711762218 -0.5326565734
|  9> C 0.7742568013 -1.1116838388 -0.3340126674
| 10> H 1.237842961 -1.9386052865 0.2245543326
| 11> C -0.6806457756 -0.9239034363 0.1510549531
| 12> H -1.3050284514 -1.7527803203 -0.2107901178
| 13> C -1.2545255501 0.3771905949 -0.4503762899
| 14> H -1.2785741278 0.279825898 -1.5480581308
| 15> O -0.4546499275 1.4808680085 -0.0867013664
| 16> O -2.5480372119 0.6115827104 -0.0381685158
| 17> O -0.7645171399 -0.8057797969 1.55205412
| 18> O 0.8246228558 -1.3439511432 -1.7199944275
| 19> O 1.85880219 0.2968038218 1.3332792964
| 20> H 0.8278652059 1.3081199227 -1.6997236849
| 21> H 1.3602113564 2.3025405266 -0.3028545579
| 22> H -2.551261119 0.7034143556 0.9295219389
| 23> H -0.6016884093 -1.6635443773 1.9685183088
| 24> H 0.5523898885 -2.251726024 -1.9169772696
| 25> H 1.0155359499 0.4608199881 1.7892797825
| 26> *
| 27>
| 28>                          ****END OF INPUT****

CARTESIAN COORDINATES (ANGSTROEM)
---------------------------------
  C      0.857858    1.383876   -0.605619
  C      1.593761    0.163633   -0.037996
  H      2.565464    0.071176   -0.532657
  C      0.774257   -1.111684   -0.334013
  H      1.237843   -1.938605    0.224554
  C     -0.680646   -0.923903    0.151055
  H     -1.305028   -1.752780   -0.210790
  C     -1.254526    0.377191   -0.450376
  H     -1.278574    0.279826   -1.548058
  O     -0.454650    1.480868   -0.086701
  O     -2.548037    0.611583   -0.038169
  O     -0.764517   -0.805780    1.552054
  O      0.824623   -1.343951   -1.719994
  O      1.858802    0.296804    1.333279
  H      0.827865    1.308120   -1.699724
  H      1.360211    2.302541   -0.302855
  H     -2.551261    0.703414    0.929522
  H     -0.601688   -1.663544    1.968518
  H      0.552390   -2.251726   -1.916977
  H      1.015536    0.460820    1.789280

 Total Charge           Charge          ....    0
 Multiplicity           Mult            ....    1
 Number of Electrons    NEL             ....   80
 Basis Dimension        Dim             ....  265

ORBITAL ENERGIES
----------------

  NO   OCC          E(Eh)            E(eV)
   0   2.0000     -18.981291      -516.5072
   1   2.0000     -18.973419      -516.2930
   2   2.0000     -18.960759      -515.9485
   3   2.0000     -18.959714      -515.9201
   4   2.0000     -18.945797      -515.5413
   5   2.0000     -10.134001      -275.7602
   6   2.0000     -10.097543      -274.7681
   7   2.0000     -10.097104      -274.7562
   8   2.0000     -10.086084      -274.4563
   9   2.0000     -10.077673      -274.2274
  10   2.0000      -1.048518       -28.5316
  11   2.0000      -1.015978       -27.6462
  12   2.0000      -1.009463       -27.4689
  13   2.0000      -0.990144       -26.9432
  14   2.0000      -0.972430       -26.4612
  15   2.0000      -0.745027       -20.2732
  16   2.0000      -0.716569       -19.4988
  17   2.0000      -0.629884       -17.1400
  18   2.0000      -0.613137       -16.6843
  19   2.0000      -0.565348       -15.3839
  20   2.0000      -0.529084       -14.3971
  21   2.0000      -0.500485       -13.6189
  22   2.0000      -0.495187       -13.4747
  23   2.0000      -0.469467       -12.7748
  24   2.0000      -0.453785       -12.3481
  25   2.0000      -0.437895       -11.9157
  26   2.0000      -0.431361       -11.7379
  27   2.0000      -0.396581       -10.7915
  28   2.0000      -0.388723       -10.5777
  29   2.0000      -0.376541       -10.2462
  30   2.0000      -0.362425        -9.8621
  31   2.0000      -0.329325        -8.9614
  32   2.0000      -0.321922        -8.7599
  33   2.0000      -0.313711        -8.5365
  34   2.0000      -0.297031        -8.0826
  35   2.0000      -0.284103        -7.7308
  36   2.0000      -0.272993        -7.4285
  37   2.0000      -0.261320        -7.1109
  38   2.0000      -0.230100        -6.2613
  39   2.0000      -0.217898        -5.9293
  40   0.0000       0.024281         0.6607
  41   0.0000       0.032600         0.8871
  42   0.0000       0.084003         2.2858
  43   0.0000       0.095115         2.5882
  44   0.0000       0.096667         2.6304

MULLIKEN ATOMIC CHARGES
-----------------------
   0 C :   -0.272919
   1 C :    0.039816
   2 H :    0.158257
   3 C :   -0.098855
   4 H :    0.145494
   5 C :    0.045555
   6 H :    0.144294
   7 C :   -0.064991
   8 H :    0.154039
   9 O :   -0.217467
  10 O :   -0.374227
  11 O :   -0.426413
  12 O :   -0.401343
  13 O :   -0.410398
  14 H :    0.162278
  15 H :    0.161101
  16 H :    0.324589
  17 H :    0.302309
  18 H :    0.300067
  19 H :    0.328815
Sum of atomic charges:    0.0000000

LOEWDIN ATOMIC CHARGES
----------------------
   0 C :    0.047545
   1 C :    0.098388
   2 H :    0.197226
   3 C :    0.103306
   4 H :    0.176690
   5 C :    0.105909
   6 H :    0.179320
   7 C :    0.287940
   8 H :    0.203518
   9 O :   -0.674974
  10 O :   -0.477840
  11 O :   -0.582554
  12 O :   -0.589046
  13 O :   -0.571046
  14 H :    0.179927
  15 H :    0.192001
  16 H :    0.287098
  17 H :    0.277857
  18 H :    0.274107
  19 H :    0.284627

  Mayer bond orders larger than 0.100000
B(  0-C ,  1-C ) :   0.8968 B(  0-C ,  9-O ) :   0.9218 B(  0-C , 14-H ) :   0.9800
B(  0-C , 15-H ) :   0.9559 B(  1-C ,  2-H ) :   0.9511 B(  1-C ,  3-C ) :   0.9004
B(  1-C , 13-O ) :   0.9799 B(  3-C ,  4-H ) :   0.9836 B(  3-C ,  5-C ) :   0.8328
B(  3-C , 12-O ) :   0.9515 B(  5-C ,  6-H ) :   0.9668 B(  5-C ,  7-C ) :   0.8954
B(  5-C , 11-O ) :   0.9409 B(  7-C ,  8-H ) :   0.9836 B(  7-C ,  9-O ) :   0.9463
B(  7-C , 10-O ) :   1.1196 B( 10-O , 16-H ) :   0.8639 B( 11-O , 17-H ) :   0.8975
B( 12-O , 18-H ) :   0.8949 B( 13-O , 19-H ) :   0.8438

Dispersion correction           -0.006470983
FINAL SINGLE POINT ENERGY      -572.559284640832

DIPOLE MOMENT
-------------

Method             : SCF
Type of density    : Electron Density
Multiplicity       :   1
Irrep              :   0
Energy             :  -572.5695492426457349 Eh
Relativity type    :
Basis              : AO
                                X                 Y                 Z
Electronic contribution:     -1.690931384       0.950973537       1.220724512
Nuclear contribution   :      1.694000802      -2.323825633      -1.203443436
                        -----------------------------------------
Total Dipole Moment    :      0.003069418      -1.372852096       0.017281076
                        -----------------------------------------
Magnitude (a.u.)       :      1.372964287
Magnitude (Debye)      :      3.489797880

Rotational constants in cm-1:             0.058140             0.040545             0.038630
Rotational constants in MHz :          1742.983508          1215.502398          1158.085857

                             ****ORCA TERMINATED NORMALLY****
TOTAL RUN TIME: 0 days 0 hours 0 minutes 36 seconds 900 msec
