                         Program Version 6.0.0  -   RELEASE  -
|  1> ! r2scan-3c def2/J RI DEFGRID2 scfconv6 printgap
|  2> %output
|  3>     printlevel normal
|  4> end
|  5> %cpcm
|  6>     smd true
|  7>     smdsolvent "water"
|  8> end
|  9> * xyz 0 1
| 10> C 0.857858326 1.3838756752 -0.6056185292
| 11> C 1.5937614167 0.1636329187 -0.0379962541
| 12> H 2.5654640549 0.0711762218 -0.5326565734
| 13> C 0.7742568013 -1.1116838388 -0.3340126674
| 14> H 1.237842961 -1.9386052865 0.2245543326
| 15> C -0.6806457756 -0.9239034363 0.1510549531
| 16> H -1.3050284514 -1.7527803203 -0.2107901178
| 17> C -1.2545255501 0.3771905949 -0.4503762899
| 18> H -1.2785741278 0.279825898 -1.5480581308
| 19> O -0.4546499275 1.4808680085 -0.0867013664
| 20> O -2.5480372119 0.6115827104 -0.0381685158
| 21> O -0.7645171399 -0.8057797969 1.55205412
| 22> O 0.8246228558 -1.3439511432 -1.7199944275
| 23> O 1.85880219 0.2968038218 1.3332792964
| 24> H 0.8278652059 1.3081199227 -1.6997236849
| 25> H 1.3602113564 2.3025405266 -0.3028545579
| 26> H -2.551261119 0.7034143556 0.9295219389
| 27> H -0.6016884093 -1.6635443773 1.9685183088
| 28> H 0.5523898885 -2.251726024 -1.9169772696
| 29> H 1.0155359499 0.4608199881 1.7892797825
| 30> *
| 31>
| 32>                          ****END OF INPUT****

CARTESIAN COORDINATES (ANGSTROEM)
---------------------------------
  C      0.857858    1.383876   -0.605619
  C      1.593761    0.163633   -0.037996
  H      2.565464    0.071176   -0.532657
  C      0.774257   -1.111684   -0.334013
  H      1.237843   -1.938605    0.224554
  C     -0.680646   -0.923903    0.151055
  H     -1.305028   -1.752780   -0.210790
  C     -1.254526    0.377191   -0.450376
  H     -1.278574    0.279826   -1.548058
  O     -0.454650    1.480868   -0.086701
  O     -2.548037    0.611583   -0.038169
  O     -0.764517   -0.805780    1.552054
  O      0.824623   -1.343951   -1.719994
  O      1.858802    0.296804    1.333279
  H      0.827865    1.308120   -1.699724
  H      1.360211    2.302541   -0.302855
  H     -2.551261    0.703414    0.929522
  H     -0.601688   -1.663544    1.968518
  H      0.552390   -2.251726   -1.916977
  H      1.015536    0.460820    1.789280

 Total Charge           Charge          ....    0
 Multiplicity           Mult            ....    1
 Number of Electrons    NEL             ....   80
 Basis Dimension        Dim             ....  265

ORBITAL ENERGIES
----------------

  NO   OCC          E(Eh)            E(eV)
   0   2.0000     -18.967701      -516.1374
   1   2.0000     -18.967663      -516.1364
   2   2.0000     -18.964487      -516.0499
   3   2.0000     -18.961143      -515.9589
   4   2.0000     -18.954738      -515.7847
   5   2.0000     -10.132285      -275.7135
   6   2.0000     -10.084732      -274.4195
   7   2.0000     -10.083897      -274.3968
   8   2.0000     -10.083029      -274.3732
   9   2.0000     -10.075681      -274.1732
  10   2.0000      -1.051333       -28.6082
  11   2.0000      -1.007100       -27.4046
  12   2.0000      -0.996309       -27.1109
  13   2.0000      -0.993109       -27.0239
  14   2.0000      -0.979131       -26.6435
  15   2.0000      -0.736437       -20.0395
  16   2.0000      -0.713754       -19.4222
  17   2.0000      -0.623107       -16.9556
  18   2.0000      -0.610291       -16.6069
  19   2.0000      -0.560034       -15.2393
  20   2.0000      -0.522180       -14.2092
  21   2.0000      -0.492271       -13.3954
  22   2.0000      -0.485777       -13.2187
  23   2.0000      -0.468532       -12.7494
  24   2.0000      -0.453384       -12.3372
  25   2.0000      -0.431747       -11.7484
  26   2.0000      -0.425626       -11.5819
  27   2.0000      -0.394372       -10.7314
  28   2.0000      -0.386942       -10.5292
  29   2.0000      -0.376886       -10.2556
  30   2.0000      -0.356577        -9.7030
  31   2.0000      -0.334832        -9.1112
  32   2.0000      -0.316254        -8.6057
  33   2.0000      -0.313625        -8.5342
  34   2.0000      -0.301249        -8.1974
  35   2.0000      -0.281380        -7.6567
  36   2.0000      -0.275479        -7.4962
  37   2.0000      -0.264475        -7.1967
  38   2.0000      -0.225695        -6.1415
  39   2.0000      -0.220113        -5.9896
  40   0.0000       0.042542         1.1576
  41   0.0000       0.064492         1.7549
  42   0.0000       0.090205         2.4546
  43   0.0000       0.104332         2.8390
  44   0.0000       0.105467         2.8699

MULLIKEN ATOMIC CHARGES
-----------------------
   0 C :   -0.278413
   1 C :    0.024355
   2 H :    0.177009
   3 C :   -0.099648
   4 H :    0.173250
   5 C :    0.067262
   6 H :    0.173277
   7 C :   -0.068267
   8 H :    0.172811
   9 O :   -0.265351
  10 O :   -0.442717
  11 O :   -0.475344
  12 O :   -0.469557
  13 O :   -0.478548
  14 H :    0.181187
  15 H :    0.177449
  16 H :    0.367218
  17 H :    0.351471
  18 H :    0.353894
  19 H :    0.358662
Sum of atomic charges:    0.0000000

LOEWDIN ATOMIC CHARGES
----------------------
   0 C :    0.048459
   1 C :    0.094438
   2 H :    0.203739
   3 C :    0.111211
   4 H :    0.189293
   5 C :    0.116091
   6 H :    0.193145
   7 C :    0.282404
   8 H :    0.210440
   9 O :   -0.705923
  10 O :   -0.509152
  11 O :   -0.589410
  12 O :   -0.607847
  13 O :   -0.605503
  14 H :    0.188104
  15 H :    0.197278
  16 H :    0.300014
  17 H :    0.296565
  18 H :    0.294403
  19 H :    0.292249

  Mayer bond orders larger than 0.100000
B(  0-C ,  1-C ) :   0.8875 B(  0-C ,  9-O ) :   0.9087 B(  0-C , 14-H ) :   0.9758
B(  0-C , 15-H ) :   0.9489 B(  1-C ,  2-H ) :   0.9539 B(  1-C ,  3-C ) :   0.9026
B(  1-C , 13-O ) :   0.9500 B(  3-C ,  4-H ) :   0.9825 B(  3-C ,  5-C ) :   0.8432
B(  3-C , 12-O ) :   0.9517 B(  5-C ,  6-H ) :   0.9498 B(  5-C ,  7-C ) :   0.8962
B(  5-C , 11-O ) :   0.9445 B(  7-C ,  8-H ) :   0.9811 B(  7-C ,  9-O ) :   0.9288
B(  7-C , 10-O ) :   1.0973 B( 10-O , 16-H ) :   0.8397 B( 11-O , 17-H ) :   0.8718
B( 12-O , 18-H ) :   0.8674 B( 13-O , 19-H ) :   0.8286

Dispersion correction           -0.006470983
FINAL SINGLE POINT ENERGY      -572.588069882828

DIPOLE MOMENT
-------------

Method             : SCF
Type of density    : Electron Density
Multiplicity       :   1
Irrep              :   0
Energy             :  -572.5983344846417822 Eh
Relativity type    :
Basis              : AO
                                X                 Y                 Z
Electronic contribution:     -1.672044162       0.341791502       1.196845764
Nuclear contribution   :      1.694000802      -2.323825633      -1.203443436
                        -----------------------------------------
Total Dipole Moment    :      0.021956640      -1.982034131      -0.006597671
                        -----------------------------------------
Magnitude (a.u.)       :      1.982166723
Magnitude (Debye)      :      5.038267413

Rotational constants in cm-1:             0.058140             0.040545             0.038630
Rotational constants in MHz :          1742.983508          1215.502398          1158.085857

                             ****ORCA TERMINATED NORMALLY****
TOTAL RUN TIME: 0 days 0 hours 0 minutes 47 seconds 747 msec
