                         Program Version 6.0.0  -   RELEASE  -
|  1> ! pbe def2-sv(p) def2/J RI DEFGRID1 loosescf d4 GCP(DFT/SV(P)) printgap
|  2> %output
|  3>     printlevel normal
|  4> end
|  5> * xyz 0 1
|  6> C 1.5781084306 -2.6310795436 2.3995061583
|  7> C 0.8992154506 -1.9337043259 1.2372856799
|  8> O 1.3161958718 -0.5580319158 1.1970011585
|  9> P 2.1262095558 0.1172229812 0.0052281918
| 10> S 2.9722970673 -1.1561330452 -1.2269847052
| 11> O 3.0213138559 1.1789833909 0.7654107716
| 12> C 3.8519905938 0.8549968042 1.9018109263
| 13> C 5.0800949649 0.0618435209 1.5021353406
| 14> S 0.8674212249 1.565093122 -0.8908600022
| 15> C 0.2275757692 0.5091352613 -2.2178838466
| 16> S -0.7335886738 -0.8941229899 -1.6012793311
| 17> P -2.2304187834 0.2635670397 -0.6260951619
| 18> S -2.7688577637 1.9377128199 -1.470341433
| 19> O -1.6028969395 0.3872214122 0.8407731538
| 20> C -1.6420189117 1.5982527888 1.6134599123
| 21> C -2.9837916332 1.7539138428 2.2997036161
| 22> O -3.4445772591 -0.7423119789 -0.5187692516
| 23> C -3.3542873021 -2.1255259383 -0.0969072649
| 24> C -3.4391082133 -2.2542175033 1.41063677
| 25> H 1.3616481641 -2.1127360551 3.3294612244
| 26> H 1.2110154203 -3.6501573016 2.4628758288
| 27> H 2.6545671232 -2.6519111036 2.2454737134
| 28> H -0.1860728466 -1.9188054751 1.3546798224
| 29> H 1.1550660066 -2.4143385532 0.2871570179
| 30> H 4.1232415574 1.8315711814 2.3065229213
| 31> H 3.2497439605 0.3065511862 2.6302062996
| 32> H 4.7912938405 -0.9024669423 1.0872620299
| 33> H 5.6472797352 0.6015911133 0.7480524629
| 34> H 5.7049733106 -0.0985866735 2.3751195995
| 35> H 1.0560476425 0.086479562 -2.7863294303
| 36> H -0.4041652085 1.1409351266 -2.8411486117
| 37> H -0.8237277605 1.4921117696 2.327849125
| 38> H -1.4423658689 2.4477114281 0.9524427333
| 39> H -3.1810819064 0.9048880476 2.9484638099
| 40> H -2.9838191859 2.6657499656 2.8882500045
| 41> H -3.7703956917 1.8164235636 1.5484153278
| 42> H -4.2054844389 -2.6028298489 -0.5854091793
| 43> H -2.4241773989 -2.5505274812 -0.484937365
| 44> H -4.3565630279 -1.7969784904 1.771609355
| 45> H -3.4355611645 -3.3067891237 1.6760967997
| 46> H -2.5924632143 -1.763739053 1.8837423941
| 47> *
| 48>
| 49>                          ****END OF INPUT****

CARTESIAN COORDINATES (ANGSTROEM)
---------------------------------
  C      1.578108   -2.631080    2.399506
  C      0.899215   -1.933704    1.237286
  O      1.316196   -0.558032    1.197001
  P      2.126210    0.117223    0.005228
  S      2.972297   -1.156133   -1.226985
  O      3.021314    1.178983    0.765411
  C      3.851991    0.854997    1.901811
  C      5.080095    0.061844    1.502135
  S      0.867421    1.565093   -0.890860
  C      0.227576    0.509135   -2.217884
  S     -0.733589   -0.894123   -1.601279
  P     -2.230419    0.263567   -0.626095
  S     -2.768858    1.937713   -1.470341
  O     -1.602897    0.387221    0.840773
  C     -1.642019    1.598253    1.613460
  C     -2.983792    1.753914    2.299704
  O     -3.444577   -0.742312   -0.518769
  C     -3.354287   -2.125526   -0.096907
  C     -3.439108   -2.254218    1.410637
  H      1.361648   -2.112736    3.329461
  H      1.211015   -3.650157    2.462876
  H      2.654567   -2.651911    2.245474
  H     -0.186073   -1.918805    1.354680
  H      1.155066   -2.414339    0.287157
  H      4.123242    1.831571    2.306523
  H      3.249744    0.306551    2.630206
  H      4.791294   -0.902467    1.087262
  H      5.647280    0.601591    0.748052
  H      5.704973   -0.098587    2.375120
  H      1.056048    0.086480   -2.786329
  H     -0.404165    1.140935   -2.841149
  H     -0.823728    1.492112    2.327849
  H     -1.442366    2.447711    0.952443
  H     -3.181082    0.904888    2.948464
  H     -2.983819    2.665750    2.888250
  H     -3.770396    1.816424    1.548415
  H     -4.205484   -2.602830   -0.585409
  H     -2.424177   -2.550527   -0.484937
  H     -4.356563   -1.796978    1.771609
  H     -3.435561   -3.306789    1.676097
  H     -2.592463   -1.763739    1.883742

 Total Charge           Charge          ....    0
 Multiplicity           Mult            ....    1
 Number of Electrons    NEL             ....  202
 Basis Dimension        Dim             ....  334

ORBITAL ENERGIES
----------------

  NO   OCC          E(Eh)            E(eV)
   0   2.0000     -88.042414     -2395.7559
   1   2.0000     -88.039671     -2395.6812
   2   2.0000     -87.989374     -2394.3126
   3   2.0000     -87.987268     -2394.2553
   4   2.0000     -76.428014     -2079.7120
   5   2.0000     -76.427469     -2079.6972
   6   2.0000     -18.797212      -511.4981
   7   2.0000     -18.795168      -511.4425
   8   2.0000     -18.794829      -511.4333
   9   2.0000     -18.789949      -511.3005
  10   2.0000      -9.966162      -271.1930
  11   2.0000      -9.959649      -271.0158
  12   2.0000      -9.952852      -270.8309
  13   2.0000      -9.951481      -270.7936
  14   2.0000      -9.947596      -270.6878
  15   2.0000      -9.896438      -269.2958
  16   2.0000      -9.891136      -269.1515
  17   2.0000      -9.886453      -269.0241
  18   2.0000      -9.883316      -268.9387
  19   2.0000      -7.687088      -209.1763
  20   2.0000      -7.684543      -209.1071
  21   2.0000      -7.634275      -207.7392
  22   2.0000      -7.632559      -207.6925
  23   2.0000      -6.425443      -174.8452
  24   2.0000      -6.424991      -174.8329
  25   2.0000      -5.714845      -155.5088
  26   2.0000      -5.712534      -155.4460
  27   2.0000      -5.711776      -155.4253
  28   2.0000      -5.709139      -155.3536
  29   2.0000      -5.704043      -155.2149
  30   2.0000      -5.701323      -155.1409
  31   2.0000      -5.663060      -154.0997
  32   2.0000      -5.661623      -154.0606
  33   2.0000      -5.655109      -153.8833
  34   2.0000      -5.654365      -153.8631
  35   2.0000      -5.653267      -153.8332
  36   2.0000      -5.652418      -153.8101
  37   2.0000      -4.648297      -126.4866
  38   2.0000      -4.647835      -126.4740
  39   2.0000      -4.646923      -126.4492
  40   2.0000      -4.646481      -126.4372
  41   2.0000      -4.645926      -126.4221
  42   2.0000      -4.645494      -126.4103
  43   2.0000      -0.989764       -26.9329
  44   2.0000      -0.986413       -26.8417
  45   2.0000      -0.947080       -25.7714
  46   2.0000      -0.945776       -25.7359
  47   2.0000      -0.765201       -20.8222
  48   2.0000      -0.725937       -19.7537
  49   2.0000      -0.714131       -19.4325
  50   2.0000      -0.692498       -18.8438
  51   2.0000      -0.692268       -18.8376
  52   2.0000      -0.672248       -18.2928
  53   2.0000      -0.653294       -17.7770
  54   2.0000      -0.641062       -17.4442
  55   2.0000      -0.599017       -16.3001
  56   2.0000      -0.594238       -16.1700
  57   2.0000      -0.580410       -15.7938
  58   2.0000      -0.577983       -15.7277
  59   2.0000      -0.561879       -15.2895
  60   2.0000      -0.507634       -13.8134
  61   2.0000      -0.498231       -13.5575
  62   2.0000      -0.481057       -13.0902
  63   2.0000      -0.478706       -13.0262
  64   2.0000      -0.458212       -12.4686
  65   2.0000      -0.452472       -12.3124
  66   2.0000      -0.440901       -11.9975
  67   2.0000      -0.437353       -11.9010
  68   2.0000      -0.429781       -11.6949
  69   2.0000      -0.414211       -11.2713
  70   2.0000      -0.410729       -11.1765
  71   2.0000      -0.395325       -10.7573
  72   2.0000      -0.392968       -10.6932
  73   2.0000      -0.386397       -10.5144
  74   2.0000      -0.382032       -10.3956
  75   2.0000      -0.378189       -10.2910
  76   2.0000      -0.374291       -10.1850
  77   2.0000      -0.359828        -9.7914
  78   2.0000      -0.357876        -9.7383
  79   2.0000      -0.355842        -9.6830
  80   2.0000      -0.352868        -9.6020
  81   2.0000      -0.351545        -9.5660
  82   2.0000      -0.346880        -9.4391
  83   2.0000      -0.341948        -9.3049
  84   2.0000      -0.337479        -9.1833
  85   2.0000      -0.322416        -8.7734
  86   2.0000      -0.316249        -8.6056
  87   2.0000      -0.308087        -8.3835
  88   2.0000      -0.296881        -8.0786
  89   2.0000      -0.294519        -8.0143
  90   2.0000      -0.282520        -7.6878
  91   2.0000      -0.279435        -7.6038
  92   2.0000      -0.277421        -7.5490
  93   2.0000      -0.269813        -7.3420
  94   2.0000      -0.257563        -7.0086
  95   2.0000      -0.230814        -6.2808
  96   2.0000      -0.216114        -5.8808
  97   2.0000      -0.215308        -5.8588
  98   2.0000      -0.206989        -5.6325
  99   2.0000      -0.200224        -5.4484
 100   2.0000      -0.198133        -5.3915
 101   0.0000      -0.046320        -1.2604
 102   0.0000      -0.025469        -0.6930
 103   0.0000      -0.004985        -0.1356
 104   0.0000       0.003717         0.1012
 105   0.0000       0.010548         0.2870

MULLIKEN ATOMIC CHARGES
-----------------------
   0 C :   -0.285128
   1 C :   -0.031958
   2 O :   -0.378097
   3 P :    0.646981
   4 S :   -0.334190
   5 O :   -0.375689
   6 C :   -0.012763
   7 C :   -0.314161
   8 S :   -0.077542
   9 C :   -0.345343
  10 S :   -0.123709
  11 P :    0.624318
  12 S :   -0.308926
  13 O :   -0.384770
  14 C :   -0.008587
  15 C :   -0.300548
  16 O :   -0.363877
  17 C :   -0.025940
  18 C :   -0.324193
  19 H :    0.112926
  20 H :    0.110093
  21 H :    0.116527
  22 H :    0.109357
  23 H :    0.116228
  24 H :    0.110152
  25 H :    0.107756
  26 H :    0.133301
  27 H :    0.124246
  28 H :    0.109484
  29 H :    0.193921
  30 H :    0.193166
  31 H :    0.099348
  32 H :    0.118433
  33 H :    0.108877
  34 H :    0.111025
  35 H :    0.124314
  36 H :    0.117854
  37 H :    0.120616
  38 H :    0.124209
  39 H :    0.112917
  40 H :    0.149372
Sum of atomic charges:   -0.0000000

LOEWDIN ATOMIC CHARGES
----------------------
   0 C :   -0.355734
   1 C :   -0.129625
   2 O :   -0.238879
   3 P :    0.569947
   4 S :   -0.315938
   5 O :   -0.245149
   6 C :   -0.111977
   7 C :   -0.366272
   8 S :    0.101668
   9 C :   -0.479452
  10 S :    0.076261
  11 P :    0.571928
  12 S :   -0.303201
  13 O :   -0.248654
  14 C :   -0.124538
  15 C :   -0.362870
  16 O :   -0.241963
  17 C :   -0.112327
  18 C :   -0.364427
  19 H :    0.122975
  20 H :    0.130303
  21 H :    0.124119
  22 H :    0.107348
  23 H :    0.104230
  24 H :    0.121663
  25 H :    0.109911
  26 H :    0.121385
  27 H :    0.131288
  28 H :    0.129165
  29 H :    0.131078
  30 H :    0.132712
  31 H :    0.114627
  32 H :    0.107721
  33 H :    0.120504
  34 H :    0.130161
  35 H :    0.124861
  36 H :    0.125744
  37 H :    0.105447
  38 H :    0.130620
  39 H :    0.131152
  40 H :    0.124189

  Mayer bond orders larger than 0.100000
B(  0-C ,  1-C ) :   1.1596 B(  0-C , 19-H ) :   0.9476 B(  0-C , 20-H ) :   0.9412
B(  0-C , 21-H ) :   0.9443 B(  1-C ,  2-O ) :   0.9048 B(  1-C , 22-H ) :   0.9167
B(  1-C , 23-H ) :   0.8976 B(  2-O ,  3-P ) :   1.0861 B(  3-P ,  4-S ) :   1.6108
B(  3-P ,  5-O ) :   1.1253 B(  3-P ,  8-S ) :   0.9490 B(  4-S ,  8-S ) :   0.1085
B(  5-O ,  6-C ) :   0.9111 B(  6-C ,  7-C ) :   1.1641 B(  6-C , 24-H ) :   0.9353
B(  6-C , 25-H ) :   0.9239 B(  7-C , 26-H ) :   0.9330 B(  7-C , 27-H ) :   0.9455
B(  7-C , 28-H ) :   0.9375 B(  8-S ,  9-C ) :   1.0085 B(  9-C , 10-S ) :   1.0008
B(  9-C , 29-H ) :   0.8816 B(  9-C , 30-H ) :   0.8865 B( 10-S , 11-P ) :   0.9441
B( 10-S , 12-S ) :   0.1001 B( 11-P , 12-S ) :   1.6325 B( 11-P , 13-O ) :   1.0697
B( 11-P , 16-O ) :   1.1320 B( 13-O , 14-C ) :   0.8968 B( 14-C , 15-C ) :   1.1624
B( 14-C , 31-H ) :   0.9321 B( 14-C , 32-H ) :   0.9081 B( 15-C , 33-H ) :   0.9467
B( 15-C , 34-H ) :   0.9411 B( 15-C , 35-H ) :   0.9376 B( 16-O , 17-C ) :   0.9048
B( 17-C , 18-C ) :   1.1635 B( 17-C , 36-H ) :   0.9344 B( 17-C , 37-H ) :   0.9135
B( 18-C , 38-H ) :   0.9425 B( 18-C , 39-H ) :   0.9381 B( 18-C , 40-H ) :   0.9269

Dispersion correction           -0.067538897
FINAL SINGLE POINT ENERGY     -2929.522009392420

DIPOLE MOMENT
-------------

Method             : SCF
Type of density    : Electron Density
Multiplicity       :   1
Irrep              :   0
Energy             : -2929.6407784405987513 Eh
Relativity type    :
Basis              : AO
                                X                 Y                 Z
Electronic contribution:     -1.089874307      11.091513322     -25.145835606
Nuclear contribution   :      1.150792187     -12.082841379      27.125686066
                        -----------------------------------------
Total Dipole Moment    :      0.060917880      -0.991328057       1.979850460
                        -----------------------------------------
Magnitude (a.u.)       :      2.215005677
Magnitude (Debye)      :      5.630097000

Rotational constants in cm-1:             0.011972             0.005467             0.005156
Rotational constants in MHz :           358.901967           163.887198           154.566802

                             ****ORCA TERMINATED NORMALLY****
TOTAL RUN TIME: 0 days 0 hours 0 minutes 22 seconds 69 msec
