                         Program Version 6.0.0  -   RELEASE  -
|  1> ! r2scan-3c def2/J RI DEFGRID2 scfconv6 printgap
|  2> %output
|  3>     printlevel normal
|  4> end
|  5> * xyz 0 1
|  6> C 3.4539234892 -1.5765108233 -2.5753303029
|  7> C 2.1486991515 -1.0714758208 -1.995792083
|  8> O 2.3828181303 0.0152956515 -1.0680332184
|  9> P 2.46243674 -0.1722186682 0.4970929116
| 10> S 2.8934400746 1.501946461 1.4082470659
| 11> O 3.5194619217 -1.3488370201 0.6543986225
| 12> C 4.1943055535 -1.6245766423 1.8960644329
| 13> C 3.2458521103 -2.1019510992 2.976321477
| 14> S 0.6082226734 -1.078042205 1.038505596
| 15> C -0.3084067456 0.465518897 1.2320734634
| 16> S -0.6259138048 1.3098271433 -0.3526101322
| 17> P -2.6072125597 0.574651974 -0.6520623208
| 18> S -3.4494109522 1.1316792196 -2.3287815647
| 19> O -3.3901255051 0.8970116211 0.68813628
| 20> C -4.1933719654 2.0842216723 0.8122424195
| 21> C -3.3421523171 3.3355871407 0.8996171873
| 22> O -2.4846096862 -0.9860668015 -0.4081591548
| 23> C -1.9202106419 -1.8297386378 -1.4337943943
| 24> C -1.775010411 -3.2219140313 -0.8557263194
| 25> H 3.996087477 -0.7569372509 -3.0389671372
| 26> H 4.0715039671 -2.0083129487 -1.7925954955
| 27> H 3.2396910941 -2.3332534607 -3.3235465443
| 28> H 1.6133002472 -1.8725636764 -1.4773458707
| 29> H 1.5126568657 -0.6362183467 -2.7701278873
| 30> H 4.9210473266 -2.393635764 1.6305505117
| 31> H 4.7137264442 -0.715526629 2.213781335
| 32> H 3.8210251102 -2.4247109222 3.8382199609
| 33> H 2.5858898114 -1.2906126892 3.2790474998
| 34> H 2.642951141 -2.9306017937 2.6135340221
| 35> H 0.2866033194 1.1519253436 1.8352083081
| 36> H -1.2545777102 0.2230200568 1.7101298805
| 37> H -4.8690569767 2.1399453309 -0.0471289514
| 38> H -4.7668612612 1.9202315232 1.7255781503
| 39> H -3.9832130136 4.1960042238 1.0625707897
| 40> H -2.6302263347 3.2589254768 1.7177914346
| 41> H -2.794127711 3.4768453738 -0.0320326642
| 42> H -2.5915349083 -1.8140341969 -2.2977342215
| 43> H -0.9512766115 -1.4192374347 -1.7379546442
| 44> H -2.7445033895 -3.5886571356 -0.5327564763
| 45> H -1.3743321835 -3.883631462 -1.6163173972
| 46> H -1.1039892245 -3.1994740632 -0.0009512495
| 47> *
| 48>
| 49>                          ****END OF INPUT****

CARTESIAN COORDINATES (ANGSTROEM)
---------------------------------
  C      3.453923   -1.576511   -2.575330
  C      2.148699   -1.071476   -1.995792
  O      2.382818    0.015296   -1.068033
  P      2.462437   -0.172219    0.497093
  S      2.893440    1.501946    1.408247
  O      3.519462   -1.348837    0.654399
  C      4.194306   -1.624577    1.896064
  C      3.245852   -2.101951    2.976321
  S      0.608223   -1.078042    1.038506
  C     -0.308407    0.465519    1.232073
  S     -0.625914    1.309827   -0.352610
  P     -2.607213    0.574652   -0.652062
  S     -3.449411    1.131679   -2.328782
  O     -3.390126    0.897012    0.688136
  C     -4.193372    2.084222    0.812242
  C     -3.342152    3.335587    0.899617
  O     -2.484610   -0.986067   -0.408159
  C     -1.920211   -1.829739   -1.433794
  C     -1.775010   -3.221914   -0.855726
  H      3.996087   -0.756937   -3.038967
  H      4.071504   -2.008313   -1.792595
  H      3.239691   -2.333253   -3.323547
  H      1.613300   -1.872564   -1.477346
  H      1.512657   -0.636218   -2.770128
  H      4.921047   -2.393636    1.630551
  H      4.713726   -0.715527    2.213781
  H      3.821025   -2.424711    3.838220
  H      2.585890   -1.290613    3.279047
  H      2.642951   -2.930602    2.613534
  H      0.286603    1.151925    1.835208
  H     -1.254578    0.223020    1.710130
  H     -4.869057    2.139945   -0.047129
  H     -4.766861    1.920232    1.725578
  H     -3.983213    4.196004    1.062571
  H     -2.630226    3.258925    1.717791
  H     -2.794128    3.476845   -0.032033
  H     -2.591535   -1.814034   -2.297734
  H     -0.951277   -1.419237   -1.737955
  H     -2.744503   -3.588657   -0.532756
  H     -1.374332   -3.883631   -1.616317
  H     -1.103989   -3.199474   -0.000951

 Total Charge           Charge          ....    0
 Multiplicity           Mult            ....    1
 Number of Electrons    NEL             ....  202
 Basis Dimension        Dim             ....  539

ORBITAL ENERGIES
----------------

  NO   OCC          E(Eh)            E(eV)
   0   2.0000     -88.579944     -2410.3828
   1   2.0000     -88.574691     -2410.2399
   2   2.0000     -88.526068     -2408.9168
   3   2.0000     -88.521821     -2408.8012
   4   2.0000     -76.919832     -2093.0950
   5   2.0000     -76.913931     -2092.9345
   6   2.0000     -19.002001      -517.0707
   7   2.0000     -18.995179      -516.8851
   8   2.0000     -18.994141      -516.8569
   9   2.0000     -18.992858      -516.8219
  10   2.0000     -10.107972      -275.0519
  11   2.0000     -10.106753      -275.0187
  12   2.0000     -10.106738      -275.0183
  13   2.0000     -10.100048      -274.8363
  14   2.0000     -10.099573      -274.8234
  15   2.0000     -10.035081      -273.0684
  16   2.0000     -10.034874      -273.0628
  17   2.0000     -10.033712      -273.0312
  18   2.0000     -10.028303      -272.8840
  19   2.0000      -7.874486      -214.2757
  20   2.0000      -7.868305      -214.1075
  21   2.0000      -7.820763      -212.8138
  22   2.0000      -7.816353      -212.6938
  23   2.0000      -6.598330      -179.5497
  24   2.0000      -6.592562      -179.3927
  25   2.0000      -5.821201      -158.4029
  26   2.0000      -5.818336      -158.3250
  27   2.0000      -5.815521      -158.2484
  28   2.0000      -5.811906      -158.1500
  29   2.0000      -5.811730      -158.1452
  30   2.0000      -5.805477      -157.9751
  31   2.0000      -5.768476      -156.9682
  32   2.0000      -5.763995      -156.8463
  33   2.0000      -5.760948      -156.7634
  34   2.0000      -5.760798      -156.7593
  35   2.0000      -5.756624      -156.6457
  36   2.0000      -5.756417      -156.6401
  37   2.0000      -4.744202      -129.0963
  38   2.0000      -4.743192      -129.0688
  39   2.0000      -4.741783      -129.0305
  40   2.0000      -4.737912      -128.9251
  41   2.0000      -4.737842      -128.9232
  42   2.0000      -4.736062      -128.8748
  43   2.0000      -1.057674       -28.7808
  44   2.0000      -1.055098       -28.7107
  45   2.0000      -1.016935       -27.6722
  46   2.0000      -1.013536       -27.5797
  47   2.0000      -0.802469       -21.8363
  48   2.0000      -0.762475       -20.7480
  49   2.0000      -0.755226       -20.5508
  50   2.0000      -0.740766       -20.1573
  51   2.0000      -0.730531       -19.8788
  52   2.0000      -0.714604       -19.4454
  53   2.0000      -0.691065       -18.8048
  54   2.0000      -0.671276       -18.2664
  55   2.0000      -0.633067       -17.2266
  56   2.0000      -0.628501       -17.1024
  57   2.0000      -0.613514       -16.6946
  58   2.0000      -0.598739       -16.2925
  59   2.0000      -0.594942       -16.1892
  60   2.0000      -0.533176       -14.5085
  61   2.0000      -0.529706       -14.4140
  62   2.0000      -0.501041       -13.6340
  63   2.0000      -0.492123       -13.3913
  64   2.0000      -0.483389       -13.1537
  65   2.0000      -0.472558       -12.8590
  66   2.0000      -0.458439       -12.4748
  67   2.0000      -0.454654       -12.3718
  68   2.0000      -0.451119       -12.2756
  69   2.0000      -0.448553       -12.2057
  70   2.0000      -0.429740       -11.6938
  71   2.0000      -0.417008       -11.3474
  72   2.0000      -0.414468       -11.2782
  73   2.0000      -0.401536       -10.9264
  74   2.0000      -0.398463       -10.8427
  75   2.0000      -0.390279       -10.6200
  76   2.0000      -0.385177       -10.4812
  77   2.0000      -0.382797       -10.4164
  78   2.0000      -0.373270       -10.1572
  79   2.0000      -0.372816       -10.1448
  80   2.0000      -0.368401       -10.0247
  81   2.0000      -0.364810        -9.9270
  82   2.0000      -0.359595        -9.7851
  83   2.0000      -0.355921        -9.6851
  84   2.0000      -0.348496        -9.4831
  85   2.0000      -0.334507        -9.1024
  86   2.0000      -0.332131        -9.0377
  87   2.0000      -0.322338        -8.7713
  88   2.0000      -0.317930        -8.6513
  89   2.0000      -0.313429        -8.5288
  90   2.0000      -0.307813        -8.3760
  91   2.0000      -0.292339        -7.9550
  92   2.0000      -0.286863        -7.8059
  93   2.0000      -0.283119        -7.7041
  94   2.0000      -0.271200        -7.3797
  95   2.0000      -0.250292        -6.8108
  96   2.0000      -0.234227        -6.3736
  97   2.0000      -0.226600        -6.1661
  98   2.0000      -0.221984        -6.0405
  99   2.0000      -0.219473        -5.9722
 100   2.0000      -0.215705        -5.8696
 101   0.0000      -0.045313        -1.2330
 102   0.0000      -0.028865        -0.7855
 103   0.0000      -0.015759        -0.4288
 104   0.0000       0.004467         0.1216
 105   0.0000       0.006737         0.1833

MULLIKEN ATOMIC CHARGES
-----------------------
   0 C :   -0.468536
   1 C :   -0.109185
   2 O :   -0.260951
   3 P :    0.641762
   4 S :   -0.432855
   5 O :   -0.292885
   6 C :   -0.164908
   7 C :   -0.445675
   8 S :   -0.161634
   9 C :   -0.224411
  10 S :   -0.139730
  11 P :    0.671791
  12 S :   -0.451335
  13 O :   -0.310767
  14 C :   -0.154219
  15 C :   -0.430317
  16 O :   -0.301137
  17 C :   -0.114167
  18 C :   -0.460997
  19 H :    0.160407
  20 H :    0.164487
  21 H :    0.146436
  22 H :    0.152880
  23 H :    0.165667
  24 H :    0.148909
  25 H :    0.175856
  26 H :    0.149539
  27 H :    0.179831
  28 H :    0.153101
  29 H :    0.223147
  30 H :    0.204067
  31 H :    0.173545
  32 H :    0.149006
  33 H :    0.148018
  34 H :    0.150862
  35 H :    0.175695
  36 H :    0.168643
  37 H :    0.153883
  38 H :    0.156437
  39 H :    0.146717
  40 H :    0.163025
Sum of atomic charges:    0.0000000

LOEWDIN ATOMIC CHARGES
----------------------
   0 C :   -0.391812
   1 C :    0.014680
   2 O :   -0.652556
   3 P :    0.378774
   4 S :   -0.095426
   5 O :   -0.671127
   6 C :    0.023252
   7 C :   -0.408198
   8 S :    0.132820
   9 C :   -0.416355
  10 S :    0.160039
  11 P :    0.364996
  12 S :   -0.108016
  13 O :   -0.668711
  14 C :    0.022382
  15 C :   -0.402250
  16 O :   -0.667763
  17 C :    0.013542
  18 C :   -0.392829
  19 H :    0.163241
  20 H :    0.165435
  21 H :    0.158970
  22 H :    0.173267
  23 H :    0.183515
  24 H :    0.179756
  25 H :    0.181301
  26 H :    0.160284
  27 H :    0.166479
  28 H :    0.159799
  29 H :    0.193309
  30 H :    0.196161
  31 H :    0.181070
  32 H :    0.179676
  33 H :    0.159775
  34 H :    0.158376
  35 H :    0.167126
  36 H :    0.179264
  37 H :    0.174478
  38 H :    0.161977
  39 H :    0.159426
  40 H :    0.161875

  Mayer bond orders larger than 0.100000
B(  0-C ,  1-C ) :   0.9456 B(  0-C , 19-H ) :   0.9712 B(  0-C , 20-H ) :   0.9689
B(  0-C , 21-H ) :   0.9647 B(  1-C ,  2-O ) :   0.7389 B(  1-C , 22-H ) :   0.9663
B(  1-C , 23-H ) :   0.9574 B(  2-O ,  3-P ) :   1.1392 B(  3-P ,  4-S ) :   1.8491
B(  3-P ,  5-O ) :   1.0379 B(  3-P ,  8-S ) :   1.0058 B(  5-O ,  6-C ) :   0.8177
B(  6-C ,  7-C ) :   0.9160 B(  6-C , 24-H ) :   0.9612 B(  6-C , 25-H ) :   0.9679
B(  7-C , 26-H ) :   0.9556 B(  7-C , 27-H ) :   0.9634 B(  7-C , 28-H ) :   0.9675
B(  8-S ,  9-C ) :   0.9100 B(  9-C , 10-S ) :   0.8936 B(  9-C , 29-H ) :   0.9086
B(  9-C , 30-H ) :   0.9144 B( 10-S , 11-P ) :   1.0587 B( 11-P , 12-S ) :   1.8128
B( 11-P , 13-O ) :   1.0982 B( 11-P , 16-O ) :   1.1079 B( 13-O , 14-C ) :   0.8083
B( 14-C , 15-C ) :   0.9288 B( 14-C , 31-H ) :   0.9648 B( 14-C , 32-H ) :   0.9595
B( 15-C , 33-H ) :   0.9608 B( 15-C , 34-H ) :   0.9683 B( 15-C , 35-H ) :   0.9605
B( 16-O , 17-C ) :   0.7595 B( 17-C , 18-C ) :   0.9352 B( 17-C , 36-H ) :   0.9393
B( 17-C , 37-H ) :   0.9488 B( 18-C , 38-H ) :   0.9711 B( 18-C , 39-H ) :   0.9687
B( 18-C , 40-H ) :   0.9695

Dispersion correction           -0.021178501
FINAL SINGLE POINT ENERGY     -2932.464264703887

DIPOLE MOMENT
-------------

Method             : SCF
Type of density    : Electron Density
Multiplicity       :   1
Irrep              :   0
Energy             : -2932.4895723758627355 Eh
Relativity type    :
Basis              : AO
                                X                 Y                 Z
Electronic contribution:     -3.807009129      12.809919625      -2.242421889
Nuclear contribution   :      4.218772471     -14.442829603       2.919285134
                        -----------------------------------------
Total Dipole Moment    :      0.411763342      -1.632909978       0.676863245
                        -----------------------------------------
Magnitude (a.u.)       :      1.814962231
Magnitude (Debye)      :      4.613267368

Rotational constants in cm-1:             0.012325             0.004637             0.004228
Rotational constants in MHz :           369.491730           139.026820           126.757584

                             ****ORCA TERMINATED NORMALLY****
TOTAL RUN TIME: 0 days 0 hours 1 minutes 19 seconds 749 msec
