                         Program Version 6.0.0  -   RELEASE  -
|  1> ! r2scan-3c def2/J RI DEFGRID2 scfconv6 printgap
|  2> %output
|  3>     printlevel normal
|  4> end
|  5> %cpcm
|  6>     smd true
|  7>     smdsolvent "water"
|  8> end
|  9> * xyz 0 1
| 10> C 3.4539234892 -1.5765108233 -2.5753303029
| 11> C 2.1486991515 -1.0714758208 -1.995792083
| 12> O 2.3828181303 0.0152956515 -1.0680332184
| 13> P 2.46243674 -0.1722186682 0.4970929116
| 14> S 2.8934400746 1.501946461 1.4082470659
| 15> O 3.5194619217 -1.3488370201 0.6543986225
| 16> C 4.1943055535 -1.6245766423 1.8960644329
| 17> C 3.2458521103 -2.1019510992 2.976321477
| 18> S 0.6082226734 -1.078042205 1.038505596
| 19> C -0.3084067456 0.465518897 1.2320734634
| 20> S -0.6259138048 1.3098271433 -0.3526101322
| 21> P -2.6072125597 0.574651974 -0.6520623208
| 22> S -3.4494109522 1.1316792196 -2.3287815647
| 23> O -3.3901255051 0.8970116211 0.68813628
| 24> C -4.1933719654 2.0842216723 0.8122424195
| 25> C -3.3421523171 3.3355871407 0.8996171873
| 26> O -2.4846096862 -0.9860668015 -0.4081591548
| 27> C -1.9202106419 -1.8297386378 -1.4337943943
| 28> C -1.775010411 -3.2219140313 -0.8557263194
| 29> H 3.996087477 -0.7569372509 -3.0389671372
| 30> H 4.0715039671 -2.0083129487 -1.7925954955
| 31> H 3.2396910941 -2.3332534607 -3.3235465443
| 32> H 1.6133002472 -1.8725636764 -1.4773458707
| 33> H 1.5126568657 -0.6362183467 -2.7701278873
| 34> H 4.9210473266 -2.393635764 1.6305505117
| 35> H 4.7137264442 -0.715526629 2.213781335
| 36> H 3.8210251102 -2.4247109222 3.8382199609
| 37> H 2.5858898114 -1.2906126892 3.2790474998
| 38> H 2.642951141 -2.9306017937 2.6135340221
| 39> H 0.2866033194 1.1519253436 1.8352083081
| 40> H -1.2545777102 0.2230200568 1.7101298805
| 41> H -4.8690569767 2.1399453309 -0.0471289514
| 42> H -4.7668612612 1.9202315232 1.7255781503
| 43> H -3.9832130136 4.1960042238 1.0625707897
| 44> H -2.6302263347 3.2589254768 1.7177914346
| 45> H -2.794127711 3.4768453738 -0.0320326642
| 46> H -2.5915349083 -1.8140341969 -2.2977342215
| 47> H -0.9512766115 -1.4192374347 -1.7379546442
| 48> H -2.7445033895 -3.5886571356 -0.5327564763
| 49> H -1.3743321835 -3.883631462 -1.6163173972
| 50> H -1.1039892245 -3.1994740632 -0.0009512495
| 51> *
| 52>
| 53>                          ****END OF INPUT****

CARTESIAN COORDINATES (ANGSTROEM)
---------------------------------
  C      3.453923   -1.576511   -2.575330
  C      2.148699   -1.071476   -1.995792
  O      2.382818    0.015296   -1.068033
  P      2.462437   -0.172219    0.497093
  S      2.893440    1.501946    1.408247
  O      3.519462   -1.348837    0.654399
  C      4.194306   -1.624577    1.896064
  C      3.245852   -2.101951    2.976321
  S      0.608223   -1.078042    1.038506
  C     -0.308407    0.465519    1.232073
  S     -0.625914    1.309827   -0.352610
  P     -2.607213    0.574652   -0.652062
  S     -3.449411    1.131679   -2.328782
  O     -3.390126    0.897012    0.688136
  C     -4.193372    2.084222    0.812242
  C     -3.342152    3.335587    0.899617
  O     -2.484610   -0.986067   -0.408159
  C     -1.920211   -1.829739   -1.433794
  C     -1.775010   -3.221914   -0.855726
  H      3.996087   -0.756937   -3.038967
  H      4.071504   -2.008313   -1.792595
  H      3.239691   -2.333253   -3.323547
  H      1.613300   -1.872564   -1.477346
  H      1.512657   -0.636218   -2.770128
  H      4.921047   -2.393636    1.630551
  H      4.713726   -0.715527    2.213781
  H      3.821025   -2.424711    3.838220
  H      2.585890   -1.290613    3.279047
  H      2.642951   -2.930602    2.613534
  H      0.286603    1.151925    1.835208
  H     -1.254578    0.223020    1.710130
  H     -4.869057    2.139945   -0.047129
  H     -4.766861    1.920232    1.725578
  H     -3.983213    4.196004    1.062571
  H     -2.630226    3.258925    1.717791
  H     -2.794128    3.476845   -0.032033
  H     -2.591535   -1.814034   -2.297734
  H     -0.951277   -1.419237   -1.737955
  H     -2.744503   -3.588657   -0.532756
  H     -1.374332   -3.883631   -1.616317
  H     -1.103989   -3.199474   -0.000951

 Total Charge           Charge          ....    0
 Multiplicity           Mult            ....    1
 Number of Electrons    NEL             ....  202
 Basis Dimension        Dim             ....  539

ORBITAL ENERGIES
----------------

  NO   OCC          E(Eh)            E(eV)
   0   2.0000     -88.578391     -2410.3406
   1   2.0000     -88.578096     -2410.3325
   2   2.0000     -88.532305     -2409.0865
   3   2.0000     -88.531768     -2409.0719
   4   2.0000     -76.921347     -2093.1363
   5   2.0000     -76.920120     -2093.1029
   6   2.0000     -18.997866      -516.9582
   7   2.0000     -18.996545      -516.9223
   8   2.0000     -18.995941      -516.9058
   9   2.0000     -18.995140      -516.8840
  10   2.0000     -10.104799      -274.9656
  11   2.0000     -10.092463      -274.6299
  12   2.0000     -10.091507      -274.6039
  13   2.0000     -10.090834      -274.5856
  14   2.0000     -10.090821      -274.5852
  15   2.0000     -10.019721      -272.6505
  16   2.0000     -10.019008      -272.6311
  17   2.0000     -10.018834      -272.6263
  18   2.0000     -10.018533      -272.6182
  19   2.0000      -7.872532      -214.2225
  20   2.0000      -7.872165      -214.2125
  21   2.0000      -7.827383      -212.9939
  22   2.0000      -7.826673      -212.9746
  23   2.0000      -6.599904      -179.5925
  24   2.0000      -6.598810      -179.5627
  25   2.0000      -5.819342      -158.3524
  26   2.0000      -5.819301      -158.3512
  27   2.0000      -5.816424      -158.2730
  28   2.0000      -5.815753      -158.2547
  29   2.0000      -5.809692      -158.0897
  30   2.0000      -5.809380      -158.0813
  31   2.0000      -5.774966      -157.1448
  32   2.0000      -5.774211      -157.1243
  33   2.0000      -5.767551      -156.9430
  34   2.0000      -5.767494      -156.9415
  35   2.0000      -5.766874      -156.9246
  36   2.0000      -5.766840      -156.9237
  37   2.0000      -4.745721      -129.1376
  38   2.0000      -4.744716      -129.1103
  39   2.0000      -4.744121      -129.0941
  40   2.0000      -4.744060      -129.0924
  41   2.0000      -4.743499      -129.0772
  42   2.0000      -4.742416      -129.0477
  43   2.0000      -1.057590       -28.7785
  44   2.0000      -1.055078       -28.7101
  45   2.0000      -1.015094       -27.6221
  46   2.0000      -1.014044       -27.5935
  47   2.0000      -0.801396       -21.8071
  48   2.0000      -0.757186       -20.6041
  49   2.0000      -0.747057       -20.3285
  50   2.0000      -0.726863       -19.7789
  51   2.0000      -0.721458       -19.6319
  52   2.0000      -0.712288       -19.3823
  53   2.0000      -0.693415       -18.8688
  54   2.0000      -0.675821       -18.3900
  55   2.0000      -0.628322       -17.0975
  56   2.0000      -0.622569       -16.9410
  57   2.0000      -0.603217       -16.4144
  58   2.0000      -0.592191       -16.1143
  59   2.0000      -0.589247       -16.0342
  60   2.0000      -0.529154       -14.3990
  61   2.0000      -0.521765       -14.1980
  62   2.0000      -0.492380       -13.3983
  63   2.0000      -0.489518       -13.3205
  64   2.0000      -0.480913       -13.0863
  65   2.0000      -0.464027       -12.6268
  66   2.0000      -0.456618       -12.4252
  67   2.0000      -0.448602       -12.2071
  68   2.0000      -0.443549       -12.0696
  69   2.0000      -0.437134       -11.8950
  70   2.0000      -0.424428       -11.5493
  71   2.0000      -0.412293       -11.2191
  72   2.0000      -0.407008       -11.0753
  73   2.0000      -0.396658       -10.7936
  74   2.0000      -0.395398       -10.7593
  75   2.0000      -0.386325       -10.5124
  76   2.0000      -0.380474       -10.3532
  77   2.0000      -0.374344       -10.1864
  78   2.0000      -0.363492        -9.8911
  79   2.0000      -0.360298        -9.8042
  80   2.0000      -0.358252        -9.7485
  81   2.0000      -0.352947        -9.6042
  82   2.0000      -0.351389        -9.5618
  83   2.0000      -0.346685        -9.4338
  84   2.0000      -0.343949        -9.3593
  85   2.0000      -0.328032        -8.9262
  86   2.0000      -0.327490        -8.9115
  87   2.0000      -0.318274        -8.6607
  88   2.0000      -0.308366        -8.3911
  89   2.0000      -0.305512        -8.3134
  90   2.0000      -0.303491        -8.2584
  91   2.0000      -0.288585        -7.8528
  92   2.0000      -0.283920        -7.7259
  93   2.0000      -0.279739        -7.6121
  94   2.0000      -0.271722        -7.3939
  95   2.0000      -0.251172        -6.8347
  96   2.0000      -0.240572        -6.5463
  97   2.0000      -0.234037        -6.3685
  98   2.0000      -0.231036        -6.2868
  99   2.0000      -0.229649        -6.2491
 100   2.0000      -0.220422        -5.9980
 101   0.0000      -0.046749        -1.2721
 102   0.0000      -0.034301        -0.9334
 103   0.0000      -0.017582        -0.4784
 104   0.0000       0.000458         0.0125
 105   0.0000       0.006945         0.1890

MULLIKEN ATOMIC CHARGES
-----------------------
   0 C :   -0.510691
   1 C :   -0.092111
   2 O :   -0.296784
   3 P :    0.655239
   4 S :   -0.495190
   5 O :   -0.308119
   6 C :   -0.158194
   7 C :   -0.483886
   8 S :   -0.146277
   9 C :   -0.228513
  10 S :   -0.173600
  11 P :    0.700773
  12 S :   -0.508965
  13 O :   -0.329296
  14 C :   -0.146010
  15 C :   -0.471648
  16 O :   -0.324012
  17 C :   -0.116196
  18 C :   -0.491804
  19 H :    0.167448
  20 H :    0.169793
  21 H :    0.171336
  22 H :    0.171950
  23 H :    0.181029
  24 H :    0.176724
  25 H :    0.180227
  26 H :    0.173161
  27 H :    0.174516
  28 H :    0.169157
  29 H :    0.236696
  30 H :    0.235034
  31 H :    0.176839
  32 H :    0.176208
  33 H :    0.172089
  34 H :    0.169599
  35 H :    0.167821
  36 H :    0.175907
  37 H :    0.174463
  38 H :    0.166452
  39 H :    0.172979
  40 H :    0.165859
Sum of atomic charges:    0.0000000

LOEWDIN ATOMIC CHARGES
----------------------
   0 C :   -0.395376
   1 C :    0.023268
   2 O :   -0.675998
   3 P :    0.381761
   4 S :   -0.142143
   5 O :   -0.673619
   6 C :    0.028990
   7 C :   -0.410895
   8 S :    0.148112
   9 C :   -0.408178
  10 S :    0.141022
  11 P :    0.370764
  12 S :   -0.149482
  13 O :   -0.675328
  14 C :    0.027962
  15 C :   -0.406071
  16 O :   -0.680163
  17 C :    0.018005
  18 C :   -0.393752
  19 H :    0.163800
  20 H :    0.165443
  21 H :    0.168979
  22 H :    0.182175
  23 H :    0.190528
  24 H :    0.191704
  25 H :    0.182127
  26 H :    0.168822
  27 H :    0.161920
  28 H :    0.164017
  29 H :    0.197712
  30 H :    0.206914
  31 H :    0.181820
  32 H :    0.191439
  33 H :    0.168331
  34 H :    0.163456
  35 H :    0.161486
  36 H :    0.182156
  37 H :    0.181712
  38 H :    0.164159
  39 H :    0.170120
  40 H :    0.162297

  Mayer bond orders larger than 0.100000
B(  0-C ,  1-C ) :   0.9346 B(  0-C , 19-H ) :   0.9701 B(  0-C , 20-H ) :   0.9682
B(  0-C , 21-H ) :   0.9585 B(  1-C ,  2-O ) :   0.7323 B(  1-C , 22-H ) :   0.9564
B(  1-C , 23-H ) :   0.9490 B(  2-O ,  3-P ) :   1.1452 B(  3-P ,  4-S ) :   1.8179
B(  3-P ,  5-O ) :   1.0512 B(  3-P ,  8-S ) :   1.0216 B(  5-O ,  6-C ) :   0.8058
B(  6-C ,  7-C ) :   0.9037 B(  6-C , 24-H ) :   0.9504 B(  6-C , 25-H ) :   0.9671
B(  7-C , 26-H ) :   0.9506 B(  7-C , 27-H ) :   0.9650 B(  7-C , 28-H ) :   0.9645
B(  8-S ,  9-C ) :   0.9067 B(  9-C , 10-S ) :   0.8847 B(  9-C , 29-H ) :   0.9038
B(  9-C , 30-H ) :   0.9055 B( 10-S , 11-P ) :   1.0665 B( 11-P , 12-S ) :   1.7789
B( 11-P , 13-O ) :   1.1081 B( 11-P , 16-O ) :   1.1189 B( 13-O , 14-C ) :   0.7970
B( 14-C , 15-C ) :   0.9175 B( 14-C , 31-H ) :   0.9628 B( 14-C , 32-H ) :   0.9490
B( 15-C , 33-H ) :   0.9556 B( 15-C , 34-H ) :   0.9657 B( 15-C , 35-H ) :   0.9631
B( 16-O , 17-C ) :   0.7496 B( 17-C , 18-C ) :   0.9347 B( 17-C , 36-H ) :   0.9353
B( 17-C , 37-H ) :   0.9398 B( 18-C , 38-H ) :   0.9697 B( 18-C , 39-H ) :   0.9613
B( 18-C , 40-H ) :   0.9674

Dispersion correction           -0.021178501
FINAL SINGLE POINT ENERGY     -2932.474952022992

DIPOLE MOMENT
-------------

Method             : SCF
Type of density    : Electron Density
Multiplicity       :   1
Irrep              :   0
Energy             : -2932.5002596949670988 Eh
Relativity type    :
Basis              : AO
                                X                 Y                 Z
Electronic contribution:     -3.806498928      12.038854167      -1.938661837
Nuclear contribution   :      4.218772471     -14.442829603       2.919285134
                        -----------------------------------------
Total Dipole Moment    :      0.412273544      -2.403975436       0.980623297
                        -----------------------------------------
Magnitude (a.u.)       :      2.628819017
Magnitude (Debye)      :      6.681926919

Rotational constants in cm-1:             0.012325             0.004637             0.004228
Rotational constants in MHz :           369.491730           139.026820           126.757584

                             ****ORCA TERMINATED NORMALLY****
TOTAL RUN TIME: 0 days 0 hours 1 minutes 47 seconds 704 msec
