                         Program Version 6.0.0  -   RELEASE  -
|  1> ! pbe def2-sv(p) def2/J RI DEFGRID1 loosescf d4 GCP(DFT/SV(P)) printgap
|  2> %output
|  3>     printlevel normal
|  4> end
|  5> * xyz 0 1
|  6> C -0.6412086262 -0.9186747736 0.3959082111
|  7> C 0.3992607144 -0.138038464 -0.3765393491
|  8> Cl 2.0135090068 -0.7985357839 -0.0070383002
|  9> Cl 0.3660959346 1.5926572311 0.0671725166
| 10> Cl -2.2731981644 -0.3524010841 -0.0712058713
| 11> H -0.579108386 -1.9770421265 0.1455457684
| 12> H -0.5357945121 -0.7691945883 1.4695186318
| 13> H 0.2552686872 -0.1987586556 -1.4564356277
| 14> *
| 15>
| 16>                          ****END OF INPUT****

CARTESIAN COORDINATES (ANGSTROEM)
---------------------------------
  C     -0.641209   -0.918675    0.395908
  C      0.399261   -0.138038   -0.376539
  Cl     2.013509   -0.798536   -0.007038
  Cl     0.366096    1.592657    0.067173
  Cl    -2.273198   -0.352401   -0.071206
  H     -0.579108   -1.977042    0.145546
  H     -0.535795   -0.769195    1.469519
  H      0.255269   -0.198759   -1.456436

 Total Charge           Charge          ....    0
 Multiplicity           Mult            ....    1
 Number of Electrons    NEL             ....   66
 Basis Dimension        Dim             ....   88

ORBITAL ENERGIES
----------------

  NO   OCC          E(Eh)            E(eV)
   0   2.0000    -100.650487     -2738.8390
   1   2.0000    -100.643374     -2738.6454
   2   2.0000    -100.639175     -2738.5312
   3   2.0000     -10.018714      -272.6231
   4   2.0000      -9.969836      -271.2930
   5   2.0000      -9.186690      -249.9826
   6   2.0000      -9.179501      -249.7869
   7   2.0000      -9.174897      -249.6616
   8   2.0000      -7.018423      -190.9810
   9   2.0000      -7.011441      -190.7910
  10   2.0000      -7.006837      -190.6657
  11   2.0000      -7.006338      -190.6521
  12   2.0000      -7.006038      -190.6440
  13   2.0000      -6.998995      -190.4523
  14   2.0000      -6.998829      -190.4478
  15   2.0000      -6.994556      -190.3316
  16   2.0000      -6.994129      -190.3199
  17   2.0000      -0.846289       -23.0287
  18   2.0000      -0.783870       -21.3302
  19   2.0000      -0.751903       -20.4603
  20   2.0000      -0.652564       -17.7572
  21   2.0000      -0.561472       -15.2784
  22   2.0000      -0.465406       -12.6644
  23   2.0000      -0.438583       -11.9344
  24   2.0000      -0.426091       -11.5945
  25   2.0000      -0.386213       -10.5094
  26   2.0000      -0.373838       -10.1727
  27   2.0000      -0.295157        -8.0316
  28   2.0000      -0.283423        -7.7123
  29   2.0000      -0.277424        -7.5491
  30   2.0000      -0.266893        -7.2625
  31   2.0000      -0.263714        -7.1760
  32   2.0000      -0.256565        -6.9815
  33   0.0000      -0.030495        -0.8298
  34   0.0000      -0.022896        -0.6230
  35   0.0000       0.012605         0.3430
  36   0.0000       0.055085         1.4989
  37   0.0000       0.063235         1.7207

MULLIKEN ATOMIC CHARGES
-----------------------
   0 C :   -0.108613
   1 C :   -0.122092
   2 Cl:   -0.071748
   3 Cl:   -0.069658
   4 Cl:   -0.119739
   5 H :    0.157047
   6 H :    0.157442
   7 H :    0.177361
Sum of atomic charges:   -0.0000000

LOEWDIN ATOMIC CHARGES
----------------------
   0 C :   -0.313805
   1 C :   -0.291895
   2 Cl:    0.075854
   3 Cl:    0.070452
   4 Cl:    0.051715
   5 H :    0.137076
   6 H :    0.136554
   7 H :    0.134049

  Mayer bond orders larger than 0.100000
B(  0-C ,  1-C ) :   1.0133 B(  0-C ,  4-Cl) :   1.0505 B(  0-C ,  5-H ) :   0.9108
B(  0-C ,  6-H ) :   0.9105 B(  1-C ,  2-Cl) :   1.0400 B(  1-C ,  3-Cl) :   1.0588
B(  1-C ,  7-H ) :   0.8995

Dispersion correction           -0.008660991
FINAL SINGLE POINT ENERGY     -1457.421364456517

DIPOLE MOMENT
-------------

Method             : SCF
Type of density    : Electron Density
Multiplicity       :   1
Irrep              :   0
Energy             : -1457.4433738009511217 Eh
Relativity type    :
Basis              : AO
                                X                 Y                 Z
Electronic contribution:      0.994083868       2.841871594      -0.230208870
Nuclear contribution   :     -0.949309495      -3.355809434       0.163682357
                        -----------------------------------------
Total Dipole Moment    :      0.044774373      -0.513937841      -0.066526513
                        -----------------------------------------
Magnitude (a.u.)       :      0.520156347
Magnitude (Debye)      :      1.322132363

Rotational constants in cm-1:             0.120288             0.048512             0.035783
Rotational constants in MHz :          3606.156458          1454.345499          1072.735217

                             ****ORCA TERMINATED NORMALLY****
TOTAL RUN TIME: 0 days 0 hours 0 minutes 5 seconds 165 msec
