                         Program Version 6.0.0  -   RELEASE  -
|  1> ! r2scan-3c def2/J RI DEFGRID2 scfconv6 printgap
|  2> %output
|  3>     printlevel normal
|  4> end
|  5> * xyz 0 1
|  6> C 0.6520612779 0.00018506 -0.3881158113
|  7> C -0.6528597946 0.0002070692 0.3878290971
|  8> Cl -1.5920062012 1.4503562436 -0.0334070034
|  9> Cl -1.5913965328 -1.4503078484 -0.0332762161
| 10> Cl 1.5922844805 1.4494003501 0.0334569012
| 11> Cl 1.5913980588 -1.4495982694 0.0333298599
| 12> H 0.4903046634 0.0001628613 -1.4680593564
| 13> H -0.4906312165 0.0004237922 1.4678339397
| 14> *
| 15>
| 16>                          ****END OF INPUT****

CARTESIAN COORDINATES (ANGSTROEM)
---------------------------------
  C      0.652061    0.000185   -0.388116
  C     -0.652860    0.000207    0.387829
  Cl    -1.592006    1.450356   -0.033407
  Cl    -1.591397   -1.450308   -0.033276
  Cl     1.592284    1.449400    0.033457
  Cl     1.591398   -1.449598    0.033330
  H      0.490305    0.000163   -1.468059
  H     -0.490631    0.000424    1.467834

 Total Charge           Charge          ....    0
 Multiplicity           Mult            ....    1
 Number of Electrons    NEL             ....   82
 Basis Dimension        Dim             ....  156

ORBITAL ENERGIES
----------------

  NO   OCC          E(Eh)            E(eV)
   0   2.0000    -101.239801     -2754.8750
   1   2.0000    -101.239797     -2754.8749
   2   2.0000    -101.239751     -2754.8737
   3   2.0000    -101.239729     -2754.8731
   4   2.0000     -10.191697      -277.3302
   5   2.0000     -10.191555      -277.3263
   6   2.0000      -9.395775      -255.6720
   7   2.0000      -9.395772      -255.6719
   8   2.0000      -9.395730      -255.6708
   9   2.0000      -9.395712      -255.6703
  10   2.0000      -7.142654      -194.3615
  11   2.0000      -7.142651      -194.3614
  12   2.0000      -7.142609      -194.3603
  13   2.0000      -7.142590      -194.3598
  14   2.0000      -7.131512      -194.0583
  15   2.0000      -7.131510      -194.0582
  16   2.0000      -7.131469      -194.0571
  17   2.0000      -7.131450      -194.0566
  18   2.0000      -7.131435      -194.0562
  19   2.0000      -7.131432      -194.0561
  20   2.0000      -7.131389      -194.0549
  21   2.0000      -7.131370      -194.0544
  22   2.0000      -0.924611       -25.1599
  23   2.0000      -0.863131       -23.4870
  24   2.0000      -0.816075       -22.2065
  25   2.0000      -0.794680       -21.6243
  26   2.0000      -0.691420       -18.8145
  27   2.0000      -0.605076       -16.4649
  28   2.0000      -0.496602       -13.5132
  29   2.0000      -0.477122       -12.9831
  30   2.0000      -0.472058       -12.8453
  31   2.0000      -0.431344       -11.7375
  32   2.0000      -0.415043       -11.2939
  33   2.0000      -0.330914        -9.0046
  34   2.0000      -0.319696        -8.6994
  35   2.0000      -0.317653        -8.6438
  36   2.0000      -0.316663        -8.6168
  37   2.0000      -0.305931        -8.3248
  38   2.0000      -0.301459        -8.2031
  39   2.0000      -0.293283        -7.9806
  40   2.0000      -0.276535        -7.5249
  41   0.0000      -0.052886        -1.4391
  42   0.0000      -0.047372        -1.2891
  43   0.0000      -0.036293        -0.9876
  44   0.0000       0.025003         0.6804
  45   0.0000       0.076041         2.0692

MULLIKEN ATOMIC CHARGES
-----------------------
   0 C :   -0.011544
   1 C :   -0.011449
   2 Cl:   -0.100857
   3 Cl:   -0.100823
   4 Cl:   -0.100882
   5 Cl:   -0.100909
   6 H :    0.213261
   7 H :    0.213204
Sum of atomic charges:    0.0000000

LOEWDIN ATOMIC CHARGES
----------------------
   0 C :   -0.366606
   1 C :   -0.366547
   2 Cl:    0.093329
   3 Cl:    0.093369
   4 Cl:    0.093275
   5 Cl:    0.093258
   6 H :    0.179949
   7 H :    0.179973

  Mayer bond orders larger than 0.100000
B(  0-C ,  1-C ) :   0.9510 B(  0-C ,  4-Cl) :   0.9990 B(  0-C ,  5-Cl) :   0.9990
B(  0-C ,  6-H ) :   0.9258 B(  1-C ,  2-Cl) :   0.9990 B(  1-C ,  3-Cl) :   0.9990
B(  1-C ,  7-H ) :   0.9258

Dispersion correction           -0.003273704
FINAL SINGLE POINT ENERGY     -1918.093702297550

DIPOLE MOMENT
-------------

Method             : SCF
Type of density    : Electron Density
Multiplicity       :   1
Irrep              :   0
Energy             : -1918.1013005063614401 Eh
Relativity type    :
Basis              : AO
                                X                 Y                 Z
Electronic contribution:      0.000177489      -0.000684141       0.000262359
Nuclear contribution   :     -0.000681926       0.000751080      -0.000350457
                        -----------------------------------------
Total Dipole Moment    :     -0.000504437       0.000066939      -0.000088097
                        -----------------------------------------
Magnitude (a.u.)       :      0.000516428
Magnitude (Debye)      :      0.001312657

Rotational constants in cm-1:             0.055047             0.044580             0.025230
Rotational constants in MHz :          1650.256214          1336.475769           756.385682

                             ****ORCA TERMINATED NORMALLY****
TOTAL RUN TIME: 0 days 0 hours 0 minutes 36 seconds 796 msec
