                         Program Version 6.0.0  -   RELEASE  -
|  1> ! r2scan-3c def2/J RI DEFGRID2 scfconv6 printgap
|  2> %output
|  3>     printlevel normal
|  4> end
|  5> %cpcm
|  6>     smd true
|  7>     smdsolvent "water"
|  8> end
|  9> * xyz 0 1
| 10> C 0.6520612779 0.00018506 -0.3881158113
| 11> C -0.6528597946 0.0002070692 0.3878290971
| 12> Cl -1.5920062012 1.4503562436 -0.0334070034
| 13> Cl -1.5913965328 -1.4503078484 -0.0332762161
| 14> Cl 1.5922844805 1.4494003501 0.0334569012
| 15> Cl 1.5913980588 -1.4495982694 0.0333298599
| 16> H 0.4903046634 0.0001628613 -1.4680593564
| 17> H -0.4906312165 0.0004237922 1.4678339397
| 18> *
| 19>
| 20>                          ****END OF INPUT****

CARTESIAN COORDINATES (ANGSTROEM)
---------------------------------
  C      0.652061    0.000185   -0.388116
  C     -0.652860    0.000207    0.387829
  Cl    -1.592006    1.450356   -0.033407
  Cl    -1.591397   -1.450308   -0.033276
  Cl     1.592284    1.449400    0.033457
  Cl     1.591398   -1.449598    0.033330
  H      0.490305    0.000163   -1.468059
  H     -0.490631    0.000424    1.467834

 Total Charge           Charge          ....    0
 Multiplicity           Mult            ....    1
 Number of Electrons    NEL             ....   82
 Basis Dimension        Dim             ....  156

ORBITAL ENERGIES
----------------

  NO   OCC          E(Eh)            E(eV)
   0   2.0000    -101.234990     -2754.7441
   1   2.0000    -101.234985     -2754.7440
   2   2.0000    -101.234945     -2754.7429
   3   2.0000    -101.234924     -2754.7423
   4   2.0000     -10.181208      -277.0447
   5   2.0000     -10.181066      -277.0409
   6   2.0000      -9.391067      -255.5439
   7   2.0000      -9.391064      -255.5438
   8   2.0000      -9.391029      -255.5429
   9   2.0000      -9.391011      -255.5424
  10   2.0000      -7.137818      -194.2299
  11   2.0000      -7.137815      -194.2298
  12   2.0000      -7.137779      -194.2289
  13   2.0000      -7.137761      -194.2284
  14   2.0000      -7.126858      -193.9317
  15   2.0000      -7.126854      -193.9316
  16   2.0000      -7.126818      -193.9306
  17   2.0000      -7.126800      -193.9301
  18   2.0000      -7.126785      -193.9297
  19   2.0000      -7.126782      -193.9296
  20   2.0000      -7.126747      -193.9287
  21   2.0000      -7.126730      -193.9282
  22   2.0000      -0.917245       -24.9595
  23   2.0000      -0.857343       -23.3295
  24   2.0000      -0.811060       -22.0701
  25   2.0000      -0.789955       -21.4958
  26   2.0000      -0.684056       -18.6141
  27   2.0000      -0.593168       -16.1409
  28   2.0000      -0.488458       -13.2916
  29   2.0000      -0.467279       -12.7153
  30   2.0000      -0.466180       -12.6854
  31   2.0000      -0.421546       -11.4709
  32   2.0000      -0.409420       -11.1409
  33   2.0000      -0.326305        -8.8792
  34   2.0000      -0.316262        -8.6059
  35   2.0000      -0.313627        -8.5342
  36   2.0000      -0.312096        -8.4926
  37   2.0000      -0.300350        -8.1729
  38   2.0000      -0.297764        -8.1026
  39   2.0000      -0.286700        -7.8015
  40   2.0000      -0.273351        -7.4382
  41   0.0000      -0.047387        -1.2895
  42   0.0000      -0.040900        -1.1130
  43   0.0000      -0.029091        -0.7916
  44   0.0000       0.032602         0.8871
  45   0.0000       0.088904         2.4192

MULLIKEN ATOMIC CHARGES
-----------------------
   0 C :   -0.016789
   1 C :   -0.016735
   2 Cl:   -0.122941
   3 Cl:   -0.122904
   4 Cl:   -0.122984
   5 Cl:   -0.123013
   6 H :    0.262718
   7 H :    0.262649
Sum of atomic charges:    0.0000000

LOEWDIN ATOMIC CHARGES
----------------------
   0 C :   -0.361360
   1 C :   -0.361312
   2 Cl:    0.082100
   3 Cl:    0.082142
   4 Cl:    0.082033
   5 Cl:    0.082015
   6 H :    0.197180
   7 H :    0.197202

  Mayer bond orders larger than 0.100000
B(  0-C ,  1-C ) :   0.9501 B(  0-C ,  4-Cl) :   0.9835 B(  0-C ,  5-Cl) :   0.9834
B(  0-C ,  6-H ) :   0.9068 B(  1-C ,  2-Cl) :   0.9835 B(  1-C ,  3-Cl) :   0.9835
B(  1-C ,  7-H ) :   0.9069

Dispersion correction           -0.003273704
FINAL SINGLE POINT ENERGY     -1918.097863401175

DIPOLE MOMENT
-------------

Method             : SCF
Type of density    : Electron Density
Multiplicity       :   1
Irrep              :   0
Energy             : -1918.1054616099863779 Eh
Relativity type    :
Basis              : AO
                                X                 Y                 Z
Electronic contribution:      0.000005794      -0.000633165       0.000181723
Nuclear contribution   :     -0.000681926       0.000751080      -0.000350457
                        -----------------------------------------
Total Dipole Moment    :     -0.000676132       0.000117914      -0.000168734
                        -----------------------------------------
Magnitude (a.u.)       :      0.000706773
Magnitude (Debye)      :      0.001796475

Rotational constants in cm-1:             0.055047             0.044580             0.025230
Rotational constants in MHz :          1650.256214          1336.475769           756.385682

                             ****ORCA TERMINATED NORMALLY****
TOTAL RUN TIME: 0 days 0 hours 1 minutes 1 seconds 537 msec
