                         Program Version 6.0.0  -   RELEASE  -
|  1> ! pbe def2-sv(p) def2/J RI DEFGRID1 loosescf d4 GCP(DFT/SV(P)) printgap
|  2> %output
|  3>     printlevel normal
|  4> end
|  5> * xyz 0 1
|  6> C 2.1414669743 2.1793474363 -1.1000461418
|  7> C 2.2937377361 2.3070924184 0.4010299694
|  8> O 1.6317062605 1.2374592675 1.1258836244
|  9> P 1.9873716167 -0.2955126258 1.0038426531
| 10> S 1.5400737721 -1.3020262274 2.6216267823
| 11> O 3.5324448271 -0.2507767922 0.6392809707
| 12> C 4.302718012 -1.4675337125 0.5558591342
| 13> C 5.7698505601 -1.0949122839 0.6206184158
| 14> S 1.0802794835 -1.0330378152 -0.7886001018
| 15> C -0.294967451 -1.9412075468 -0.0449167958
| 16> S -1.5005807713 -0.8792652111 0.7914515513
| 17> P -2.1246555654 0.2397501822 -0.9239571773
| 18> S -1.9306296073 -0.6143989 -2.6683798156
| 19> O -1.3326917793 1.6028899534 -0.820221812
| 20> C -1.4636567948 2.5067944797 0.3107312773
| 21> C -1.407300596 3.9272706836 -0.2122698465
| 22> O -3.6002700501 0.7023473683 -0.5451451953
| 23> C -4.7607900837 -0.0800734796 -0.8778155415
| 24> C -4.806040295 -1.3935667139 -0.1246253064
| 25> H 2.56680443 3.0581482877 -1.574997359
| 26> H 2.6642674707 1.2955078396 -1.4613838636
| 27> H 1.0931462376 2.0943855402 -1.3782707146
| 28> H 1.8056891503 3.2057885381 0.7818698587
| 29> H 3.3467045813 2.306644172 0.6867510704
| 30> H 4.0166921485 -2.1183105755 1.3887722853
| 31> H 4.0555678999 -1.9623874703 -0.3872906981
| 32> H 6.0217975702 -0.4265198768 -0.1974998855
| 33> H 5.9880868707 -0.5996730588 1.5625741064
| 34> H 6.3681916486 -1.9967582095 0.544164133
| 35> H 0.080412551 -2.6249310517 0.7154300857
| 36> H -0.7774240522 -2.4716946678 -0.8646154546
| 37> H -2.4100235374 2.3083767833 0.8166283396
| 38> H -0.6388188143 2.2891961084 0.9938414667
| 39> H -1.4713972504 4.615199934 0.6248356911
| 40> H -0.4778958106 4.096176716 -0.7484283121
| 41> H -2.2382247301 4.1068130967 -0.8891411672
| 42> H -5.595704064 0.5682657976 -0.6080823079
| 43> H -4.7580188244 -0.256081192 -1.9578203701
| 44> H -4.6906034396 -1.224330239 0.9432132181
| 45> H -5.7573505121 -1.881004233 -0.3120202067
| 46> H -4.0032418345 -2.0457303398 -0.4654001335
| 47> *
| 48>
| 49>                          ****END OF INPUT****

CARTESIAN COORDINATES (ANGSTROEM)
---------------------------------
  C      2.141467    2.179347   -1.100046
  C      2.293738    2.307092    0.401030
  O      1.631706    1.237459    1.125884
  P      1.987372   -0.295513    1.003843
  S      1.540074   -1.302026    2.621627
  O      3.532445   -0.250777    0.639281
  C      4.302718   -1.467534    0.555859
  C      5.769851   -1.094912    0.620618
  S      1.080279   -1.033038   -0.788600
  C     -0.294967   -1.941208   -0.044917
  S     -1.500581   -0.879265    0.791452
  P     -2.124656    0.239750   -0.923957
  S     -1.930630   -0.614399   -2.668380
  O     -1.332692    1.602890   -0.820222
  C     -1.463657    2.506794    0.310731
  C     -1.407301    3.927271   -0.212270
  O     -3.600270    0.702347   -0.545145
  C     -4.760790   -0.080073   -0.877816
  C     -4.806040   -1.393567   -0.124625
  H      2.566804    3.058148   -1.574997
  H      2.664267    1.295508   -1.461384
  H      1.093146    2.094386   -1.378271
  H      1.805689    3.205789    0.781870
  H      3.346705    2.306644    0.686751
  H      4.016692   -2.118311    1.388772
  H      4.055568   -1.962387   -0.387291
  H      6.021798   -0.426520   -0.197500
  H      5.988087   -0.599673    1.562574
  H      6.368192   -1.996758    0.544164
  H      0.080413   -2.624931    0.715430
  H     -0.777424   -2.471695   -0.864615
  H     -2.410024    2.308377    0.816628
  H     -0.638819    2.289196    0.993841
  H     -1.471397    4.615200    0.624836
  H     -0.477896    4.096177   -0.748428
  H     -2.238225    4.106813   -0.889141
  H     -5.595704    0.568266   -0.608082
  H     -4.758019   -0.256081   -1.957820
  H     -4.690603   -1.224330    0.943213
  H     -5.757351   -1.881004   -0.312020
  H     -4.003242   -2.045730   -0.465400

 Total Charge           Charge          ....    0
 Multiplicity           Mult            ....    1
 Number of Electrons    NEL             ....  202
 Basis Dimension        Dim             ....  334

ORBITAL ENERGIES
----------------

  NO   OCC          E(Eh)            E(eV)
   0   2.0000     -88.038675     -2395.6541
   1   2.0000     -88.037443     -2395.6206
   2   2.0000     -87.986326     -2394.2297
   3   2.0000     -87.983619     -2394.1560
   4   2.0000     -76.426144     -2079.6611
   5   2.0000     -76.425018     -2079.6305
   6   2.0000     -18.797958      -511.5185
   7   2.0000     -18.794118      -511.4139
   8   2.0000     -18.793748      -511.4039
   9   2.0000     -18.789955      -511.3007
  10   2.0000      -9.959449      -271.0104
  11   2.0000      -9.955282      -270.8970
  12   2.0000      -9.953515      -270.8489
  13   2.0000      -9.952554      -270.8228
  14   2.0000      -9.950331      -270.7623
  15   2.0000      -9.891216      -269.1537
  16   2.0000      -9.890943      -269.1463
  17   2.0000      -9.885656      -269.0024
  18   2.0000      -9.883364      -268.9400
  19   2.0000      -7.683092      -209.0676
  20   2.0000      -7.682010      -209.0381
  21   2.0000      -7.631629      -207.6672
  22   2.0000      -7.628880      -207.5924
  23   2.0000      -6.423664      -174.7968
  24   2.0000      -6.422450      -174.7638
  25   2.0000      -5.710953      -155.4029
  26   2.0000      -5.709842      -155.3727
  27   2.0000      -5.707600      -155.3117
  28   2.0000      -5.706648      -155.2858
  29   2.0000      -5.700216      -155.1108
  30   2.0000      -5.698991      -155.0774
  31   2.0000      -5.660617      -154.0332
  32   2.0000      -5.657903      -153.9594
  33   2.0000      -5.652031      -153.7996
  34   2.0000      -5.651901      -153.7960
  35   2.0000      -5.649373      -153.7273
  36   2.0000      -5.649032      -153.7180
  37   2.0000      -4.646725      -126.4438
  38   2.0000      -4.645328      -126.4058
  39   2.0000      -4.645224      -126.4030
  40   2.0000      -4.644074      -126.3717
  41   2.0000      -4.643851      -126.3656
  42   2.0000      -4.642803      -126.3371
  43   2.0000      -0.991755       -26.9870
  44   2.0000      -0.987567       -26.8731
  45   2.0000      -0.947252       -25.7760
  46   2.0000      -0.943316       -25.6689
  47   2.0000      -0.759800       -20.6752
  48   2.0000      -0.720578       -19.6079
  49   2.0000      -0.712563       -19.3898
  50   2.0000      -0.695090       -18.9144
  51   2.0000      -0.689945       -18.7744
  52   2.0000      -0.672762       -18.3068
  53   2.0000      -0.648988       -17.6599
  54   2.0000      -0.636759       -17.3271
  55   2.0000      -0.596254       -16.2249
  56   2.0000      -0.590314       -16.0633
  57   2.0000      -0.575362       -15.6564
  58   2.0000      -0.572917       -15.5899
  59   2.0000      -0.560027       -15.2391
  60   2.0000      -0.509462       -13.8632
  61   2.0000      -0.503065       -13.6891
  62   2.0000      -0.476887       -12.9767
  63   2.0000      -0.474492       -12.9116
  64   2.0000      -0.458683       -12.4814
  65   2.0000      -0.451896       -12.2967
  66   2.0000      -0.445276       -12.1166
  67   2.0000      -0.436007       -11.8643
  68   2.0000      -0.424713       -11.5570
  69   2.0000      -0.418617       -11.3912
  70   2.0000      -0.409607       -11.1460
  71   2.0000      -0.398598       -10.8464
  72   2.0000      -0.395141       -10.7523
  73   2.0000      -0.378962       -10.3121
  74   2.0000      -0.377255       -10.2656
  75   2.0000      -0.371895       -10.1198
  76   2.0000      -0.365994        -9.9592
  77   2.0000      -0.359811        -9.7910
  78   2.0000      -0.358019        -9.7422
  79   2.0000      -0.355015        -9.6604
  80   2.0000      -0.352304        -9.5867
  81   2.0000      -0.344931        -9.3861
  82   2.0000      -0.343110        -9.3365
  83   2.0000      -0.337532        -9.1847
  84   2.0000      -0.336623        -9.1600
  85   2.0000      -0.324497        -8.8300
  86   2.0000      -0.312334        -8.4990
  87   2.0000      -0.304798        -8.2940
  88   2.0000      -0.301684        -8.2092
  89   2.0000      -0.296278        -8.0621
  90   2.0000      -0.294281        -8.0078
  91   2.0000      -0.276387        -7.5209
  92   2.0000      -0.267767        -7.2863
  93   2.0000      -0.261657        -7.1200
  94   2.0000      -0.256177        -6.9709
  95   2.0000      -0.233747        -6.3606
  96   2.0000      -0.212379        -5.7791
  97   2.0000      -0.209665        -5.7053
  98   2.0000      -0.208258        -5.6670
  99   2.0000      -0.196921        -5.3585
 100   2.0000      -0.193554        -5.2669
 101   0.0000      -0.043203        -1.1756
 102   0.0000      -0.027516        -0.7488
 103   0.0000       0.000247         0.0067
 104   0.0000       0.005349         0.1456
 105   0.0000       0.007451         0.2027

MULLIKEN ATOMIC CHARGES
-----------------------
   0 C :   -0.350838
   1 C :   -0.000191
   2 O :   -0.367318
   3 P :    0.617275
   4 S :   -0.317863
   5 O :   -0.389736
   6 C :   -0.008193
   7 C :   -0.281167
   8 S :   -0.098659
   9 C :   -0.342050
  10 S :   -0.086538
  11 P :    0.608022
  12 S :   -0.315014
  13 O :   -0.364998
  14 C :   -0.039281
  15 C :   -0.289151
  16 O :   -0.384986
  17 C :   -0.000240
  18 C :   -0.313492
  19 H :    0.112410
  20 H :    0.122735
  21 H :    0.162490
  22 H :    0.106950
  23 H :    0.113373
  24 H :    0.106224
  25 H :    0.104090
  26 H :    0.114739
  27 H :    0.120690
  28 H :    0.114121
  29 H :    0.187621
  30 H :    0.186932
  31 H :    0.111924
  32 H :    0.136452
  33 H :    0.111457
  34 H :    0.119545
  35 H :    0.119049
  36 H :    0.103931
  37 H :    0.112499
  38 H :    0.119501
  39 H :    0.112636
  40 H :    0.125050
Sum of atomic charges:    0.0000000

LOEWDIN ATOMIC CHARGES
----------------------
   0 C :   -0.376132
   1 C :   -0.108625
   2 O :   -0.237153
   3 P :    0.569799
   4 S :   -0.312215
   5 O :   -0.249967
   6 C :   -0.121379
   7 C :   -0.350286
   8 S :    0.077963
   9 C :   -0.482882
  10 S :    0.077596
  11 P :    0.570650
  12 S :   -0.310002
  13 O :   -0.238520
  14 C :   -0.122519
  15 C :   -0.350457
  16 O :   -0.250665
  17 C :   -0.116504
  18 C :   -0.369683
  19 H :    0.131314
  20 H :    0.118528
  21 H :    0.132479
  22 H :    0.117513
  23 H :    0.115923
  24 H :    0.109357
  25 H :    0.109555
  26 H :    0.125662
  27 H :    0.128866
  28 H :    0.132157
  29 H :    0.129306
  30 H :    0.129678
  31 H :    0.111959
  32 H :    0.117455
  33 H :    0.130402
  34 H :    0.125266
  35 H :    0.129199
  36 H :    0.118166
  37 H :    0.112180
  38 H :    0.124575
  39 H :    0.130762
  40 H :    0.120679

  Mayer bond orders larger than 0.100000
B(  0-C ,  1-C ) :   1.1738 B(  0-C , 19-H ) :   0.9347 B(  0-C , 20-H ) :   0.9343
B(  0-C , 21-H ) :   0.9199 B(  1-C ,  2-O ) :   0.8864 B(  1-C , 22-H ) :   0.9309
B(  1-C , 23-H ) :   0.9280 B(  2-O ,  3-P ) :   1.1207 B(  3-P ,  4-S ) :   1.6479
B(  3-P ,  5-O ) :   1.0712 B(  3-P ,  8-S ) :   0.9445 B(  4-S ,  8-S ) :   0.1146
B(  5-O ,  6-C ) :   0.8995 B(  6-C ,  7-C ) :   1.1604 B(  6-C , 24-H ) :   0.9088
B(  6-C , 25-H ) :   0.9265 B(  7-C , 26-H ) :   0.9514 B(  7-C , 27-H ) :   0.9507
B(  7-C , 28-H ) :   0.9416 B(  8-S ,  9-C ) :   1.0082 B(  9-C , 10-S ) :   1.0068
B(  9-C , 29-H ) :   0.8812 B(  9-C , 30-H ) :   0.8856 B( 10-S , 11-P ) :   0.9433
B( 10-S , 12-S ) :   0.1118 B( 11-P , 12-S ) :   1.6317 B( 11-P , 13-O ) :   1.1227
B( 11-P , 16-O ) :   1.0801 B( 13-O , 14-C ) :   0.8748 B( 14-C , 15-C ) :   1.1692
B( 14-C , 31-H ) :   0.9145 B( 14-C , 32-H ) :   0.9102 B( 15-C , 33-H ) :   0.9408
B( 15-C , 34-H ) :   0.9494 B( 15-C , 35-H ) :   0.9469 B( 16-O , 17-C ) :   0.9077
B( 17-C , 18-C ) :   1.1660 B( 17-C , 36-H ) :   0.9344 B( 17-C , 37-H ) :   0.9179
B( 18-C , 38-H ) :   0.9434 B( 18-C , 39-H ) :   0.9369 B( 18-C , 40-H ) :   0.9357

Dispersion correction           -0.065961687
FINAL SINGLE POINT ENERGY     -2929.522062476783

DIPOLE MOMENT
-------------

Method             : SCF
Type of density    : Electron Density
Multiplicity       :   1
Irrep              :   0
Energy             : -2929.6425235196606991 Eh
Relativity type    :
Basis              : AO
                                X                 Y                 Z
Electronic contribution:     -4.744959142     -10.967308974       1.715342983
Nuclear contribution   :      5.017412249      11.783711445      -1.740577418
                        -----------------------------------------
Total Dipole Moment    :      0.272453107       0.816402470      -0.025234435
                        -----------------------------------------
Magnitude (a.u.)       :      0.861034532
Magnitude (Debye)      :      2.188575852

Rotational constants in cm-1:             0.013010             0.005026             0.004549
Rotational constants in MHz :           390.041454           150.672484           136.366215

                             ****ORCA TERMINATED NORMALLY****
TOTAL RUN TIME: 0 days 0 hours 0 minutes 21 seconds 564 msec
