                         Program Version 6.0.1  -  RELEASE   -
|  1> ! pbe def2-sv(p) def2/J RI DEFGRID1 loosescf d4 GCP(DFT/SV(P)) printgap
|  2> %output
|  3>     printlevel normal
|  4> end
|  5> * xyz 0 1
|  6> C 5.4035457541 -1.6169016143 -0.2127419355
|  7> C 4.2485850844 -2.0825295107 0.6594501582
|  8> O 3.0133779513 -2.0933254915 -0.0852944862
|  9> C 2.3138767214 -0.9839673257 -0.1599422406
| 10> O 2.6258416655 0.0680863908 0.3615271452
| 11> C 1.0376316889 -1.1771043338 -0.9444601651
| 12> C 0.4633113589 0.1707090131 -1.3637004534
| 13> H 0.953749514 0.5646745381 -2.2548102428
| 14> C 0.5404707347 1.2042393514 -0.2551628124
| 15> O -0.0525515577 1.0629165271 0.7985777369
| 16> O 1.1693857519 2.2825027264 -0.635644497
| 17> C 1.338715131 3.3698841984 0.2983986024
| 18> C 2.7816819478 3.419102522 0.7707628618
| 19> S -1.3098981628 0.0538236043 -1.7873385491
| 20> P -2.2429224064 -0.2439489359 0.0834056136
| 21> S -1.5887444195 -1.5543487788 1.4002603881
| 22> O -2.667430411 1.211082534 0.5679979603
| 23> C -2.7892630264 1.5564199882 1.9541164148
| 24> O -3.6857803192 -0.6866128766 -0.4674908181
| 25> C -3.9260773551 -1.9998556971 -0.9820701389
| 26> H 5.2502093445 -0.5842333309 -0.5174352021
| 27> H 6.3274078795 -1.6840818863 0.3520862674
| 28> H 5.4779957518 -2.2416641206 -1.09831489
| 29> H 4.1269665005 -1.4292033118 1.5280308942
| 30> H 4.3801036595 -3.1164504836 0.9781972535
| 31> H 0.3464048996 -1.6925665683 -0.2666426477
| 32> H 1.2087906333 -1.8216633994 -1.80468713
| 33> H 1.0683621158 4.2685519087 -0.2586830908
| 34> H 0.6516297305 3.2192801683 1.1353732797
| 35> H 3.046151352 2.4722053955 1.2353558714
| 36> H 3.444331013 3.5902423163 -0.0721954196
| 37> H 2.8977041019 4.2207011506 1.4924405874
| 38> H -2.8436301676 2.6418433151 1.9786406331
| 39> H -1.9147550408 1.2048539413 2.5031237071
| 40> H -3.6937438053 1.1136876062 2.3695096228
| 41> H -3.482813688 -2.7461708464 -0.3198117188
| 42> H -3.5042271021 -2.089694246 -1.9826100579
| 43> H -5.0069327758 -2.1110248615 -1.0103855726
| 44> *
| 45>
| 46>                          ****END OF INPUT****

CARTESIAN COORDINATES (ANGSTROEM)
---------------------------------
  C      5.403546   -1.616902   -0.212742
  C      4.248585   -2.082530    0.659450
  O      3.013378   -2.093325   -0.085294
  C      2.313877   -0.983967   -0.159942
  O      2.625842    0.068086    0.361527
  C      1.037632   -1.177104   -0.944460
  C      0.463311    0.170709   -1.363700
  H      0.953750    0.564675   -2.254810
  C      0.540471    1.204239   -0.255163
  O     -0.052552    1.062917    0.798578
  O      1.169386    2.282503   -0.635644
  C      1.338715    3.369884    0.298399
  C      2.781682    3.419103    0.770763
  S     -1.309898    0.053824   -1.787339
  P     -2.242922   -0.243949    0.083406
  S     -1.588744   -1.554349    1.400260
  O     -2.667430    1.211083    0.567998
  C     -2.789263    1.556420    1.954116
  O     -3.685780   -0.686613   -0.467491
  C     -3.926077   -1.999856   -0.982070
  H      5.250209   -0.584233   -0.517435
  H      6.327408   -1.684082    0.352086
  H      5.477996   -2.241664   -1.098315
  H      4.126967   -1.429203    1.528031
  H      4.380104   -3.116450    0.978197
  H      0.346405   -1.692567   -0.266643
  H      1.208791   -1.821663   -1.804687
  H      1.068362    4.268552   -0.258683
  H      0.651630    3.219280    1.135373
  H      3.046151    2.472205    1.235356
  H      3.444331    3.590242   -0.072195
  H      2.897704    4.220701    1.492441
  H     -2.843630    2.641843    1.978641
  H     -1.914755    1.204854    2.503124
  H     -3.693744    1.113688    2.369510
  H     -3.482814   -2.746171   -0.319812
  H     -3.504227   -2.089694   -1.982610
  H     -5.006933   -2.111025   -1.010386

 Total Charge           Charge          ....    0
 Multiplicity           Mult            ....    1
 Number of Electrons    NEL             ....  174
 Basis Dimension        Dim             ....  316

ORBITAL ENERGIES
----------------

  NO   OCC          E(Eh)            E(eV)
   0   2.0000     -88.039102     -2395.6658
   1   2.0000     -87.971522     -2393.8268
   2   2.0000     -76.417933     -2079.4377
   3   2.0000     -18.810417      -511.8575
   4   2.0000     -18.803834      -511.6783
   5   2.0000     -18.777444      -510.9602
   6   2.0000     -18.776068      -510.9228
   7   2.0000     -18.751092      -510.2432
   8   2.0000     -18.734965      -509.8043
   9   2.0000     -10.018939      -272.6292
  10   2.0000     -10.016055      -272.5507
  11   2.0000      -9.954286      -270.8699
  12   2.0000      -9.946335      -270.6535
  13   2.0000      -9.945258      -270.6242
  14   2.0000      -9.931951      -270.2621
  15   2.0000      -9.931579      -270.2520
  16   2.0000      -9.907101      -269.5859
  17   2.0000      -9.893328      -269.2111
  18   2.0000      -9.881459      -268.8882
  19   2.0000      -7.684087      -209.0946
  20   2.0000      -7.616628      -207.2590
  21   2.0000      -6.414001      -174.5338
  22   2.0000      -5.712062      -155.4331
  23   2.0000      -5.708519      -155.3367
  24   2.0000      -5.701017      -155.1326
  25   2.0000      -5.645757      -153.6289
  26   2.0000      -5.637581      -153.4064
  27   2.0000      -5.636208      -153.3690
  28   2.0000      -4.636324      -126.1608
  29   2.0000      -4.635942      -126.1504
  30   2.0000      -4.634849      -126.1206
  31   2.0000      -1.020614       -27.7723
  32   2.0000      -1.012408       -27.5490
  33   2.0000      -0.970207       -26.4007
  34   2.0000      -0.928314       -25.2607
  35   2.0000      -0.927287       -25.2328
  36   2.0000      -0.915703       -24.9175
  37   2.0000      -0.763133       -20.7659
  38   2.0000      -0.717236       -19.5170
  39   2.0000      -0.703649       -19.1473
  40   2.0000      -0.686722       -18.6867
  41   2.0000      -0.655760       -17.8441
  42   2.0000      -0.622616       -16.9422
  43   2.0000      -0.616795       -16.7838
  44   2.0000      -0.612479       -16.6664
  45   2.0000      -0.599147       -16.3036
  46   2.0000      -0.558970       -15.2103
  47   2.0000      -0.508145       -13.8273
  48   2.0000      -0.503853       -13.7105
  49   2.0000      -0.495249       -13.4764
  50   2.0000      -0.481018       -13.0892
  51   2.0000      -0.459991       -12.5170
  52   2.0000      -0.457951       -12.4615
  53   2.0000      -0.444711       -12.1012
  54   2.0000      -0.439478       -11.9588
  55   2.0000      -0.429989       -11.7006
  56   2.0000      -0.425351       -11.5744
  57   2.0000      -0.415302       -11.3009
  58   2.0000      -0.411320       -11.1926
  59   2.0000      -0.402130       -10.9425
  60   2.0000      -0.397938       -10.8285
  61   2.0000      -0.396080       -10.7779
  62   2.0000      -0.387381       -10.5412
  63   2.0000      -0.381802       -10.3894
  64   2.0000      -0.378610       -10.3025
  65   2.0000      -0.369753       -10.0615
  66   2.0000      -0.360187        -9.8012
  67   2.0000      -0.353500        -9.6192
  68   2.0000      -0.350931        -9.5493
  69   2.0000      -0.336051        -9.1444
  70   2.0000      -0.330489        -8.9931
  71   2.0000      -0.327379        -8.9084
  72   2.0000      -0.326229        -8.8772
  73   2.0000      -0.304542        -8.2870
  74   2.0000      -0.298743        -8.1292
  75   2.0000      -0.292834        -7.9684
  76   2.0000      -0.288627        -7.8540
  77   2.0000      -0.277201        -7.5430
  78   2.0000      -0.272203        -7.4070
  79   2.0000      -0.264456        -7.1962
  80   2.0000      -0.252420        -6.8687
  81   2.0000      -0.245800        -6.6885
  82   2.0000      -0.237817        -6.4713
  83   2.0000      -0.235260        -6.4018
  84   2.0000      -0.220929        -6.0118
  85   2.0000      -0.191807        -5.2193
  86   2.0000      -0.180656        -4.9159
  87   0.0000      -0.046916        -1.2766
  88   0.0000      -0.029820        -0.8114
  89   0.0000      -0.014304        -0.3892
  90   0.0000       0.016840         0.4582
  91   0.0000       0.034647         0.9428

MULLIKEN ATOMIC CHARGES
-----------------------
   0 C :   -0.306464
   1 C :   -0.013481
   2 O :   -0.223721
   3 C :    0.136822
   4 O :   -0.207585
   5 C :   -0.067376
   6 C :   -0.300867
   7 H :    0.127837
   8 C :    0.208723
   9 O :   -0.205777
  10 O :   -0.216334
  11 C :   -0.021845
  12 C :   -0.296000
  13 S :   -0.078181
  14 P :    0.619683
  15 S :   -0.332671
  16 O :   -0.371910
  17 C :   -0.094882
  18 O :   -0.379403
  19 C :   -0.099905
  20 H :    0.125617
  21 H :    0.116193
  22 H :    0.116172
  23 H :    0.113395
  24 H :    0.108829
  25 H :    0.146407
  26 H :    0.116142
  27 H :    0.104476
  28 H :    0.112453
  29 H :    0.137201
  30 H :    0.108676
  31 H :    0.107701
  32 H :    0.115099
  33 H :    0.138805
  34 H :    0.114008
  35 H :    0.112768
  36 H :    0.108638
  37 H :    0.120756
Sum of atomic charges:    0.0000000

LOEWDIN ATOMIC CHARGES
----------------------
   0 C :   -0.356050
   1 C :   -0.108479
   2 O :   -0.051040
   3 C :    0.049611
   4 O :   -0.155714
   5 C :   -0.265124
   6 C :   -0.257201
   7 H :    0.139428
   8 C :    0.012887
   9 O :   -0.171963
  10 O :   -0.040217
  11 C :   -0.106937
  12 C :   -0.354906
  13 S :    0.119097
  14 P :    0.584308
  15 S :   -0.319863
  16 O :   -0.245219
  17 C :   -0.207922
  18 O :   -0.263798
  19 C :   -0.221006
  20 H :    0.129574
  21 H :    0.132277
  22 H :    0.125916
  23 H :    0.121942
  24 H :    0.120989
  25 H :    0.143503
  26 H :    0.141997
  27 H :    0.117648
  28 H :    0.120576
  29 H :    0.134391
  30 H :    0.123364
  31 H :    0.127508
  32 H :    0.118118
  33 H :    0.118026
  34 H :    0.111786
  35 H :    0.106196
  36 H :    0.106179
  37 H :    0.120120

  Mayer bond orders larger than 0.100000
B(  0-C ,  1-C ) :   1.1735 B(  0-C , 20-H ) :   0.9467 B(  0-C , 21-H ) :   0.9439
B(  0-C , 22-H ) :   0.9484 B(  1-C ,  2-O ) :   0.9097 B(  1-C , 23-H ) :   0.9161
B(  1-C , 24-H ) :   0.9369 B(  2-O ,  3-C ) :   1.2562 B(  3-C ,  4-O ) :   1.9403
B(  3-C ,  5-C ) :   1.0189 B(  4-O ,  8-C ) :   0.1155 B(  5-C ,  6-C ) :   1.0082
B(  5-C , 25-H ) :   0.8262 B(  5-C , 26-H ) :   0.9021 B(  6-C ,  7-H ) :   0.8840
B(  6-C ,  8-C ) :   0.8952 B(  6-C , 13-S ) :   1.0136 B(  8-C ,  9-O ) :   1.9375
B(  8-C , 10-O ) :   1.2677 B(  9-O , 14-P ) :   0.1046 B( 10-O , 11-C ) :   0.9075
B( 11-C , 12-C ) :   1.1772 B( 11-C , 27-H ) :   0.9369 B( 11-C , 28-H ) :   0.9069
B( 12-C , 29-H ) :   0.9374 B( 12-C , 30-H ) :   0.9504 B( 12-C , 31-H ) :   0.9438
B( 13-S , 14-P ) :   0.9639 B( 13-S , 15-S ) :   0.1182 B( 14-P , 15-S ) :   1.5685
B( 14-P , 16-O ) :   1.1172 B( 14-P , 18-O ) :   1.0790 B( 15-S , 25-H ) :   0.1130
B( 16-O , 17-C ) :   0.9195 B( 17-C , 32-H ) :   0.9598 B( 17-C , 33-H ) :   0.9358
B( 17-C , 34-H ) :   0.9527 B( 18-O , 19-C ) :   0.9396 B( 19-C , 35-H ) :   0.9284
B( 19-C , 36-H ) :   0.9490 B( 19-C , 37-H ) :   0.9597

Dispersion correction           -0.051535837
FINAL SINGLE POINT ENERGY     -1979.014092956618

DIPOLE MOMENT
-------------

Method             : SCF
Type of density    : Electron Density
Multiplicity       :   1
Irrep              :   0
Energy             : -1979.1462529350301338 Eh
Relativity type    :
Basis              : AO
                                X                 Y                 Z
Electronic contribution:    -18.485720447      -3.626317085      -4.103482396
Nuclear contribution   :     19.669367653       3.834346740       3.685334448
                        -----------------------------------------
Total Dipole Moment    :      1.183647206       0.208029655      -0.418147947
                        -----------------------------------------
Magnitude (a.u.)       :      1.272456188
Magnitude (Debye)      :      3.234326594

Rotational constants in cm-1:             0.013790             0.006692             0.005472
Rotational constants in MHz :           413.412921           200.633954           164.044625

                             ****ORCA TERMINATED NORMALLY****
TOTAL RUN TIME: 0 days 0 hours 0 minutes 37 seconds 430 msec
