                         Program Version 6.0.1  -  RELEASE   -
|  1> ! pbe def2-sv(p) def2/J RI DEFGRID1 loosescf d4 GCP(DFT/SV(P)) printgap
|  2> %output
|  3>     printlevel normal
|  4> end
|  5> * xyz 0 1
|  6> C 2.8606373917 -3.1959585085 1.2238377413
|  7> C 2.9710058077 -1.6840571634 1.3195474113
|  8> O 2.7295034256 -1.096572044 0.0247744196
|  9> C 1.6514324088 -0.3979665611 -0.1928737995
| 10> O 0.8071782232 -0.1217563292 0.6496070561
| 11> C 1.5394897501 0.0932175057 -1.6143555735
| 12> C 0.3565646555 1.0458051692 -1.7024381361
| 13> H 0.3592618033 1.5823164151 -2.6550328675
| 14> C 0.3564513456 2.0643475714 -0.5695201897
| 15> O -0.6416146259 2.4593324011 -0.0135055147
| 16> O 1.580254366 2.4878598139 -0.326135048
| 17> C 1.7870621017 3.5061767168 0.6753215546
| 18> C 2.6017099554 4.636859151 0.0724149946
| 19> S -1.2602571962 0.1968022563 -1.7351594642
| 20> P -1.6445309173 -0.8174061663 0.0867349341
| 21> S -0.7920317506 -2.5380844196 0.5216841963
| 22> O -1.8858765023 0.2204788481 1.2574781834
| 23> C -1.265181213 0.1796577825 2.5396831841
| 24> O -3.2045633155 -1.064900502 -0.2091173173
| 25> C -3.6479325617 -2.0224970052 -1.1734000343
| 26> H 1.8418824062 -3.4819704591 0.9686818488
| 27> H 3.5357948423 -3.5706898737 0.4606401266
| 28> H 3.1193097153 -3.6342971828 2.1817841286
| 29> H 3.983099838 -1.3772829772 1.5897944024
| 30> H 2.2479485606 -1.279709003 2.0326253209
| 31> H 1.3986535595 -0.7597256637 -2.2806390562
| 32> H 2.46699007 0.5974980753 -1.8878959588
| 33> H 0.810848642 3.8509098078 1.0277672188
| 34> H 2.3232770562 3.0263798102 1.4981684342
| 35> H 3.5436042928 4.2544600214 -0.3089797087
| 36> H 2.0544418683 5.1050434754 -0.740993976
| 37> H 2.8000213481 5.3783291134 0.8392367852
| 38> H -0.8109757144 -0.7980527738 2.7137536346
| 39> H -2.051388128 0.3700108067 3.2671678258
| 40> H -0.5019947527 0.9555033847 2.5831203149
| 41> H -3.086921331 -2.953004285 -1.0617833313
| 42> H -3.5190394204 -1.6280175105 -2.1811606489
| 43> H -4.7007298938 -2.188145768 -0.958502505
| 44> *
| 45>
| 46>                          ****END OF INPUT****

CARTESIAN COORDINATES (ANGSTROEM)
---------------------------------
  C      2.860637   -3.195959    1.223838
  C      2.971006   -1.684057    1.319547
  O      2.729503   -1.096572    0.024774
  C      1.651432   -0.397967   -0.192874
  O      0.807178   -0.121756    0.649607
  C      1.539490    0.093218   -1.614356
  C      0.356565    1.045805   -1.702438
  H      0.359262    1.582316   -2.655033
  C      0.356451    2.064348   -0.569520
  O     -0.641615    2.459332   -0.013506
  O      1.580254    2.487860   -0.326135
  C      1.787062    3.506177    0.675322
  C      2.601710    4.636859    0.072415
  S     -1.260257    0.196802   -1.735159
  P     -1.644531   -0.817406    0.086735
  S     -0.792032   -2.538084    0.521684
  O     -1.885877    0.220479    1.257478
  C     -1.265181    0.179658    2.539683
  O     -3.204563   -1.064901   -0.209117
  C     -3.647933   -2.022497   -1.173400
  H      1.841882   -3.481970    0.968682
  H      3.535795   -3.570690    0.460640
  H      3.119310   -3.634297    2.181784
  H      3.983100   -1.377283    1.589794
  H      2.247949   -1.279709    2.032625
  H      1.398654   -0.759726   -2.280639
  H      2.466990    0.597498   -1.887896
  H      0.810849    3.850910    1.027767
  H      2.323277    3.026380    1.498168
  H      3.543604    4.254460   -0.308980
  H      2.054442    5.105043   -0.740994
  H      2.800021    5.378329    0.839237
  H     -0.810976   -0.798053    2.713754
  H     -2.051388    0.370011    3.267168
  H     -0.501995    0.955503    2.583120
  H     -3.086921   -2.953004   -1.061783
  H     -3.519039   -1.628018   -2.181161
  H     -4.700730   -2.188146   -0.958503

 Total Charge           Charge          ....    0
 Multiplicity           Mult            ....    1
 Number of Electrons    NEL             ....  174
 Basis Dimension        Dim             ....  316

ORBITAL ENERGIES
----------------

  NO   OCC          E(Eh)            E(eV)
   0   2.0000     -88.029308     -2395.3992
   1   2.0000     -87.966150     -2393.6806
   2   2.0000     -76.414729     -2079.3505
   3   2.0000     -18.816778      -512.0306
   4   2.0000     -18.809685      -511.8376
   5   2.0000     -18.774244      -510.8732
   6   2.0000     -18.769719      -510.7500
   7   2.0000     -18.757902      -510.4285
   8   2.0000     -18.734636      -509.7953
   9   2.0000     -10.025646      -272.8117
  10   2.0000     -10.015606      -272.5385
  11   2.0000      -9.952946      -270.8334
  12   2.0000      -9.952920      -270.8327
  13   2.0000      -9.950939      -270.7788
  14   2.0000      -9.927777      -270.1486
  15   2.0000      -9.926605      -270.1167
  16   2.0000      -9.918645      -269.9001
  17   2.0000      -9.895356      -269.2663
  18   2.0000      -9.883928      -268.9554
  19   2.0000      -7.674228      -208.8264
  20   2.0000      -7.611368      -207.1159
  21   2.0000      -6.410621      -174.4419
  22   2.0000      -5.702732      -155.1792
  23   2.0000      -5.698477      -155.0634
  24   2.0000      -5.690788      -154.8542
  25   2.0000      -5.640338      -153.4814
  26   2.0000      -5.632080      -153.2567
  27   2.0000      -5.631285      -153.2351
  28   2.0000      -4.633115      -126.0735
  29   2.0000      -4.632866      -126.0667
  30   2.0000      -4.631048      -126.0172
  31   2.0000      -1.026522       -27.9331
  32   2.0000      -1.014743       -27.6126
  33   2.0000      -0.967130       -26.3169
  34   2.0000      -0.933388       -25.3988
  35   2.0000      -0.923113       -25.1192
  36   2.0000      -0.916741       -24.9458
  37   2.0000      -0.765089       -20.8191
  38   2.0000      -0.717628       -19.5276
  39   2.0000      -0.710069       -19.3220
  40   2.0000      -0.685776       -18.6609
  41   2.0000      -0.654321       -17.8050
  42   2.0000      -0.623145       -16.9566
  43   2.0000      -0.615146       -16.7390
  44   2.0000      -0.607704       -16.5365
  45   2.0000      -0.595845       -16.2138
  46   2.0000      -0.565750       -15.3949
  47   2.0000      -0.515848       -14.0369
  48   2.0000      -0.510897       -13.9022
  49   2.0000      -0.494875       -13.4662
  50   2.0000      -0.489629       -13.3235
  51   2.0000      -0.461441       -12.5564
  52   2.0000      -0.457774       -12.4567
  53   2.0000      -0.450120       -12.2484
  54   2.0000      -0.441382       -12.0106
  55   2.0000      -0.431792       -11.7497
  56   2.0000      -0.423030       -11.5112
  57   2.0000      -0.415070       -11.2946
  58   2.0000      -0.406645       -11.0654
  59   2.0000      -0.402730       -10.9588
  60   2.0000      -0.397687       -10.8216
  61   2.0000      -0.393462       -10.7067
  62   2.0000      -0.387238       -10.5373
  63   2.0000      -0.382180       -10.3996
  64   2.0000      -0.379350       -10.3226
  65   2.0000      -0.370890       -10.0924
  66   2.0000      -0.360451        -9.8084
  67   2.0000      -0.355967        -9.6863
  68   2.0000      -0.348997        -9.4967
  69   2.0000      -0.341235        -9.2855
  70   2.0000      -0.338909        -9.2222
  71   2.0000      -0.331959        -9.0331
  72   2.0000      -0.326066        -8.8727
  73   2.0000      -0.303431        -8.2568
  74   2.0000      -0.301504        -8.2043
  75   2.0000      -0.297774        -8.1028
  76   2.0000      -0.285554        -7.7703
  77   2.0000      -0.276477        -7.5233
  78   2.0000      -0.268537        -7.3073
  79   2.0000      -0.263529        -7.1710
  80   2.0000      -0.249067        -6.7775
  81   2.0000      -0.246804        -6.7159
  82   2.0000      -0.239359        -6.5133
  83   2.0000      -0.226058        -6.1513
  84   2.0000      -0.215040        -5.8515
  85   2.0000      -0.184906        -5.0315
  86   2.0000      -0.178466        -4.8563
  87   0.0000      -0.046545        -1.2665
  88   0.0000      -0.026239        -0.7140
  89   0.0000      -0.020483        -0.5574
  90   0.0000      -0.004956        -0.1348
  91   0.0000       0.029822         0.8115

MULLIKEN ATOMIC CHARGES
-----------------------
   0 C :   -0.300488
   1 C :   -0.022896
   2 O :   -0.210741
   3 C :    0.142694
   4 O :   -0.226266
   5 C :   -0.058394
   6 C :   -0.306648
   7 H :    0.146838
   8 C :    0.191522
   9 O :   -0.162399
  10 O :   -0.250929
  11 C :   -0.025605
  12 C :   -0.285497
  13 S :   -0.092554
  14 P :    0.642037
  15 S :   -0.372252
  16 O :   -0.349560
  17 C :   -0.087272
  18 O :   -0.375438
  19 C :   -0.103808
  20 H :    0.141575
  21 H :    0.110913
  22 H :    0.109998
  23 H :    0.103379
  24 H :    0.119893
  25 H :    0.136922
  26 H :    0.123540
  27 H :    0.123516
  28 H :    0.104383
  29 H :    0.113900
  30 H :    0.115573
  31 H :    0.115029
  32 H :    0.115175
  33 H :    0.116049
  34 H :    0.112447
  35 H :    0.112032
  36 H :    0.112776
  37 H :    0.120557
Sum of atomic charges:    0.0000000

LOEWDIN ATOMIC CHARGES
----------------------
   0 C :   -0.356931
   1 C :   -0.106780
   2 O :   -0.033615
   3 C :    0.044500
   4 O :   -0.164433
   5 C :   -0.253985
   6 C :   -0.264013
   7 H :    0.152140
   8 C :    0.006862
   9 O :   -0.146648
  10 O :   -0.065824
  11 C :   -0.109369
  12 C :   -0.351166
  13 S :    0.112944
  14 P :    0.583593
  15 S :   -0.345532
  16 O :   -0.221319
  17 C :   -0.208398
  18 O :   -0.258089
  19 C :   -0.221108
  20 H :    0.127287
  21 H :    0.124207
  22 H :    0.130295
  23 H :    0.117336
  24 H :    0.122628
  25 H :    0.150351
  26 H :    0.147569
  27 H :    0.124032
  28 H :    0.117061
  29 H :    0.124873
  30 H :    0.127339
  31 H :    0.131777
  32 H :    0.105083
  33 H :    0.116342
  34 H :    0.109831
  35 H :    0.105493
  36 H :    0.105571
  37 H :    0.120098

  Mayer bond orders larger than 0.100000
B(  0-C ,  1-C ) :   1.1796 B(  0-C , 20-H ) :   0.9302 B(  0-C , 21-H ) :   0.9482
B(  0-C , 22-H ) :   0.9418 B(  1-C ,  2-O ) :   0.8927 B(  1-C , 23-H ) :   0.9346
B(  1-C , 24-H ) :   0.9067 B(  2-O ,  3-C ) :   1.2948 B(  3-C ,  4-O ) :   1.8640
B(  3-C ,  5-C ) :   1.0098 B(  5-C ,  6-C ) :   1.0305 B(  5-C , 25-H ) :   0.8818
B(  5-C , 26-H ) :   0.8741 B(  6-C ,  7-H ) :   0.8656 B(  6-C ,  8-C ) :   0.8683
B(  6-C , 13-S ) :   1.0587 B(  8-C ,  9-O ) :   2.1181 B(  8-C , 10-O ) :   1.2086
B( 10-O , 11-C ) :   0.9037 B( 11-C , 12-C ) :   1.1684 B( 11-C , 27-H ) :   0.9071
B( 11-C , 28-H ) :   0.9342 B( 12-C , 29-H ) :   0.9497 B( 12-C , 30-H ) :   0.9509
B( 12-C , 31-H ) :   0.9440 B( 13-S , 14-P ) :   0.9619 B( 13-S , 15-S ) :   0.1109
B( 14-P , 15-S ) :   1.5541 B( 14-P , 16-O ) :   1.1456 B( 14-P , 18-O ) :   1.0685
B( 16-O , 17-C ) :   0.9313 B( 17-C , 32-H ) :   0.9302 B( 17-C , 33-H ) :   0.9539
B( 17-C , 34-H ) :   0.9516 B( 18-O , 19-C ) :   0.9453 B( 19-C , 35-H ) :   0.9282
B( 19-C , 36-H ) :   0.9476 B( 19-C , 37-H ) :   0.9597

Dispersion correction           -0.054144101
FINAL SINGLE POINT ENERGY     -1979.004511561506

DIPOLE MOMENT
-------------

Method             : SCF
Type of density    : Electron Density
Multiplicity       :   1
Irrep              :   0
Energy             : -1979.1347348674780733 Eh
Relativity type    :
Basis              : AO
                                X                 Y                 Z
Electronic contribution:    -14.506738238      -3.418230283      -6.685292644
Nuclear contribution   :     16.356021157       4.077127798       6.627639894
                        -----------------------------------------
Total Dipole Moment    :      1.849282920       0.658897514      -0.057652750
                        -----------------------------------------
Magnitude (a.u.)       :      1.964005370
Magnitude (Debye)      :      4.992104920

Rotational constants in cm-1:             0.012248             0.008588             0.006475
Rotational constants in MHz :           367.193086           257.447396           194.124809

                             ****ORCA TERMINATED NORMALLY****
TOTAL RUN TIME: 0 days 0 hours 0 minutes 40 seconds 517 msec
