                         Program Version 6.0.0  -   RELEASE  -
|  1> ! pbe def2-sv(p) def2/J RI DEFGRID1 loosescf d4 GCP(DFT/SV(P)) printgap
|  2> %output
|  3>     printlevel normal
|  4> end
|  5> * xyz 0 1
|  6> C 3.3395037576 0.3519999919 -2.718081282
|  7> C 1.9388284765 0.6963684988 -2.2594149727
|  8> O 1.4069498504 -0.2830347434 -1.347647342
|  9> P 2.0190546609 -0.5284606588 0.0928991758
| 10> S 2.7148236417 1.0260076061 1.0719297348
| 11> O 3.1117256835 -1.6393210686 -0.232035287
| 12> C 4.1706229982 -1.9767428416 0.6800572279
| 13> C 3.6585277759 -2.6689818979 1.9268035192
| 14> S 0.4771669356 -1.6391069304 0.9884298457
| 15> C -0.2841594573 -0.3648374213 2.0543863426
| 16> S -2.0313207941 -0.1100195139 1.6911645278
| 17> P -1.8040090266 0.7646197111 -0.2350752015
| 18> S -0.476915203 2.2073912748 -0.2721022897
| 19> O -3.2855979168 1.1899472741 -0.6073284717
| 20> C -3.946572057 2.2688001636 0.0873047947
| 21> C -5.1810178433 2.6432461038 -0.7070166025
| 22> O -1.4897577758 -0.3501454214 -1.2987991286
| 23> C -2.430274324 -1.3153200899 -1.8387606354
| 24> C -2.9723424429 -2.2597832378 -0.7870511204
| 25> H 4.0318280289 0.4217839267 -1.8797844406
| 26> H 3.3657132725 -0.6593281276 -3.1155992883
| 27> H 3.6455359794 1.0546437739 -3.4869140998
| 28> H 1.2246147346 0.6939037762 -3.0845559857
| 29> H 1.9157651032 1.6745644352 -1.7665399282
| 30> H 4.8204007471 -2.6286765671 0.0947116966
| 31> H 4.7029811398 -1.0573590931 0.9447205862
| 32> H 3.0285642156 -3.5134922402 1.6593105794
| 33> H 4.501975813 -3.0176040782 2.5140340926
| 34> H 3.0762532288 -1.9706863044 2.5264330922
| 35> H 0.2659842884 0.5719981682 1.928714162
| 36> H -0.2384187964 -0.7126933571 3.0829929831
| 37> H -4.204773232 1.9195180564 1.0903410793
| 38> H -3.2484914276 3.1082028383 0.1693796164
| 39> H -5.6983036882 3.4499616389 -0.1984026
| 40> H -4.8992235203 2.9711142461 -1.7036938415
| 41> H -5.8438337392 1.787093341 -0.7901970595
| 42> H -3.2349451979 -0.764521451 -2.3283938758
| 43> H -1.8317355617 -1.845438192 -2.5814088314
| 44> H -2.1560750948 -2.7239261873 -0.2374066069
| 45> H -3.6117948073 -1.7273351222 -0.0865149429
| 46> H -3.5547162674 -3.0327233666 -1.2790694051
| 47> *
| 48>
| 49>                          ****END OF INPUT****

CARTESIAN COORDINATES (ANGSTROEM)
---------------------------------
  C      3.339504    0.352000   -2.718081
  C      1.938828    0.696368   -2.259415
  O      1.406950   -0.283035   -1.347647
  P      2.019055   -0.528461    0.092899
  S      2.714824    1.026008    1.071930
  O      3.111726   -1.639321   -0.232035
  C      4.170623   -1.976743    0.680057
  C      3.658528   -2.668982    1.926804
  S      0.477167   -1.639107    0.988430
  C     -0.284159   -0.364837    2.054386
  S     -2.031321   -0.110020    1.691165
  P     -1.804009    0.764620   -0.235075
  S     -0.476915    2.207391   -0.272102
  O     -3.285598    1.189947   -0.607328
  C     -3.946572    2.268800    0.087305
  C     -5.181018    2.643246   -0.707017
  O     -1.489758   -0.350145   -1.298799
  C     -2.430274   -1.315320   -1.838761
  C     -2.972342   -2.259783   -0.787051
  H      4.031828    0.421784   -1.879784
  H      3.365713   -0.659328   -3.115599
  H      3.645536    1.054644   -3.486914
  H      1.224615    0.693904   -3.084556
  H      1.915765    1.674564   -1.766540
  H      4.820401   -2.628677    0.094712
  H      4.702981   -1.057359    0.944721
  H      3.028564   -3.513492    1.659311
  H      4.501976   -3.017604    2.514034
  H      3.076253   -1.970686    2.526433
  H      0.265984    0.571998    1.928714
  H     -0.238419   -0.712693    3.082993
  H     -4.204773    1.919518    1.090341
  H     -3.248491    3.108203    0.169380
  H     -5.698304    3.449962   -0.198403
  H     -4.899224    2.971114   -1.703694
  H     -5.843834    1.787093   -0.790197
  H     -3.234945   -0.764521   -2.328394
  H     -1.831736   -1.845438   -2.581409
  H     -2.156075   -2.723926   -0.237407
  H     -3.611795   -1.727335   -0.086515
  H     -3.554716   -3.032723   -1.279069

 Total Charge           Charge          ....    0
 Multiplicity           Mult            ....    1
 Number of Electrons    NEL             ....  202
 Basis Dimension        Dim             ....  334

ORBITAL ENERGIES
----------------

  NO   OCC          E(Eh)            E(eV)
   0   2.0000     -88.040576     -2395.7059
   1   2.0000     -88.038847     -2395.6588
   2   2.0000     -87.980837     -2394.0803
   3   2.0000     -87.976792     -2393.9702
   4   2.0000     -76.423474     -2079.5884
   5   2.0000     -76.419141     -2079.4706
   6   2.0000     -18.797674      -511.5107
   7   2.0000     -18.788778      -511.2686
   8   2.0000     -18.786548      -511.2080
   9   2.0000     -18.776674      -510.9393
  10   2.0000      -9.956238      -270.9230
  11   2.0000      -9.955503      -270.9030
  12   2.0000      -9.952564      -270.8230
  13   2.0000      -9.947265      -270.6788
  14   2.0000      -9.936621      -270.3892
  15   2.0000      -9.891660      -269.1658
  16   2.0000      -9.885189      -268.9897
  17   2.0000      -9.880028      -268.8492
  18   2.0000      -9.874364      -268.6951
  19   2.0000      -7.685828      -209.1420
  20   2.0000      -7.683985      -209.0919
  21   2.0000      -7.625731      -207.5067
  22   2.0000      -7.621766      -207.3988
  23   2.0000      -6.420872      -174.7208
  24   2.0000      -6.416660      -174.6062
  25   2.0000      -5.713622      -155.4756
  26   2.0000      -5.711843      -155.4272
  27   2.0000      -5.710284      -155.3847
  28   2.0000      -5.708569      -155.3381
  29   2.0000      -5.702917      -155.1843
  30   2.0000      -5.700805      -155.1268
  31   2.0000      -5.654569      -153.8686
  32   2.0000      -5.650781      -153.7656
  33   2.0000      -5.646578      -153.6512
  34   2.0000      -5.645769      -153.6292
  35   2.0000      -5.642475      -153.5395
  36   2.0000      -5.641710      -153.5187
  37   2.0000      -4.643944      -126.3681
  38   2.0000      -4.642581      -126.3311
  39   2.0000      -4.640901      -126.2853
  40   2.0000      -4.638906      -126.2311
  41   2.0000      -4.638280      -126.2140
  42   2.0000      -4.637567      -126.1946
  43   2.0000      -0.989422       -26.9235
  44   2.0000      -0.977986       -26.6123
  45   2.0000      -0.944959       -25.7136
  46   2.0000      -0.935245       -25.4493
  47   2.0000      -0.760396       -20.6914
  48   2.0000      -0.719642       -19.5824
  49   2.0000      -0.706035       -19.2122
  50   2.0000      -0.693802       -18.8793
  51   2.0000      -0.680986       -18.5306
  52   2.0000      -0.670704       -18.2508
  53   2.0000      -0.646508       -17.5924
  54   2.0000      -0.629322       -17.1247
  55   2.0000      -0.596841       -16.2409
  56   2.0000      -0.588381       -16.0107
  57   2.0000      -0.574710       -15.6387
  58   2.0000      -0.564309       -15.3556
  59   2.0000      -0.558909       -15.2087
  60   2.0000      -0.507707       -13.8154
  61   2.0000      -0.484565       -13.1857
  62   2.0000      -0.473799       -12.8927
  63   2.0000      -0.463600       -12.6152
  64   2.0000      -0.448918       -12.2157
  65   2.0000      -0.445634       -12.1263
  66   2.0000      -0.440304       -11.9813
  67   2.0000      -0.432738       -11.7754
  68   2.0000      -0.431060       -11.7297
  69   2.0000      -0.413278       -11.2459
  70   2.0000      -0.406817       -11.0701
  71   2.0000      -0.399724       -10.8770
  72   2.0000      -0.383973       -10.4484
  73   2.0000      -0.383005       -10.4221
  74   2.0000      -0.377767       -10.2796
  75   2.0000      -0.375014       -10.2047
  76   2.0000      -0.366918        -9.9843
  77   2.0000      -0.355419        -9.6714
  78   2.0000      -0.350057        -9.5255
  79   2.0000      -0.348218        -9.4755
  80   2.0000      -0.342664        -9.3244
  81   2.0000      -0.341112        -9.2821
  82   2.0000      -0.339129        -9.2282
  83   2.0000      -0.333153        -9.0656
  84   2.0000      -0.329494        -8.9660
  85   2.0000      -0.321746        -8.7551
  86   2.0000      -0.306762        -8.3474
  87   2.0000      -0.303748        -8.2654
  88   2.0000      -0.293976        -7.9995
  89   2.0000      -0.289338        -7.8733
  90   2.0000      -0.274592        -7.4720
  91   2.0000      -0.270054        -7.3485
  92   2.0000      -0.262353        -7.1390
  93   2.0000      -0.261142        -7.1060
  94   2.0000      -0.254710        -6.9310
  95   2.0000      -0.232252        -6.3199
  96   2.0000      -0.216513        -5.8916
  97   2.0000      -0.211847        -5.7647
  98   2.0000      -0.200143        -5.4462
  99   2.0000      -0.188445        -5.1278
 100   2.0000      -0.183259        -4.9867
 101   0.0000      -0.041088        -1.1181
 102   0.0000      -0.029806        -0.8110
 103   0.0000      -0.004829        -0.1314
 104   0.0000       0.013953         0.3797
 105   0.0000       0.021213         0.5772

MULLIKEN ATOMIC CHARGES
-----------------------
   0 C :   -0.301649
   1 C :   -0.000568
   2 O :   -0.353014
   3 P :    0.612378
   4 S :   -0.319865
   5 O :   -0.375728
   6 C :   -0.003333
   7 C :   -0.307967
   8 S :   -0.094066
   9 C :   -0.357129
  10 S :   -0.117001
  11 P :    0.605741
  12 S :   -0.303995
  13 O :   -0.388703
  14 C :   -0.013373
  15 C :   -0.280277
  16 O :   -0.345239
  17 C :    0.007802
  18 C :   -0.321095
  19 H :    0.118945
  20 H :    0.111435
  21 H :    0.108181
  22 H :    0.098965
  23 H :    0.122113
  24 H :    0.102510
  25 H :    0.108914
  26 H :    0.116121
  27 H :    0.110262
  28 H :    0.119870
  29 H :    0.213279
  30 H :    0.181107
  31 H :    0.106415
  32 H :    0.109089
  33 H :    0.114427
  34 H :    0.121917
  35 H :    0.113730
  36 H :    0.108195
  37 H :    0.109945
  38 H :    0.130556
  39 H :    0.120323
  40 H :    0.110784
Sum of atomic charges:   -0.0000000

LOEWDIN ATOMIC CHARGES
----------------------
   0 C :   -0.366170
   1 C :   -0.118589
   2 O :   -0.231504
   3 P :    0.571699
   4 S :   -0.312038
   5 O :   -0.246547
   6 C :   -0.120259
   7 C :   -0.369258
   8 S :    0.086769
   9 C :   -0.478424
  10 S :    0.066508
  11 P :    0.563129
  12 S :   -0.296449
  13 O :   -0.251888
  14 C :   -0.119644
  15 C :   -0.350286
  16 O :   -0.226368
  17 C :   -0.105675
  18 C :   -0.371096
  19 H :    0.120569
  20 H :    0.123595
  21 H :    0.128539
  22 H :    0.117159
  23 H :    0.109463
  24 H :    0.117304
  25 H :    0.109095
  26 H :    0.123175
  27 H :    0.129365
  28 H :    0.119418
  29 H :    0.126752
  30 H :    0.136234
  31 H :    0.109214
  32 H :    0.111757
  33 H :    0.132266
  34 H :    0.129597
  35 H :    0.125409
  36 H :    0.113584
  37 H :    0.122898
  38 H :    0.124405
  39 H :    0.116421
  40 H :    0.129870

  Mayer bond orders larger than 0.100000
B(  0-C ,  1-C ) :   1.1572 B(  0-C , 19-H ) :   0.9373 B(  0-C , 20-H ) :   0.9447
B(  0-C , 21-H ) :   0.9394 B(  1-C ,  2-O ) :   0.9055 B(  1-C , 22-H ) :   0.9363
B(  1-C , 23-H ) :   0.9135 B(  2-O ,  3-P ) :   1.1483 B(  3-P ,  4-S ) :   1.5912
B(  3-P ,  5-O ) :   1.0943 B(  3-P ,  8-S ) :   0.9644 B(  4-S ,  8-S ) :   0.1143
B(  5-O ,  6-C ) :   0.9134 B(  6-C ,  7-C ) :   1.1675 B(  6-C , 24-H ) :   0.9341
B(  6-C , 25-H ) :   0.9142 B(  7-C , 26-H ) :   0.9440 B(  7-C , 27-H ) :   0.9381
B(  7-C , 28-H ) :   0.9370 B(  8-S ,  9-C ) :   0.9948 B(  9-C , 10-S ) :   1.0088
B(  9-C , 29-H ) :   0.8461 B(  9-C , 30-H ) :   0.9117 B( 10-S , 11-P ) :   0.9366
B( 10-S , 12-S ) :   0.1064 B( 11-P , 12-S ) :   1.6580 B( 11-P , 13-O ) :   1.0729
B( 11-P , 16-O ) :   1.1497 B( 13-O , 14-C ) :   0.9014 B( 14-C , 15-C ) :   1.1597
B( 14-C , 31-H ) :   0.9286 B( 14-C , 32-H ) :   0.9102 B( 15-C , 33-H ) :   0.9417
B( 15-C , 34-H ) :   0.9507 B( 15-C , 35-H ) :   0.9512 B( 16-O , 17-C ) :   0.8957
B( 17-C , 18-C ) :   1.1707 B( 17-C , 36-H ) :   0.9288 B( 17-C , 37-H ) :   0.9339
B( 18-C , 38-H ) :   0.9378 B( 18-C , 39-H ) :   0.9396 B( 18-C , 40-H ) :   0.9350

Dispersion correction           -0.067611883
FINAL SINGLE POINT ENERGY     -2929.516873907153

DIPOLE MOMENT
-------------

Method             : SCF
Type of density    : Electron Density
Multiplicity       :   1
Irrep              :   0
Energy             : -2929.6348595742965699 Eh
Relativity type    :
Basis              : AO
                                X                 Y                 Z
Electronic contribution:      2.933463454       4.938610335       7.613550948
Nuclear contribution   :     -3.914663792      -5.899976640      -8.025891990
                        -----------------------------------------
Total Dipole Moment    :     -0.981200338      -0.961366305      -0.412341042
                        -----------------------------------------
Magnitude (a.u.)       :      1.434226067
Magnitude (Debye)      :      3.645512948

Rotational constants in cm-1:             0.013373             0.005168             0.004853
Rotational constants in MHz :           400.903811           154.927324           145.474654

                             ****ORCA TERMINATED NORMALLY****
TOTAL RUN TIME: 0 days 0 hours 0 minutes 21 seconds 593 msec
