                         Program Version 6.0.0  -   RELEASE  -
|  1> ! pbe def2-sv(p) def2/J RI DEFGRID1 loosescf d4 GCP(DFT/SV(P)) printgap
|  2> %output
|  3>     printlevel normal
|  4> end
|  5> * xyz 0 1
|  6> C 3.2187954505 2.4482378984 0.9128251198
|  7> C 1.7376410546 2.1895242973 0.7381883416
|  8> O 1.4879772129 0.9234008502 0.0960931118
|  9> P 1.7870561437 -0.4557310289 0.8062707993
| 10> S 1.6250028679 -0.5125219879 2.756668139
| 11> O 3.2490739953 -0.767525663 0.2436972423
| 12> C 4.1018933334 -1.7561999121 0.8383076115
| 13> C 3.5931037197 -3.1642408365 0.6016026671
| 14> S 0.4860847141 -1.7408493883 -0.2721958225
| 15> C 0.5345141663 -0.9872878445 -1.9173960124
| 16> S -0.3867491424 0.577436493 -2.0914560288
| 17> P -2.0431026387 0.179196409 -0.8604462875
| 18> S -2.9751979125 -1.5260085727 -1.0498678469
| 19> O -3.0291353705 1.3839694784 -1.1583071615
| 20> C -2.6681241154 2.7799375902 -1.0072403374
| 21> C -2.3509318205 3.4021609751 -2.352186903
| 22> O -1.4020336001 0.4812225948 0.5872599468
| 23> C -1.9710057848 -0.0955937673 1.775657606
| 24> C -3.2908128945 0.554922348 2.1332598336
| 25> H 3.6394760701 1.7282577263 1.6137375423
| 26> H 3.7313666342 2.3540940336 -0.0407326018
| 27> H 3.3648240235 3.4494430482 1.3059067562
| 28> H 1.2757989688 2.9139908586 0.0654104685
| 29> H 1.2257088575 2.195511561 1.7056007694
| 30> H 5.0704260088 -1.5919793236 0.3639660329
| 31> H 4.1728590787 -1.5517859733 1.9116077087
| 32> H 3.460723848 -3.3492493691 -0.461250254
| 33> H 4.3057068719 -3.8767856566 1.0044484804
| 34> H 2.6345227934 -3.3023745594 1.1022202198
| 35> H 0.0915323279 -1.7287056706 -2.5799646128
| 36> H 1.561827762 -0.7656121282 -2.1971418044
| 37> H -3.5501754055 3.2409454068 -0.5588422814
| 38> H -1.8215035991 2.8565341455 -0.3201068249
| 39> H -1.465744201 2.9434871333 -2.7877176739
| 40> H -3.1872743466 3.260283939 -3.0308443862
| 41> H -2.1741784912 4.4647027641 -2.2176328355
| 42> H -2.099320921 -1.1712805575 1.6119202685
| 43> H -1.2138495323 0.0626339001 2.5470806404
| 44> H -3.1622209292 1.6260278606 2.2667205939
| 45> H -4.0141640094 0.376912725 1.3375251722
| 46> H -3.6644666289 0.1194828788 3.0545686838
| 47> *
| 48>
| 49>                          ****END OF INPUT****

CARTESIAN COORDINATES (ANGSTROEM)
---------------------------------
  C      3.218795    2.448238    0.912825
  C      1.737641    2.189524    0.738188
  O      1.487977    0.923401    0.096093
  P      1.787056   -0.455731    0.806271
  S      1.625003   -0.512522    2.756668
  O      3.249074   -0.767526    0.243697
  C      4.101893   -1.756200    0.838308
  C      3.593104   -3.164241    0.601603
  S      0.486085   -1.740849   -0.272196
  C      0.534514   -0.987288   -1.917396
  S     -0.386749    0.577436   -2.091456
  P     -2.043103    0.179196   -0.860446
  S     -2.975198   -1.526009   -1.049868
  O     -3.029135    1.383969   -1.158307
  C     -2.668124    2.779938   -1.007240
  C     -2.350932    3.402161   -2.352187
  O     -1.402034    0.481223    0.587260
  C     -1.971006   -0.095594    1.775658
  C     -3.290813    0.554922    2.133260
  H      3.639476    1.728258    1.613738
  H      3.731367    2.354094   -0.040733
  H      3.364824    3.449443    1.305907
  H      1.275799    2.913991    0.065410
  H      1.225709    2.195512    1.705601
  H      5.070426   -1.591979    0.363966
  H      4.172859   -1.551786    1.911608
  H      3.460724   -3.349249   -0.461250
  H      4.305707   -3.876786    1.004448
  H      2.634523   -3.302375    1.102220
  H      0.091532   -1.728706   -2.579965
  H      1.561828   -0.765612   -2.197142
  H     -3.550175    3.240945   -0.558842
  H     -1.821504    2.856534   -0.320107
  H     -1.465744    2.943487   -2.787718
  H     -3.187274    3.260284   -3.030844
  H     -2.174178    4.464703   -2.217633
  H     -2.099321   -1.171281    1.611920
  H     -1.213850    0.062634    2.547081
  H     -3.162221    1.626028    2.266721
  H     -4.014164    0.376913    1.337525
  H     -3.664467    0.119483    3.054569

 Total Charge           Charge          ....    0
 Multiplicity           Mult            ....    1
 Number of Electrons    NEL             ....  202
 Basis Dimension        Dim             ....  334

ORBITAL ENERGIES
----------------

  NO   OCC          E(Eh)            E(eV)
   0   2.0000     -88.045377     -2395.8365
   1   2.0000     -88.039589     -2395.6790
   2   2.0000     -87.995018     -2394.4662
   3   2.0000     -87.978569     -2394.0186
   4   2.0000     -76.429754     -2079.7593
   5   2.0000     -76.421981     -2079.5478
   6   2.0000     -18.794169      -511.4153
   7   2.0000     -18.792584      -511.3722
   8   2.0000     -18.792357      -511.3660
   9   2.0000     -18.782345      -511.0936
  10   2.0000      -9.962675      -271.0982
  11   2.0000      -9.958718      -270.9905
  12   2.0000      -9.956576      -270.9322
  13   2.0000      -9.954623      -270.8791
  14   2.0000      -9.935228      -270.3513
  15   2.0000      -9.890375      -269.1308
  16   2.0000      -9.887872      -269.0627
  17   2.0000      -9.886317      -269.0204
  18   2.0000      -9.876507      -268.7534
  19   2.0000      -7.689882      -209.2523
  20   2.0000      -7.684852      -209.1155
  21   2.0000      -7.639917      -207.8927
  22   2.0000      -7.623943      -207.4580
  23   2.0000      -6.427346      -174.8970
  24   2.0000      -6.419275      -174.6774
  25   2.0000      -5.718282      -155.6024
  26   2.0000      -5.714246      -155.4926
  27   2.0000      -5.712930      -155.4567
  28   2.0000      -5.709440      -155.3617
  29   2.0000      -5.706478      -155.2812
  30   2.0000      -5.701459      -155.1446
  31   2.0000      -5.668735      -154.2541
  32   2.0000      -5.660686      -154.0351
  33   2.0000      -5.660046      -154.0177
  34   2.0000      -5.653097      -153.8286
  35   2.0000      -5.644528      -153.5954
  36   2.0000      -5.643870      -153.5775
  37   2.0000      -4.649716      -126.5252
  38   2.0000      -4.649280      -126.5133
  39   2.0000      -4.647863      -126.4748
  40   2.0000      -4.642207      -126.3209
  41   2.0000      -4.640784      -126.2822
  42   2.0000      -4.639749      -126.2540
  43   2.0000      -0.990252       -26.9461
  44   2.0000      -0.979980       -26.6666
  45   2.0000      -0.948663       -25.8144
  46   2.0000      -0.937335       -25.5062
  47   2.0000      -0.764689       -20.8082
  48   2.0000      -0.721960       -19.6455
  49   2.0000      -0.709645       -19.3104
  50   2.0000      -0.689684       -18.7673
  51   2.0000      -0.686422       -18.6785
  52   2.0000      -0.673759       -18.3339
  53   2.0000      -0.655868       -17.8471
  54   2.0000      -0.638512       -17.3748
  55   2.0000      -0.602922       -16.4063
  56   2.0000      -0.585067       -15.9205
  57   2.0000      -0.576351       -15.6833
  58   2.0000      -0.575031       -15.6474
  59   2.0000      -0.563859       -15.3434
  60   2.0000      -0.499591       -13.5946
  61   2.0000      -0.495539       -13.4843
  62   2.0000      -0.476382       -12.9630
  63   2.0000      -0.471160       -12.8209
  64   2.0000      -0.460203       -12.5228
  65   2.0000      -0.447026       -12.1642
  66   2.0000      -0.443137       -12.0584
  67   2.0000      -0.433355       -11.7922
  68   2.0000      -0.424639       -11.5550
  69   2.0000      -0.417134       -11.3508
  70   2.0000      -0.409208       -11.1351
  71   2.0000      -0.398828       -10.8527
  72   2.0000      -0.397390       -10.8135
  73   2.0000      -0.390980       -10.6391
  74   2.0000      -0.375769       -10.2252
  75   2.0000      -0.375320       -10.2130
  76   2.0000      -0.367989       -10.0135
  77   2.0000      -0.359528        -9.7832
  78   2.0000      -0.357564        -9.7298
  79   2.0000      -0.355478        -9.6730
  80   2.0000      -0.351887        -9.5753
  81   2.0000      -0.348412        -9.4808
  82   2.0000      -0.340782        -9.2732
  83   2.0000      -0.338061        -9.1991
  84   2.0000      -0.330838        -9.0026
  85   2.0000      -0.320564        -8.7230
  86   2.0000      -0.310566        -8.4509
  87   2.0000      -0.303648        -8.2627
  88   2.0000      -0.297693        -8.1006
  89   2.0000      -0.293325        -7.9818
  90   2.0000      -0.278360        -7.5746
  91   2.0000      -0.272755        -7.4221
  92   2.0000      -0.269771        -7.3408
  93   2.0000      -0.265880        -7.2350
  94   2.0000      -0.256744        -6.9864
  95   2.0000      -0.226399        -6.1606
  96   2.0000      -0.219761        -5.9800
  97   2.0000      -0.216626        -5.8947
  98   2.0000      -0.208124        -5.6633
  99   2.0000      -0.193711        -5.2711
 100   2.0000      -0.192488        -5.2379
 101   0.0000      -0.045806        -1.2464
 102   0.0000      -0.028668        -0.7801
 103   0.0000      -0.010290        -0.2800
 104   0.0000      -0.001176        -0.0320
 105   0.0000       0.014414         0.3922

MULLIKEN ATOMIC CHARGES
-----------------------
   0 C :   -0.304322
   1 C :   -0.002343
   2 O :   -0.366159
   3 P :    0.625380
   4 S :   -0.323198
   5 O :   -0.375941
   6 C :   -0.008898
   7 C :   -0.307992
   8 S :   -0.069777
   9 C :   -0.309305
  10 S :   -0.112888
  11 P :    0.616159
  12 S :   -0.312277
  13 O :   -0.366728
  14 C :   -0.035902
  15 C :   -0.294868
  16 O :   -0.386767
  17 C :   -0.023864
  18 C :   -0.307843
  19 H :    0.123257
  20 H :    0.115729
  21 H :    0.111850
  22 H :    0.102697
  23 H :    0.111874
  24 H :    0.104493
  25 H :    0.110410
  26 H :    0.114219
  27 H :    0.113621
  28 H :    0.125994
  29 H :    0.193610
  30 H :    0.179839
  31 H :    0.111584
  32 H :    0.113620
  33 H :    0.131675
  34 H :    0.124759
  35 H :    0.109855
  36 H :    0.112867
  37 H :    0.113434
  38 H :    0.104675
  39 H :    0.125706
  40 H :    0.111766
Sum of atomic charges:    0.0000000

LOEWDIN ATOMIC CHARGES
----------------------
   0 C :   -0.364893
   1 C :   -0.113674
   2 O :   -0.235268
   3 P :    0.576018
   4 S :   -0.310255
   5 O :   -0.250739
   6 C :   -0.122162
   7 C :   -0.366670
   8 S :    0.117440
   9 C :   -0.465576
  10 S :    0.082760
  11 P :    0.564682
  12 S :   -0.316957
  13 O :   -0.243227
  14 C :   -0.119059
  15 C :   -0.361004
  16 O :   -0.256779
  17 C :   -0.133906
  18 C :   -0.365782
  19 H :    0.122744
  20 H :    0.126308
  21 H :    0.130383
  22 H :    0.115142
  23 H :    0.111694
  24 H :    0.118064
  25 H :    0.109053
  26 H :    0.123708
  27 H :    0.131065
  28 H :    0.120572
  29 H :    0.140976
  30 H :    0.134216
  31 H :    0.121319
  32 H :    0.108932
  33 H :    0.118800
  34 H :    0.131542
  35 H :    0.130075
  36 H :    0.108421
  37 H :    0.109459
  38 H :    0.118907
  39 H :    0.122878
  40 H :    0.130792

  Mayer bond orders larger than 0.100000
B(  0-C ,  1-C ) :   1.1638 B(  0-C , 19-H ) :   0.9360 B(  0-C , 20-H ) :   0.9455
B(  0-C , 21-H ) :   0.9388 B(  1-C ,  2-O ) :   0.9028 B(  1-C , 22-H ) :   0.9300
B(  1-C , 23-H ) :   0.9199 B(  2-O ,  3-P ) :   1.1236 B(  3-P ,  4-S ) :   1.6140
B(  3-P ,  5-O ) :   1.0744 B(  3-P ,  8-S ) :   0.9545 B(  5-O ,  6-C ) :   0.9167
B(  6-C ,  7-C ) :   1.1640 B(  6-C , 24-H ) :   0.9338 B(  6-C , 25-H ) :   0.9152
B(  7-C , 26-H ) :   0.9454 B(  7-C , 27-H ) :   0.9385 B(  7-C , 28-H ) :   0.9370
B(  8-S ,  9-C ) :   1.0092 B(  9-C , 10-S ) :   0.9762 B(  9-C , 29-H ) :   0.9033
B(  9-C , 30-H ) :   0.9061 B( 10-S , 11-P ) :   0.9790 B( 10-S , 12-S ) :   0.1061
B( 11-P , 12-S ) :   1.6425 B( 11-P , 13-O ) :   1.1145 B( 11-P , 16-O ) :   1.0553
B( 13-O , 14-C ) :   0.9013 B( 14-C , 15-C ) :   1.1664 B( 14-C , 31-H ) :   0.9330
B( 14-C , 32-H ) :   0.9136 B( 15-C , 33-H ) :   0.9346 B( 15-C , 34-H ) :   0.9453
B( 15-C , 35-H ) :   0.9388 B( 16-O , 17-C ) :   0.8989 B( 17-C , 18-C ) :   1.1602
B( 17-C , 36-H ) :   0.9129 B( 17-C , 37-H ) :   0.9158 B( 18-C , 38-H ) :   0.9471
B( 18-C , 39-H ) :   0.9348 B( 18-C , 40-H ) :   0.9410

Dispersion correction           -0.068395872
FINAL SINGLE POINT ENERGY     -2929.515747804155

DIPOLE MOMENT
-------------

Method             : SCF
Type of density    : Electron Density
Multiplicity       :   1
Irrep              :   0
Energy             : -2929.6339720127757573 Eh
Relativity type    :
Basis              : AO
                                X                 Y                 Z
Electronic contribution:     -6.620854564     -12.429461706      -5.559982109
Nuclear contribution   :      7.945522536      13.742907455       5.408272222
                        -----------------------------------------
Total Dipole Moment    :      1.324667972       1.313445749      -0.151709887
                        -----------------------------------------
Magnitude (a.u.)       :      1.871603821
Magnitude (Debye)      :      4.757238848

Rotational constants in cm-1:             0.011859             0.005638             0.005323
Rotational constants in MHz :           355.536815           169.020042           159.569735

                             ****ORCA TERMINATED NORMALLY****
TOTAL RUN TIME: 0 days 0 hours 0 minutes 21 seconds 863 msec
