                         Program Version 6.0.0  -   RELEASE  -
|  1> ! wb97x-v def2-tzvp def2/J RIJCOSX DEFGRID2 scfconv7 GCP(DFT/TZ) printgap
|  2> %output
|  3>     printlevel normal
|  4> end
|  5> * xyz 0 1
|  6> C 0.605184655563927 1.72357034508254 -0.05228411471728628
|  7> C 1.3972807295075023 0.4393759253751976 -0.26881158708073133
|  8> H 1.6305556457444201 0.31917764338058324 -1.3330765493987706
|  9> C 0.5765112896622874 -0.757454045285719 0.20011980421927517
| 10> H 0.43727868352610166 -0.6910954002630497 1.2908098547592872
| 11> C -0.7819781945292991 -0.7454489881094291 -0.4889750495265516
| 12> H -0.62426942953105 -0.848035841204262 -1.5726119457301908
| 13> C -1.4934198243816152 0.5882126694426578 -0.2679849527657501
| 14> H -2.394393662574993 0.6456629403986979 -0.8892613911062065
| 15> O -0.6701734941905116 1.6587623167464818 -0.7206624368573518
| 16> O -1.82274119342938 0.7052100368125223 1.1013248889886003
| 17> O -1.6370096686354436 -1.7884970029708331 -0.015387160005704703
| 18> O 1.209034908492806 -1.9990797614424867 -0.13655378769011928
| 19> O 2.6606920029531054 0.5039369569446966 0.40513766250091743
| 20> H 1.1306430491458648 2.5768755828312973 -0.4863342007306072
| 21> H 0.4681083241744551 1.9014970254922423 1.0237807148758895
| 22> H -2.456179825673031 1.4306968443210133 1.1886816570747085
| 23> H -1.2234602208501222 -2.626777259026467 -0.2607216227071763
| 24> H 2.037007459720202 -2.0404543452387536 0.36077577290469365
| 25> H 2.4825818468969754 0.6190375736246263 1.3503685931929386
| 26> *
| 27>
| 28>                          ****END OF INPUT****

CARTESIAN COORDINATES (ANGSTROEM)
---------------------------------
  C      0.605185    1.723570   -0.052284
  C      1.397281    0.439376   -0.268812
  H      1.630556    0.319178   -1.333077
  C      0.576511   -0.757454    0.200120
  H      0.437279   -0.691095    1.290810
  C     -0.781978   -0.745449   -0.488975
  H     -0.624269   -0.848036   -1.572612
  C     -1.493420    0.588213   -0.267985
  H     -2.394394    0.645663   -0.889261
  O     -0.670173    1.658762   -0.720662
  O     -1.822741    0.705210    1.101325
  O     -1.637010   -1.788497   -0.015387
  O      1.209035   -1.999080   -0.136554
  O      2.660692    0.503937    0.405138
  H      1.130643    2.576876   -0.486334
  H      0.468108    1.901497    1.023781
  H     -2.456180    1.430697    1.188682
  H     -1.223460   -2.626777   -0.260722
  H      2.037007   -2.040454    0.360776
  H      2.482582    0.619038    1.350369

 Total Charge           Charge          ....    0
 Multiplicity           Mult            ....    1
 Number of Electrons    NEL             ....   80
 Basis Dimension        Dim             ....  370

ORBITAL ENERGIES
----------------

  NO   OCC          E(Eh)            E(eV)
   0   2.0000     -21.691396      -590.2529
   1   2.0000     -21.691096      -590.2447
   2   2.0000     -21.688804      -590.1824
   3   2.0000     -21.683467      -590.0371
   4   2.0000     -21.673611      -589.7689
   5   2.0000     -12.155855      -330.7776
   6   2.0000     -12.108171      -329.4801
   7   2.0000     -12.107853      -329.4714
   8   2.0000     -12.106019      -329.4215
   9   2.0000     -12.103039      -329.3404
  10   2.0000      -1.719877       -46.8002
  11   2.0000      -1.694254       -46.1030
  12   2.0000      -1.685056       -45.8527
  13   2.0000      -1.676882       -45.6303
  14   2.0000      -1.674149       -45.5559
  15   2.0000      -1.333881       -36.2967
  16   2.0000      -1.307406       -35.5763
  17   2.0000      -1.199957       -32.6525
  18   2.0000      -1.191872       -32.4325
  19   2.0000      -1.130845       -30.7718
  20   2.0000      -1.088195       -29.6113
  21   2.0000      -1.066933       -29.0327
  22   2.0000      -1.045899       -28.4604
  23   2.0000      -1.016480       -27.6598
  24   2.0000      -1.013419       -27.5765
  25   2.0000      -0.998473       -27.1698
  26   2.0000      -0.991067       -26.9683
  27   2.0000      -0.977042       -26.5867
  28   2.0000      -0.969751       -26.3883
  29   2.0000      -0.955208       -25.9925
  30   2.0000      -0.932293       -25.3690
  31   2.0000      -0.922808       -25.1109
  32   2.0000      -0.915590       -24.9145
  33   2.0000      -0.902423       -24.5562
  34   2.0000      -0.884102       -24.0576
  35   2.0000      -0.852601       -23.2005
  36   2.0000      -0.833241       -22.6736
  37   2.0000      -0.815695       -22.1962
  38   2.0000      -0.803068       -21.8526
  39   2.0000      -0.781039       -21.2531
  40   0.0000      -0.239490        -6.5169
  41   0.0000      -0.175403        -4.7730
  42   0.0000      -0.162867        -4.4318
  43   0.0000      -0.155686        -4.2364
  44   0.0000      -0.120945        -3.2911

MULLIKEN ATOMIC CHARGES
-----------------------
   0 C :   -0.024005
   1 C :   -0.001539
   2 H :    0.094514
   3 C :    0.020891
   4 H :    0.093685
   5 C :    0.096492
   6 H :    0.086012
   7 C :    0.110132
   8 H :    0.101739
   9 O :   -0.289511
  10 O :   -0.412310
  11 O :   -0.435167
  12 O :   -0.452778
  13 O :   -0.439043
  14 H :    0.127330
  15 H :    0.085912
  16 H :    0.308310
  17 H :    0.314263
  18 H :    0.314493
  19 H :    0.300579
Sum of atomic charges:    0.0000000

LOEWDIN ATOMIC CHARGES
----------------------
   0 C :   -0.280386
   1 C :   -0.331284
   2 H :    0.149620
   3 C :   -0.320879
   4 H :    0.142322
   5 C :   -0.307178
   6 H :    0.146707
   7 C :   -0.404430
   8 H :    0.132833
   9 O :    0.160746
  10 O :    0.007676
  11 O :   -0.006686
  12 O :   -0.021128
  13 O :   -0.019271
  14 H :    0.131562
  15 H :    0.121085
  16 H :    0.177326
  17 H :    0.175882
  18 H :    0.174680
  19 H :    0.170802

  Mayer bond orders larger than 0.100000
B(  0-C ,  1-C ) :   0.9810 B(  0-C ,  9-O ) :   0.9795 B(  0-C , 14-H ) :   0.9685
B(  0-C , 15-H ) :   0.9585 B(  1-C ,  2-H ) :   0.9415 B(  1-C ,  3-C ) :   0.9908
B(  1-C , 13-O ) :   0.9864 B(  3-C ,  4-H ) :   0.9560 B(  3-C ,  5-C ) :   0.9632
B(  3-C , 12-O ) :   1.0657 B(  5-C ,  6-H ) :   0.9615 B(  5-C ,  7-C ) :   0.9548
B(  5-C , 11-O ) :   1.0797 B(  7-C ,  8-H ) :   0.9576 B(  7-C ,  9-O ) :   1.0476
B(  7-C , 10-O ) :   1.2491 B( 10-O , 16-H ) :   0.8936 B( 11-O , 17-H ) :   0.8882
B( 12-O , 18-H ) :   0.8898 B( 13-O , 19-H ) :   0.8929

FINAL SINGLE POINT ENERGY      -572.703376971048

DIPOLE MOMENT
-------------

Method             : SCF
Type of density    : Electron Density
Multiplicity       :   1
Irrep              :   0
Energy             :  -572.7189321217475708 Eh
Relativity type    :
Basis              : AO
                                X                 Y                 Z
Electronic contribution:     -1.217759092      -0.700367209      -0.245585955
Nuclear contribution   :      1.330115371       1.094185342       0.622955952
                        -----------------------------------------
Total Dipole Moment    :      0.112356280       0.393818133       0.377369997
                        -----------------------------------------
Magnitude (a.u.)       :      0.556888472
Magnitude (Debye)      :      1.415498003

Rotational constants in cm-1:             0.056243             0.044165             0.028722
Rotational constants in MHz :          1686.120395          1324.036711           861.068702

                             ****ORCA TERMINATED NORMALLY****
TOTAL RUN TIME: 0 days 0 hours 4 minutes 5 seconds 326 msec
