                         Program Version 6.0.0  -   RELEASE  -
|  1> ! wb97x-v def2-tzvp def2/J RIJCOSX DEFGRID2 scfconv7 GCP(DFT/TZ) printgap
|  2> %output
|  3>     printlevel normal
|  4> end
|  5> %cpcm
|  6>     smd true
|  7>     smdsolvent "water"
|  8> end
|  9> * xyz 0 1
| 10> C 0.605184655563927 1.72357034508254 -0.05228411471728628
| 11> C 1.3972807295075023 0.4393759253751976 -0.26881158708073133
| 12> H 1.6305556457444201 0.31917764338058324 -1.3330765493987706
| 13> C 0.5765112896622874 -0.757454045285719 0.20011980421927517
| 14> H 0.43727868352610166 -0.6910954002630497 1.2908098547592872
| 15> C -0.7819781945292991 -0.7454489881094291 -0.4889750495265516
| 16> H -0.62426942953105 -0.848035841204262 -1.5726119457301908
| 17> C -1.4934198243816152 0.5882126694426578 -0.2679849527657501
| 18> H -2.394393662574993 0.6456629403986979 -0.8892613911062065
| 19> O -0.6701734941905116 1.6587623167464818 -0.7206624368573518
| 20> O -1.82274119342938 0.7052100368125223 1.1013248889886003
| 21> O -1.6370096686354436 -1.7884970029708331 -0.015387160005704703
| 22> O 1.209034908492806 -1.9990797614424867 -0.13655378769011928
| 23> O 2.6606920029531054 0.5039369569446966 0.40513766250091743
| 24> H 1.1306430491458648 2.5768755828312973 -0.4863342007306072
| 25> H 0.4681083241744551 1.9014970254922423 1.0237807148758895
| 26> H -2.456179825673031 1.4306968443210133 1.1886816570747085
| 27> H -1.2234602208501222 -2.626777259026467 -0.2607216227071763
| 28> H 2.037007459720202 -2.0404543452387536 0.36077577290469365
| 29> H 2.4825818468969754 0.6190375736246263 1.3503685931929386
| 30> *
| 31>
| 32>                          ****END OF INPUT****

CARTESIAN COORDINATES (ANGSTROEM)
---------------------------------
  C      0.605185    1.723570   -0.052284
  C      1.397281    0.439376   -0.268812
  H      1.630556    0.319178   -1.333077
  C      0.576511   -0.757454    0.200120
  H      0.437279   -0.691095    1.290810
  C     -0.781978   -0.745449   -0.488975
  H     -0.624269   -0.848036   -1.572612
  C     -1.493420    0.588213   -0.267985
  H     -2.394394    0.645663   -0.889261
  O     -0.670173    1.658762   -0.720662
  O     -1.822741    0.705210    1.101325
  O     -1.637010   -1.788497   -0.015387
  O      1.209035   -1.999080   -0.136554
  O      2.660692    0.503937    0.405138
  H      1.130643    2.576876   -0.486334
  H      0.468108    1.901497    1.023781
  H     -2.456180    1.430697    1.188682
  H     -1.223460   -2.626777   -0.260722
  H      2.037007   -2.040454    0.360776
  H      2.482582    0.619038    1.350369

 Total Charge           Charge          ....    0
 Multiplicity           Mult            ....    1
 Number of Electrons    NEL             ....   80
 Basis Dimension        Dim             ....  370

ORBITAL ENERGIES
----------------

  NO   OCC          E(Eh)            E(eV)
   0   2.0000     -21.691525      -590.2564
   1   2.0000     -21.686824      -590.1285
   2   2.0000     -21.682923      -590.0223
   3   2.0000     -21.681474      -589.9829
   4   2.0000     -21.680514      -589.9568
   5   2.0000     -12.151249      -330.6523
   6   2.0000     -12.103580      -329.3551
   7   2.0000     -12.099845      -329.2535
   8   2.0000     -12.098558      -329.2185
   9   2.0000     -12.092297      -329.0481
  10   2.0000      -1.718916       -46.7741
  11   2.0000      -1.688780       -45.9540
  12   2.0000      -1.684584       -45.8399
  13   2.0000      -1.677271       -45.6409
  14   2.0000      -1.675607       -45.5956
  15   2.0000      -1.328518       -36.1508
  16   2.0000      -1.302168       -35.4338
  17   2.0000      -1.195091       -32.5201
  18   2.0000      -1.188518       -32.3412
  19   2.0000      -1.128553       -30.7095
  20   2.0000      -1.084590       -29.5132
  21   2.0000      -1.062262       -28.9056
  22   2.0000      -1.047440       -28.5023
  23   2.0000      -1.014895       -27.6167
  24   2.0000      -1.011587       -27.5267
  25   2.0000      -1.001267       -27.2459
  26   2.0000      -0.989135       -26.9157
  27   2.0000      -0.975776       -26.5522
  28   2.0000      -0.968018       -26.3411
  29   2.0000      -0.954605       -25.9761
  30   2.0000      -0.932736       -25.3810
  31   2.0000      -0.925976       -25.1971
  32   2.0000      -0.913880       -24.8679
  33   2.0000      -0.900572       -24.5058
  34   2.0000      -0.882452       -24.0127
  35   2.0000      -0.846818       -23.0431
  36   2.0000      -0.830008       -22.5857
  37   2.0000      -0.809320       -22.0227
  38   2.0000      -0.797521       -21.7017
  39   2.0000      -0.772580       -21.0230
  40   0.0000      -0.234372        -6.3776
  41   0.0000      -0.170888        -4.6501
  42   0.0000      -0.158923        -4.3245
  43   0.0000      -0.149355        -4.0642
  44   0.0000      -0.114513        -3.1161

MULLIKEN ATOMIC CHARGES
-----------------------
   0 C :   -0.075950
   1 C :    0.051599
   2 H :    0.114812
   3 C :    0.026510
   4 H :    0.114685
   5 C :    0.116618
   6 H :    0.112489
   7 C :    0.137921
   8 H :    0.137756
   9 O :   -0.358250
  10 O :   -0.503095
  11 O :   -0.531426
  12 O :   -0.534620
  13 O :   -0.536321
  14 H :    0.147773
  15 H :    0.123880
  16 H :    0.368141
  17 H :    0.362848
  18 H :    0.361920
  19 H :    0.362710
Sum of atomic charges:    0.0000000

LOEWDIN ATOMIC CHARGES
----------------------
   0 C :   -0.275418
   1 C :   -0.327311
   2 H :    0.153308
   3 C :   -0.314105
   4 H :    0.149931
   5 C :   -0.306038
   6 H :    0.155705
   7 C :   -0.400825
   8 H :    0.142805
   9 O :    0.137224
  10 O :   -0.020927
  11 O :   -0.044443
  12 O :   -0.048044
  13 O :   -0.049450
  14 H :    0.136564
  15 H :    0.130859
  16 H :    0.199941
  17 H :    0.192325
  18 H :    0.191510
  19 H :    0.196392

  Mayer bond orders larger than 0.100000
B(  0-C ,  1-C ) :   0.9726 B(  0-C ,  9-O ) :   0.9456 B(  0-C , 14-H ) :   0.9599
B(  0-C , 15-H ) :   0.9715 B(  1-C ,  2-H ) :   0.9411 B(  1-C ,  3-C ) :   0.9933
B(  1-C , 13-O ) :   0.9768 B(  3-C ,  4-H ) :   0.9612 B(  3-C ,  5-C ) :   0.9710
B(  3-C , 12-O ) :   1.0393 B(  5-C ,  6-H ) :   0.9564 B(  5-C ,  7-C ) :   0.9488
B(  5-C , 11-O ) :   1.0286 B(  7-C ,  8-H ) :   0.9626 B(  7-C ,  9-O ) :   1.0255
B(  7-C , 10-O ) :   1.1796 B( 10-O , 16-H ) :   0.8558 B( 11-O , 17-H ) :   0.8590
B( 12-O , 18-H ) :   0.8605 B( 13-O , 19-H ) :   0.8588

FINAL SINGLE POINT ENERGY      -572.736667807606

DIPOLE MOMENT
-------------

Method             : SCF
Type of density    : Electron Density
Multiplicity       :   1
Irrep              :   0
Energy             :  -572.7522229583056514 Eh
Relativity type    :
Basis              : AO
                                X                 Y                 Z
Electronic contribution:     -1.109501928      -0.518307927      -0.114024656
Nuclear contribution   :      1.330115371       1.094185342       0.622955952
                        -----------------------------------------
Total Dipole Moment    :      0.220613443       0.575877415       0.508931296
                        -----------------------------------------
Magnitude (a.u.)       :      0.799572481
Magnitude (Debye)      :      2.032351734

Rotational constants in cm-1:             0.056243             0.044165             0.028722
Rotational constants in MHz :          1686.120395          1324.036711           861.068702

                             ****ORCA TERMINATED NORMALLY****
TOTAL RUN TIME: 0 days 0 hours 4 minutes 10 seconds 24 msec
