                         Program Version 6.0.0  -   RELEASE  -
|  1> ! pbe def2-sv(p) def2/J RI DEFGRID1 loosescf d4 GCP(DFT/SV(P)) printgap
|  2> %output
|  3>     printlevel normal
|  4> end
|  5> * xyz 0 1
|  6> C 4.423571852 -1.5122850526 -0.7537988917
|  7> C 4.6357302387 -0.0141435203 -0.6790932066
|  8> O 3.5867332857 0.6591849536 0.0387642531
|  9> P 2.081723313 0.7147230651 -0.4843777271
| 10> S 1.9044873354 0.8886187085 -2.4263206399
| 11> O 1.5346520649 1.9648434751 0.3070830587
| 12> C 1.9477688125 2.3769789972 1.6318232595
| 13> C 1.5636728271 1.3680558382 2.6933397325
| 14> S 1.2071406092 -1.0324795825 0.3640715358
| 15> C 0.218927263 -1.6481133471 -1.0333076069
| 16> S -1.4877362347 -2.0107467748 -0.5616026169
| 17> P -2.0309346567 -0.0794651107 0.1427482535
| 18> S -1.3391038588 1.4313794677 -0.8970964546
| 19> O -1.6578479387 0.010041837 1.6685453493
| 20> C -2.1233479054 -0.9573746719 2.6546922736
| 21> C -0.9815098743 -1.8406682085 3.1140242364
| 22> O -3.6154754352 -0.1877989342 0.203241545
| 23> C -4.4129299338 -0.2133784568 -0.9981252781
| 24> C -5.8442627083 0.0992886079 -0.6118029164
| 25> H 4.2449477562 -1.922344166 0.2367816902
| 26> H 3.5680714679 -1.7323957997 -1.3906129431
| 27> H 5.3067554367 -1.9743600084 -1.1830280884
| 28> H 4.692402465 0.4144446103 -1.6844062065
| 29> H 5.5350298107 0.2382234126 -0.1153009125
| 30> H 3.0264122764 2.5460433531 1.6175257233
| 31> H 1.4221466243 3.3237853044 1.768020191
| 32> H 2.1234622979 0.4439665964 2.5556492938
| 33> H 1.7884957872 1.7796258522 3.6724060016
| 34> H 0.4993990437 1.150882545 2.6286242842
| 35> H 0.6388081041 -2.5905320526 -1.3762688075
| 36> H 0.2383074514 -0.8948418831 -1.8261758039
| 37> H -2.5133605379 -0.3490379803 3.4718898461
| 38> H -2.9313315056 -1.5464800788 2.2175891815
| 39> H -0.1716332413 -1.2372229658 3.5131686159
| 40> H -1.3472757199 -2.5073927117 3.888344591
| 41> H -0.5959576465 -2.4322218555 2.2872839102
| 42> H -4.0129386097 0.5286195656 -1.6972544882
| 43> H -4.3258171947 -1.2082729178 -1.4430335738
| 44> H -5.9011636682 1.085279795 -0.1592396919
| 45> H -6.4650548959 0.0770330094 -1.5013654365
| 46> H -6.2063982592 -0.6370616423 0.0994369757
| 47> *
| 48>
| 49>                          ****END OF INPUT****

CARTESIAN COORDINATES (ANGSTROEM)
---------------------------------
  C      4.423572   -1.512285   -0.753799
  C      4.635730   -0.014144   -0.679093
  O      3.586733    0.659185    0.038764
  P      2.081723    0.714723   -0.484378
  S      1.904487    0.888619   -2.426321
  O      1.534652    1.964843    0.307083
  C      1.947769    2.376979    1.631823
  C      1.563673    1.368056    2.693340
  S      1.207141   -1.032480    0.364072
  C      0.218927   -1.648113   -1.033308
  S     -1.487736   -2.010747   -0.561603
  P     -2.030935   -0.079465    0.142748
  S     -1.339104    1.431379   -0.897096
  O     -1.657848    0.010042    1.668545
  C     -2.123348   -0.957375    2.654692
  C     -0.981510   -1.840668    3.114024
  O     -3.615475   -0.187799    0.203242
  C     -4.412930   -0.213378   -0.998125
  C     -5.844263    0.099289   -0.611803
  H      4.244948   -1.922344    0.236782
  H      3.568071   -1.732396   -1.390613
  H      5.306755   -1.974360   -1.183028
  H      4.692402    0.414445   -1.684406
  H      5.535030    0.238223   -0.115301
  H      3.026412    2.546043    1.617526
  H      1.422147    3.323785    1.768020
  H      2.123462    0.443967    2.555649
  H      1.788496    1.779626    3.672406
  H      0.499399    1.150883    2.628624
  H      0.638808   -2.590532   -1.376269
  H      0.238307   -0.894842   -1.826176
  H     -2.513361   -0.349038    3.471890
  H     -2.931332   -1.546480    2.217589
  H     -0.171633   -1.237223    3.513169
  H     -1.347276   -2.507393    3.888345
  H     -0.595958   -2.432222    2.287284
  H     -4.012939    0.528620   -1.697254
  H     -4.325817   -1.208273   -1.443034
  H     -5.901164    1.085280   -0.159240
  H     -6.465055    0.077033   -1.501365
  H     -6.206398   -0.637062    0.099437

 Total Charge           Charge          ....    0
 Multiplicity           Mult            ....    1
 Number of Electrons    NEL             ....  202
 Basis Dimension        Dim             ....  334

ORBITAL ENERGIES
----------------

  NO   OCC          E(Eh)            E(eV)
   0   2.0000     -88.042110     -2395.7476
   1   2.0000     -88.038382     -2395.6462
   2   2.0000     -87.978590     -2394.0192
   3   2.0000     -87.976019     -2393.9492
   4   2.0000     -76.421351     -2079.5307
   5   2.0000     -76.421273     -2079.5286
   6   2.0000     -18.790930      -511.3272
   7   2.0000     -18.790729      -511.3217
   8   2.0000     -18.788187      -511.2526
   9   2.0000     -18.781106      -511.0599
  10   2.0000      -9.957687      -270.9624
  11   2.0000      -9.951652      -270.7982
  12   2.0000      -9.950791      -270.7748
  13   2.0000      -9.950194      -270.7585
  14   2.0000      -9.949497      -270.7396
  15   2.0000      -9.887857      -269.0623
  16   2.0000      -9.886471      -269.0245
  17   2.0000      -9.882632      -268.9201
  18   2.0000      -9.882203      -268.9084
  19   2.0000      -7.687211      -209.1796
  20   2.0000      -7.682432      -209.0496
  21   2.0000      -7.623786      -207.4538
  22   2.0000      -7.620894      -207.3751
  23   2.0000      -6.418733      -174.6626
  24   2.0000      -6.418352      -174.6522
  25   2.0000      -5.714996      -155.5129
  26   2.0000      -5.711564      -155.4196
  27   2.0000      -5.710350      -155.3865
  28   2.0000      -5.706989      -155.2951
  29   2.0000      -5.704467      -155.2264
  30   2.0000      -5.699406      -155.0887
  31   2.0000      -5.652858      -153.8221
  32   2.0000      -5.650021      -153.7449
  33   2.0000      -5.644228      -153.5872
  34   2.0000      -5.643926      -153.5790
  35   2.0000      -5.641392      -153.5101
  36   2.0000      -5.640994      -153.4993
  37   2.0000      -4.641585      -126.3040
  38   2.0000      -4.641323      -126.2968
  39   2.0000      -4.640639      -126.2782
  40   2.0000      -4.639785      -126.2550
  41   2.0000      -4.638859      -126.2298
  42   2.0000      -4.638767      -126.2273
  43   2.0000      -0.987142       -26.8615
  44   2.0000      -0.981565       -26.7097
  45   2.0000      -0.943206       -25.6659
  46   2.0000      -0.936188       -25.4750
  47   2.0000      -0.759321       -20.6622
  48   2.0000      -0.717905       -19.5352
  49   2.0000      -0.708864       -19.2892
  50   2.0000      -0.691391       -18.8137
  51   2.0000      -0.686528       -18.6814
  52   2.0000      -0.674817       -18.3627
  53   2.0000      -0.645180       -17.5562
  54   2.0000      -0.628996       -17.1159
  55   2.0000      -0.593818       -16.1586
  56   2.0000      -0.582333       -15.8461
  57   2.0000      -0.575007       -15.6467
  58   2.0000      -0.572258       -15.5719
  59   2.0000      -0.560210       -15.2441
  60   2.0000      -0.507852       -13.8193
  61   2.0000      -0.490943       -13.3592
  62   2.0000      -0.478634       -13.0243
  63   2.0000      -0.464268       -12.6334
  64   2.0000      -0.448383       -12.2011
  65   2.0000      -0.446410       -12.1474
  66   2.0000      -0.442263       -12.0346
  67   2.0000      -0.435421       -11.8484
  68   2.0000      -0.433316       -11.7911
  69   2.0000      -0.421105       -11.4588
  70   2.0000      -0.407059       -11.0767
  71   2.0000      -0.395307       -10.7569
  72   2.0000      -0.387677       -10.5492
  73   2.0000      -0.382068       -10.3966
  74   2.0000      -0.380957       -10.3664
  75   2.0000      -0.366007        -9.9596
  76   2.0000      -0.364313        -9.9135
  77   2.0000      -0.355794        -9.6816
  78   2.0000      -0.352556        -9.5935
  79   2.0000      -0.349347        -9.5062
  80   2.0000      -0.347161        -9.4467
  81   2.0000      -0.345521        -9.4021
  82   2.0000      -0.339803        -9.2465
  83   2.0000      -0.335089        -9.1182
  84   2.0000      -0.333529        -9.0758
  85   2.0000      -0.314765        -8.5652
  86   2.0000      -0.307103        -8.3567
  87   2.0000      -0.301305        -8.1989
  88   2.0000      -0.297026        -8.0825
  89   2.0000      -0.291709        -7.9378
  90   2.0000      -0.288310        -7.8453
  91   2.0000      -0.274747        -7.4762
  92   2.0000      -0.265435        -7.2228
  93   2.0000      -0.258763        -7.0413
  94   2.0000      -0.252964        -6.8835
  95   2.0000      -0.231102        -6.2886
  96   2.0000      -0.218737        -5.9521
  97   2.0000      -0.208000        -5.6600
  98   2.0000      -0.194589        -5.2950
  99   2.0000      -0.189565        -5.1583
 100   2.0000      -0.180916        -4.9230
 101   0.0000      -0.041991        -1.1426
 102   0.0000      -0.034512        -0.9391
 103   0.0000      -0.003238        -0.0881
 104   0.0000       0.010420         0.2835
 105   0.0000       0.017055         0.4641

MULLIKEN ATOMIC CHARGES
-----------------------
   0 C :   -0.312047
   1 C :    0.004229
   2 O :   -0.390963
   3 P :    0.634442
   4 S :   -0.300250
   5 O :   -0.349781
   6 C :    0.015275
   7 C :   -0.359278
   8 S :   -0.136327
   9 C :   -0.331394
  10 S :   -0.126263
  11 P :    0.584982
  12 S :   -0.279422
  13 O :   -0.351982
  14 C :   -0.012724
  15 C :   -0.289877
  16 O :   -0.383966
  17 C :   -0.009340
  18 C :   -0.280070
  19 H :    0.116011
  20 H :    0.119284
  21 H :    0.111043
  22 H :    0.111610
  23 H :    0.101148
  24 H :    0.105987
  25 H :    0.110991
  26 H :    0.121954
  27 H :    0.110036
  28 H :    0.152477
  29 H :    0.176226
  30 H :    0.209173
  31 H :    0.111048
  32 H :    0.106428
  33 H :    0.124436
  34 H :    0.108056
  35 H :    0.122126
  36 H :    0.107037
  37 H :    0.102622
  38 H :    0.121808
  39 H :    0.112968
  40 H :    0.112289
Sum of atomic charges:   -0.0000000

LOEWDIN ATOMIC CHARGES
----------------------
   0 C :   -0.370971
   1 C :   -0.116515
   2 O :   -0.253177
   3 P :    0.578381
   4 S :   -0.295958
   5 O :   -0.228066
   6 C :   -0.106147
   7 C :   -0.375987
   8 S :    0.075303
   9 C :   -0.479161
  10 S :    0.057146
  11 P :    0.554585
  12 S :   -0.287468
  13 O :   -0.232947
  14 C :   -0.110476
  15 C :   -0.361204
  16 O :   -0.253368
  17 C :   -0.120510
  18 C :   -0.350396
  19 H :    0.122274
  20 H :    0.118909
  21 H :    0.129735
  22 H :    0.111985
  23 H :    0.116750
  24 H :    0.111922
  25 H :    0.123895
  26 H :    0.114272
  27 H :    0.129548
  28 H :    0.131308
  29 H :    0.132703
  30 H :    0.125620
  31 H :    0.121586
  32 H :    0.109201
  33 H :    0.127622
  34 H :    0.128934
  35 H :    0.116351
  36 H :    0.110456
  37 H :    0.108012
  38 H :    0.129688
  39 H :    0.131353
  40 H :    0.124812

  Mayer bond orders larger than 0.100000
B(  0-C ,  1-C ) :   1.1670 B(  0-C , 19-H ) :   0.9425 B(  0-C , 20-H ) :   0.9363
B(  0-C , 21-H ) :   0.9368 B(  1-C ,  2-O ) :   0.9132 B(  1-C , 22-H ) :   0.9170
B(  1-C , 23-H ) :   0.9346 B(  2-O ,  3-P ) :   1.0619 B(  3-P ,  4-S ) :   1.6236
B(  3-P ,  5-O ) :   1.1395 B(  3-P ,  8-S ) :   0.9339 B(  4-S ,  8-S ) :   0.1160
B(  4-S , 30-H ) :   0.1004 B(  5-O ,  6-C ) :   0.9060 B(  6-C ,  7-C ) :   1.1696
B(  6-C , 24-H ) :   0.9258 B(  6-C , 25-H ) :   0.9316 B(  7-C , 26-H ) :   0.9350
B(  7-C , 27-H ) :   0.9353 B(  7-C , 28-H ) :   0.9253 B(  8-S ,  9-C ) :   1.0023
B(  9-C , 10-S ) :   1.0023 B(  9-C , 29-H ) :   0.9087 B(  9-C , 30-H ) :   0.8457
B( 10-S , 11-P ) :   0.9332 B( 10-S , 12-S ) :   0.1088 B( 11-P , 12-S ) :   1.6841
B( 11-P , 13-O ) :   1.1238 B( 11-P , 16-O ) :   1.0803 B( 13-O , 14-C ) :   0.8828
B( 14-C , 15-C ) :   1.1674 B( 14-C , 31-H ) :   0.9352 B( 14-C , 32-H ) :   0.9174
B( 15-C , 33-H ) :   0.9443 B( 15-C , 34-H ) :   0.9381 B( 15-C , 35-H ) :   0.9313
B( 16-O , 17-C ) :   0.9033 B( 17-C , 18-C ) :   1.1602 B( 17-C , 36-H ) :   0.9086
B( 17-C , 37-H ) :   0.9289 B( 18-C , 38-H ) :   0.9507 B( 18-C , 39-H ) :   0.9419
B( 18-C , 40-H ) :   0.9514

Dispersion correction           -0.067495533
FINAL SINGLE POINT ENERGY     -2929.514047341927

DIPOLE MOMENT
-------------

Method             : SCF
Type of density    : Electron Density
Multiplicity       :   1
Irrep              :   0
Energy             : -2929.6322999551903195 Eh
Relativity type    :
Basis              : AO
                                X                 Y                 Z
Electronic contribution:      1.248852482       6.395921408     -13.572779189
Nuclear contribution   :     -1.356830037      -7.494435926      15.056761947
                        -----------------------------------------
Total Dipole Moment    :     -0.107977555      -1.098514518       1.483982758
                        -----------------------------------------
Magnitude (a.u.)       :      1.849485909
Magnitude (Debye)      :      4.701019584

Rotational constants in cm-1:             0.012890             0.005205             0.004938
Rotational constants in MHz :           386.425475           156.052367           148.047580

                             ****ORCA TERMINATED NORMALLY****
TOTAL RUN TIME: 0 days 0 hours 0 minutes 21 seconds 298 msec
