                         Program Version 6.0.1  -  RELEASE   -
|  1> ! r2scan-3c def2/J RI DEFGRID2 scfconv6 printgap
|  2> %output
|  3>     printlevel normal
|  4> end
|  5> * xyz 0 1
|  6> C 5.3784803625 -0.3629831915 -0.3924472891
|  7> C 4.8392607437 -1.2170530339 -1.5284196895
|  8> O 3.5254186943 -1.7179129701 -1.2120354988
|  9> C 2.480519735 -0.9759599277 -1.5164135457
| 10> O 2.5323471692 0.0986218926 -2.0716467688
| 11> C 1.1861496113 -1.6614745949 -1.1142152956
| 12> C 0.2126622382 -0.6248903652 -0.573027039
| 13> H 0.1616596736 0.2266056041 -1.2662270648
| 14> C 0.6161808019 -0.0607679733 0.7738683616
| 15> O -0.2052251862 0.2431822451 1.6161455498
| 16> O 1.9097474826 0.0610176949 0.9042537709
| 17> C 2.4167682997 0.7041536081 2.0953300664
| 18> C 2.4321019456 2.2131084239 1.9200981955
| 19> S -1.4693739349 -1.3034210919 -0.4035476278
| 20> P -2.4572027487 0.4652880061 0.2486246138
| 21> S -1.6653088759 2.1832344504 -0.2580649187
| 22> O -3.8990397573 0.2401785741 -0.4315882087
| 23> C -4.079349446 0.3313047853 -1.8465577975
| 24> O -2.8884244583 0.3423820361 1.7619233724
| 25> C -3.5821050487 -0.8124775374 2.273791315
| 26> H 6.3825504364 -0.0318465456 -0.6360355304
| 27> H 4.742419581 0.5078088007 -0.2519054508
| 28> H 5.4037095452 -0.9391585748 0.5282134569
| 29> H 5.4448351528 -2.1109422661 -1.6783894287
| 30> H 4.7778023651 -0.6366029284 -2.4532370554
| 31> H 1.3968297889 -2.4393310991 -0.3822188254
| 32> H 0.7532433906 -2.1210422124 -2.0050457278
| 33> H 1.7855937338 0.4166440398 2.9403303377
| 34> H 3.4232617691 0.3026116784 2.2112533605
| 35> H 1.4178519745 2.5866189102 1.7881392846
| 36> H 2.8664605409 2.6742933159 2.8006324686
| 37> H 3.0159221298 2.4854891972 1.0446292641
| 38> H -5.1541214582 0.3695534699 -2.0039889097
| 39> H -3.6498687523 -0.5449490428 -2.3322451892
| 40> H -3.6064336563 1.2384953146 -2.2269585391
| 41> H -3.6437779117 -0.6499199924 3.3466532915
| 42> H -3.0143352182 -1.7166706115 2.0533293285
| 43> H -4.5740439755 -0.8745984911 1.8298120933
| 44> *
| 45>
| 46>                          ****END OF INPUT****

CARTESIAN COORDINATES (ANGSTROEM)
---------------------------------
  C      5.378480   -0.362983   -0.392447
  C      4.839261   -1.217053   -1.528420
  O      3.525419   -1.717913   -1.212035
  C      2.480520   -0.975960   -1.516414
  O      2.532347    0.098622   -2.071647
  C      1.186150   -1.661475   -1.114215
  C      0.212662   -0.624890   -0.573027
  H      0.161660    0.226606   -1.266227
  C      0.616181   -0.060768    0.773868
  O     -0.205225    0.243182    1.616146
  O      1.909747    0.061018    0.904254
  C      2.416768    0.704154    2.095330
  C      2.432102    2.213108    1.920098
  S     -1.469374   -1.303421   -0.403548
  P     -2.457203    0.465288    0.248625
  S     -1.665309    2.183234   -0.258065
  O     -3.899040    0.240179   -0.431588
  C     -4.079349    0.331305   -1.846558
  O     -2.888424    0.342382    1.761923
  C     -3.582105   -0.812478    2.273791
  H      6.382550   -0.031847   -0.636036
  H      4.742420    0.507809   -0.251905
  H      5.403710   -0.939159    0.528213
  H      5.444835   -2.110942   -1.678389
  H      4.777802   -0.636603   -2.453237
  H      1.396830   -2.439331   -0.382219
  H      0.753243   -2.121042   -2.005046
  H      1.785594    0.416644    2.940330
  H      3.423262    0.302612    2.211253
  H      1.417852    2.586619    1.788139
  H      2.866461    2.674293    2.800632
  H      3.015922    2.485489    1.044629
  H     -5.154121    0.369553   -2.003989
  H     -3.649869   -0.544949   -2.332245
  H     -3.606434    1.238495   -2.226959
  H     -3.643778   -0.649920    3.346653
  H     -3.014335   -1.716671    2.053329
  H     -4.574044   -0.874598    1.829812

 Total Charge           Charge          ....    0
 Multiplicity           Mult            ....    1
 Number of Electrons    NEL             ....  174
 Basis Dimension        Dim             ....  510

ORBITAL ENERGIES
----------------

  NO   OCC          E(Eh)            E(eV)
   0   2.0000     -88.571874     -2410.1632
   1   2.0000     -88.505796     -2408.3652
   2   2.0000     -76.905674     -2092.7098
   3   2.0000     -19.015625      -517.4415
   4   2.0000     -19.008044      -517.2352
   5   2.0000     -18.981446      -516.5114
   6   2.0000     -18.978006      -516.4178
   7   2.0000     -18.941383      -515.4212
   8   2.0000     -18.937493      -515.3154
   9   2.0000     -10.167364      -276.6680
  10   2.0000     -10.166010      -276.6312
  11   2.0000     -10.101193      -274.8674
  12   2.0000     -10.100286      -274.8428
  13   2.0000     -10.094483      -274.6848
  14   2.0000     -10.089096      -274.5383
  15   2.0000     -10.080811      -274.3128
  16   2.0000     -10.066561      -273.9251
  17   2.0000     -10.037759      -273.1413
  18   2.0000     -10.030071      -272.9321
  19   2.0000      -7.866166      -214.0493
  20   2.0000      -7.800642      -212.2663
  21   2.0000      -6.583333      -179.1416
  22   2.0000      -5.812970      -158.1789
  23   2.0000      -5.810079      -158.1003
  24   2.0000      -5.803313      -157.9162
  25   2.0000      -5.748604      -156.4275
  26   2.0000      -5.741056      -156.2221
  27   2.0000      -5.740178      -156.1982
  28   2.0000      -4.729105      -128.6855
  29   2.0000      -4.728525      -128.6697
  30   2.0000      -4.726722      -128.6206
  31   2.0000      -1.093487       -29.7553
  32   2.0000      -1.083740       -29.4901
  33   2.0000      -1.039110       -28.2756
  34   2.0000      -0.996618       -27.1193
  35   2.0000      -0.992655       -27.0115
  36   2.0000      -0.987961       -26.8838
  37   2.0000      -0.812304       -22.1039
  38   2.0000      -0.758324       -20.6351
  39   2.0000      -0.750328       -20.4175
  40   2.0000      -0.726908       -19.7802
  41   2.0000      -0.697342       -18.9756
  42   2.0000      -0.665949       -18.1214
  43   2.0000      -0.659154       -17.9365
  44   2.0000      -0.645922       -17.5764
  45   2.0000      -0.633692       -17.2436
  46   2.0000      -0.599923       -16.3247
  47   2.0000      -0.539768       -14.6878
  48   2.0000      -0.532009       -14.4767
  49   2.0000      -0.527113       -14.3435
  50   2.0000      -0.496721       -13.5165
  51   2.0000      -0.496110       -13.4998
  52   2.0000      -0.483103       -13.1459
  53   2.0000      -0.470811       -12.8114
  54   2.0000      -0.457797       -12.4573
  55   2.0000      -0.451128       -12.2758
  56   2.0000      -0.448570       -12.2062
  57   2.0000      -0.440583       -11.9889
  58   2.0000      -0.437338       -11.9006
  59   2.0000      -0.424516       -11.5517
  60   2.0000      -0.421981       -11.4827
  61   2.0000      -0.418974       -11.4009
  62   2.0000      -0.410281       -11.1643
  63   2.0000      -0.407245       -11.0817
  64   2.0000      -0.394797       -10.7430
  65   2.0000      -0.383186       -10.4270
  66   2.0000      -0.378485       -10.2991
  67   2.0000      -0.371866       -10.1190
  68   2.0000      -0.364748        -9.9253
  69   2.0000      -0.357382        -9.7248
  70   2.0000      -0.349618        -9.5136
  71   2.0000      -0.345134        -9.3916
  72   2.0000      -0.340891        -9.2761
  73   2.0000      -0.329221        -8.9586
  74   2.0000      -0.317353        -8.6356
  75   2.0000      -0.316346        -8.6082
  76   2.0000      -0.309492        -8.4217
  77   2.0000      -0.304868        -8.2959
  78   2.0000      -0.288648        -7.8545
  79   2.0000      -0.280708        -7.6385
  80   2.0000      -0.278023        -7.5654
  81   2.0000      -0.267296        -7.2735
  82   2.0000      -0.252704        -6.8764
  83   2.0000      -0.247118        -6.7244
  84   2.0000      -0.233393        -6.3509
  85   2.0000      -0.207686        -5.6514
  86   2.0000      -0.199361        -5.4249
  87   0.0000      -0.044089        -1.1997
  88   0.0000      -0.029344        -0.7985
  89   0.0000      -0.016472        -0.4482
  90   0.0000       0.010463         0.2847
  91   0.0000       0.027438         0.7466

MULLIKEN ATOMIC CHARGES
-----------------------
   0 C :   -0.486044
   1 C :   -0.124178
   2 O :   -0.157624
   3 C :    0.306354
   4 O :   -0.400666
   5 C :   -0.377766
   6 C :   -0.019218
   7 H :    0.272440
   8 C :    0.269957
   9 O :   -0.401653
  10 O :   -0.099129
  11 C :   -0.149750
  12 C :   -0.459176
  13 S :   -0.219330
  14 P :    0.812970
  15 S :   -0.463919
  16 O :   -0.364773
  17 C :   -0.301021
  18 O :   -0.301677
  19 C :   -0.291307
  20 H :    0.151237
  21 H :    0.173470
  22 H :    0.153041
  23 H :    0.150756
  24 H :    0.171377
  25 H :    0.192650
  26 H :    0.185435
  27 H :    0.169575
  28 H :    0.152830
  29 H :    0.186009
  30 H :    0.149963
  31 H :    0.155272
  32 H :    0.148490
  33 H :    0.153650
  34 H :    0.176137
  35 H :    0.155455
  36 H :    0.162814
  37 H :    0.167350
Sum of atomic charges:   -0.0000000

LOEWDIN ATOMIC CHARGES
----------------------
   0 C :   -0.389420
   1 C :    0.032124
   2 O :   -0.579433
   3 C :    0.356433
   4 O :   -0.427195
   5 C :   -0.202347
   6 C :   -0.204477
   7 H :    0.224582
   8 C :    0.359749
   9 O :   -0.450047
  10 O :   -0.570125
  11 C :    0.035063
  12 C :   -0.385292
  13 S :    0.188066
  14 P :    0.409361
  15 S :   -0.088025
  16 O :   -0.695651
  17 C :   -0.065759
  18 O :   -0.637991
  19 C :   -0.049646
  20 H :    0.160461
  21 H :    0.165842
  22 H :    0.156985
  23 H :    0.179168
  24 H :    0.189876
  25 H :    0.191049
  26 H :    0.191060
  27 H :    0.191013
  28 H :    0.179183
  29 H :    0.173233
  30 H :    0.160034
  31 H :    0.159813
  32 H :    0.175074
  33 H :    0.166471
  34 H :    0.176749
  35 H :    0.180014
  36 H :    0.171409
  37 H :    0.172598

  Mayer bond orders larger than 0.100000
B(  0-C ,  1-C ) :   0.9342 B(  0-C , 20-H ) :   0.9647 B(  0-C , 21-H ) :   0.9696
B(  0-C , 22-H ) :   0.9717 B(  1-C ,  2-O ) :   0.8071 B(  1-C , 23-H ) :   0.9613
B(  1-C , 24-H ) :   0.9685 B(  2-O ,  3-C ) :   1.0858 B(  3-C ,  4-O ) :   1.8709
B(  3-C ,  5-C ) :   0.9038 B(  5-C ,  6-C ) :   0.8567 B(  5-C , 25-H ) :   0.9936
B(  5-C , 26-H ) :   0.9360 B(  6-C ,  7-H ) :   0.8818 B(  6-C ,  8-C ) :   0.9826
B(  6-C , 13-S ) :   0.8766 B(  8-C ,  9-O ) :   1.8100 B(  8-C , 10-O ) :   1.1706
B(  9-O , 14-P ) :   0.1069 B( 10-O , 11-C ) :   0.7532 B( 11-C , 12-C ) :   0.9369
B( 11-C , 27-H ) :   0.9565 B( 11-C , 28-H ) :   0.9633 B( 12-C , 29-H ) :   0.9622
B( 12-C , 30-H ) :   0.9669 B( 12-C , 31-H ) :   0.9724 B( 13-S , 14-P ) :   0.9653
B( 14-P , 15-S ) :   1.7891 B( 14-P , 16-O ) :   1.0001 B( 14-P , 18-O ) :   1.1870
B( 16-O , 17-C ) :   0.8384 B( 17-C , 32-H ) :   0.9694 B( 17-C , 33-H ) :   0.9570
B( 17-C , 34-H ) :   0.9579 B( 18-O , 19-C ) :   0.7962 B( 19-C , 35-H ) :   0.9657
B( 19-C , 36-H ) :   0.9593 B( 19-C , 37-H ) :   0.9628

Dispersion correction           -0.017241310
FINAL SINGLE POINT ENERGY     -1981.448538676164

DIPOLE MOMENT
-------------

Method             : SCF
Type of density    : Electron Density
Multiplicity       :   1
Irrep              :   0
Energy             : -1981.4689705298815170 Eh
Relativity type    :
Basis              : AO
                                X                 Y                 Z
Electronic contribution:    -17.988278507       0.058370287      -2.551696197
Nuclear contribution   :     19.121707034      -1.631282671       2.907693114
                        -----------------------------------------
Total Dipole Moment    :      1.133428526      -1.572912384       0.355996917
                        -----------------------------------------
Magnitude (a.u.)       :      1.971153824
Magnitude (Debye)      :      5.010274848

Rotational constants in cm-1:             0.017581             0.005680             0.005148
Rotational constants in MHz :           527.074598           170.290169           154.318625

                             ****ORCA TERMINATED NORMALLY****
TOTAL RUN TIME: 0 days 0 hours 1 minutes 24 seconds 1 msec
