                         Program Version 6.0.1  -  RELEASE   -
|  1> ! r2scan-3c def2/J RI DEFGRID2 scfconv6 printgap
|  2> %output
|  3>     printlevel normal
|  4> end
|  5> %cpcm
|  6>     smd true
|  7>     smdsolvent "water"
|  8> end
|  9> * xyz 0 1
| 10> C 5.3784803625 -0.3629831915 -0.3924472891
| 11> C 4.8392607437 -1.2170530339 -1.5284196895
| 12> O 3.5254186943 -1.7179129701 -1.2120354988
| 13> C 2.480519735 -0.9759599277 -1.5164135457
| 14> O 2.5323471692 0.0986218926 -2.0716467688
| 15> C 1.1861496113 -1.6614745949 -1.1142152956
| 16> C 0.2126622382 -0.6248903652 -0.573027039
| 17> H 0.1616596736 0.2266056041 -1.2662270648
| 18> C 0.6161808019 -0.0607679733 0.7738683616
| 19> O -0.2052251862 0.2431822451 1.6161455498
| 20> O 1.9097474826 0.0610176949 0.9042537709
| 21> C 2.4167682997 0.7041536081 2.0953300664
| 22> C 2.4321019456 2.2131084239 1.9200981955
| 23> S -1.4693739349 -1.3034210919 -0.4035476278
| 24> P -2.4572027487 0.4652880061 0.2486246138
| 25> S -1.6653088759 2.1832344504 -0.2580649187
| 26> O -3.8990397573 0.2401785741 -0.4315882087
| 27> C -4.079349446 0.3313047853 -1.8465577975
| 28> O -2.8884244583 0.3423820361 1.7619233724
| 29> C -3.5821050487 -0.8124775374 2.273791315
| 30> H 6.3825504364 -0.0318465456 -0.6360355304
| 31> H 4.742419581 0.5078088007 -0.2519054508
| 32> H 5.4037095452 -0.9391585748 0.5282134569
| 33> H 5.4448351528 -2.1109422661 -1.6783894287
| 34> H 4.7778023651 -0.6366029284 -2.4532370554
| 35> H 1.3968297889 -2.4393310991 -0.3822188254
| 36> H 0.7532433906 -2.1210422124 -2.0050457278
| 37> H 1.7855937338 0.4166440398 2.9403303377
| 38> H 3.4232617691 0.3026116784 2.2112533605
| 39> H 1.4178519745 2.5866189102 1.7881392846
| 40> H 2.8664605409 2.6742933159 2.8006324686
| 41> H 3.0159221298 2.4854891972 1.0446292641
| 42> H -5.1541214582 0.3695534699 -2.0039889097
| 43> H -3.6498687523 -0.5449490428 -2.3322451892
| 44> H -3.6064336563 1.2384953146 -2.2269585391
| 45> H -3.6437779117 -0.6499199924 3.3466532915
| 46> H -3.0143352182 -1.7166706115 2.0533293285
| 47> H -4.5740439755 -0.8745984911 1.8298120933
| 48> *
| 49>
| 50>                          ****END OF INPUT****

CARTESIAN COORDINATES (ANGSTROEM)
---------------------------------
  C      5.378480   -0.362983   -0.392447
  C      4.839261   -1.217053   -1.528420
  O      3.525419   -1.717913   -1.212035
  C      2.480520   -0.975960   -1.516414
  O      2.532347    0.098622   -2.071647
  C      1.186150   -1.661475   -1.114215
  C      0.212662   -0.624890   -0.573027
  H      0.161660    0.226606   -1.266227
  C      0.616181   -0.060768    0.773868
  O     -0.205225    0.243182    1.616146
  O      1.909747    0.061018    0.904254
  C      2.416768    0.704154    2.095330
  C      2.432102    2.213108    1.920098
  S     -1.469374   -1.303421   -0.403548
  P     -2.457203    0.465288    0.248625
  S     -1.665309    2.183234   -0.258065
  O     -3.899040    0.240179   -0.431588
  C     -4.079349    0.331305   -1.846558
  O     -2.888424    0.342382    1.761923
  C     -3.582105   -0.812478    2.273791
  H      6.382550   -0.031847   -0.636036
  H      4.742420    0.507809   -0.251905
  H      5.403710   -0.939159    0.528213
  H      5.444835   -2.110942   -1.678389
  H      4.777802   -0.636603   -2.453237
  H      1.396830   -2.439331   -0.382219
  H      0.753243   -2.121042   -2.005046
  H      1.785594    0.416644    2.940330
  H      3.423262    0.302612    2.211253
  H      1.417852    2.586619    1.788139
  H      2.866461    2.674293    2.800632
  H      3.015922    2.485489    1.044629
  H     -5.154121    0.369553   -2.003989
  H     -3.649869   -0.544949   -2.332245
  H     -3.606434    1.238495   -2.226959
  H     -3.643778   -0.649920    3.346653
  H     -3.014335   -1.716671    2.053329
  H     -4.574044   -0.874598    1.829812

 Total Charge           Charge          ....    0
 Multiplicity           Mult            ....    1
 Number of Electrons    NEL             ....  174
 Basis Dimension        Dim             ....  510

ORBITAL ENERGIES
----------------

  NO   OCC          E(Eh)            E(eV)
   0   2.0000     -88.579530     -2410.3716
   1   2.0000     -88.524488     -2408.8738
   2   2.0000     -76.919735     -2093.0924
   3   2.0000     -19.017885      -517.5030
   4   2.0000     -19.008794      -517.2556
   5   2.0000     -18.994828      -516.8756
   6   2.0000     -18.988338      -516.6990
   7   2.0000     -18.952886      -515.7342
   8   2.0000     -18.948367      -515.6113
   9   2.0000     -10.176098      -276.9057
  10   2.0000     -10.172953      -276.8201
  11   2.0000     -10.098132      -274.7841
  12   2.0000     -10.089899      -274.5601
  13   2.0000     -10.086010      -274.4543
  14   2.0000     -10.084563      -274.4149
  15   2.0000     -10.078488      -274.2496
  16   2.0000     -10.059817      -273.7415
  17   2.0000     -10.020884      -272.6821
  18   2.0000     -10.019586      -272.6468
  19   2.0000      -7.873708      -214.2545
  20   2.0000      -7.819704      -212.7850
  21   2.0000      -6.597519      -179.5276
  22   2.0000      -5.820548      -158.3852
  23   2.0000      -5.817677      -158.3070
  24   2.0000      -5.810775      -158.1192
  25   2.0000      -5.767514      -156.9420
  26   2.0000      -5.760175      -156.7423
  27   2.0000      -5.759261      -156.7175
  28   2.0000      -4.743274      -129.0710
  29   2.0000      -4.742616      -129.0532
  30   2.0000      -4.741041      -129.0103
  31   2.0000      -1.097241       -29.8574
  32   2.0000      -1.086289       -29.5594
  33   2.0000      -1.051045       -28.6004
  34   2.0000      -1.007112       -27.4049
  35   2.0000      -1.002645       -27.2834
  36   2.0000      -0.996677       -27.1210
  37   2.0000      -0.813854       -22.1461
  38   2.0000      -0.751329       -20.4447
  39   2.0000      -0.745577       -20.2882
  40   2.0000      -0.728582       -19.8257
  41   2.0000      -0.697166       -18.9709
  42   2.0000      -0.667061       -18.1516
  43   2.0000      -0.659411       -17.9435
  44   2.0000      -0.654763       -17.8170
  45   2.0000      -0.625886       -17.0312
  46   2.0000      -0.597207       -16.2508
  47   2.0000      -0.539135       -14.6706
  48   2.0000      -0.528220       -14.3736
  49   2.0000      -0.525756       -14.3065
  50   2.0000      -0.497742       -13.5443
  51   2.0000      -0.497024       -13.5247
  52   2.0000      -0.488633       -13.2964
  53   2.0000      -0.475975       -12.9519
  54   2.0000      -0.462066       -12.5735
  55   2.0000      -0.456417       -12.4197
  56   2.0000      -0.448734       -12.2107
  57   2.0000      -0.444414       -12.0931
  58   2.0000      -0.438382       -11.9290
  59   2.0000      -0.427033       -11.6202
  60   2.0000      -0.423275       -11.5179
  61   2.0000      -0.415913       -11.3176
  62   2.0000      -0.407628       -11.0921
  63   2.0000      -0.404214       -10.9992
  64   2.0000      -0.394049       -10.7226
  65   2.0000      -0.378952       -10.3118
  66   2.0000      -0.370723       -10.0879
  67   2.0000      -0.369822       -10.0634
  68   2.0000      -0.361088        -9.8257
  69   2.0000      -0.352273        -9.5858
  70   2.0000      -0.351854        -9.5744
  71   2.0000      -0.340515        -9.2659
  72   2.0000      -0.339680        -9.2432
  73   2.0000      -0.331332        -9.0160
  74   2.0000      -0.319018        -8.6809
  75   2.0000      -0.312992        -8.5169
  76   2.0000      -0.309995        -8.4354
  77   2.0000      -0.307372        -8.3640
  78   2.0000      -0.291665        -7.9366
  79   2.0000      -0.287827        -7.8322
  80   2.0000      -0.282362        -7.6835
  81   2.0000      -0.276402        -7.5213
  82   2.0000      -0.263735        -7.1766
  83   2.0000      -0.258413        -7.0318
  84   2.0000      -0.242457        -6.5976
  85   2.0000      -0.226910        -6.1745
  86   2.0000      -0.218772        -5.9531
  87   0.0000      -0.051797        -1.4095
  88   0.0000      -0.038278        -1.0416
  89   0.0000      -0.022063        -0.6004
  90   0.0000       0.003079         0.0838
  91   0.0000       0.016895         0.4597

MULLIKEN ATOMIC CHARGES
-----------------------
   0 C :   -0.510279
   1 C :   -0.127161
   2 O :   -0.176678
   3 C :    0.335461
   4 O :   -0.475730
   5 C :   -0.385836
   6 C :   -0.023164
   7 H :    0.274976
   8 C :    0.293492
   9 O :   -0.452986
  10 O :   -0.108997
  11 C :   -0.141142
  12 C :   -0.500556
  13 S :   -0.206510
  14 P :    0.817019
  15 S :   -0.519851
  16 O :   -0.394439
  17 C :   -0.309182
  18 O :   -0.351167
  19 C :   -0.296759
  20 H :    0.172966
  21 H :    0.172281
  22 H :    0.169884
  23 H :    0.176476
  24 H :    0.175053
  25 H :    0.219568
  26 H :    0.222233
  27 H :    0.179465
  28 H :    0.184894
  29 H :    0.170030
  30 H :    0.176372
  31 H :    0.171311
  32 H :    0.177107
  33 H :    0.172815
  34 H :    0.175345
  35 H :    0.181982
  36 H :    0.177730
  37 H :    0.183977
Sum of atomic charges:   -0.0000000

LOEWDIN ATOMIC CHARGES
----------------------
   0 C :   -0.390915
   1 C :    0.037396
   2 O :   -0.579742
   3 C :    0.365695
   4 O :   -0.481518
   5 C :   -0.194230
   6 C :   -0.200395
   7 H :    0.223708
   8 C :    0.366128
   9 O :   -0.491579
  10 O :   -0.566702
  11 C :    0.043283
  12 C :   -0.389772
  13 S :    0.205810
  14 P :    0.406634
  15 S :   -0.133748
  16 O :   -0.708090
  17 C :   -0.060823
  18 O :   -0.670157
  19 C :   -0.041876
  20 H :    0.168555
  21 H :    0.164235
  22 H :    0.163267
  23 H :    0.190533
  24 H :    0.190999
  25 H :    0.203296
  26 H :    0.205559
  27 H :    0.194231
  28 H :    0.193251
  29 H :    0.164016
  30 H :    0.170153
  31 H :    0.163526
  32 H :    0.187172
  33 H :    0.174652
  34 H :    0.176409
  35 H :    0.191265
  36 H :    0.178723
  37 H :    0.181054

  Mayer bond orders larger than 0.100000
B(  0-C ,  1-C ) :   0.9291 B(  0-C , 20-H ) :   0.9597 B(  0-C , 21-H ) :   0.9664
B(  0-C , 22-H ) :   0.9671 B(  1-C ,  2-O ) :   0.7899 B(  1-C , 23-H ) :   0.9512
B(  1-C , 24-H ) :   0.9649 B(  2-O ,  3-C ) :   1.1058 B(  3-C ,  4-O ) :   1.8118
B(  3-C ,  5-C ) :   0.9154 B(  5-C ,  6-C ) :   0.8488 B(  5-C , 25-H ) :   0.9785
B(  5-C , 26-H ) :   0.9277 B(  6-C ,  7-H ) :   0.8861 B(  6-C ,  8-C ) :   0.9735
B(  6-C , 13-S ) :   0.8653 B(  8-C ,  9-O ) :   1.7741 B(  8-C , 10-O ) :   1.1906
B(  9-O , 14-P ) :   0.1081 B( 10-O , 11-C ) :   0.7407 B( 11-C , 12-C ) :   0.9156
B( 11-C , 27-H ) :   0.9537 B( 11-C , 28-H ) :   0.9525 B( 12-C , 29-H ) :   0.9679
B( 12-C , 30-H ) :   0.9599 B( 12-C , 31-H ) :   0.9728 B( 13-S , 14-P ) :   0.9932
B( 14-P , 15-S ) :   1.7763 B( 14-P , 16-O ) :   1.0036 B( 14-P , 18-O ) :   1.1786
B( 16-O , 17-C ) :   0.8302 B( 17-C , 32-H ) :   0.9590 B( 17-C , 33-H ) :   0.9502
B( 17-C , 34-H ) :   0.9551 B( 18-O , 19-C ) :   0.7886 B( 19-C , 35-H ) :   0.9547
B( 19-C , 36-H ) :   0.9490 B( 19-C , 37-H ) :   0.9535

Dispersion correction           -0.017241310
FINAL SINGLE POINT ENERGY     -1981.464608300026

DIPOLE MOMENT
-------------

Method             : SCF
Type of density    : Electron Density
Multiplicity       :   1
Irrep              :   0
Energy             : -1981.4850401537435118 Eh
Relativity type    :
Basis              : AO
                                X                 Y                 Z
Electronic contribution:    -17.580247746      -0.923719387      -2.612671588
Nuclear contribution   :     19.121707034      -1.631282671       2.907693114
                        -----------------------------------------
Total Dipole Moment    :      1.541459288      -2.555002059       0.295021527
                        -----------------------------------------
Magnitude (a.u.)       :      2.998527965
Magnitude (Debye)      :      7.621652384

Rotational constants in cm-1:             0.017581             0.005680             0.005148
Rotational constants in MHz :           527.074598           170.290169           154.318625

                             ****ORCA TERMINATED NORMALLY****
TOTAL RUN TIME: 0 days 0 hours 1 minutes 49 seconds 979 msec
