                         Program Version 6.0.0  -   RELEASE  -
|  1> ! pbe def2-sv(p) def2/J RI DEFGRID1 loosescf d4 GCP(DFT/SV(P)) printgap
|  2> %output
|  3>     printlevel normal
|  4> end
|  5> * xyz 0 1
|  6> C 3.4858241718 1.4721448481 -2.3107156849
|  7> C 2.2706827449 0.568463218 -2.3053291037
|  8> O 2.4410311634 -0.5178328548 -1.3789386242
|  9> P 2.3321198238 -0.3451051709 0.191118064
| 10> S 1.311820613 1.235982181 0.7656729393
| 11> O 3.8677550114 -0.3877502374 0.5861654839
| 12> C 4.39968976 -0.7561256324 1.8724544076
| 13> C 3.7571316009 0.0019955666 3.015666616
| 14> S 1.6189057726 -2.2431945621 0.7892986699
| 15> C -0.1493113819 -1.8824524001 0.7461015642
| 16> S -0.6834123377 -1.2734262112 -0.8933000943
| 17> P -2.2592415469 -0.0095202641 -0.2613294804
| 18> S -2.2940823784 0.5454392575 1.6212298173
| 19> O -3.4688522769 -0.9235743751 -0.7136846991
| 20> C -4.805173114 -0.7456609112 -0.1995510132
| 21> C -5.434106284 0.5389686947 -0.6958725786
| 22> O -2.2879984362 1.13599599 -1.3607654096
| 23> C -1.5841482457 2.3886373704 -1.2469150989
| 24> C -2.5111776881 3.4721137617 -0.731236429
| 25> H 4.378371751 0.8965913274 -2.5395259864
| 26> H 3.3554742424 2.2541288158 -3.0519034113
| 27> H 3.6045797919 1.9266194742 -1.3274454172
| 28> H 2.1173545231 0.0768478854 -3.266618385
| 29> H 1.3704993551 1.1287513757 -2.0295815838
| 30> H 4.2652119852 -1.8339705249 1.9980183645
| 31> H 5.4622582173 -0.5218552936 1.7861466242
| 32> H 4.2540167059 -0.2568100889 3.9450735921
| 33> H 3.8346103198 1.0746972215 2.8530109818
| 34> H 2.7021623797 -0.2590779755 3.0949714722
| 35> H -0.390951455 -1.1165694055 1.4890959921
| 36> H -0.6537583542 -2.8194292322 0.9690084201
| 37> H -5.3403474035 -1.6257464826 -0.5582734335
| 38> H -4.7575033525 -0.7556802018 0.8940746829
| 39> H -4.9027317944 1.3938307972 -0.2806783917
| 40> H -5.3843594264 0.5860422348 -1.7805515571
| 41> H -6.4711828685 0.5790432259 -0.3777201903
| 42> H -0.7237312033 2.2727575029 -0.5818835927
| 43> H -1.2399166407 2.6072322381 -2.2595830014
| 44> H -2.8291045122 3.2389790591 0.2830097172
| 45> H -1.9793987273 4.4179544998 -0.7211414516
| 46> H -3.3853347628 3.5548801432 -1.3711935757
| 47> *
| 48>
| 49>                          ****END OF INPUT****

CARTESIAN COORDINATES (ANGSTROEM)
---------------------------------
  C      3.485824    1.472145   -2.310716
  C      2.270683    0.568463   -2.305329
  O      2.441031   -0.517833   -1.378939
  P      2.332120   -0.345105    0.191118
  S      1.311821    1.235982    0.765673
  O      3.867755   -0.387750    0.586165
  C      4.399690   -0.756126    1.872454
  C      3.757132    0.001996    3.015667
  S      1.618906   -2.243195    0.789299
  C     -0.149311   -1.882452    0.746102
  S     -0.683412   -1.273426   -0.893300
  P     -2.259242   -0.009520   -0.261329
  S     -2.294082    0.545439    1.621230
  O     -3.468852   -0.923574   -0.713685
  C     -4.805173   -0.745661   -0.199551
  C     -5.434106    0.538969   -0.695873
  O     -2.287998    1.135996   -1.360765
  C     -1.584148    2.388637   -1.246915
  C     -2.511178    3.472114   -0.731236
  H      4.378372    0.896591   -2.539526
  H      3.355474    2.254129   -3.051903
  H      3.604580    1.926619   -1.327445
  H      2.117355    0.076848   -3.266618
  H      1.370499    1.128751   -2.029582
  H      4.265212   -1.833971    1.998018
  H      5.462258   -0.521855    1.786147
  H      4.254017   -0.256810    3.945074
  H      3.834610    1.074697    2.853011
  H      2.702162   -0.259078    3.094971
  H     -0.390951   -1.116569    1.489096
  H     -0.653758   -2.819429    0.969008
  H     -5.340347   -1.625746   -0.558273
  H     -4.757503   -0.755680    0.894075
  H     -4.902732    1.393831   -0.280678
  H     -5.384359    0.586042   -1.780552
  H     -6.471183    0.579043   -0.377720
  H     -0.723731    2.272758   -0.581884
  H     -1.239917    2.607232   -2.259583
  H     -2.829105    3.238979    0.283010
  H     -1.979399    4.417954   -0.721141
  H     -3.385335    3.554880   -1.371194

 Total Charge           Charge          ....    0
 Multiplicity           Mult            ....    1
 Number of Electrons    NEL             ....  202
 Basis Dimension        Dim             ....  334

ORBITAL ENERGIES
----------------

  NO   OCC          E(Eh)            E(eV)
   0   2.0000     -88.046307     -2395.8618
   1   2.0000     -88.036702     -2395.6004
   2   2.0000     -87.987369     -2394.2580
   3   2.0000     -87.983741     -2394.1593
   4   2.0000     -76.426919     -2079.6822
   5   2.0000     -76.423454     -2079.5879
   6   2.0000     -18.792964      -511.3826
   7   2.0000     -18.790323      -511.3107
   8   2.0000     -18.785580      -511.1816
   9   2.0000     -18.785263      -511.1730
  10   2.0000      -9.958408      -270.9821
  11   2.0000      -9.952708      -270.8269
  12   2.0000      -9.949241      -270.7326
  13   2.0000      -9.947823      -270.6940
  14   2.0000      -9.947486      -270.6849
  15   2.0000      -9.883017      -268.9306
  16   2.0000      -9.882913      -268.9277
  17   2.0000      -9.880463      -268.8611
  18   2.0000      -9.879720      -268.8408
  19   2.0000      -7.691673      -209.3010
  20   2.0000      -7.681717      -209.0301
  21   2.0000      -7.632258      -207.6843
  22   2.0000      -7.628318      -207.5771
  23   2.0000      -6.423910      -174.8035
  24   2.0000      -6.421169      -174.7289
  25   2.0000      -5.719565      -155.6373
  26   2.0000      -5.716083      -155.5425
  27   2.0000      -5.709648      -155.3674
  28   2.0000      -5.708697      -155.3415
  29   2.0000      -5.706500      -155.2818
  30   2.0000      -5.698341      -155.0598
  31   2.0000      -5.660997      -154.0436
  32   2.0000      -5.657190      -153.9400
  33   2.0000      -5.653025      -153.8266
  34   2.0000      -5.652453      -153.8111
  35   2.0000      -5.649023      -153.7177
  36   2.0000      -5.648477      -153.7029
  37   2.0000      -4.646317      -126.4327
  38   2.0000      -4.645918      -126.4219
  39   2.0000      -4.644381      -126.3800
  40   2.0000      -4.643528      -126.3568
  41   2.0000      -4.642783      -126.3365
  42   2.0000      -4.641954      -126.3140
  43   2.0000      -0.985539       -26.8179
  44   2.0000      -0.983172       -26.7535
  45   2.0000      -0.943752       -25.6808
  46   2.0000      -0.941961       -25.6321
  47   2.0000      -0.762100       -20.7378
  48   2.0000      -0.720626       -19.6092
  49   2.0000      -0.707510       -19.2523
  50   2.0000      -0.685693       -18.6586
  51   2.0000      -0.684212       -18.6184
  52   2.0000      -0.671920       -18.2839
  53   2.0000      -0.652228       -17.7480
  54   2.0000      -0.636568       -17.3219
  55   2.0000      -0.599980       -16.3263
  56   2.0000      -0.592994       -16.1362
  57   2.0000      -0.573182       -15.5971
  58   2.0000      -0.566148       -15.4057
  59   2.0000      -0.560450       -15.2506
  60   2.0000      -0.499252       -13.5853
  61   2.0000      -0.490820       -13.3559
  62   2.0000      -0.472804       -12.8656
  63   2.0000      -0.468859       -12.7583
  64   2.0000      -0.450727       -12.2649
  65   2.0000      -0.445247       -12.1158
  66   2.0000      -0.434523       -11.8240
  67   2.0000      -0.433824       -11.8049
  68   2.0000      -0.428021       -11.6470
  69   2.0000      -0.416775       -11.3410
  70   2.0000      -0.409098       -11.1321
  71   2.0000      -0.398231       -10.8364
  72   2.0000      -0.389413       -10.5965
  73   2.0000      -0.387059       -10.5324
  74   2.0000      -0.384963       -10.4754
  75   2.0000      -0.375329       -10.2132
  76   2.0000      -0.370732       -10.0881
  77   2.0000      -0.355170        -9.6647
  78   2.0000      -0.348073        -9.4715
  79   2.0000      -0.346611        -9.4318
  80   2.0000      -0.346224        -9.4212
  81   2.0000      -0.340533        -9.2664
  82   2.0000      -0.337266        -9.1775
  83   2.0000      -0.336645        -9.1606
  84   2.0000      -0.331532        -9.0215
  85   2.0000      -0.314708        -8.5636
  86   2.0000      -0.311826        -8.4852
  87   2.0000      -0.296806        -8.0765
  88   2.0000      -0.292661        -7.9637
  89   2.0000      -0.284929        -7.7533
  90   2.0000      -0.281504        -7.6601
  91   2.0000      -0.274884        -7.4800
  92   2.0000      -0.271218        -7.3802
  93   2.0000      -0.262100        -7.1321
  94   2.0000      -0.259321        -7.0565
  95   2.0000      -0.231516        -6.2999
  96   2.0000      -0.224880        -6.1193
  97   2.0000      -0.212486        -5.7820
  98   2.0000      -0.201124        -5.4728
  99   2.0000      -0.195588        -5.3222
 100   2.0000      -0.189431        -5.1547
 101   0.0000      -0.044185        -1.2023
 102   0.0000      -0.031443        -0.8556
 103   0.0000      -0.011296        -0.3074
 104   0.0000       0.014777         0.4021
 105   0.0000       0.018356         0.4995

MULLIKEN ATOMIC CHARGES
-----------------------
   0 C :   -0.298142
   1 C :   -0.013300
   2 O :   -0.357639
   3 P :    0.610478
   4 S :   -0.325046
   5 O :   -0.369186
   6 C :   -0.010188
   7 C :   -0.312435
   8 S :   -0.102235
   9 C :   -0.350866
  10 S :   -0.094114
  11 P :    0.625809
  12 S :   -0.324007
  13 O :   -0.366143
  14 C :   -0.003480
  15 C :   -0.316230
  16 O :   -0.378583
  17 C :   -0.046194
  18 C :   -0.287969
  19 H :    0.115107
  20 H :    0.107498
  21 H :    0.120886
  22 H :    0.104730
  23 H :    0.114729
  24 H :    0.113965
  25 H :    0.109907
  26 H :    0.111403
  27 H :    0.126942
  28 H :    0.129465
  29 H :    0.210793
  30 H :    0.181595
  31 H :    0.104842
  32 H :    0.109099
  33 H :    0.129542
  34 H :    0.117951
  35 H :    0.110827
  36 H :    0.145591
  37 H :    0.104261
  38 H :    0.128624
  39 H :    0.109442
  40 H :    0.112271
Sum of atomic charges:   -0.0000000

LOEWDIN ATOMIC CHARGES
----------------------
   0 C :   -0.363080
   1 C :   -0.119555
   2 O :   -0.237210
   3 P :    0.570300
   4 S :   -0.304020
   5 O :   -0.243160
   6 C :   -0.113336
   7 C :   -0.369684
   8 S :    0.082675
   9 C :   -0.476698
  10 S :    0.077757
  11 P :    0.572604
  12 S :   -0.302574
  13 O :   -0.244985
  14 C :   -0.117240
  15 C :   -0.365355
  16 O :   -0.245220
  17 C :   -0.121727
  18 C :   -0.361054
  19 H :    0.125808
  20 H :    0.128107
  21 H :    0.122617
  22 H :    0.118872
  23 H :    0.106321
  24 H :    0.109929
  25 H :    0.121962
  26 H :    0.129967
  27 H :    0.129878
  28 H :    0.122319
  29 H :    0.122350
  30 H :    0.134768
  31 H :    0.118608
  32 H :    0.109309
  33 H :    0.123884
  34 H :    0.126853
  35 H :    0.129938
  36 H :    0.106895
  37 H :    0.115633
  38 H :    0.124819
  39 H :    0.130030
  40 H :    0.122694

  Mayer bond orders larger than 0.100000
B(  0-C ,  1-C ) :   1.1632 B(  0-C , 19-H ) :   0.9467 B(  0-C , 20-H ) :   0.9406
B(  0-C , 21-H ) :   0.9361 B(  1-C ,  2-O ) :   0.9040 B(  1-C , 22-H ) :   0.9338
B(  1-C , 23-H ) :   0.9094 B(  2-O ,  3-P ) :   1.1255 B(  3-P ,  4-S ) :   1.5929
B(  3-P ,  5-O ) :   1.1198 B(  3-P ,  8-S ) :   0.9468 B(  4-S ,  8-S ) :   0.1110
B(  5-O ,  6-C ) :   0.9132 B(  6-C ,  7-C ) :   1.1638 B(  6-C , 24-H ) :   0.9285
B(  6-C , 25-H ) :   0.9342 B(  7-C , 26-H ) :   0.9348 B(  7-C , 27-H ) :   0.9421
B(  7-C , 28-H ) :   0.9336 B(  8-S ,  9-C ) :   1.0073 B(  9-C , 10-S ) :   0.9924
B(  9-C , 29-H ) :   0.8522 B(  9-C , 30-H ) :   0.9099 B( 10-S , 11-P ) :   0.9542
B( 10-S , 12-S ) :   0.1193 B( 11-P , 12-S ) :   1.5972 B( 11-P , 13-O ) :   1.1309
B( 11-P , 16-O ) :   1.1188 B( 13-O , 14-C ) :   0.9134 B( 14-C , 15-C ) :   1.1622
B( 14-C , 31-H ) :   0.9351 B( 14-C , 32-H ) :   0.9160 B( 15-C , 33-H ) :   0.9338
B( 15-C , 34-H ) :   0.9462 B( 15-C , 35-H ) :   0.9379 B( 16-O , 17-C ) :   0.8933
B( 17-C , 18-C ) :   1.1686 B( 17-C , 36-H ) :   0.8936 B( 17-C , 37-H ) :   0.9333
B( 18-C , 38-H ) :   0.9324 B( 18-C , 39-H ) :   0.9394 B( 18-C , 40-H ) :   0.9432

Dispersion correction           -0.065881734
FINAL SINGLE POINT ENERGY     -2929.518493040049

DIPOLE MOMENT
-------------

Method             : SCF
Type of density    : Electron Density
Multiplicity       :   1
Irrep              :   0
Energy             : -2929.6364761285353779 Eh
Relativity type    :
Basis              : AO
                                X                 Y                 Z
Electronic contribution:      2.763423554     -16.063838865       2.312668229
Nuclear contribution   :     -2.601581988      16.136137747      -2.704301708
                        -----------------------------------------
Total Dipole Moment    :      0.161841565       0.072298882      -0.391633479
                        -----------------------------------------
Magnitude (a.u.)       :      0.429879754
Magnitude (Debye)      :      1.092667499

Rotational constants in cm-1:             0.013308             0.004835             0.004480
Rotational constants in MHz :           398.973533           144.935363           134.293821

                             ****ORCA TERMINATED NORMALLY****
TOTAL RUN TIME: 0 days 0 hours 0 minutes 20 seconds 992 msec
