                         Program Version 6.0.0  -   RELEASE  -
|  1> ! pbe def2-sv(p) def2/J RI DEFGRID1 loosescf d4 GCP(DFT/SV(P)) printgap
|  2> %output
|  3>     printlevel normal
|  4> end
|  5> * xyz 0 1
|  6> C 3.409533033 -2.1308189903 1.8899911099
|  7> C 2.0098988969 -2.0507861989 1.3155406345
|  8> O 1.6633458468 -0.6948906323 0.9736733132
|  9> P 2.3070220042 0.0378256067 -0.2955739873
| 10> S 2.9044536186 -1.1331890698 -1.7386031506
| 11> O 3.4821188803 0.9496505278 0.2460771419
| 12> C 3.3094224475 1.8763625185 1.3479753532
| 13> C 4.675886714 2.4241877753 1.7023831751
| 14> S 0.7583625526 1.4154344034 -0.7461798548
| 15> C -0.1791560283 0.2823551181 -1.8037115155
| 16> S -0.9951334466 -1.038725346 -0.8821423395
| 17> P -2.5868705232 0.1757749437 -0.1323439329
| 18> S -3.3475642409 1.4508951208 -1.4025440635
| 19> O -2.0064879149 0.8960943422 1.1421595924
| 20> C -1.4651547473 0.1814138205 2.2821006061
| 21> C -0.5366315144 1.1257231474 3.0159293605
| 22> O -3.5910057799 -0.8750018449 0.5115542007
| 23> C -4.6425615068 -1.5133929943 -0.2368088325
| 24> C -4.1080693578 -2.4143239623 -1.3307822282
| 25> H 4.1297886366 -1.7955561111 1.1436514382
| 26> H 3.4961679326 -1.5035790141 2.7733306542
| 27> H 3.6323387185 -3.1591578137 2.1562963559
| 28> H 1.2532306006 -2.3476786572 2.0429594971
| 29> H 1.9233643589 -2.6700006728 0.4174108332
| 30> H 2.6308925053 2.6692460288 1.0213804119
| 31> H 2.8621763153 1.3390263791 2.1878547476
| 32> H 5.3364657256 1.6171555659 2.0059932082
| 33> H 5.1101517646 2.9245693321 0.8417982648
| 34> H 4.5743533049 3.1334978912 2.5173862186
| 35> H 0.5012445623 -0.1939562281 -2.5100743247
| 36> H -0.9335129073 0.8809472524 -2.316404844
| 37> H -2.3043020916 -0.1319067675 2.9057241041
| 38> H -0.9333112751 -0.7030172432 1.9187166567
| 39> H -1.076166742 2.0199603076 3.3136798374
| 40> H -0.143456871 0.6288524951 3.8968425681
| 41> H 0.2843938889 1.4161542744 2.3650524896
| 42> H -5.1899422108 -2.0780459709 0.5193315672
| 43> H -5.2847168037 -0.7349088822 -0.6593661293
| 44> H -3.6276474896 -1.8169829175 -2.104386275
| 45> H -3.3811039286 -3.1141132615 -0.9260022399
| 46> H -4.9311149578 -2.9651513531 -1.7746024092
| 47> *
| 48>
| 49>                          ****END OF INPUT****

CARTESIAN COORDINATES (ANGSTROEM)
---------------------------------
  C      3.409533   -2.130819    1.889991
  C      2.009899   -2.050786    1.315541
  O      1.663346   -0.694891    0.973673
  P      2.307022    0.037826   -0.295574
  S      2.904454   -1.133189   -1.738603
  O      3.482119    0.949651    0.246077
  C      3.309422    1.876363    1.347975
  C      4.675887    2.424188    1.702383
  S      0.758363    1.415434   -0.746180
  C     -0.179156    0.282355   -1.803712
  S     -0.995133   -1.038725   -0.882142
  P     -2.586871    0.175775   -0.132344
  S     -3.347564    1.450895   -1.402544
  O     -2.006488    0.896094    1.142160
  C     -1.465155    0.181414    2.282101
  C     -0.536632    1.125723    3.015929
  O     -3.591006   -0.875002    0.511554
  C     -4.642562   -1.513393   -0.236809
  C     -4.108069   -2.414324   -1.330782
  H      4.129789   -1.795556    1.143651
  H      3.496168   -1.503579    2.773331
  H      3.632339   -3.159158    2.156296
  H      1.253231   -2.347679    2.042959
  H      1.923364   -2.670001    0.417411
  H      2.630893    2.669246    1.021380
  H      2.862176    1.339026    2.187855
  H      5.336466    1.617156    2.005993
  H      5.110152    2.924569    0.841798
  H      4.574353    3.133498    2.517386
  H      0.501245   -0.193956   -2.510074
  H     -0.933513    0.880947   -2.316405
  H     -2.304302   -0.131907    2.905724
  H     -0.933311   -0.703017    1.918717
  H     -1.076167    2.019960    3.313680
  H     -0.143457    0.628852    3.896843
  H      0.284394    1.416154    2.365052
  H     -5.189942   -2.078046    0.519332
  H     -5.284717   -0.734909   -0.659366
  H     -3.627647   -1.816983   -2.104386
  H     -3.381104   -3.114113   -0.926002
  H     -4.931115   -2.965151   -1.774602

 Total Charge           Charge          ....    0
 Multiplicity           Mult            ....    1
 Number of Electrons    NEL             ....  202
 Basis Dimension        Dim             ....  334

ORBITAL ENERGIES
----------------

  NO   OCC          E(Eh)            E(eV)
   0   2.0000     -88.041544     -2395.7322
   1   2.0000     -88.041083     -2395.7197
   2   2.0000     -87.990761     -2394.3503
   3   2.0000     -87.986228     -2394.2270
   4   2.0000     -76.428620     -2079.7285
   5   2.0000     -76.425931     -2079.6553
   6   2.0000     -18.799912      -511.5716
   7   2.0000     -18.796183      -511.4701
   8   2.0000     -18.795937      -511.4635
   9   2.0000     -18.789927      -511.2999
  10   2.0000      -9.965575      -271.1771
  11   2.0000      -9.955847      -270.9124
  12   2.0000      -9.955814      -270.9115
  13   2.0000      -9.953813      -270.8570
  14   2.0000      -9.951241      -270.7870
  15   2.0000      -9.896524      -269.2981
  16   2.0000      -9.890851      -269.1437
  17   2.0000      -9.887258      -269.0460
  18   2.0000      -9.885531      -268.9990
  19   2.0000      -7.686803      -209.1686
  20   2.0000      -7.685836      -209.1422
  21   2.0000      -7.635999      -207.7861
  22   2.0000      -7.631530      -207.6645
  23   2.0000      -6.426648      -174.8780
  24   2.0000      -6.423533      -174.7932
  25   2.0000      -5.714514      -155.4998
  26   2.0000      -5.713548      -155.4736
  27   2.0000      -5.711560      -155.4194
  28   2.0000      -5.710447      -155.3892
  29   2.0000      -5.703662      -155.2045
  30   2.0000      -5.702910      -155.1841
  31   2.0000      -5.665037      -154.1535
  32   2.0000      -5.660486      -154.0297
  33   2.0000      -5.656667      -153.9257
  34   2.0000      -5.655929      -153.9056
  35   2.0000      -5.652107      -153.8016
  36   2.0000      -5.651656      -153.7894
  37   2.0000      -4.649576      -126.5214
  38   2.0000      -4.648025      -126.4792
  39   2.0000      -4.647114      -126.4544
  40   2.0000      -4.646465      -126.4367
  41   2.0000      -4.645149      -126.4009
  42   2.0000      -4.643806      -126.3644
  43   2.0000      -0.991053       -26.9679
  44   2.0000      -0.989038       -26.9131
  45   2.0000      -0.950540       -25.8655
  46   2.0000      -0.945384       -25.7252
  47   2.0000      -0.764682       -20.8080
  48   2.0000      -0.726213       -19.7613
  49   2.0000      -0.714556       -19.4441
  50   2.0000      -0.697296       -18.9744
  51   2.0000      -0.690543       -18.7906
  52   2.0000      -0.676738       -18.4150
  53   2.0000      -0.652707       -17.7611
  54   2.0000      -0.639771       -17.4091
  55   2.0000      -0.598756       -16.2930
  56   2.0000      -0.591224       -16.0880
  57   2.0000      -0.579834       -15.7781
  58   2.0000      -0.571910       -15.5625
  59   2.0000      -0.561327       -15.2745
  60   2.0000      -0.512654       -13.9500
  61   2.0000      -0.504290       -13.7224
  62   2.0000      -0.486084       -13.2270
  63   2.0000      -0.475392       -12.9361
  64   2.0000      -0.462555       -12.5868
  65   2.0000      -0.448946       -12.2165
  66   2.0000      -0.447537       -12.1781
  67   2.0000      -0.439623       -11.9627
  68   2.0000      -0.431655       -11.7459
  69   2.0000      -0.418647       -11.3920
  70   2.0000      -0.409120       -11.1327
  71   2.0000      -0.399440       -10.8693
  72   2.0000      -0.393740       -10.7142
  73   2.0000      -0.391169       -10.6442
  74   2.0000      -0.377997       -10.2858
  75   2.0000      -0.373869       -10.1735
  76   2.0000      -0.365058        -9.9337
  77   2.0000      -0.363206        -9.8833
  78   2.0000      -0.362531        -9.8650
  79   2.0000      -0.356656        -9.7051
  80   2.0000      -0.353157        -9.6099
  81   2.0000      -0.346409        -9.4263
  82   2.0000      -0.345446        -9.4001
  83   2.0000      -0.340510        -9.2658
  84   2.0000      -0.338049        -9.1988
  85   2.0000      -0.324074        -8.8185
  86   2.0000      -0.319258        -8.6874
  87   2.0000      -0.314204        -8.5499
  88   2.0000      -0.301986        -8.2175
  89   2.0000      -0.296127        -8.0580
  90   2.0000      -0.286518        -7.7966
  91   2.0000      -0.276413        -7.5216
  92   2.0000      -0.275011        -7.4834
  93   2.0000      -0.267111        -7.2684
  94   2.0000      -0.259809        -7.0698
  95   2.0000      -0.233010        -6.3405
  96   2.0000      -0.219070        -5.9612
  97   2.0000      -0.214092        -5.8258
  98   2.0000      -0.206007        -5.6057
  99   2.0000      -0.204155        -5.5553
 100   2.0000      -0.199976        -5.4416
 101   0.0000      -0.044394        -1.2080
 102   0.0000      -0.024258        -0.6601
 103   0.0000      -0.004577        -0.1245
 104   0.0000       0.001361         0.0370
 105   0.0000       0.011985         0.3261

MULLIKEN ATOMIC CHARGES
-----------------------
   0 C :   -0.312808
   1 C :   -0.011545
   2 O :   -0.382779
   3 P :    0.617071
   4 S :   -0.308105
   5 O :   -0.369490
   6 C :   -0.058840
   7 C :   -0.266428
   8 S :   -0.085605
   9 C :   -0.369779
  10 S :   -0.091984
  11 P :    0.601178
  12 S :   -0.312366
  13 O :   -0.353552
  14 C :   -0.017674
  15 C :   -0.291106
  16 O :   -0.386276
  17 C :    0.000677
  18 C :   -0.320741
  19 H :    0.131677
  20 H :    0.110486
  21 H :    0.115329
  22 H :    0.103793
  23 H :    0.115921
  24 H :    0.123093
  25 H :    0.119666
  26 H :    0.120002
  27 H :    0.126029
  28 H :    0.113473
  29 H :    0.195829
  30 H :    0.194121
  31 H :    0.105476
  32 H :    0.115112
  33 H :    0.117835
  34 H :    0.101820
  35 H :    0.127538
  36 H :    0.104808
  37 H :    0.113844
  38 H :    0.131781
  39 H :    0.117620
  40 H :    0.114901
Sum of atomic charges:   -0.0000000

LOEWDIN ATOMIC CHARGES
----------------------
   0 C :   -0.365564
   1 C :   -0.122528
   2 O :   -0.251753
   3 P :    0.571336
   4 S :   -0.302081
   5 O :   -0.243987
   6 C :   -0.119975
   7 C :   -0.347768
   8 S :    0.083393
   9 C :   -0.488257
  10 S :    0.079098
  11 P :    0.571967
  12 S :   -0.310419
  13 O :   -0.234474
  14 C :   -0.114677
  15 C :   -0.353792
  16 O :   -0.249757
  17 C :   -0.114958
  18 C :   -0.371463
  19 H :    0.126011
  20 H :    0.121139
  21 H :    0.132417
  22 H :    0.114055
  23 H :    0.110977
  24 H :    0.112883
  25 H :    0.110597
  26 H :    0.129209
  27 H :    0.132662
  28 H :    0.132015
  29 H :    0.129934
  30 H :    0.128456
  31 H :    0.113735
  32 H :    0.105025
  33 H :    0.128563
  34 H :    0.126158
  35 H :    0.120505
  36 H :    0.118668
  37 H :    0.114235
  38 H :    0.123161
  39 H :    0.123156
  40 H :    0.132098

  Mayer bond orders larger than 0.100000
B(  0-C ,  1-C ) :   1.1623 B(  0-C , 19-H ) :   0.9340 B(  0-C , 20-H ) :   0.9462
B(  0-C , 21-H ) :   0.9395 B(  1-C ,  2-O ) :   0.9062 B(  1-C , 22-H ) :   0.9295
B(  1-C , 23-H ) :   0.9123 B(  2-O ,  3-P ) :   1.0656 B(  3-P ,  4-S ) :   1.6360
B(  3-P ,  5-O ) :   1.1202 B(  3-P ,  8-S ) :   0.9688 B(  4-S ,  8-S ) :   0.1037
B(  5-O ,  6-C ) :   0.9008 B(  6-C ,  7-C ) :   1.1627 B(  6-C , 24-H ) :   0.9226
B(  6-C , 25-H ) :   0.9134 B(  7-C , 26-H ) :   0.9501 B(  7-C , 27-H ) :   0.9481
B(  7-C , 28-H ) :   0.9401 B(  8-S ,  9-C ) :   1.0059 B(  9-C , 10-S ) :   1.0068
B(  9-C , 29-H ) :   0.8727 B(  9-C , 30-H ) :   0.8666 B( 10-S , 11-P ) :   0.9458
B( 10-S , 12-S ) :   0.1076 B( 11-P , 12-S ) :   1.6377 B( 11-P , 13-O ) :   1.1448
B( 11-P , 16-O ) :   1.0882 B( 13-O , 14-C ) :   0.8888 B( 14-C , 15-C ) :   1.1682
B( 14-C , 31-H ) :   0.9309 B( 14-C , 32-H ) :   0.9048 B( 15-C , 33-H ) :   0.9468
B( 15-C , 34-H ) :   0.9410 B( 15-C , 35-H ) :   0.9350 B( 16-O , 17-C ) :   0.9061
B( 17-C , 18-C ) :   1.1660 B( 17-C , 36-H ) :   0.9345 B( 17-C , 37-H ) :   0.9202
B( 18-C , 38-H ) :   0.9341 B( 18-C , 39-H ) :   0.9435 B( 18-C , 40-H ) :   0.9367

Dispersion correction           -0.065203215
FINAL SINGLE POINT ENERGY     -2929.522250479566

DIPOLE MOMENT
-------------

Method             : SCF
Type of density    : Electron Density
Multiplicity       :   1
Irrep              :   0
Energy             : -2929.6428621971381290 Eh
Relativity type    :
Basis              : AO
                                X                 Y                 Z
Electronic contribution:     -7.509679607       5.661196610     -18.971480250
Nuclear contribution   :      7.702071213      -6.384397834      20.955605938
                        -----------------------------------------
Total Dipole Moment    :      0.192391606      -0.723201224       1.984125688
                        -----------------------------------------
Magnitude (a.u.)       :      2.120563436
Magnitude (Debye)      :      5.390043901

Rotational constants in cm-1:             0.012757             0.004766             0.004582
Rotational constants in MHz :           382.453416           142.883467           137.351187

                             ****ORCA TERMINATED NORMALLY****
TOTAL RUN TIME: 0 days 0 hours 0 minutes 22 seconds 93 msec
