                         Program Version 6.0.1  -  RELEASE   -
|  1> ! pbe def2-sv(p) def2/J RI DEFGRID1 loosescf d4 GCP(DFT/SV(P)) printgap
|  2> %output
|  3>     printlevel normal
|  4> end
|  5> * xyz 0 1
|  6> C 4.3156362306 -3.1826568501 -2.3689698655
|  7> C 3.0680092536 -3.2105104628 -1.5082201176
|  8> O 2.8350296223 -1.8764468274 -1.0154006129
|  9> C 1.9575059861 -1.7172036396 -0.0503901495
| 10> O 1.3411541003 -2.6199218236 0.4728997764
| 11> C 1.7776139336 -0.2520863512 0.3021900181
| 12> C 0.9632403618 0.4203913783 -0.8091303251
| 13> H 1.5614649009 0.4907672015 -1.7205643915
| 14> C 0.4985396756 1.8017608621 -0.3861509403
| 15> O -0.6795827933 2.0939412967 -0.3113760005
| 16> O 1.4941902012 2.5948707192 -0.1220657702
| 17> C 1.2061251708 3.9113764694 0.4033499037
| 18> C 1.0670994192 3.856094085 1.9155668524
| 19> S -0.514197074 -0.5454098799 -1.2839473198
| 20> P -1.8608101095 -0.0795223329 0.2916762791
| 21> S -1.2566585348 0.457222545 2.0872844666
| 22> O -3.0884371785 0.6981219834 -0.340165582
| 23> C -3.4671611561 2.0419692703 -0.0335963034
| 24> O -2.6366982716 -1.4837860665 0.3424819694
| 25> C -2.040631329 -2.6293613568 0.9547770413
| 26> H 4.1803805692 -2.4934255388 -3.1967032374
| 27> H 5.1695021224 -2.8618733097 -1.7798147645
| 28> H 4.5038058028 -4.1774394122 -2.7586061856
| 29> H 3.1744840634 -3.8826988932 -0.6512070093
| 30> H 2.1869739347 -3.5165270751 -2.0806774251
| 31> H 2.7481222414 0.2377018428 0.3728040502
| 32> H 1.251479969 -0.1880542682 1.2566155051
| 33> H 2.0610939053 4.515155005 0.1005340572
| 34> H 0.2884280795 4.2809267234 -0.060492548
| 35> H 1.9868516598 3.4956396744 2.3667718269
| 36> H 0.8482089539 4.8491875272 2.2930728719
| 37> H 0.2566738129 3.1855261613 2.1973535483
| 38> H -4.5548293315 2.0505083456 -0.0182141858
| 39> H -3.0826576531 2.7064865655 -0.8049140414
| 40> H -3.0695627721 2.3376021665 0.9385670932
| 41> H -2.7327489557 -3.4483225768 0.7796332018
| 42> H -1.9160915502 -2.4543748269 2.0247578897
| 43> H -1.0661151718 -2.8519080339 0.5152759163
| 44> *
| 45>
| 46>                          ****END OF INPUT****

CARTESIAN COORDINATES (ANGSTROEM)
---------------------------------
  C      4.315636   -3.182657   -2.368970
  C      3.068009   -3.210510   -1.508220
  O      2.835030   -1.876447   -1.015401
  C      1.957506   -1.717204   -0.050390
  O      1.341154   -2.619922    0.472900
  C      1.777614   -0.252086    0.302190
  C      0.963240    0.420391   -0.809130
  H      1.561465    0.490767   -1.720564
  C      0.498540    1.801761   -0.386151
  O     -0.679583    2.093941   -0.311376
  O      1.494190    2.594871   -0.122066
  C      1.206125    3.911376    0.403350
  C      1.067099    3.856094    1.915567
  S     -0.514197   -0.545410   -1.283947
  P     -1.860810   -0.079522    0.291676
  S     -1.256659    0.457223    2.087284
  O     -3.088437    0.698122   -0.340166
  C     -3.467161    2.041969   -0.033596
  O     -2.636698   -1.483786    0.342482
  C     -2.040631   -2.629361    0.954777
  H      4.180381   -2.493426   -3.196703
  H      5.169502   -2.861873   -1.779815
  H      4.503806   -4.177439   -2.758606
  H      3.174484   -3.882699   -0.651207
  H      2.186974   -3.516527   -2.080677
  H      2.748122    0.237702    0.372804
  H      1.251480   -0.188054    1.256616
  H      2.061094    4.515155    0.100534
  H      0.288428    4.280927   -0.060493
  H      1.986852    3.495640    2.366772
  H      0.848209    4.849188    2.293073
  H      0.256674    3.185526    2.197354
  H     -4.554829    2.050508   -0.018214
  H     -3.082658    2.706487   -0.804914
  H     -3.069563    2.337602    0.938567
  H     -2.732749   -3.448323    0.779633
  H     -1.916092   -2.454375    2.024758
  H     -1.066115   -2.851908    0.515276

 Total Charge           Charge          ....    0
 Multiplicity           Mult            ....    1
 Number of Electrons    NEL             ....  174
 Basis Dimension        Dim             ....  316

ORBITAL ENERGIES
----------------

  NO   OCC          E(Eh)            E(eV)
   0   2.0000     -88.033678     -2395.5182
   1   2.0000     -87.974138     -2393.8980
   2   2.0000     -76.417863     -2079.4358
   3   2.0000     -18.827579      -512.3245
   4   2.0000     -18.807815      -511.7867
   5   2.0000     -18.776980      -510.9476
   6   2.0000     -18.767464      -510.6887
   7   2.0000     -18.761430      -510.5245
   8   2.0000     -18.739726      -509.9339
   9   2.0000     -10.032623      -273.0015
  10   2.0000     -10.011416      -272.4245
  11   2.0000      -9.961711      -271.0719
  12   2.0000      -9.955889      -270.9135
  13   2.0000      -9.952463      -270.8203
  14   2.0000      -9.931008      -270.2365
  15   2.0000      -9.918015      -269.8829
  16   2.0000      -9.907945      -269.6089
  17   2.0000      -9.893892      -269.2265
  18   2.0000      -9.890937      -269.1461
  19   2.0000      -7.678580      -208.9448
  20   2.0000      -7.619114      -207.3266
  21   2.0000      -6.413542      -174.5214
  22   2.0000      -5.706738      -155.2882
  23   2.0000      -5.703196      -155.1918
  24   2.0000      -5.695133      -154.9724
  25   2.0000      -5.648171      -153.6946
  26   2.0000      -5.640057      -153.4738
  27   2.0000      -5.638758      -153.4384
  28   2.0000      -4.635887      -126.1489
  29   2.0000      -4.635746      -126.1451
  30   2.0000      -4.634195      -126.1029
  31   2.0000      -1.037129       -28.2217
  32   2.0000      -1.015520       -27.6337
  33   2.0000      -0.968650       -26.3583
  34   2.0000      -0.941255       -25.6128
  35   2.0000      -0.922058       -25.0905
  36   2.0000      -0.916371       -24.9357
  37   2.0000      -0.769046       -20.9268
  38   2.0000      -0.719180       -19.5699
  39   2.0000      -0.712609       -19.3911
  40   2.0000      -0.685383       -18.6502
  41   2.0000      -0.652754       -17.7623
  42   2.0000      -0.628844       -17.1117
  43   2.0000      -0.621909       -16.9230
  44   2.0000      -0.603399       -16.4193
  45   2.0000      -0.592071       -16.1111
  46   2.0000      -0.568315       -15.4646
  47   2.0000      -0.516207       -14.0467
  48   2.0000      -0.512584       -13.9481
  49   2.0000      -0.501486       -13.6461
  50   2.0000      -0.486898       -13.2492
  51   2.0000      -0.461947       -12.5702
  52   2.0000      -0.456629       -12.4255
  53   2.0000      -0.452970       -12.3259
  54   2.0000      -0.447675       -12.1819
  55   2.0000      -0.426778       -11.6132
  56   2.0000      -0.422605       -11.4997
  57   2.0000      -0.420102       -11.4316
  58   2.0000      -0.409283       -11.1372
  59   2.0000      -0.406997       -11.0749
  60   2.0000      -0.400668       -10.9027
  61   2.0000      -0.393074       -10.6961
  62   2.0000      -0.384864       -10.4727
  63   2.0000      -0.376436       -10.2433
  64   2.0000      -0.372528       -10.1370
  65   2.0000      -0.369719       -10.0606
  66   2.0000      -0.364216        -9.9108
  67   2.0000      -0.360849        -9.8192
  68   2.0000      -0.349902        -9.5213
  69   2.0000      -0.345870        -9.4116
  70   2.0000      -0.337934        -9.1957
  71   2.0000      -0.336076        -9.1451
  72   2.0000      -0.321935        -8.7603
  73   2.0000      -0.311843        -8.4857
  74   2.0000      -0.307319        -8.3626
  75   2.0000      -0.301614        -8.2073
  76   2.0000      -0.290998        -7.9184
  77   2.0000      -0.284498        -7.7416
  78   2.0000      -0.273661        -7.4467
  79   2.0000      -0.265856        -7.2343
  80   2.0000      -0.259722        -7.0674
  81   2.0000      -0.245468        -6.6795
  82   2.0000      -0.240867        -6.5543
  83   2.0000      -0.222209        -6.0466
  84   2.0000      -0.213325        -5.8049
  85   2.0000      -0.194213        -5.2848
  86   2.0000      -0.186470        -5.0741
  87   0.0000      -0.049902        -1.3579
  88   0.0000      -0.037675        -1.0252
  89   0.0000      -0.019186        -0.5221
  90   0.0000       0.006739         0.1834
  91   0.0000       0.031258         0.8506

MULLIKEN ATOMIC CHARGES
-----------------------
   0 C :   -0.274722
   1 C :   -0.029730
   2 O :   -0.235714
   3 C :    0.122112
   4 O :   -0.188821
   5 C :   -0.048139
   6 C :   -0.345977
   7 H :    0.150693
   8 C :    0.231584
   9 O :   -0.189411
  10 O :   -0.217203
  11 C :   -0.013307
  12 C :   -0.314944
  13 S :   -0.081719
  14 P :    0.627272
  15 S :   -0.346692
  16 O :   -0.367773
  17 C :   -0.084529
  18 O :   -0.374598
  19 C :   -0.122464
  20 H :    0.114276
  21 H :    0.116065
  22 H :    0.114135
  23 H :    0.112254
  24 H :    0.109041
  25 H :    0.109842
  26 H :    0.120118
  27 H :    0.109024
  28 H :    0.113445
  29 H :    0.116046
  30 H :    0.114925
  31 H :    0.145810
  32 H :    0.118625
  33 H :    0.114404
  34 H :    0.114028
  35 H :    0.112749
  36 H :    0.112640
  37 H :    0.136657
Sum of atomic charges:   -0.0000000

LOEWDIN ATOMIC CHARGES
----------------------
   0 C :   -0.350718
   1 C :   -0.107170
   2 O :   -0.063531
   3 C :    0.021561
   4 O :   -0.155225
   5 C :   -0.254306
   6 C :   -0.261147
   7 H :    0.148931
   8 C :    0.026468
   9 O :   -0.154470
  10 O :   -0.034075
  11 C :   -0.105363
  12 C :   -0.359065
  13 S :    0.111171
  14 P :    0.592142
  15 S :   -0.328924
  16 O :   -0.238418
  17 C :   -0.207335
  18 O :   -0.258388
  19 C :   -0.227090
  20 H :    0.126335
  21 H :    0.127098
  22 H :    0.131941
  23 H :    0.119459
  24 H :    0.118798
  25 H :    0.139082
  26 H :    0.134277
  27 H :    0.120857
  28 H :    0.122180
  29 H :    0.126522
  30 H :    0.132439
  31 H :    0.132405
  32 H :    0.117127
  33 H :    0.112064
  34 H :    0.107755
  35 H :    0.116566
  36 H :    0.109194
  37 H :    0.110856

  Mayer bond orders larger than 0.100000
B(  0-C ,  1-C ) :   1.1529 B(  0-C , 20-H ) :   0.9487 B(  0-C , 21-H ) :   0.9513
B(  0-C , 22-H ) :   0.9439 B(  1-C ,  2-O ) :   0.9026 B(  1-C , 23-H ) :   0.9260
B(  1-C , 24-H ) :   0.9334 B(  2-O ,  3-C ) :   1.2193 B(  3-C ,  4-O ) :   2.0198
B(  3-C ,  5-C ) :   1.0293 B(  5-C ,  6-C ) :   1.0422 B(  5-C , 25-H ) :   0.8761
B(  5-C , 26-H ) :   0.8699 B(  6-C ,  7-H ) :   0.8629 B(  6-C ,  8-C ) :   0.9161
B(  6-C , 13-S ) :   1.0413 B(  8-C ,  9-O ) :   1.9419 B(  8-C , 10-O ) :   1.2858
B(  9-O , 14-P ) :   0.1069 B( 10-O , 11-C ) :   0.8932 B( 11-C , 12-C ) :   1.1779
B( 11-C , 27-H ) :   0.9362 B( 11-C , 28-H ) :   0.9145 B( 12-C , 29-H ) :   0.9481
B( 12-C , 30-H ) :   0.9410 B( 12-C , 31-H ) :   0.9296 B( 13-S , 14-P ) :   0.9270
B( 13-S , 15-S ) :   0.1180 B( 14-P , 15-S ) :   1.5411 B( 14-P , 16-O ) :   1.1404
B( 14-P , 18-O ) :   1.0964 B( 16-O , 17-C ) :   0.9294 B( 17-C , 32-H ) :   0.9548
B( 17-C , 33-H ) :   0.9540 B( 17-C , 34-H ) :   0.9345 B( 18-O , 19-C ) :   0.9336
B( 19-C , 35-H ) :   0.9570 B( 19-C , 36-H ) :   0.9435 B( 19-C , 37-H ) :   0.9232

Dispersion correction           -0.052588006
FINAL SINGLE POINT ENERGY     -1979.015365874470

DIPOLE MOMENT
-------------

Method             : SCF
Type of density    : Electron Density
Multiplicity       :   1
Irrep              :   0
Energy             : -1979.1456051268928604 Eh
Relativity type    :
Basis              : AO
                                X                 Y                 Z
Electronic contribution:    -13.126855599      -1.312543824      -0.339437513
Nuclear contribution   :     14.645543466       2.199045684      -0.510136242
                        -----------------------------------------
Total Dipole Moment    :      1.518687867       0.886501860      -0.849573755
                        -----------------------------------------
Magnitude (a.u.)       :      1.952965424
Magnitude (Debye)      :      4.964043610

Rotational constants in cm-1:             0.012273             0.007596             0.005639
Rotational constants in MHz :           367.943388           227.736539           169.060816

                             ****ORCA TERMINATED NORMALLY****
TOTAL RUN TIME: 0 days 0 hours 0 minutes 44 seconds 395 msec
