                         Program Version 6.0.0  -   RELEASE  -
|  1> ! r2scan-3c def2/J RI DEFGRID2 scfconv6 printgap
|  2> %output
|  3>     printlevel normal
|  4> end
|  5> * xyz 0 1
|  6> C 4.2234823994 -0.8641750873 -2.4079667158
|  7> C 4.4506538162 -1.3182973438 -0.9804999771
|  8> O 3.2151655202 -1.5171963706 -0.2722305761
|  9> P 2.2630070287 -0.3137099686 0.1371244567
| 10> S 3.1764378053 1.3196888599 0.7310183757
| 11> O 1.3103068045 -1.0059507359 1.1979086035
| 12> C 1.5828880035 -0.9478938269 2.6152257009
| 13> C 2.8243272429 -1.7328779067 2.9822099937
| 14> S 0.922801594 -0.1237642938 -1.4879903258
| 15> C 0.2458295171 1.4830860071 -0.986977049
| 16> S -0.7872256845 1.3871046107 0.4901084756
| 17> P -2.3809799074 0.294330182 -0.4291811764
| 18> S -2.7475866125 0.743748325 -2.2955426794
| 19> O -3.5514374538 0.430189803 0.6361447546
| 20> C -4.0106085624 1.6668148936 1.2152445967
| 21> C -4.3880109374 2.6990287939 0.174197172
| 22> O -2.0185606428 -1.2354317733 -0.3188295878
| 23> C -1.8031060431 -1.9217108006 0.9366968638
| 24> C -3.0188201947 -2.7506953791 1.2958639707
| 25> H 3.542233083 -1.5417989117 -2.9168574082
| 26> H 3.7917555761 0.1359845417 -2.4178256535
| 27> H 5.1720987675 -0.8430583388 -2.9347847517
| 28> H 5.0478099616 -0.581087611 -0.4339964653
| 29> H 4.935986486 -2.2943838324 -0.9406222979
| 30> H 1.6876743673 0.1030087075 2.9030522604
| 31> H 0.6875934739 -1.3704811698 3.0728518274
| 32> H 2.7499197335 -2.7510948737 2.6095913128
| 33> H 3.7032925756 -1.2612106567 2.54437196
| 34> H 2.9343503244 -1.748200223 4.0619708334
| 35> H -0.355481319 1.8391358249 -1.8240459243
| 36> H 1.0620711859 2.1680227409 -0.7569935522
| 37> H -4.8751742324 1.3658026069 1.8094984515
| 38> H -3.2227298409 2.0489970074 1.870315431
| 39> H -3.5086185042 2.9999555083 -0.3934503964
| 40> H -5.1187247298 2.2897563929 -0.5193493621
| 41> H -4.8067991117 3.5708487326 0.6664209893
| 42> H -0.9237008077 -2.5465018595 0.7663004772
| 43> H -1.5821461326 -1.1825257572 1.7119498865
| 44> H -2.8193965538 -3.3014427314 2.2097257774
| 45> H -3.8810240184 -2.1053678928 1.4430103431
| 46> H -3.2392257473 -3.4503478128 0.49443637
| 47> *
| 48>
| 49>                          ****END OF INPUT****

CARTESIAN COORDINATES (ANGSTROEM)
---------------------------------
  C      4.223482   -0.864175   -2.407967
  C      4.450654   -1.318297   -0.980500
  O      3.215166   -1.517196   -0.272231
  P      2.263007   -0.313710    0.137124
  S      3.176438    1.319689    0.731018
  O      1.310307   -1.005951    1.197909
  C      1.582888   -0.947894    2.615226
  C      2.824327   -1.732878    2.982210
  S      0.922802   -0.123764   -1.487990
  C      0.245830    1.483086   -0.986977
  S     -0.787226    1.387105    0.490108
  P     -2.380980    0.294330   -0.429181
  S     -2.747587    0.743748   -2.295543
  O     -3.551437    0.430190    0.636145
  C     -4.010609    1.666815    1.215245
  C     -4.388011    2.699029    0.174197
  O     -2.018561   -1.235432   -0.318830
  C     -1.803106   -1.921711    0.936697
  C     -3.018820   -2.750695    1.295864
  H      3.542233   -1.541799   -2.916857
  H      3.791756    0.135985   -2.417826
  H      5.172099   -0.843058   -2.934785
  H      5.047810   -0.581088   -0.433996
  H      4.935986   -2.294384   -0.940622
  H      1.687674    0.103009    2.903052
  H      0.687593   -1.370481    3.072852
  H      2.749920   -2.751095    2.609591
  H      3.703293   -1.261211    2.544372
  H      2.934350   -1.748200    4.061971
  H     -0.355481    1.839136   -1.824046
  H      1.062071    2.168023   -0.756994
  H     -4.875174    1.365803    1.809498
  H     -3.222730    2.048997    1.870315
  H     -3.508619    2.999956   -0.393450
  H     -5.118725    2.289756   -0.519349
  H     -4.806799    3.570849    0.666421
  H     -0.923701   -2.546502    0.766300
  H     -1.582146   -1.182526    1.711950
  H     -2.819397   -3.301443    2.209726
  H     -3.881024   -2.105368    1.443010
  H     -3.239226   -3.450348    0.494436

 Total Charge           Charge          ....    0
 Multiplicity           Mult            ....    1
 Number of Electrons    NEL             ....  202
 Basis Dimension        Dim             ....  539

ORBITAL ENERGIES
----------------

  NO   OCC          E(Eh)            E(eV)
   0   2.0000     -88.574110     -2410.2241
   1   2.0000     -88.574052     -2410.2225
   2   2.0000     -88.524213     -2408.8663
   3   2.0000     -88.515264     -2408.6228
   4   2.0000     -76.915553     -2092.9786
   5   2.0000     -76.912666     -2092.9000
   6   2.0000     -18.996121      -516.9107
   7   2.0000     -18.995951      -516.9061
   8   2.0000     -18.992276      -516.8061
   9   2.0000     -18.986513      -516.6493
  10   2.0000     -10.106527      -275.0126
  11   2.0000     -10.102535      -274.9040
  12   2.0000     -10.101656      -274.8800
  13   2.0000     -10.101002      -274.8622
  14   2.0000     -10.098100      -274.7833
  15   2.0000     -10.032523      -272.9988
  16   2.0000     -10.029890      -272.9272
  17   2.0000     -10.029564      -272.9183
  18   2.0000     -10.028287      -272.8836
  19   2.0000      -7.868443      -214.1112
  20   2.0000      -7.868197      -214.1045
  21   2.0000      -7.819007      -212.7660
  22   2.0000      -7.810130      -212.5244
  23   2.0000      -6.594230      -179.4381
  24   2.0000      -6.590926      -179.3482
  25   2.0000      -5.815182      -158.2391
  26   2.0000      -5.815095      -158.2368
  27   2.0000      -5.812231      -158.1589
  28   2.0000      -5.812152      -158.1567
  29   2.0000      -5.805776      -157.9832
  30   2.0000      -5.805220      -157.9681
  31   2.0000      -5.766543      -156.9156
  32   2.0000      -5.759294      -156.7184
  33   2.0000      -5.759110      -156.7134
  34   2.0000      -5.757954      -156.6819
  35   2.0000      -5.750371      -156.4755
  36   2.0000      -5.749986      -156.4651
  37   2.0000      -4.739637      -128.9721
  38   2.0000      -4.739085      -128.9571
  39   2.0000      -4.738089      -128.9299
  40   2.0000      -4.736788      -128.8946
  41   2.0000      -4.736114      -128.8762
  42   2.0000      -4.734117      -128.8219
  43   2.0000      -1.052925       -28.6516
  44   2.0000      -1.051457       -28.6116
  45   2.0000      -1.014235       -27.5987
  46   2.0000      -1.009324       -27.4651
  47   2.0000      -0.801523       -21.8106
  48   2.0000      -0.759054       -20.6549
  49   2.0000      -0.750741       -20.4287
  50   2.0000      -0.735519       -20.0145
  51   2.0000      -0.734126       -19.9766
  52   2.0000      -0.712211       -19.3802
  53   2.0000      -0.686682       -18.6856
  54   2.0000      -0.669547       -18.2193
  55   2.0000      -0.634838       -17.2748
  56   2.0000      -0.621381       -16.9086
  57   2.0000      -0.608552       -16.5595
  58   2.0000      -0.606380       -16.5004
  59   2.0000      -0.594353       -16.1732
  60   2.0000      -0.529478       -14.4078
  61   2.0000      -0.518495       -14.1090
  62   2.0000      -0.495530       -13.4841
  63   2.0000      -0.493585       -13.4311
  64   2.0000      -0.478110       -13.0100
  65   2.0000      -0.466878       -12.7044
  66   2.0000      -0.460739       -12.5373
  67   2.0000      -0.452948       -12.3253
  68   2.0000      -0.450132       -12.2487
  69   2.0000      -0.433051       -11.7839
  70   2.0000      -0.428802       -11.6683
  71   2.0000      -0.415768       -11.3136
  72   2.0000      -0.414906       -11.2902
  73   2.0000      -0.405616       -11.0374
  74   2.0000      -0.399602       -10.8737
  75   2.0000      -0.389038       -10.5863
  76   2.0000      -0.380270       -10.3477
  77   2.0000      -0.373568       -10.1653
  78   2.0000      -0.371655       -10.1132
  79   2.0000      -0.366198        -9.9648
  80   2.0000      -0.363598        -9.8940
  81   2.0000      -0.360593        -9.8122
  82   2.0000      -0.359107        -9.7718
  83   2.0000      -0.353428        -9.6173
  84   2.0000      -0.351748        -9.5715
  85   2.0000      -0.337546        -9.1851
  86   2.0000      -0.326463        -8.8835
  87   2.0000      -0.312947        -8.5157
  88   2.0000      -0.312148        -8.4940
  89   2.0000      -0.305185        -8.3045
  90   2.0000      -0.301119        -8.1939
  91   2.0000      -0.294672        -8.0184
  92   2.0000      -0.290056        -7.8928
  93   2.0000      -0.281524        -7.6607
  94   2.0000      -0.271603        -7.3907
  95   2.0000      -0.245714        -6.6862
  96   2.0000      -0.231108        -6.2888
  97   2.0000      -0.227255        -6.1839
  98   2.0000      -0.218051        -5.9335
  99   2.0000      -0.212315        -5.7774
 100   2.0000      -0.210270        -5.7217
 101   0.0000      -0.045464        -1.2372
 102   0.0000      -0.024256        -0.6600
 103   0.0000      -0.003586        -0.0976
 104   0.0000      -0.000306        -0.0083
 105   0.0000       0.014719         0.4005

MULLIKEN ATOMIC CHARGES
-----------------------
   0 C :   -0.453230
   1 C :   -0.149422
   2 O :   -0.306901
   3 P :    0.677193
   4 S :   -0.490040
   5 O :   -0.259008
   6 C :   -0.157335
   7 C :   -0.440017
   8 S :   -0.096593
   9 C :   -0.243151
  10 S :   -0.179150
  11 P :    0.650518
  12 S :   -0.429740
  13 O :   -0.295528
  14 C :   -0.162169
  15 C :   -0.426647
  16 O :   -0.252725
  17 C :   -0.103579
  18 C :   -0.485627
  19 H :    0.158113
  20 H :    0.177368
  21 H :    0.148303
  22 H :    0.170648
  23 H :    0.148667
  24 H :    0.176180
  25 H :    0.145413
  26 H :    0.156251
  27 H :    0.169864
  28 H :    0.147571
  29 H :    0.217809
  30 H :    0.214302
  31 H :    0.149262
  32 H :    0.152215
  33 H :    0.170360
  34 H :    0.165262
  35 H :    0.146467
  36 H :    0.170156
  37 H :    0.150650
  38 H :    0.143518
  39 H :    0.164453
  40 H :    0.160319
Sum of atomic charges:    0.0000000

LOEWDIN ATOMIC CHARGES
----------------------
   0 C :   -0.405884
   1 C :    0.020265
   2 O :   -0.660601
   3 P :    0.378207
   4 S :   -0.136123
   5 O :   -0.682617
   6 C :    0.015226
   7 C :   -0.399150
   8 S :    0.187992
   9 C :   -0.424664
  10 S :    0.135618
  11 P :    0.381457
  12 S :   -0.099247
  13 O :   -0.669731
  14 C :    0.023159
  15 C :   -0.405722
  16 O :   -0.651386
  17 C :    0.019419
  18 C :   -0.392057
  19 H :    0.161313
  20 H :    0.165981
  21 H :    0.159715
  22 H :    0.179326
  23 H :    0.179739
  24 H :    0.181734
  25 H :    0.177198
  26 H :    0.160942
  27 H :    0.165815
  28 H :    0.159586
  29 H :    0.193581
  30 H :    0.190932
  31 H :    0.180779
  32 H :    0.171813
  33 H :    0.167357
  34 H :    0.166015
  35 H :    0.158446
  36 H :    0.186615
  37 H :    0.174113
  38 H :    0.157335
  39 H :    0.164676
  40 H :    0.162826

  Mayer bond orders larger than 0.100000
B(  0-C ,  1-C ) :   0.9252 B(  0-C , 19-H ) :   0.9685 B(  0-C , 20-H ) :   0.9616
B(  0-C , 21-H ) :   0.9586 B(  1-C ,  2-O ) :   0.8106 B(  1-C , 22-H ) :   0.9659
B(  1-C , 23-H ) :   0.9580 B(  2-O ,  3-P ) :   1.0696 B(  3-P ,  4-S ) :   1.7375
B(  3-P ,  5-O ) :   1.1276 B(  3-P ,  8-S ) :   1.1096 B(  5-O ,  6-C ) :   0.7845
B(  6-C ,  7-C ) :   0.9218 B(  6-C , 24-H ) :   0.9630 B(  6-C , 25-H ) :   0.9615
B(  7-C , 26-H ) :   0.9720 B(  7-C , 27-H ) :   0.9594 B(  7-C , 28-H ) :   0.9618
B(  8-S ,  9-C ) :   0.9172 B(  9-C , 10-S ) :   0.9122 B(  9-C , 29-H ) :   0.9040
B(  9-C , 30-H ) :   0.9070 B( 10-S , 11-P ) :   0.9916 B( 11-P , 12-S ) :   1.8628
B( 11-P , 13-O ) :   1.0343 B( 11-P , 16-O ) :   1.1376 B( 13-O , 14-C ) :   0.8052
B( 14-C , 15-C ) :   0.9431 B( 14-C , 31-H ) :   0.9585 B( 14-C , 32-H ) :   0.9609
B( 15-C , 33-H ) :   0.9542 B( 15-C , 34-H ) :   0.9654 B( 15-C , 35-H ) :   0.9616
B( 16-O , 17-C ) :   0.7376 B( 17-C , 18-C ) :   0.9342 B( 17-C , 36-H ) :   0.9539
B( 17-C , 37-H ) :   0.9695 B( 18-C , 38-H ) :   0.9670 B( 18-C , 39-H ) :   0.9715
B( 18-C , 40-H ) :   0.9734

Dispersion correction           -0.021649223
FINAL SINGLE POINT ENERGY     -2932.461509313570

DIPOLE MOMENT
-------------

Method             : SCF
Type of density    : Electron Density
Multiplicity       :   1
Irrep              :   0
Energy             : -2932.4863238781204018 Eh
Relativity type    :
Basis              : AO
                                X                 Y                 Z
Electronic contribution:     -0.765795206       7.399294231     -11.030249793
Nuclear contribution   :      0.994664983      -8.061450125      12.573760391
                        -----------------------------------------
Total Dipole Moment    :      0.228869777      -0.662155894       1.543510598
                        -----------------------------------------
Magnitude (a.u.)       :      1.695068367
Magnitude (Debye)      :      4.308521386

Rotational constants in cm-1:             0.012712             0.004901             0.004537
Rotational constants in MHz :           381.087949           146.915443           136.010067

                             ****ORCA TERMINATED NORMALLY****
TOTAL RUN TIME: 0 days 0 hours 1 minutes 20 seconds 137 msec
