                         Program Version 6.0.0  -   RELEASE  -
|  1> ! r2scan-3c def2/J RI DEFGRID2 scfconv6 printgap
|  2> %output
|  3>     printlevel normal
|  4> end
|  5> %cpcm
|  6>     smd true
|  7>     smdsolvent "water"
|  8> end
|  9> * xyz 0 1
| 10> C 4.2234823994 -0.8641750873 -2.4079667158
| 11> C 4.4506538162 -1.3182973438 -0.9804999771
| 12> O 3.2151655202 -1.5171963706 -0.2722305761
| 13> P 2.2630070287 -0.3137099686 0.1371244567
| 14> S 3.1764378053 1.3196888599 0.7310183757
| 15> O 1.3103068045 -1.0059507359 1.1979086035
| 16> C 1.5828880035 -0.9478938269 2.6152257009
| 17> C 2.8243272429 -1.7328779067 2.9822099937
| 18> S 0.922801594 -0.1237642938 -1.4879903258
| 19> C 0.2458295171 1.4830860071 -0.986977049
| 20> S -0.7872256845 1.3871046107 0.4901084756
| 21> P -2.3809799074 0.294330182 -0.4291811764
| 22> S -2.7475866125 0.743748325 -2.2955426794
| 23> O -3.5514374538 0.430189803 0.6361447546
| 24> C -4.0106085624 1.6668148936 1.2152445967
| 25> C -4.3880109374 2.6990287939 0.174197172
| 26> O -2.0185606428 -1.2354317733 -0.3188295878
| 27> C -1.8031060431 -1.9217108006 0.9366968638
| 28> C -3.0188201947 -2.7506953791 1.2958639707
| 29> H 3.542233083 -1.5417989117 -2.9168574082
| 30> H 3.7917555761 0.1359845417 -2.4178256535
| 31> H 5.1720987675 -0.8430583388 -2.9347847517
| 32> H 5.0478099616 -0.581087611 -0.4339964653
| 33> H 4.935986486 -2.2943838324 -0.9406222979
| 34> H 1.6876743673 0.1030087075 2.9030522604
| 35> H 0.6875934739 -1.3704811698 3.0728518274
| 36> H 2.7499197335 -2.7510948737 2.6095913128
| 37> H 3.7032925756 -1.2612106567 2.54437196
| 38> H 2.9343503244 -1.748200223 4.0619708334
| 39> H -0.355481319 1.8391358249 -1.8240459243
| 40> H 1.0620711859 2.1680227409 -0.7569935522
| 41> H -4.8751742324 1.3658026069 1.8094984515
| 42> H -3.2227298409 2.0489970074 1.870315431
| 43> H -3.5086185042 2.9999555083 -0.3934503964
| 44> H -5.1187247298 2.2897563929 -0.5193493621
| 45> H -4.8067991117 3.5708487326 0.6664209893
| 46> H -0.9237008077 -2.5465018595 0.7663004772
| 47> H -1.5821461326 -1.1825257572 1.7119498865
| 48> H -2.8193965538 -3.3014427314 2.2097257774
| 49> H -3.8810240184 -2.1053678928 1.4430103431
| 50> H -3.2392257473 -3.4503478128 0.49443637
| 51> *
| 52>
| 53>                          ****END OF INPUT****

CARTESIAN COORDINATES (ANGSTROEM)
---------------------------------
  C      4.223482   -0.864175   -2.407967
  C      4.450654   -1.318297   -0.980500
  O      3.215166   -1.517196   -0.272231
  P      2.263007   -0.313710    0.137124
  S      3.176438    1.319689    0.731018
  O      1.310307   -1.005951    1.197909
  C      1.582888   -0.947894    2.615226
  C      2.824327   -1.732878    2.982210
  S      0.922802   -0.123764   -1.487990
  C      0.245830    1.483086   -0.986977
  S     -0.787226    1.387105    0.490108
  P     -2.380980    0.294330   -0.429181
  S     -2.747587    0.743748   -2.295543
  O     -3.551437    0.430190    0.636145
  C     -4.010609    1.666815    1.215245
  C     -4.388011    2.699029    0.174197
  O     -2.018561   -1.235432   -0.318830
  C     -1.803106   -1.921711    0.936697
  C     -3.018820   -2.750695    1.295864
  H      3.542233   -1.541799   -2.916857
  H      3.791756    0.135985   -2.417826
  H      5.172099   -0.843058   -2.934785
  H      5.047810   -0.581088   -0.433996
  H      4.935986   -2.294384   -0.940622
  H      1.687674    0.103009    2.903052
  H      0.687593   -1.370481    3.072852
  H      2.749920   -2.751095    2.609591
  H      3.703293   -1.261211    2.544372
  H      2.934350   -1.748200    4.061971
  H     -0.355481    1.839136   -1.824046
  H      1.062071    2.168023   -0.756994
  H     -4.875174    1.365803    1.809498
  H     -3.222730    2.048997    1.870315
  H     -3.508619    2.999956   -0.393450
  H     -5.118725    2.289756   -0.519349
  H     -4.806799    3.570849    0.666421
  H     -0.923701   -2.546502    0.766300
  H     -1.582146   -1.182526    1.711950
  H     -2.819397   -3.301443    2.209726
  H     -3.881024   -2.105368    1.443010
  H     -3.239226   -3.450348    0.494436

 Total Charge           Charge          ....    0
 Multiplicity           Mult            ....    1
 Number of Electrons    NEL             ....  202
 Basis Dimension        Dim             ....  539

ORBITAL ENERGIES
----------------

  NO   OCC          E(Eh)            E(eV)
   0   2.0000     -88.578620     -2410.3468
   1   2.0000     -88.577773     -2410.3237
   2   2.0000     -88.529209     -2409.0022
   3   2.0000     -88.527474     -2408.9550
   4   2.0000     -76.920131     -2093.1032
   5   2.0000     -76.918821     -2093.0675
   6   2.0000     -18.996881      -516.9314
   7   2.0000     -18.996609      -516.9240
   8   2.0000     -18.992536      -516.8132
   9   2.0000     -18.991727      -516.7912
  10   2.0000     -10.103490      -274.9299
  11   2.0000     -10.093654      -274.6623
  12   2.0000     -10.090207      -274.5685
  13   2.0000     -10.090172      -274.5675
  14   2.0000     -10.088920      -274.5335
  15   2.0000     -10.018815      -272.6258
  16   2.0000     -10.018796      -272.6253
  17   2.0000     -10.018593      -272.6198
  18   2.0000     -10.018193      -272.6089
  19   2.0000      -7.872897      -214.2324
  20   2.0000      -7.872051      -214.2094
  21   2.0000      -7.824271      -212.9092
  22   2.0000      -7.822739      -212.8676
  23   2.0000      -6.598425      -179.5523
  24   2.0000      -6.597521      -179.5277
  25   2.0000      -5.819746      -158.3633
  26   2.0000      -5.818820      -158.3381
  27   2.0000      -5.816834      -158.2841
  28   2.0000      -5.815872      -158.2579
  29   2.0000      -5.809987      -158.0978
  30   2.0000      -5.809328      -158.0799
  31   2.0000      -5.771767      -157.0578
  32   2.0000      -5.770425      -157.0212
  33   2.0000      -5.764548      -156.8613
  34   2.0000      -5.764374      -156.8566
  35   2.0000      -5.762989      -156.8189
  36   2.0000      -5.762649      -156.8096
  37   2.0000      -4.744207      -129.0964
  38   2.0000      -4.743583      -129.0795
  39   2.0000      -4.742854      -129.0596
  40   2.0000      -4.742376      -129.0466
  41   2.0000      -4.741773      -129.0302
  42   2.0000      -4.741483      -129.0223
  43   2.0000      -1.054188       -28.6859
  44   2.0000      -1.052596       -28.6426
  45   2.0000      -1.013104       -27.5680
  46   2.0000      -1.011888       -27.5349
  47   2.0000      -0.804340       -21.8872
  48   2.0000      -0.755670       -20.5628
  49   2.0000      -0.744309       -20.2537
  50   2.0000      -0.726777       -19.7766
  51   2.0000      -0.723641       -19.6913
  52   2.0000      -0.710853       -19.3433
  53   2.0000      -0.689756       -18.7692
  54   2.0000      -0.675211       -18.3734
  55   2.0000      -0.631375       -17.1806
  56   2.0000      -0.618994       -16.8437
  57   2.0000      -0.601558       -16.3692
  58   2.0000      -0.599152       -16.3037
  59   2.0000      -0.593694       -16.1552
  60   2.0000      -0.525690       -14.3048
  61   2.0000      -0.512883       -13.9562
  62   2.0000      -0.490541       -13.3483
  63   2.0000      -0.488828       -13.3017
  64   2.0000      -0.476688       -12.9714
  65   2.0000      -0.462112       -12.5747
  66   2.0000      -0.454575       -12.3696
  67   2.0000      -0.448388       -12.2013
  68   2.0000      -0.444410       -12.0930
  69   2.0000      -0.428833       -11.6691
  70   2.0000      -0.423602       -11.5268
  71   2.0000      -0.413253       -11.2452
  72   2.0000      -0.407838       -11.0978
  73   2.0000      -0.402725       -10.9587
  74   2.0000      -0.396063       -10.7774
  75   2.0000      -0.387531       -10.5452
  76   2.0000      -0.379973       -10.3396
  77   2.0000      -0.368472       -10.0266
  78   2.0000      -0.365800        -9.9539
  79   2.0000      -0.359245        -9.7756
  80   2.0000      -0.353831        -9.6282
  81   2.0000      -0.352300        -9.5866
  82   2.0000      -0.351195        -9.5565
  83   2.0000      -0.347992        -9.4693
  84   2.0000      -0.346253        -9.4220
  85   2.0000      -0.334264        -9.0958
  86   2.0000      -0.322959        -8.7881
  87   2.0000      -0.308154        -8.3853
  88   2.0000      -0.305322        -8.3082
  89   2.0000      -0.302252        -8.2247
  90   2.0000      -0.297865        -8.1053
  91   2.0000      -0.292601        -7.9621
  92   2.0000      -0.287201        -7.8151
  93   2.0000      -0.280330        -7.6282
  94   2.0000      -0.273905        -7.4533
  95   2.0000      -0.249913        -6.8005
  96   2.0000      -0.237312        -6.4576
  97   2.0000      -0.234047        -6.3688
  98   2.0000      -0.225821        -6.1449
  99   2.0000      -0.222363        -6.0508
 100   2.0000      -0.221020        -6.0143
 101   0.0000      -0.051058        -1.3894
 102   0.0000      -0.031056        -0.8451
 103   0.0000      -0.007410        -0.2016
 104   0.0000      -0.004719        -0.1284
 105   0.0000       0.014376         0.3912

MULLIKEN ATOMIC CHARGES
-----------------------
   0 C :   -0.489013
   1 C :   -0.150495
   2 O :   -0.331435
   3 P :    0.717978
   4 S :   -0.531981
   5 O :   -0.283700
   6 C :   -0.152671
   7 C :   -0.483137
   8 S :   -0.127178
   9 C :   -0.249185
  10 S :   -0.174201
  11 P :    0.669563
  12 S :   -0.494092
  13 O :   -0.313523
  14 C :   -0.161290
  15 C :   -0.465514
  16 O :   -0.286152
  17 C :   -0.092227
  18 C :   -0.531568
  19 H :    0.170099
  20 H :    0.172478
  21 H :    0.173066
  22 H :    0.177717
  23 H :    0.175888
  24 H :    0.177704
  25 H :    0.179596
  26 H :    0.170342
  27 H :    0.168875
  28 H :    0.172416
  29 H :    0.232521
  30 H :    0.235010
  31 H :    0.177964
  32 H :    0.172779
  33 H :    0.165040
  34 H :    0.170492
  35 H :    0.173722
  36 H :    0.180488
  37 H :    0.174428
  38 H :    0.171099
  39 H :    0.169570
  40 H :    0.168528
Sum of atomic charges:    0.0000000

LOEWDIN ATOMIC CHARGES
----------------------
   0 C :   -0.409551
   1 C :    0.025941
   2 O :   -0.671445
   3 P :    0.383788
   4 S :   -0.160763
   5 O :   -0.691328
   6 C :    0.021364
   7 C :   -0.402780
   8 S :    0.169298
   9 C :   -0.420048
  10 S :    0.144605
  11 P :    0.384437
  12 S :   -0.147448
  13 O :   -0.674060
  14 C :    0.031008
  15 C :   -0.409599
  16 O :   -0.676284
  17 C :    0.025776
  18 C :   -0.394314
  19 H :    0.163780
  20 H :    0.161591
  21 H :    0.168665
  22 H :    0.181699
  23 H :    0.191226
  24 H :    0.182190
  25 H :    0.190952
  26 H :    0.164285
  27 H :    0.162796
  28 H :    0.168827
  29 H :    0.197707
  30 H :    0.197066
  31 H :    0.193137
  32 H :    0.179801
  33 H :    0.162068
  34 H :    0.164436
  35 H :    0.168716
  36 H :    0.191357
  37 H :    0.183624
  38 H :    0.168729
  39 H :    0.164846
  40 H :    0.163904

  Mayer bond orders larger than 0.100000
B(  0-C ,  1-C ) :   0.9110 B(  0-C , 19-H ) :   0.9660 B(  0-C , 20-H ) :   0.9631
B(  0-C , 21-H ) :   0.9533 B(  1-C ,  2-O ) :   0.7991 B(  1-C , 22-H ) :   0.9648
B(  1-C , 23-H ) :   0.9484 B(  2-O ,  3-P ) :   1.0784 B(  3-P ,  4-S ) :   1.7014
B(  3-P ,  5-O ) :   1.1396 B(  3-P ,  8-S ) :   1.1109 B(  5-O ,  6-C ) :   0.7719
B(  6-C ,  7-C ) :   0.9083 B(  6-C , 24-H ) :   0.9597 B(  6-C , 25-H ) :   0.9511
B(  7-C , 26-H ) :   0.9714 B(  7-C , 27-H ) :   0.9593 B(  7-C , 28-H ) :   0.9559
B(  8-S ,  9-C ) :   0.9034 B(  9-C , 10-S ) :   0.9005 B(  9-C , 29-H ) :   0.9002
B(  9-C , 30-H ) :   0.9033 B( 10-S , 11-P ) :   1.0048 B( 11-P , 12-S ) :   1.8268
B( 11-P , 13-O ) :   1.0555 B( 11-P , 16-O ) :   1.1447 B( 13-O , 14-C ) :   0.7934
B( 14-C , 15-C ) :   0.9206 B( 14-C , 31-H ) :   0.9487 B( 14-C , 32-H ) :   0.9572
B( 15-C , 33-H ) :   0.9578 B( 15-C , 34-H ) :   0.9665 B( 15-C , 35-H ) :   0.9557
B( 16-O , 17-C ) :   0.7250 B( 17-C , 18-C ) :   0.9308 B( 17-C , 36-H ) :   0.9457
B( 17-C , 37-H ) :   0.9556 B( 18-C , 38-H ) :   0.9595 B( 18-C , 39-H ) :   0.9703
B( 18-C , 40-H ) :   0.9724

Dispersion correction           -0.021649223
FINAL SINGLE POINT ENERGY     -2932.471720562608

DIPOLE MOMENT
-------------

Method             : SCF
Type of density    : Electron Density
Multiplicity       :   1
Irrep              :   0
Energy             : -2932.4965351271580403 Eh
Relativity type    :
Basis              : AO
                                X                 Y                 Z
Electronic contribution:     -0.625212352       7.330404670     -10.195242545
Nuclear contribution   :      0.994664983      -8.061450125      12.573760391
                        -----------------------------------------
Total Dipole Moment    :      0.369452631      -0.731045456       2.378517847
                        -----------------------------------------
Magnitude (a.u.)       :      2.515605265
Magnitude (Debye)      :      6.394160432

Rotational constants in cm-1:             0.012712             0.004901             0.004537
Rotational constants in MHz :           381.087949           146.915443           136.010067

                             ****ORCA TERMINATED NORMALLY****
TOTAL RUN TIME: 0 days 0 hours 1 minutes 48 seconds 309 msec
