                         Program Version 6.0.1  -  RELEASE   -
|  1> ! r2scan-3c def2/J RI DEFGRID2 scfconv6 printgap
|  2> %output
|  3>     printlevel normal
|  4> end
|  5> * xyz 0 1
|  6> C 5.2155323132 -1.7210548093 -1.6492040738
|  7> C 4.4568641297 -0.4746873836 -1.2216034848
|  8> O 3.034085827 -0.6952345551 -1.2594227123
|  9> C 2.4601310251 -1.237039512 -0.1989245038
| 10> O 3.0481756516 -1.5662466945 0.8043382776
| 11> C 0.9679730367 -1.4311287167 -0.4025453928
| 12> C 0.3293933982 -0.2162000355 -1.0655933719
| 13> H 0.8184983243 -0.0188387982 -2.025222356
| 14> C 0.421913608 1.0462512954 -0.230123277
| 15> O -0.4562786684 1.8869658677 -0.2107195389
| 16> O 1.556089082 1.1340116187 0.4101866255
| 17> C 1.7595312879 2.267695629 1.2798767658
| 18> C 3.2114495985 2.2673268214 1.7124506193
| 19> S -1.4224504474 -0.4897710711 -1.4838272587
| 20> P -2.3707597472 0.0367228057 0.3430193117
| 21> S -1.3566112492 -0.1484381072 2.0098989174
| 22> O -3.1026130644 1.4275676264 0.2121550753
| 23> C -3.8777762366 1.7954410026 -0.9457907363
| 24> O -3.6485239116 -0.9326749047 0.2800527719
| 25> C -3.5211228858 -2.3498721427 0.4334015704
| 26> H 4.8897589426 -2.0387504613 -2.6357978826
| 27> H 6.2779307945 -1.5025052405 -1.6759506799
| 28> H 5.0390021745 -2.5262489084 -0.9398903213
| 29> H 4.6234242043 0.3493819289 -1.9156108717
| 30> H 4.7355649029 -0.1817899714 -0.2056787874
| 31> H 0.5187291124 -1.6298837212 0.5727296462
| 32> H 0.823385806 -2.3014579285 -1.0456806099
| 33> H 1.4866641879 3.1757492037 0.7338623063
| 34> H 1.0808347864 2.1536011057 2.1314179297
| 35> H 3.8603138135 2.4228361416 0.8554671798
| 36> H 3.3698070323 3.0632230375 2.4320976011
| 37> H 3.4544053613 1.3134097565 2.1731353343
| 38> H -4.3029943325 2.7652971086 -0.7017354219
| 39> H -4.6597355849 1.0587853115 -1.1213418265
| 40> H -3.2241537639 1.8715142285 -1.8144690332
| 41> H -3.0785315631 -2.7807982758 -0.4642984674
| 42> H -4.5325424873 -2.720254663 0.5791728769
| 43> H -2.9037199372 -2.5785656703 1.3036084315
| 44> *
| 45>
| 46>                          ****END OF INPUT****

CARTESIAN COORDINATES (ANGSTROEM)
---------------------------------
  C      5.215532   -1.721055   -1.649204
  C      4.456864   -0.474687   -1.221603
  O      3.034086   -0.695235   -1.259423
  C      2.460131   -1.237040   -0.198925
  O      3.048176   -1.566247    0.804338
  C      0.967973   -1.431129   -0.402545
  C      0.329393   -0.216200   -1.065593
  H      0.818498   -0.018839   -2.025222
  C      0.421914    1.046251   -0.230123
  O     -0.456279    1.886966   -0.210720
  O      1.556089    1.134012    0.410187
  C      1.759531    2.267696    1.279877
  C      3.211450    2.267327    1.712451
  S     -1.422450   -0.489771   -1.483827
  P     -2.370760    0.036723    0.343019
  S     -1.356611   -0.148438    2.009899
  O     -3.102613    1.427568    0.212155
  C     -3.877776    1.795441   -0.945791
  O     -3.648524   -0.932675    0.280053
  C     -3.521123   -2.349872    0.433402
  H      4.889759   -2.038750   -2.635798
  H      6.277931   -1.502505   -1.675951
  H      5.039002   -2.526249   -0.939890
  H      4.623424    0.349382   -1.915611
  H      4.735565   -0.181790   -0.205679
  H      0.518729   -1.629884    0.572730
  H      0.823386   -2.301458   -1.045681
  H      1.486664    3.175749    0.733862
  H      1.080835    2.153601    2.131418
  H      3.860314    2.422836    0.855467
  H      3.369807    3.063223    2.432098
  H      3.454405    1.313410    2.173135
  H     -4.302994    2.765297   -0.701735
  H     -4.659736    1.058785   -1.121342
  H     -3.224154    1.871514   -1.814469
  H     -3.078532   -2.780798   -0.464298
  H     -4.532542   -2.720255    0.579173
  H     -2.903720   -2.578566    1.303608

 Total Charge           Charge          ....    0
 Multiplicity           Mult            ....    1
 Number of Electrons    NEL             ....  174
 Basis Dimension        Dim             ....  510

ORBITAL ENERGIES
----------------

  NO   OCC          E(Eh)            E(eV)
   0   2.0000     -88.575239     -2410.2548
   1   2.0000     -88.513353     -2408.5708
   2   2.0000     -76.911277     -2092.8622
   3   2.0000     -19.010613      -517.3051
   4   2.0000     -19.002351      -517.0803
   5   2.0000     -18.985620      -516.6250
   6   2.0000     -18.985273      -516.6156
   7   2.0000     -18.935885      -515.2716
   8   2.0000     -18.930432      -515.1232
   9   2.0000     -10.167776      -276.6792
  10   2.0000     -10.158508      -276.4271
  11   2.0000     -10.100392      -274.8456
  12   2.0000     -10.097042      -274.7545
  13   2.0000     -10.095189      -274.7041
  14   2.0000     -10.090424      -274.5744
  15   2.0000     -10.087465      -274.4939
  16   2.0000     -10.053903      -273.5806
  17   2.0000     -10.032755      -273.0051
  18   2.0000     -10.032230      -272.9908
  19   2.0000      -7.869618      -214.1432
  20   2.0000      -7.808283      -212.4742
  21   2.0000      -6.589164      -179.3003
  22   2.0000      -5.816645      -158.2790
  23   2.0000      -5.813377      -158.1900
  24   2.0000      -5.806672      -158.0076
  25   2.0000      -5.756189      -156.6339
  26   2.0000      -5.748581      -156.4269
  27   2.0000      -5.747982      -156.4105
  28   2.0000      -4.734842      -128.8416
  29   2.0000      -4.734344      -128.8281
  30   2.0000      -4.732649      -128.7819
  31   2.0000      -1.089803       -29.6550
  32   2.0000      -1.077517       -29.3207
  33   2.0000      -1.044180       -28.4136
  34   2.0000      -1.001934       -27.2640
  35   2.0000      -0.988620       -26.9017
  36   2.0000      -0.981069       -26.6963
  37   2.0000      -0.813038       -22.1239
  38   2.0000      -0.752861       -20.4864
  39   2.0000      -0.751570       -20.4513
  40   2.0000      -0.727335       -19.7918
  41   2.0000      -0.697058       -18.9679
  42   2.0000      -0.670504       -18.2453
  43   2.0000      -0.657923       -17.9030
  44   2.0000      -0.648800       -17.6547
  45   2.0000      -0.627701       -17.0806
  46   2.0000      -0.599216       -16.3055
  47   2.0000      -0.544415       -14.8143
  48   2.0000      -0.533117       -14.5069
  49   2.0000      -0.528303       -14.3758
  50   2.0000      -0.502429       -13.6718
  51   2.0000      -0.488112       -13.2822
  52   2.0000      -0.486046       -13.2260
  53   2.0000      -0.466674       -12.6988
  54   2.0000      -0.462240       -12.5782
  55   2.0000      -0.449302       -12.2261
  56   2.0000      -0.445456       -12.1215
  57   2.0000      -0.443551       -12.0696
  58   2.0000      -0.428411       -11.6576
  59   2.0000      -0.427027       -11.6200
  60   2.0000      -0.421815       -11.4782
  61   2.0000      -0.413542       -11.2530
  62   2.0000      -0.409865       -11.1530
  63   2.0000      -0.401847       -10.9348
  64   2.0000      -0.391663       -10.6577
  65   2.0000      -0.383265       -10.4292
  66   2.0000      -0.375436       -10.2161
  67   2.0000      -0.372606       -10.1391
  68   2.0000      -0.361204        -9.8289
  69   2.0000      -0.358551        -9.7567
  70   2.0000      -0.346328        -9.4241
  71   2.0000      -0.342571        -9.3218
  72   2.0000      -0.340224        -9.2580
  73   2.0000      -0.327390        -8.9087
  74   2.0000      -0.318898        -8.6777
  75   2.0000      -0.315312        -8.5801
  76   2.0000      -0.313532        -8.5316
  77   2.0000      -0.308740        -8.4013
  78   2.0000      -0.287922        -7.8348
  79   2.0000      -0.280864        -7.6427
  80   2.0000      -0.273518        -7.4428
  81   2.0000      -0.271992        -7.4013
  82   2.0000      -0.253886        -6.9086
  83   2.0000      -0.242768        -6.6061
  84   2.0000      -0.230659        -6.2765
  85   2.0000      -0.210893        -5.7387
  86   2.0000      -0.209283        -5.6949
  87   0.0000      -0.045792        -1.2461
  88   0.0000      -0.028938        -0.7875
  89   0.0000      -0.011334        -0.3084
  90   0.0000       0.005146         0.1400
  91   0.0000       0.021499         0.5850

MULLIKEN ATOMIC CHARGES
-----------------------
   0 C :   -0.470708
   1 C :   -0.132986
   2 O :   -0.142505
   3 C :    0.339741
   4 O :   -0.395192
   5 C :   -0.506225
   6 C :    0.079811
   7 H :    0.208428
   8 C :    0.194321
   9 O :   -0.382033
  10 O :   -0.070092
  11 C :   -0.147092
  12 C :   -0.459312
  13 S :   -0.182842
  14 P :    0.764261
  15 S :   -0.447152
  16 O :   -0.292797
  17 C :   -0.298011
  18 O :   -0.356278
  19 C :   -0.299837
  20 H :    0.151467
  21 H :    0.148159
  22 H :    0.176422
  23 H :    0.149563
  24 H :    0.168968
  25 H :    0.227929
  26 H :    0.187138
  27 H :    0.163225
  28 H :    0.173869
  29 H :    0.147930
  30 H :    0.149925
  31 H :    0.177368
  32 H :    0.155715
  33 H :    0.164746
  34 H :    0.172105
  35 H :    0.155042
  36 H :    0.151555
  37 H :    0.175376
Sum of atomic charges:    0.0000000

LOEWDIN ATOMIC CHARGES
----------------------
   0 C :   -0.389179
   1 C :    0.028774
   2 O :   -0.600416
   3 C :    0.354156
   4 O :   -0.415083
   5 C :   -0.211724
   6 C :   -0.199602
   7 H :    0.212562
   8 C :    0.343088
   9 O :   -0.450425
  10 O :   -0.571987
  11 C :    0.043805
  12 C :   -0.385835
  13 S :    0.198996
  14 P :    0.409685
  15 S :   -0.073190
  16 O :   -0.637412
  17 C :   -0.050441
  18 O :   -0.688306
  19 C :   -0.063793
  20 H :    0.157151
  21 H :    0.159702
  22 H :    0.166904
  23 H :    0.177861
  24 H :    0.189168
  25 H :    0.202460
  26 H :    0.186176
  27 H :    0.183739
  28 H :    0.188770
  29 H :    0.156051
  30 H :    0.161103
  31 H :    0.169197
  32 H :    0.181173
  33 H :    0.171342
  34 H :    0.175087
  35 H :    0.167298
  36 H :    0.176783
  37 H :    0.176361

  Mayer bond orders larger than 0.100000
B(  0-C ,  1-C ) :   0.9336 B(  0-C , 20-H ) :   0.9735 B(  0-C , 21-H ) :   0.9648
B(  0-C , 22-H ) :   0.9714 B(  1-C ,  2-O ) :   0.8025 B(  1-C , 23-H ) :   0.9623
B(  1-C , 24-H ) :   0.9682 B(  2-O ,  3-C ) :   1.0727 B(  2-O ,  6-C ) :   0.1180
B(  3-C ,  4-O ) :   1.8975 B(  3-C ,  5-C ) :   0.8843 B(  5-C ,  6-C ) :   0.8465
B(  5-C , 25-H ) :   0.9851 B(  5-C , 26-H ) :   0.9472 B(  6-C ,  7-H ) :   0.8939
B(  6-C ,  8-C ) :   0.9728 B(  6-C , 13-S ) :   0.8310 B(  8-C ,  9-O ) :   1.7816
B(  8-C , 10-O ) :   1.1737 B( 10-O , 11-C ) :   0.7970 B( 11-C , 12-C ) :   0.9360
B( 11-C , 27-H ) :   0.9585 B( 11-C , 28-H ) :   0.9436 B( 12-C , 29-H ) :   0.9739
B( 12-C , 30-H ) :   0.9635 B( 12-C , 31-H ) :   0.9665 B( 13-S , 14-P ) :   1.0052
B( 14-P , 15-S ) :   1.7645 B( 14-P , 16-O ) :   1.2002 B( 14-P , 18-O ) :   1.0095
B( 16-O , 17-C ) :   0.7962 B( 17-C , 32-H ) :   0.9646 B( 17-C , 33-H ) :   0.9638
B( 17-C , 34-H ) :   0.9574 B( 18-O , 19-C ) :   0.8353 B( 19-C , 35-H ) :   0.9564
B( 19-C , 36-H ) :   0.9688 B( 19-C , 37-H ) :   0.9587

Dispersion correction           -0.017705901
FINAL SINGLE POINT ENERGY     -1981.449300740603

DIPOLE MOMENT
-------------

Method             : SCF
Type of density    : Electron Density
Multiplicity       :   1
Irrep              :   0
Energy             : -1981.4691185219376166 Eh
Relativity type    :
Basis              : AO
                                X                 Y                 Z
Electronic contribution:    -18.832618835       0.227092107       2.328127168
Nuclear contribution   :     19.351742788      -0.094544583      -3.849665616
                        -----------------------------------------
Total Dipole Moment    :      0.519123953       0.132547524      -1.521538448
                        -----------------------------------------
Magnitude (a.u.)       :      1.613114309
Magnitude (Debye)      :      4.100210724

Rotational constants in cm-1:             0.016964             0.006057             0.005477
Rotational constants in MHz :           508.557176           181.578452           164.192418

                             ****ORCA TERMINATED NORMALLY****
TOTAL RUN TIME: 0 days 0 hours 1 minutes 17 seconds 815 msec
