                         Program Version 6.0.1  -  RELEASE   -
|  1> ! r2scan-3c def2/J RI DEFGRID2 scfconv6 printgap
|  2> %output
|  3>     printlevel normal
|  4> end
|  5> %cpcm
|  6>     smd true
|  7>     smdsolvent "water"
|  8> end
|  9> * xyz 0 1
| 10> C 5.2155323132 -1.7210548093 -1.6492040738
| 11> C 4.4568641297 -0.4746873836 -1.2216034848
| 12> O 3.034085827 -0.6952345551 -1.2594227123
| 13> C 2.4601310251 -1.237039512 -0.1989245038
| 14> O 3.0481756516 -1.5662466945 0.8043382776
| 15> C 0.9679730367 -1.4311287167 -0.4025453928
| 16> C 0.3293933982 -0.2162000355 -1.0655933719
| 17> H 0.8184983243 -0.0188387982 -2.025222356
| 18> C 0.421913608 1.0462512954 -0.230123277
| 19> O -0.4562786684 1.8869658677 -0.2107195389
| 20> O 1.556089082 1.1340116187 0.4101866255
| 21> C 1.7595312879 2.267695629 1.2798767658
| 22> C 3.2114495985 2.2673268214 1.7124506193
| 23> S -1.4224504474 -0.4897710711 -1.4838272587
| 24> P -2.3707597472 0.0367228057 0.3430193117
| 25> S -1.3566112492 -0.1484381072 2.0098989174
| 26> O -3.1026130644 1.4275676264 0.2121550753
| 27> C -3.8777762366 1.7954410026 -0.9457907363
| 28> O -3.6485239116 -0.9326749047 0.2800527719
| 29> C -3.5211228858 -2.3498721427 0.4334015704
| 30> H 4.8897589426 -2.0387504613 -2.6357978826
| 31> H 6.2779307945 -1.5025052405 -1.6759506799
| 32> H 5.0390021745 -2.5262489084 -0.9398903213
| 33> H 4.6234242043 0.3493819289 -1.9156108717
| 34> H 4.7355649029 -0.1817899714 -0.2056787874
| 35> H 0.5187291124 -1.6298837212 0.5727296462
| 36> H 0.823385806 -2.3014579285 -1.0456806099
| 37> H 1.4866641879 3.1757492037 0.7338623063
| 38> H 1.0808347864 2.1536011057 2.1314179297
| 39> H 3.8603138135 2.4228361416 0.8554671798
| 40> H 3.3698070323 3.0632230375 2.4320976011
| 41> H 3.4544053613 1.3134097565 2.1731353343
| 42> H -4.3029943325 2.7652971086 -0.7017354219
| 43> H -4.6597355849 1.0587853115 -1.1213418265
| 44> H -3.2241537639 1.8715142285 -1.8144690332
| 45> H -3.0785315631 -2.7807982758 -0.4642984674
| 46> H -4.5325424873 -2.720254663 0.5791728769
| 47> H -2.9037199372 -2.5785656703 1.3036084315
| 48> *
| 49>
| 50>                          ****END OF INPUT****

CARTESIAN COORDINATES (ANGSTROEM)
---------------------------------
  C      5.215532   -1.721055   -1.649204
  C      4.456864   -0.474687   -1.221603
  O      3.034086   -0.695235   -1.259423
  C      2.460131   -1.237040   -0.198925
  O      3.048176   -1.566247    0.804338
  C      0.967973   -1.431129   -0.402545
  C      0.329393   -0.216200   -1.065593
  H      0.818498   -0.018839   -2.025222
  C      0.421914    1.046251   -0.230123
  O     -0.456279    1.886966   -0.210720
  O      1.556089    1.134012    0.410187
  C      1.759531    2.267696    1.279877
  C      3.211450    2.267327    1.712451
  S     -1.422450   -0.489771   -1.483827
  P     -2.370760    0.036723    0.343019
  S     -1.356611   -0.148438    2.009899
  O     -3.102613    1.427568    0.212155
  C     -3.877776    1.795441   -0.945791
  O     -3.648524   -0.932675    0.280053
  C     -3.521123   -2.349872    0.433402
  H      4.889759   -2.038750   -2.635798
  H      6.277931   -1.502505   -1.675951
  H      5.039002   -2.526249   -0.939890
  H      4.623424    0.349382   -1.915611
  H      4.735565   -0.181790   -0.205679
  H      0.518729   -1.629884    0.572730
  H      0.823386   -2.301458   -1.045681
  H      1.486664    3.175749    0.733862
  H      1.080835    2.153601    2.131418
  H      3.860314    2.422836    0.855467
  H      3.369807    3.063223    2.432098
  H      3.454405    1.313410    2.173135
  H     -4.302994    2.765297   -0.701735
  H     -4.659736    1.058785   -1.121342
  H     -3.224154    1.871514   -1.814469
  H     -3.078532   -2.780798   -0.464298
  H     -4.532542   -2.720255    0.579173
  H     -2.903720   -2.578566    1.303608

 Total Charge           Charge          ....    0
 Multiplicity           Mult            ....    1
 Number of Electrons    NEL             ....  174
 Basis Dimension        Dim             ....  510

ORBITAL ENERGIES
----------------

  NO   OCC          E(Eh)            E(eV)
   0   2.0000     -88.580742     -2410.4045
   1   2.0000     -88.528041     -2408.9705
   2   2.0000     -76.921946     -2093.1526
   3   2.0000     -19.016857      -517.4750
   4   2.0000     -19.005486      -517.1656
   5   2.0000     -18.996456      -516.9198
   6   2.0000     -18.992100      -516.8013
   7   2.0000     -18.950287      -515.6635
   8   2.0000     -18.946683      -515.5655
   9   2.0000     -10.178747      -276.9778
  10   2.0000     -10.170174      -276.7445
  11   2.0000     -10.100901      -274.8595
  12   2.0000     -10.090161      -274.5672
  13   2.0000     -10.085469      -274.4396
  14   2.0000     -10.084698      -274.4186
  15   2.0000     -10.080500      -274.3044
  16   2.0000     -10.054151      -273.5874
  17   2.0000     -10.020924      -272.6832
  18   2.0000     -10.018900      -272.6281
  19   2.0000      -7.874998      -214.2896
  20   2.0000      -7.823295      -212.8827
  21   2.0000      -6.599982      -179.5946
  22   2.0000      -5.822070      -158.4266
  23   2.0000      -5.818794      -158.3374
  24   2.0000      -5.811986      -158.1522
  25   2.0000      -5.771076      -157.0390
  26   2.0000      -5.763634      -156.8365
  27   2.0000      -5.763013      -156.8195
  28   2.0000      -4.745635      -129.1353
  29   2.0000      -4.745077      -129.1201
  30   2.0000      -4.743582      -129.0794
  31   2.0000      -1.097282       -29.8586
  32   2.0000      -1.083561       -29.4852
  33   2.0000      -1.053122       -28.6569
  34   2.0000      -1.009832       -27.4789
  35   2.0000      -1.001336       -27.2477
  36   2.0000      -0.994576       -27.0638
  37   2.0000      -0.815167       -22.1818
  38   2.0000      -0.750407       -20.4196
  39   2.0000      -0.746942       -20.3253
  40   2.0000      -0.728778       -19.8311
  41   2.0000      -0.697550       -18.9813
  42   2.0000      -0.668799       -18.1989
  43   2.0000      -0.661782       -18.0080
  44   2.0000      -0.651197       -17.7200
  45   2.0000      -0.621705       -16.9174
  46   2.0000      -0.597650       -16.2629
  47   2.0000      -0.544724       -14.8227
  48   2.0000      -0.534041       -14.5320
  49   2.0000      -0.525624       -14.3030
  50   2.0000      -0.505498       -13.7553
  51   2.0000      -0.491386       -13.3713
  52   2.0000      -0.487428       -13.2636
  53   2.0000      -0.475618       -12.9422
  54   2.0000      -0.463095       -12.6014
  55   2.0000      -0.456919       -12.4334
  56   2.0000      -0.451490       -12.2857
  57   2.0000      -0.446956       -12.1623
  58   2.0000      -0.434863       -11.8332
  59   2.0000      -0.427157       -11.6235
  60   2.0000      -0.421147       -11.4600
  61   2.0000      -0.411167       -11.1884
  62   2.0000      -0.407552       -11.0900
  63   2.0000      -0.402569       -10.9545
  64   2.0000      -0.389741       -10.6054
  65   2.0000      -0.384803       -10.4710
  66   2.0000      -0.369152       -10.0451
  67   2.0000      -0.367422        -9.9981
  68   2.0000      -0.361003        -9.8234
  69   2.0000      -0.355604        -9.6765
  70   2.0000      -0.344098        -9.3634
  71   2.0000      -0.342538        -9.3209
  72   2.0000      -0.338343        -9.2068
  73   2.0000      -0.330703        -8.9989
  74   2.0000      -0.320668        -8.7258
  75   2.0000      -0.316762        -8.6195
  76   2.0000      -0.315474        -8.5845
  77   2.0000      -0.307485        -8.3671
  78   2.0000      -0.293471        -7.9857
  79   2.0000      -0.287280        -7.8173
  80   2.0000      -0.279200        -7.5974
  81   2.0000      -0.277845        -7.5605
  82   2.0000      -0.265350        -7.2205
  83   2.0000      -0.258307        -7.0289
  84   2.0000      -0.242587        -6.6011
  85   2.0000      -0.225884        -6.1466
  86   2.0000      -0.223630        -6.0853
  87   0.0000      -0.053257        -1.4492
  88   0.0000      -0.038063        -1.0357
  89   0.0000      -0.020474        -0.5571
  90   0.0000       0.000181         0.0049
  91   0.0000       0.012943         0.3522

MULLIKEN ATOMIC CHARGES
-----------------------
   0 C :   -0.496382
   1 C :   -0.133493
   2 O :   -0.159512
   3 C :    0.376028
   4 O :   -0.477877
   5 C :   -0.518289
   6 C :    0.089947
   7 H :    0.250286
   8 C :    0.223237
   9 O :   -0.440616
  10 O :   -0.085196
  11 C :   -0.146204
  12 C :   -0.497580
  13 S :   -0.178063
  14 P :    0.767318
  15 S :   -0.495249
  16 O :   -0.342551
  17 C :   -0.303228
  18 O :   -0.386552
  19 C :   -0.305447
  20 H :    0.166706
  21 H :    0.171494
  22 H :    0.170469
  23 H :    0.177831
  24 H :    0.173890
  25 H :    0.222002
  26 H :    0.225338
  27 H :    0.179058
  28 H :    0.180099
  29 H :    0.171507
  30 H :    0.172894
  31 H :    0.170109
  32 H :    0.182182
  33 H :    0.185505
  34 H :    0.181007
  35 H :    0.173929
  36 H :    0.179114
  37 H :    0.176288
Sum of atomic charges:    0.0000000

LOEWDIN ATOMIC CHARGES
----------------------
   0 C :   -0.391586
   1 C :    0.035388
   2 O :   -0.594108
   3 C :    0.362138
   4 O :   -0.473687
   5 C :   -0.207250
   6 C :   -0.192333
   7 H :    0.229641
   8 C :    0.350490
   9 O :   -0.495533
  10 O :   -0.573035
  11 C :    0.046481
  12 C :   -0.386020
  13 S :    0.215500
  14 P :    0.406323
  15 S :   -0.111381
  16 O :   -0.669991
  17 C :   -0.043768
  18 O :   -0.700742
  19 C :   -0.057819
  20 H :    0.162569
  21 H :    0.168344
  22 H :    0.163199
  23 H :    0.190478
  24 H :    0.190936
  25 H :    0.198550
  26 H :    0.203559
  27 H :    0.190230
  28 H :    0.189134
  29 H :    0.163886
  30 H :    0.170011
  31 H :    0.165839
  32 H :    0.192028
  33 H :    0.181273
  34 H :    0.180011
  35 H :    0.175651
  36 H :    0.188448
  37 H :    0.177144

  Mayer bond orders larger than 0.100000
B(  0-C ,  1-C ) :   0.9318 B(  0-C , 20-H ) :   0.9695 B(  0-C , 21-H ) :   0.9597
B(  0-C , 22-H ) :   0.9693 B(  1-C ,  2-O ) :   0.7861 B(  1-C , 23-H ) :   0.9514
B(  1-C , 24-H ) :   0.9624 B(  2-O ,  3-C ) :   1.1024 B(  2-O ,  6-C ) :   0.1066
B(  3-C ,  4-O ) :   1.8266 B(  3-C ,  5-C ) :   0.9021 B(  5-C ,  6-C ) :   0.8329
B(  5-C , 25-H ) :   0.9917 B(  5-C , 26-H ) :   0.9198 B(  6-C ,  7-H ) :   0.8799
B(  6-C ,  8-C ) :   0.9788 B(  6-C , 13-S ) :   0.8103 B(  8-C ,  9-O ) :   1.7406
B(  8-C , 10-O ) :   1.1904 B( 10-O , 11-C ) :   0.7830 B( 11-C , 12-C ) :   0.9412
B( 11-C , 27-H ) :   0.9505 B( 11-C , 28-H ) :   0.9352 B( 12-C , 29-H ) :   0.9707
B( 12-C , 30-H ) :   0.9578 B( 12-C , 31-H ) :   0.9666 B( 13-S , 14-P ) :   1.0303
B( 14-P , 15-S ) :   1.7568 B( 14-P , 16-O ) :   1.1890 B( 14-P , 18-O ) :   1.0136
B( 16-O , 17-C ) :   0.7899 B( 17-C , 32-H ) :   0.9540 B( 17-C , 33-H ) :   0.9536
B( 17-C , 34-H ) :   0.9483 B( 18-O , 19-C ) :   0.8276 B( 19-C , 35-H ) :   0.9493
B( 19-C , 36-H ) :   0.9585 B( 19-C , 37-H ) :   0.9548

Dispersion correction           -0.017705901
FINAL SINGLE POINT ENERGY     -1981.465418469580

DIPOLE MOMENT
-------------

Method             : SCF
Type of density    : Electron Density
Multiplicity       :   1
Irrep              :   0
Energy             : -1981.4852362509145678 Eh
Relativity type    :
Basis              : AO
                                X                 Y                 Z
Electronic contribution:    -18.602820008       0.053687412       1.382168137
Nuclear contribution   :     19.351742788      -0.094544583      -3.849665616
                        -----------------------------------------
Total Dipole Moment    :      0.748922780      -0.040857171      -2.467497479
                        -----------------------------------------
Magnitude (a.u.)       :      2.578972363
Magnitude (Debye)      :      6.555226794

Rotational constants in cm-1:             0.016964             0.006057             0.005477
Rotational constants in MHz :           508.557176           181.578452           164.192418

                             ****ORCA TERMINATED NORMALLY****
TOTAL RUN TIME: 0 days 0 hours 1 minutes 50 seconds 509 msec
