                         Program Version 6.0.1  -  RELEASE   -
|  1> ! r2scan-3c def2/J RI DEFGRID2 scfconv6 printgap
|  2> %output
|  3>     printlevel normal
|  4> end
|  5> * xyz 0 1
|  6> C 5.3017722246 -0.8007920583 -1.8647120703
|  7> C 4.5254213255 -1.3694459731 -0.6931003703
|  8> O 3.1219748793 -1.3048033101 -1.0096270734
|  9> C 2.2849422725 -1.9283928372 -0.1992693618
| 10> O 2.6291644468 -2.6070962617 0.741733512
| 11> C 0.8409516739 -1.7569685747 -0.6359166979
| 12> C 0.5493165588 -0.2985302757 -0.9698745259
| 13> H 1.1634482555 0.0107205824 -1.8230052565
| 14> C 0.9164953763 0.6125894197 0.1868263771
| 15> O 1.8427171623 0.3718221879 0.926482983
| 16> O 0.1678576804 1.6966928001 0.2357636616
| 17> C 0.4686693421 2.6854288206 1.2412182645
| 18> C 1.5084533007 3.6677591937 0.7306744287
| 19> S -1.1623552803 -0.0459796161 -1.5318457008
| 20> P -2.1905481587 0.1684439607 0.3157440937
| 21> S -1.3645467785 -0.5807620457 1.9315954546
| 22> O -2.5966718526 1.6842100529 0.486413481
| 23> C -3.2791924709 2.4151012058 -0.5548905375
| 24> O -3.6155696379 -0.4657756997 -0.0449138168
| 25> C -3.7766170586 -1.8732055489 -0.2520456555
| 26> H 5.0940228989 -1.3748519232 -2.7626876122
| 27> H 5.0182029192 0.2335538279 -2.0333721414
| 28> H 6.3631445842 -0.8491760267 -1.6457245806
| 29> H 4.6866841786 -0.7946933743 0.2247024621
| 30> H 4.7868859829 -2.4137086332 -0.4949899194
| 31> H 0.2069023383 -2.1088117919 0.180458268
| 32> H 0.6701232028 -2.373672501 -1.519553341
| 33> H -0.4876208013 3.1701431215 1.4399836027
| 34> H 0.8173771162 2.1658701184 2.1386710338
| 35> H 1.662064515 4.4399804602 1.4769789284
| 36> H 2.4514519229 3.1552467232 0.5545042745
| 37> H 1.1700553661 4.1239699708 -0.1953921094
| 38> H -2.6902102275 2.390205437 -1.4714646436
| 39> H -3.3666111303 3.4307640605 -0.1783409405
| 40> H -4.2614908424 1.9809052822 -0.7283372375
| 41> H -4.8494378521 -2.048191972 -0.2525949225
| 42> H -3.3021044901 -2.4297203539 0.5577590421
| 43> H -3.3399849709 -2.1586628383 -1.2088366549
| 44> *
| 45>
| 46>                          ****END OF INPUT****

CARTESIAN COORDINATES (ANGSTROEM)
---------------------------------
  C      5.301772   -0.800792   -1.864712
  C      4.525421   -1.369446   -0.693100
  O      3.121975   -1.304803   -1.009627
  C      2.284942   -1.928393   -0.199269
  O      2.629164   -2.607096    0.741734
  C      0.840952   -1.756969   -0.635917
  C      0.549317   -0.298530   -0.969875
  H      1.163448    0.010721   -1.823005
  C      0.916495    0.612589    0.186826
  O      1.842717    0.371822    0.926483
  O      0.167858    1.696693    0.235764
  C      0.468669    2.685429    1.241218
  C      1.508453    3.667759    0.730674
  S     -1.162355   -0.045980   -1.531846
  P     -2.190548    0.168444    0.315744
  S     -1.364547   -0.580762    1.931595
  O     -2.596672    1.684210    0.486413
  C     -3.279192    2.415101   -0.554891
  O     -3.615570   -0.465776   -0.044914
  C     -3.776617   -1.873206   -0.252046
  H      5.094023   -1.374852   -2.762688
  H      5.018203    0.233554   -2.033372
  H      6.363145   -0.849176   -1.645725
  H      4.686684   -0.794693    0.224702
  H      4.786886   -2.413709   -0.494990
  H      0.206902   -2.108812    0.180458
  H      0.670123   -2.373673   -1.519553
  H     -0.487621    3.170143    1.439984
  H      0.817377    2.165870    2.138671
  H      1.662065    4.439980    1.476979
  H      2.451452    3.155247    0.554504
  H      1.170055    4.123970   -0.195392
  H     -2.690210    2.390205   -1.471465
  H     -3.366611    3.430764   -0.178341
  H     -4.261491    1.980905   -0.728337
  H     -4.849438   -2.048192   -0.252595
  H     -3.302104   -2.429720    0.557759
  H     -3.339985   -2.158663   -1.208837

 Total Charge           Charge          ....    0
 Multiplicity           Mult            ....    1
 Number of Electrons    NEL             ....  174
 Basis Dimension        Dim             ....  510

ORBITAL ENERGIES
----------------

  NO   OCC          E(Eh)            E(eV)
   0   2.0000     -88.579679     -2410.3756
   1   2.0000     -88.521516     -2408.7929
   2   2.0000     -76.918298     -2093.0533
   3   2.0000     -19.005745      -517.1726
   4   2.0000     -18.998824      -516.9843
   5   2.0000     -18.995631      -516.8974
   6   2.0000     -18.990228      -516.7504
   7   2.0000     -18.939918      -515.3814
   8   2.0000     -18.916387      -514.7411
   9   2.0000     -10.167979      -276.6848
  10   2.0000     -10.146722      -276.1063
  11   2.0000     -10.102350      -274.8989
  12   2.0000     -10.101453      -274.8745
  13   2.0000     -10.095144      -274.7028
  14   2.0000     -10.092954      -274.6432
  15   2.0000     -10.085329      -274.4358
  16   2.0000     -10.049637      -273.4645
  17   2.0000     -10.032728      -273.0044
  18   2.0000     -10.029128      -272.9065
  19   2.0000      -7.874130      -214.2660
  20   2.0000      -7.815969      -212.6833
  21   2.0000      -6.596450      -179.4985
  22   2.0000      -5.821098      -158.4001
  23   2.0000      -5.817822      -158.3110
  24   2.0000      -5.811282      -158.1330
  25   2.0000      -5.763947      -156.8450
  26   2.0000      -5.756098      -156.6314
  27   2.0000      -5.755858      -156.6249
  28   2.0000      -4.742213      -129.0422
  29   2.0000      -4.741535      -129.0237
  30   2.0000      -4.739868      -128.9784
  31   2.0000      -1.085007       -29.5245
  32   2.0000      -1.065839       -29.0030
  33   2.0000      -1.055420       -28.7194
  34   2.0000      -1.013310       -27.5736
  35   2.0000      -0.990272       -26.9467
  36   2.0000      -0.966467       -26.2989
  37   2.0000      -0.813182       -22.1278
  38   2.0000      -0.752680       -20.4815
  39   2.0000      -0.743270       -20.2254
  40   2.0000      -0.733073       -19.9479
  41   2.0000      -0.697883       -18.9904
  42   2.0000      -0.680668       -18.5219
  43   2.0000      -0.662893       -18.0382
  44   2.0000      -0.651750       -17.7350
  45   2.0000      -0.618506       -16.8304
  46   2.0000      -0.599199       -16.3050
  47   2.0000      -0.545768       -14.8511
  48   2.0000      -0.531277       -14.4568
  49   2.0000      -0.529091       -14.3973
  50   2.0000      -0.506785       -13.7903
  51   2.0000      -0.499168       -13.5831
  52   2.0000      -0.469797       -12.7838
  53   2.0000      -0.460300       -12.5254
  54   2.0000      -0.460167       -12.5218
  55   2.0000      -0.457395       -12.4463
  56   2.0000      -0.450000       -12.2451
  57   2.0000      -0.437868       -11.9150
  58   2.0000      -0.436209       -11.8698
  59   2.0000      -0.430057       -11.7024
  60   2.0000      -0.423459       -11.5229
  61   2.0000      -0.421536       -11.4706
  62   2.0000      -0.407611       -11.0917
  63   2.0000      -0.399224       -10.8634
  64   2.0000      -0.390373       -10.6226
  65   2.0000      -0.376270       -10.2388
  66   2.0000      -0.373653       -10.1676
  67   2.0000      -0.363959        -9.9038
  68   2.0000      -0.360432        -9.8078
  69   2.0000      -0.356150        -9.6913
  70   2.0000      -0.351533        -9.5657
  71   2.0000      -0.344420        -9.3721
  72   2.0000      -0.336877        -9.1669
  73   2.0000      -0.328090        -8.9278
  74   2.0000      -0.324740        -8.8366
  75   2.0000      -0.316380        -8.6091
  76   2.0000      -0.313769        -8.5381
  77   2.0000      -0.311466        -8.4754
  78   2.0000      -0.293292        -7.9809
  79   2.0000      -0.283294        -7.7088
  80   2.0000      -0.280105        -7.6220
  81   2.0000      -0.262665        -7.1475
  82   2.0000      -0.258396        -7.0313
  83   2.0000      -0.237096        -6.4517
  84   2.0000      -0.224053        -6.0968
  85   2.0000      -0.218664        -5.9501
  86   2.0000      -0.215354        -5.8601
  87   0.0000      -0.044948        -1.2231
  88   0.0000      -0.031385        -0.8540
  89   0.0000      -0.002493        -0.0679
  90   0.0000       0.003799         0.1034
  91   0.0000       0.010003         0.2722

MULLIKEN ATOMIC CHARGES
-----------------------
   0 C :   -0.453156
   1 C :   -0.148670
   2 O :   -0.129268
   3 C :    0.333879
   4 O :   -0.379081
   5 C :   -0.478305
   6 C :    0.051693
   7 H :    0.204528
   8 C :    0.261918
   9 O :   -0.375501
  10 O :   -0.142316
  11 C :   -0.158739
  12 C :   -0.471104
  13 S :   -0.189462
  14 P :    0.755919
  15 S :   -0.408906
  16 O :   -0.310266
  17 C :   -0.291825
  18 O :   -0.357366
  19 C :   -0.298837
  20 H :    0.151459
  21 H :    0.150517
  22 H :    0.147900
  23 H :    0.165364
  24 H :    0.164222
  25 H :    0.216446
  26 H :    0.183951
  27 H :    0.163542
  28 H :    0.184798
  29 H :    0.151665
  30 H :    0.169093
  31 H :    0.151581
  32 H :    0.170417
  33 H :    0.155693
  34 H :    0.170225
  35 H :    0.153167
  36 H :    0.176601
  37 H :    0.158223
Sum of atomic charges:   -0.0000000

LOEWDIN ATOMIC CHARGES
----------------------
   0 C :   -0.388223
   1 C :    0.036202
   2 O :   -0.605376
   3 C :    0.354013
   4 O :   -0.404706
   5 C :   -0.212021
   6 C :   -0.198956
   7 H :    0.212412
   8 C :    0.346620
   9 O :   -0.401703
  10 O :   -0.627138
  11 C :    0.032259
  12 C :   -0.387285
  13 S :    0.194817
  14 P :    0.401727
  15 S :   -0.047844
  16 O :   -0.652169
  17 C :   -0.051710
  18 O :   -0.684418
  19 C :   -0.059209
  20 H :    0.158187
  21 H :    0.157498
  22 H :    0.159743
  23 H :    0.182941
  24 H :    0.183675
  25 H :    0.200580
  26 H :    0.184093
  27 H :    0.185063
  28 H :    0.196282
  29 H :    0.160779
  30 H :    0.164235
  31 H :    0.156847
  32 H :    0.174037
  33 H :    0.179462
  34 H :    0.175033
  35 H :    0.177948
  36 H :    0.177315
  37 H :    0.168990

  Mayer bond orders larger than 0.100000
B(  0-C ,  1-C ) :   0.9392 B(  0-C , 20-H ) :   0.9748 B(  0-C , 21-H ) :   0.9734
B(  0-C , 22-H ) :   0.9684 B(  1-C ,  2-O ) :   0.7864 B(  1-C , 23-H ) :   0.9493
B(  1-C , 24-H ) :   0.9568 B(  2-O ,  3-C ) :   1.1006 B(  2-O ,  6-C ) :   0.1258
B(  3-C ,  4-O ) :   1.8865 B(  3-C ,  5-C ) :   0.8771 B(  5-C ,  6-C ) :   0.8723
B(  5-C , 25-H ) :   0.9893 B(  5-C , 26-H ) :   0.9518 B(  6-C ,  7-H ) :   0.8842
B(  6-C ,  8-C ) :   0.9860 B(  6-C , 13-S ) :   0.8317 B(  8-C ,  9-O ) :   1.7880
B(  8-C , 10-O ) :   1.0977 B( 10-O , 11-C ) :   0.7894 B( 11-C , 12-C ) :   0.9229
B( 11-C , 27-H ) :   0.9564 B( 11-C , 28-H ) :   0.9641 B( 12-C , 29-H ) :   0.9657
B( 12-C , 30-H ) :   0.9734 B( 12-C , 31-H ) :   0.9765 B( 13-S , 14-P ) :   1.0165
B( 14-P , 15-S ) :   1.7930 B( 14-P , 16-O ) :   1.1397 B( 14-P , 18-O ) :   1.0219
B( 16-O , 17-C ) :   0.7980 B( 17-C , 32-H ) :   0.9556 B( 17-C , 33-H ) :   0.9649
B( 17-C , 34-H ) :   0.9607 B( 18-O , 19-C ) :   0.8314 B( 19-C , 35-H ) :   0.9673
B( 19-C , 36-H ) :   0.9587 B( 19-C , 37-H ) :   0.9561

Dispersion correction           -0.017692062
FINAL SINGLE POINT ENERGY     -1981.452259637941

DIPOLE MOMENT
-------------

Method             : SCF
Type of density    : Electron Density
Multiplicity       :   1
Irrep              :   0
Energy             : -1981.4719431656317283 Eh
Relativity type    :
Basis              : AO
                                X                 Y                 Z
Electronic contribution:    -13.770324756      -6.539702867       5.693259607
Nuclear contribution   :     13.117130599       7.879625233      -7.536518690
                        -----------------------------------------
Total Dipole Moment    :     -0.653194157       1.339922366      -1.843259084
                        -----------------------------------------
Magnitude (a.u.)       :      2.370581912
Magnitude (Debye)      :      6.025540363

Rotational constants in cm-1:             0.015188             0.006598             0.005617
Rotational constants in MHz :           455.333839           197.813337           168.400607

                             ****ORCA TERMINATED NORMALLY****
TOTAL RUN TIME: 0 days 0 hours 1 minutes 38 seconds 424 msec
