                         Program Version 6.0.1  -  RELEASE   -
|  1> ! r2scan-3c def2/J RI DEFGRID2 scfconv6 printgap
|  2> %output
|  3>     printlevel normal
|  4> end
|  5> %cpcm
|  6>     smd true
|  7>     smdsolvent "water"
|  8> end
|  9> * xyz 0 1
| 10> C 5.3017722246 -0.8007920583 -1.8647120703
| 11> C 4.5254213255 -1.3694459731 -0.6931003703
| 12> O 3.1219748793 -1.3048033101 -1.0096270734
| 13> C 2.2849422725 -1.9283928372 -0.1992693618
| 14> O 2.6291644468 -2.6070962617 0.741733512
| 15> C 0.8409516739 -1.7569685747 -0.6359166979
| 16> C 0.5493165588 -0.2985302757 -0.9698745259
| 17> H 1.1634482555 0.0107205824 -1.8230052565
| 18> C 0.9164953763 0.6125894197 0.1868263771
| 19> O 1.8427171623 0.3718221879 0.926482983
| 20> O 0.1678576804 1.6966928001 0.2357636616
| 21> C 0.4686693421 2.6854288206 1.2412182645
| 22> C 1.5084533007 3.6677591937 0.7306744287
| 23> S -1.1623552803 -0.0459796161 -1.5318457008
| 24> P -2.1905481587 0.1684439607 0.3157440937
| 25> S -1.3645467785 -0.5807620457 1.9315954546
| 26> O -2.5966718526 1.6842100529 0.486413481
| 27> C -3.2791924709 2.4151012058 -0.5548905375
| 28> O -3.6155696379 -0.4657756997 -0.0449138168
| 29> C -3.7766170586 -1.8732055489 -0.2520456555
| 30> H 5.0940228989 -1.3748519232 -2.7626876122
| 31> H 5.0182029192 0.2335538279 -2.0333721414
| 32> H 6.3631445842 -0.8491760267 -1.6457245806
| 33> H 4.6866841786 -0.7946933743 0.2247024621
| 34> H 4.7868859829 -2.4137086332 -0.4949899194
| 35> H 0.2069023383 -2.1088117919 0.180458268
| 36> H 0.6701232028 -2.373672501 -1.519553341
| 37> H -0.4876208013 3.1701431215 1.4399836027
| 38> H 0.8173771162 2.1658701184 2.1386710338
| 39> H 1.662064515 4.4399804602 1.4769789284
| 40> H 2.4514519229 3.1552467232 0.5545042745
| 41> H 1.1700553661 4.1239699708 -0.1953921094
| 42> H -2.6902102275 2.390205437 -1.4714646436
| 43> H -3.3666111303 3.4307640605 -0.1783409405
| 44> H -4.2614908424 1.9809052822 -0.7283372375
| 45> H -4.8494378521 -2.048191972 -0.2525949225
| 46> H -3.3021044901 -2.4297203539 0.5577590421
| 47> H -3.3399849709 -2.1586628383 -1.2088366549
| 48> *
| 49>
| 50>                          ****END OF INPUT****

CARTESIAN COORDINATES (ANGSTROEM)
---------------------------------
  C      5.301772   -0.800792   -1.864712
  C      4.525421   -1.369446   -0.693100
  O      3.121975   -1.304803   -1.009627
  C      2.284942   -1.928393   -0.199269
  O      2.629164   -2.607096    0.741734
  C      0.840952   -1.756969   -0.635917
  C      0.549317   -0.298530   -0.969875
  H      1.163448    0.010721   -1.823005
  C      0.916495    0.612589    0.186826
  O      1.842717    0.371822    0.926483
  O      0.167858    1.696693    0.235764
  C      0.468669    2.685429    1.241218
  C      1.508453    3.667759    0.730674
  S     -1.162355   -0.045980   -1.531846
  P     -2.190548    0.168444    0.315744
  S     -1.364547   -0.580762    1.931595
  O     -2.596672    1.684210    0.486413
  C     -3.279192    2.415101   -0.554891
  O     -3.615570   -0.465776   -0.044914
  C     -3.776617   -1.873206   -0.252046
  H      5.094023   -1.374852   -2.762688
  H      5.018203    0.233554   -2.033372
  H      6.363145   -0.849176   -1.645725
  H      4.686684   -0.794693    0.224702
  H      4.786886   -2.413709   -0.494990
  H      0.206902   -2.108812    0.180458
  H      0.670123   -2.373673   -1.519553
  H     -0.487621    3.170143    1.439984
  H      0.817377    2.165870    2.138671
  H      1.662065    4.439980    1.476979
  H      2.451452    3.155247    0.554504
  H      1.170055    4.123970   -0.195392
  H     -2.690210    2.390205   -1.471465
  H     -3.366611    3.430764   -0.178341
  H     -4.261491    1.980905   -0.728337
  H     -4.849438   -2.048192   -0.252595
  H     -3.302104   -2.429720    0.557759
  H     -3.339985   -2.158663   -1.208837

 Total Charge           Charge          ....    0
 Multiplicity           Mult            ....    1
 Number of Electrons    NEL             ....  174
 Basis Dimension        Dim             ....  510

ORBITAL ENERGIES
----------------

  NO   OCC          E(Eh)            E(eV)
   0   2.0000     -88.581609     -2410.4281
   1   2.0000     -88.531929     -2409.0763
   2   2.0000     -76.923219     -2093.1872
   3   2.0000     -19.011815      -517.3378
   4   2.0000     -19.003626      -517.1149
   5   2.0000     -18.998660      -516.9798
   6   2.0000     -18.995947      -516.9060
   7   2.0000     -18.955376      -515.8020
   8   2.0000     -18.944747      -515.5128
   9   2.0000     -10.179922      -277.0098
  10   2.0000     -10.168645      -276.7029
  11   2.0000     -10.101812      -274.8843
  12   2.0000     -10.087379      -274.4915
  13   2.0000     -10.085342      -274.4361
  14   2.0000     -10.085164      -274.4313
  15   2.0000     -10.082426      -274.3568
  16   2.0000     -10.053369      -273.5661
  17   2.0000     -10.020220      -272.6640
  18   2.0000     -10.019255      -272.6378
  19   2.0000      -7.875920      -214.3147
  20   2.0000      -7.826840      -212.9791
  21   2.0000      -6.601430      -179.6341
  22   2.0000      -5.822977      -158.4513
  23   2.0000      -5.819675      -158.3614
  24   2.0000      -5.812935      -158.1780
  25   2.0000      -5.774655      -157.1363
  26   2.0000      -5.767050      -156.9294
  27   2.0000      -5.766724      -156.9205
  28   2.0000      -4.747120      -129.1757
  29   2.0000      -4.746463      -129.1578
  30   2.0000      -4.745025      -129.1187
  31   2.0000      -1.093275       -29.7495
  32   2.0000      -1.082357       -29.4524
  33   2.0000      -1.055271       -28.7154
  34   2.0000      -1.012433       -27.5497
  35   2.0000      -1.003700       -27.3121
  36   2.0000      -0.992053       -26.9951
  37   2.0000      -0.815690       -22.1960
  38   2.0000      -0.753261       -20.4973
  39   2.0000      -0.739595       -20.1254
  40   2.0000      -0.730897       -19.8887
  41   2.0000      -0.697654       -18.9841
  42   2.0000      -0.671618       -18.2757
  43   2.0000      -0.662412       -18.0251
  44   2.0000      -0.652016       -17.7422
  45   2.0000      -0.617659       -16.8073
  46   2.0000      -0.598622       -16.2893
  47   2.0000      -0.543431       -14.7875
  48   2.0000      -0.536126       -14.5887
  49   2.0000      -0.528598       -14.3839
  50   2.0000      -0.509323       -13.8594
  51   2.0000      -0.493927       -13.4404
  52   2.0000      -0.476655       -12.9704
  53   2.0000      -0.469661       -12.7801
  54   2.0000      -0.463866       -12.6224
  55   2.0000      -0.459903       -12.5146
  56   2.0000      -0.449876       -12.2417
  57   2.0000      -0.444297       -12.0899
  58   2.0000      -0.438763       -11.9394
  59   2.0000      -0.428862       -11.6699
  60   2.0000      -0.428472       -11.6593
  61   2.0000      -0.411679       -11.2024
  62   2.0000      -0.407392       -11.0857
  63   2.0000      -0.400323       -10.8933
  64   2.0000      -0.389868       -10.6089
  65   2.0000      -0.375052       -10.2057
  66   2.0000      -0.370988       -10.0951
  67   2.0000      -0.363064        -9.8795
  68   2.0000      -0.361340        -9.8326
  69   2.0000      -0.356733        -9.7072
  70   2.0000      -0.349728        -9.5166
  71   2.0000      -0.342894        -9.3306
  72   2.0000      -0.338169        -9.2020
  73   2.0000      -0.327204        -8.9037
  74   2.0000      -0.322926        -8.7873
  75   2.0000      -0.318802        -8.6750
  76   2.0000      -0.318109        -8.6562
  77   2.0000      -0.310191        -8.4407
  78   2.0000      -0.293343        -7.9823
  79   2.0000      -0.284863        -7.7515
  80   2.0000      -0.284443        -7.7401
  81   2.0000      -0.277549        -7.5525
  82   2.0000      -0.268867        -7.3162
  83   2.0000      -0.255478        -6.9519
  84   2.0000      -0.240515        -6.5447
  85   2.0000      -0.230540        -6.2733
  86   2.0000      -0.226360        -6.1596
  87   0.0000      -0.050568        -1.3760
  88   0.0000      -0.039523        -1.0755
  89   0.0000      -0.018836        -0.5125
  90   0.0000       0.000731         0.0199
  91   0.0000       0.006698         0.1822

MULLIKEN ATOMIC CHARGES
-----------------------
   0 C :   -0.494450
   1 C :   -0.145195
   2 O :   -0.145656
   3 C :    0.363828
   4 O :   -0.474289
   5 C :   -0.493495
   6 C :    0.066669
   7 H :    0.248945
   8 C :    0.277581
   9 O :   -0.442911
  10 O :   -0.151573
  11 C :   -0.153319
  12 C :   -0.500109
  13 S :   -0.178823
  14 P :    0.787483
  15 S :   -0.483881
  16 O :   -0.344491
  17 C :   -0.297595
  18 O :   -0.383306
  19 C :   -0.307910
  20 H :    0.166383
  21 H :    0.165632
  22 H :    0.169868
  23 H :    0.176005
  24 H :    0.173554
  25 H :    0.214365
  26 H :    0.224992
  27 H :    0.183335
  28 H :    0.180501
  29 H :    0.173964
  30 H :    0.170404
  31 H :    0.168898
  32 H :    0.180829
  33 H :    0.184159
  34 H :    0.185891
  35 H :    0.180605
  36 H :    0.177330
  37 H :    0.175779
Sum of atomic charges:   -0.0000000

LOEWDIN ATOMIC CHARGES
----------------------
   0 C :   -0.388612
   1 C :    0.038902
   2 O :   -0.599538
   3 C :    0.359909
   4 O :   -0.475989
   5 C :   -0.208221
   6 C :   -0.193596
   7 H :    0.229898
   8 C :    0.353345
   9 O :   -0.452546
  10 O :   -0.625514
  11 C :    0.035570
  12 C :   -0.387241
  13 S :    0.216531
  14 P :    0.406845
  15 S :   -0.101823
  16 O :   -0.669027
  17 C :   -0.042274
  18 O :   -0.692526
  19 C :   -0.053935
  20 H :    0.163188
  21 H :    0.162676
  22 H :    0.168708
  23 H :    0.185520
  24 H :    0.187249
  25 H :    0.197471
  26 H :    0.203062
  27 H :    0.193364
  28 H :    0.193967
  29 H :    0.169250
  30 H :    0.163888
  31 H :    0.163738
  32 H :    0.179841
  33 H :    0.191779
  34 H :    0.182262
  35 H :    0.189457
  36 H :    0.177824
  37 H :    0.176596

  Mayer bond orders larger than 0.100000
B(  0-C ,  1-C ) :   0.9471 B(  0-C , 20-H ) :   0.9720 B(  0-C , 21-H ) :   0.9687
B(  0-C , 22-H ) :   0.9614 B(  1-C ,  2-O ) :   0.7721 B(  1-C , 23-H ) :   0.9387
B(  1-C , 24-H ) :   0.9505 B(  2-O ,  3-C ) :   1.1248 B(  2-O ,  6-C ) :   0.1087
B(  3-C ,  4-O ) :   1.8144 B(  3-C ,  5-C ) :   0.8915 B(  5-C ,  6-C ) :   0.8412
B(  5-C , 25-H ) :   0.9965 B(  5-C , 26-H ) :   0.9235 B(  6-C ,  7-H ) :   0.8751
B(  6-C ,  8-C ) :   0.9877 B(  6-C , 13-S ) :   0.8178 B(  8-C ,  9-O ) :   1.7409
B(  8-C , 10-O ) :   1.1184 B( 10-O , 11-C ) :   0.7700 B( 11-C , 12-C ) :   0.9315
B( 11-C , 27-H ) :   0.9470 B( 11-C , 28-H ) :   0.9558 B( 12-C , 29-H ) :   0.9597
B( 12-C , 30-H ) :   0.9697 B( 12-C , 31-H ) :   0.9721 B( 13-S , 14-P ) :   1.0346
B( 14-P , 15-S ) :   1.7475 B( 14-P , 16-O ) :   1.1494 B( 14-P , 18-O ) :   1.0333
B( 16-O , 17-C ) :   0.7889 B( 17-C , 32-H ) :   0.9472 B( 17-C , 33-H ) :   0.9539
B( 17-C , 34-H ) :   0.9520 B( 18-O , 19-C ) :   0.8238 B( 19-C , 35-H ) :   0.9573
B( 19-C , 36-H ) :   0.9549 B( 19-C , 37-H ) :   0.9496

Dispersion correction           -0.017692062
FINAL SINGLE POINT ENERGY     -1981.469897960318

DIPOLE MOMENT
-------------

Method             : SCF
Type of density    : Electron Density
Multiplicity       :   1
Irrep              :   0
Energy             : -1981.4895814880082980 Eh
Relativity type    :
Basis              : AO
                                X                 Y                 Z
Electronic contribution:    -14.077163695      -6.039179919       4.496016296
Nuclear contribution   :     13.117130599       7.879625233      -7.536518690
                        -----------------------------------------
Total Dipole Moment    :     -0.960033096       1.840445314      -3.040502394
                        -----------------------------------------
Magnitude (a.u.)       :      3.681515627
Magnitude (Debye)      :      9.357669057

Rotational constants in cm-1:             0.015188             0.006598             0.005617
Rotational constants in MHz :           455.333839           197.813337           168.400607

                             ****ORCA TERMINATED NORMALLY****
TOTAL RUN TIME: 0 days 0 hours 2 minutes 3 seconds 484 msec
