                         Program Version 6.0.0  -   RELEASE  -
|  1> ! pbe def2-sv(p) def2/J RI DEFGRID1 loosescf d4 GCP(DFT/SV(P)) printgap
|  2> %output
|  3>     printlevel normal
|  4> end
|  5> * xyz 0 1
|  6> C 2.4241961668 1.1046145329 -2.8182599324
|  7> C 1.6797980237 1.4752620416 -1.551376979
|  8> O 1.6353114538 0.3292566882 -0.6867982648
|  9> P 2.1772091416 0.3091281423 0.8147031523
| 10> S 3.4813270257 1.7137174966 1.2094744733
| 11> O 2.6649600993 -1.1935388828 0.9655328571
| 12> C 3.8656586984 -1.6342179013 0.2879692793
| 13> C 4.2979368183 -2.9427194229 0.915066062
| 14> S 0.5028473786 0.2140536752 2.0661800154
| 15> C -0.3021876335 -1.3000839989 1.3986698921
| 16> S -2.0762609745 -1.0801905825 1.196726885
| 17> P -1.9807022341 -0.1135584223 -0.7041568899
| 18> S -0.931275932 -1.0225808008 -2.078571968
| 19> O -1.4213484525 1.3331926814 -0.392471317
| 20> C -2.0491129618 2.2480106754 0.5400055094
| 21> C -2.957674771 3.2180958963 -0.1856462321
| 22> O -3.5012970824 0.1654012548 -1.0654318864
| 23> C -4.3219405971 -0.801536789 -1.7466288515
| 24> C -4.567008563 -2.040162078 -0.9102191548
| 25> H 1.9436585771 0.2499780914 -3.2883935156
| 26> H 2.4062021126 1.947877718 -3.5006850277
| 27> H 3.456393193 0.8529398823 -2.5862439291
| 28> H 0.6432552011 1.7452176646 -1.7648514878
| 29> H 2.1764425398 2.2971275806 -1.024644399
| 30> H 3.6313703541 -1.7527035068 -0.7731900821
| 31> H 4.6308576258 -0.8589256978 0.4033243619
| 32> H 5.1999734852 -3.2906290075 0.4222927848
| 33> H 4.4984750169 -2.8000344256 1.9731730027
| 34> H 3.5156019189 -3.6873664767 0.8009637457
| 35> H -0.1561373076 -2.1014172017 2.1170497496
| 36> H 0.142730964 -1.538255705 0.4320553987
| 37> H -2.6004266726 1.6706175804 1.2872192324
| 38> H -1.2152900239 2.76211719 1.0236770013
| 39> H -3.7775858626 2.6845172036 -0.6585371091
| 40> H -3.3576410042 3.9280594152 0.5315062008
| 41> H -2.4004289171 3.755741655 -0.9480505407
| 42> H -5.2481824428 -0.260907016 -1.9461239852
| 43> H -3.8336065347 -1.0635674682 -2.6901208106
| 44> H -3.6421172905 -2.6027464169 -0.7947932996
| 45> H -4.9350197131 -1.7656613837 0.0751671721
| 46> H -5.2998707664 -2.6676493196 -1.4072476461
| 47> *
| 48>
| 49>                          ****END OF INPUT****

CARTESIAN COORDINATES (ANGSTROEM)
---------------------------------
  C      2.424196    1.104615   -2.818260
  C      1.679798    1.475262   -1.551377
  O      1.635311    0.329257   -0.686798
  P      2.177209    0.309128    0.814703
  S      3.481327    1.713717    1.209474
  O      2.664960   -1.193539    0.965533
  C      3.865659   -1.634218    0.287969
  C      4.297937   -2.942719    0.915066
  S      0.502847    0.214054    2.066180
  C     -0.302188   -1.300084    1.398670
  S     -2.076261   -1.080191    1.196727
  P     -1.980702   -0.113558   -0.704157
  S     -0.931276   -1.022581   -2.078572
  O     -1.421348    1.333193   -0.392471
  C     -2.049113    2.248011    0.540006
  C     -2.957675    3.218096   -0.185646
  O     -3.501297    0.165401   -1.065432
  C     -4.321941   -0.801537   -1.746629
  C     -4.567009   -2.040162   -0.910219
  H      1.943659    0.249978   -3.288394
  H      2.406202    1.947878   -3.500685
  H      3.456393    0.852940   -2.586244
  H      0.643255    1.745218   -1.764851
  H      2.176443    2.297128   -1.024644
  H      3.631370   -1.752704   -0.773190
  H      4.630858   -0.858926    0.403324
  H      5.199973   -3.290629    0.422293
  H      4.498475   -2.800034    1.973173
  H      3.515602   -3.687366    0.800964
  H     -0.156137   -2.101417    2.117050
  H      0.142731   -1.538256    0.432055
  H     -2.600427    1.670618    1.287219
  H     -1.215290    2.762117    1.023677
  H     -3.777586    2.684517   -0.658537
  H     -3.357641    3.928059    0.531506
  H     -2.400429    3.755742   -0.948051
  H     -5.248182   -0.260907   -1.946124
  H     -3.833607   -1.063567   -2.690121
  H     -3.642117   -2.602746   -0.794793
  H     -4.935020   -1.765661    0.075167
  H     -5.299871   -2.667649   -1.407248

 Total Charge           Charge          ....    0
 Multiplicity           Mult            ....    1
 Number of Electrons    NEL             ....  202
 Basis Dimension        Dim             ....  334

ORBITAL ENERGIES
----------------

  NO   OCC          E(Eh)            E(eV)
   0   2.0000     -88.051079     -2395.9917
   1   2.0000     -88.038871     -2395.6595
   2   2.0000     -87.991461     -2394.3694
   3   2.0000     -87.981324     -2394.0935
   4   2.0000     -76.433016     -2079.8481
   5   2.0000     -76.419131     -2079.4703
   6   2.0000     -18.804679      -511.7013
   7   2.0000     -18.796963      -511.4914
   8   2.0000     -18.788590      -511.2635
   9   2.0000     -18.779862      -511.0260
  10   2.0000      -9.961617      -271.0694
  11   2.0000      -9.958399      -270.9818
  12   2.0000      -9.955244      -270.8960
  13   2.0000      -9.950144      -270.7572
  14   2.0000      -9.934245      -270.3246
  15   2.0000      -9.892005      -269.1752
  16   2.0000      -9.887704      -269.0581
  17   2.0000      -9.886645      -269.0293
  18   2.0000      -9.873813      -268.6801
  19   2.0000      -7.696037      -209.4198
  20   2.0000      -7.684366      -209.1022
  21   2.0000      -7.636528      -207.8005
  22   2.0000      -7.626575      -207.5297
  23   2.0000      -6.430564      -174.9846
  24   2.0000      -6.417364      -174.6253
  25   2.0000      -5.723785      -155.7521
  26   2.0000      -5.720529      -155.6635
  27   2.0000      -5.713176      -155.4634
  28   2.0000      -5.712691      -155.4502
  29   2.0000      -5.708706      -155.3418
  30   2.0000      -5.700978      -155.1315
  31   2.0000      -5.665532      -154.1670
  32   2.0000      -5.657032      -153.9357
  33   2.0000      -5.656671      -153.9258
  34   2.0000      -5.655499      -153.8940
  35   2.0000      -5.647333      -153.6717
  36   2.0000      -5.646572      -153.6510
  37   2.0000      -4.653516      -126.6286
  38   2.0000      -4.652294      -126.5954
  39   2.0000      -4.650705      -126.5521
  40   2.0000      -4.639766      -126.2544
  41   2.0000      -4.639252      -126.2405
  42   2.0000      -4.637806      -126.2011
  43   2.0000      -0.995905       -27.0999
  44   2.0000      -0.979557       -26.6551
  45   2.0000      -0.952792       -25.9268
  46   2.0000      -0.935658       -25.4605
  47   2.0000      -0.765324       -20.8255
  48   2.0000      -0.724886       -19.7251
  49   2.0000      -0.711249       -19.3541
  50   2.0000      -0.696244       -18.9458
  51   2.0000      -0.681115       -18.5341
  52   2.0000      -0.674153       -18.3446
  53   2.0000      -0.652935       -17.7673
  54   2.0000      -0.637642       -17.3511
  55   2.0000      -0.602082       -16.3835
  56   2.0000      -0.583162       -15.8686
  57   2.0000      -0.578205       -15.7338
  58   2.0000      -0.563704       -15.3392
  59   2.0000      -0.561909       -15.2903
  60   2.0000      -0.505978       -13.7684
  61   2.0000      -0.499422       -13.5900
  62   2.0000      -0.481314       -13.0972
  63   2.0000      -0.474030       -12.8990
  64   2.0000      -0.458374       -12.4730
  65   2.0000      -0.450423       -12.2566
  66   2.0000      -0.436921       -11.8892
  67   2.0000      -0.435195       -11.8422
  68   2.0000      -0.430009       -11.7011
  69   2.0000      -0.420361       -11.4386
  70   2.0000      -0.417829       -11.3697
  71   2.0000      -0.396077       -10.7778
  72   2.0000      -0.391676       -10.6580
  73   2.0000      -0.386280       -10.5112
  74   2.0000      -0.377032       -10.2596
  75   2.0000      -0.370112       -10.0712
  76   2.0000      -0.366142        -9.9632
  77   2.0000      -0.359511        -9.7828
  78   2.0000      -0.358139        -9.7455
  79   2.0000      -0.352573        -9.5940
  80   2.0000      -0.350606        -9.5405
  81   2.0000      -0.347799        -9.4641
  82   2.0000      -0.340319        -9.2605
  83   2.0000      -0.333598        -9.0777
  84   2.0000      -0.325238        -8.8502
  85   2.0000      -0.321991        -8.7618
  86   2.0000      -0.313726        -8.5369
  87   2.0000      -0.302839        -8.2407
  88   2.0000      -0.297297        -8.0899
  89   2.0000      -0.291881        -7.9425
  90   2.0000      -0.282246        -7.6803
  91   2.0000      -0.274882        -7.4799
  92   2.0000      -0.270770        -7.3680
  93   2.0000      -0.268726        -7.3124
  94   2.0000      -0.256716        -6.9856
  95   2.0000      -0.240388        -6.5413
  96   2.0000      -0.218628        -5.9492
  97   2.0000      -0.210932        -5.7398
  98   2.0000      -0.207743        -5.6530
  99   2.0000      -0.202559        -5.5119
 100   2.0000      -0.193707        -5.2710
 101   0.0000      -0.042469        -1.1556
 102   0.0000      -0.027620        -0.7516
 103   0.0000      -0.019256        -0.5240
 104   0.0000       0.004668         0.1270
 105   0.0000       0.019082         0.5192

MULLIKEN ATOMIC CHARGES
-----------------------
   0 C :   -0.288668
   1 C :   -0.010772
   2 O :   -0.378497
   3 P :    0.616292
   4 S :   -0.328846
   5 O :   -0.385621
   6 C :   -0.018453
   7 C :   -0.275212
   8 S :   -0.078959
   9 C :   -0.356317
  10 S :   -0.094184
  11 P :    0.604574
  12 S :   -0.299937
  13 O :   -0.355570
  14 C :   -0.014037
  15 C :   -0.285303
  16 O :   -0.378629
  17 C :   -0.001602
  18 C :   -0.325874
  19 H :    0.118651
  20 H :    0.104996
  21 H :    0.104730
  22 H :    0.109355
  23 H :    0.101608
  24 H :    0.108154
  25 H :    0.106286
  26 H :    0.111342
  27 H :    0.121282
  28 H :    0.114793
  29 H :    0.189662
  30 H :    0.203024
  31 H :    0.102027
  32 H :    0.115968
  33 H :    0.119562
  34 H :    0.111529
  35 H :    0.118218
  36 H :    0.107791
  37 H :    0.114892
  38 H :    0.132580
  39 H :    0.120493
  40 H :    0.118670
Sum of atomic charges:    0.0000000

LOEWDIN ATOMIC CHARGES
----------------------
   0 C :   -0.354762
   1 C :   -0.127665
   2 O :   -0.243688
   3 P :    0.560777
   4 S :   -0.323191
   5 O :   -0.252984
   6 C :   -0.118350
   7 C :   -0.349995
   8 S :    0.080066
   9 C :   -0.474816
  10 S :    0.084225
  11 P :    0.578743
  12 S :   -0.297913
  13 O :   -0.229611
  14 C :   -0.120441
  15 C :   -0.359255
  16 O :   -0.243935
  17 C :   -0.116691
  18 C :   -0.372468
  19 H :    0.124724
  20 H :    0.127786
  21 H :    0.119929
  22 H :    0.109655
  23 H :    0.101456
  24 H :    0.113252
  25 H :    0.109418
  26 H :    0.130939
  27 H :    0.129597
  28 H :    0.126097
  29 H :    0.139006
  30 H :    0.127946
  31 H :    0.103128
  32 H :    0.120144
  33 H :    0.124927
  34 H :    0.130849
  35 H :    0.127659
  36 H :    0.119824
  37 H :    0.114144
  38 H :    0.123076
  39 H :    0.124263
  40 H :    0.134136

  Mayer bond orders larger than 0.100000
B(  0-C ,  1-C ) :   1.1669 B(  0-C , 19-H ) :   0.9482 B(  0-C , 20-H ) :   0.9421
B(  0-C , 21-H ) :   0.9474 B(  1-C ,  2-O ) :   0.9004 B(  1-C , 22-H ) :   0.9137
B(  1-C , 23-H ) :   0.9004 B(  2-O ,  3-P ) :   1.0947 B(  3-P ,  4-S ) :   1.6517
B(  3-P ,  5-O ) :   1.0866 B(  3-P ,  8-S ) :   0.9984 B(  5-O ,  6-C ) :   0.8986
B(  6-C ,  7-C ) :   1.1622 B(  6-C , 24-H ) :   0.9281 B(  6-C , 25-H ) :   0.9124
B(  7-C , 26-H ) :   0.9415 B(  7-C , 27-H ) :   0.9502 B(  7-C , 28-H ) :   0.9511
B(  8-S ,  9-C ) :   0.9544 B(  9-C , 10-S ) :   1.0096 B(  9-C , 29-H ) :   0.9103
B(  9-C , 30-H ) :   0.8612 B( 10-S , 11-P ) :   0.9462 B( 10-S , 12-S ) :   0.1059
B( 11-P , 12-S ) :   1.6432 B( 11-P , 13-O ) :   1.1292 B( 11-P , 16-O ) :   1.0883
B( 13-O , 14-C ) :   0.8817 B( 14-C , 15-C ) :   1.1620 B( 14-C , 31-H ) :   0.9100
B( 14-C , 32-H ) :   0.9306 B( 15-C , 33-H ) :   0.9416 B( 15-C , 34-H ) :   0.9398
B( 15-C , 35-H ) :   0.9480 B( 16-O , 17-C ) :   0.9021 B( 17-C , 18-C ) :   1.1662
B( 17-C , 36-H ) :   0.9333 B( 17-C , 37-H ) :   0.9180 B( 18-C , 38-H ) :   0.9336
B( 18-C , 39-H ) :   0.9431 B( 18-C , 40-H ) :   0.9367

Dispersion correction           -0.064584571
FINAL SINGLE POINT ENERGY     -2929.520237659417

DIPOLE MOMENT
-------------

Method             : SCF
Type of density    : Electron Density
Multiplicity       :   1
Irrep              :   0
Energy             : -2929.6425179809989459 Eh
Relativity type    :
Basis              : AO
                                X                 Y                 Z
Electronic contribution:      2.824409954       1.965277744      11.327879741
Nuclear contribution   :     -4.173415801      -2.501649283     -11.740480553
                        -----------------------------------------
Total Dipole Moment    :     -1.349005847      -0.536371538      -0.412600812
                        -----------------------------------------
Magnitude (a.u.)       :      1.509221863
Magnitude (Debye)      :      3.836137113

Rotational constants in cm-1:             0.011946             0.005045             0.004811
Rotational constants in MHz :           358.135783           151.254166           144.222000

                             ****ORCA TERMINATED NORMALLY****
TOTAL RUN TIME: 0 days 0 hours 0 minutes 21 seconds 367 msec
