                         Program Version 6.0.0  -   RELEASE  -
|  1> ! pbe def2-sv(p) def2/J RI DEFGRID1 loosescf d4 GCP(DFT/SV(P)) printgap
|  2> %output
|  3>     printlevel normal
|  4> end
|  5> * xyz 0 1
|  6> C 2.5266004267 -0.87934467 -2.916994223
|  7> C 3.1493466341 0.1901515198 -2.0412293746
|  8> O 2.2174048299 0.6584142977 -1.0344302122
|  9> P 2.1056557563 0.1349677028 0.4460920903
| 10> S 0.9325220912 1.3356474515 1.4541870707
| 11> O 3.6295020013 0.0885971306 0.8945437089
| 12> C 4.1482095526 -0.6807190795 1.9968071905
| 13> C 3.4202012218 -0.4103826561 3.2962177301
| 14> S 1.6005215046 -1.93258779 0.4169435402
| 15> C -0.0219608363 -1.8661044161 -0.3805209011
| 16> S -1.3580116545 -1.2229656637 0.6728970113
| 17> P -1.9686061826 0.452092428 -0.4996558356
| 18> S -0.9375482958 0.7955662354 -2.1240562948
| 19> O -1.9916998946 1.728135194 0.4144790974
| 20> C -2.6048836649 1.7652275052 1.7257678831
| 21> C -3.9217657111 2.5103761671 1.6679859171
| 22> O -3.5333024484 0.1920602265 -0.6784428542
| 23> C -4.1346896709 -1.0306219492 -1.1402713002
| 24> C -3.6619181251 -1.4353343141 -2.5211800552
| 25> H 2.3915832327 -1.8061701491 -2.3648266859
| 26> H 1.5625234631 -0.5346674635 -3.2860844473
| 27> H 3.182198212 -1.0655683579 -3.7616554544
| 28> H 3.3726238394 1.088121575 -2.6195722477
| 29> H 4.0544599433 -0.1665297421 -1.546512389
| 30> H 4.0853801091 -1.7395901338 1.731192925
| 31> H 5.1936257069 -0.3719987685 2.053032821
| 32> H 3.8989631902 -0.9616063161 4.0990271083
| 33> H 3.4363570046 0.6524066064 3.5264760857
| 34> H 2.3808685822 -0.7270019749 3.2174929997
| 35> H -0.2610262774 -2.8988596077 -0.6215979448
| 36> H 0.0318484223 -1.2421181934 -1.2783291699
| 37> H -2.7398662583 0.7416010274 2.0869856923
| 38> H -1.8725514875 2.2740392172 2.3568013643
| 39> H -4.6187593846 1.9902097494 1.0158831108
| 40> H -4.3380657615 2.5714042447 2.6684178966
| 41> H -3.7623883021 3.5134004686 1.281948728
| 42> H -3.9186970039 -1.8156107497 -0.4096213548
| 43> H -5.2028054034 -0.8062790121 -1.1367561161
| 44> H -2.5994296761 -1.6720831731 -2.5035105213
| 45> H -4.2164122846 -2.3088102979 -2.8485387405
| 46> H -3.8172642834 -0.6232173566 -3.2272693581
| 47> *
| 48>
| 49>                          ****END OF INPUT****

CARTESIAN COORDINATES (ANGSTROEM)
---------------------------------
  C      2.526600   -0.879345   -2.916994
  C      3.149347    0.190152   -2.041229
  O      2.217405    0.658414   -1.034430
  P      2.105656    0.134968    0.446092
  S      0.932522    1.335647    1.454187
  O      3.629502    0.088597    0.894544
  C      4.148210   -0.680719    1.996807
  C      3.420201   -0.410383    3.296218
  S      1.600522   -1.932588    0.416944
  C     -0.021961   -1.866104   -0.380521
  S     -1.358012   -1.222966    0.672897
  P     -1.968606    0.452092   -0.499656
  S     -0.937548    0.795566   -2.124056
  O     -1.991700    1.728135    0.414479
  C     -2.604884    1.765228    1.725768
  C     -3.921766    2.510376    1.667986
  O     -3.533302    0.192060   -0.678443
  C     -4.134690   -1.030622   -1.140271
  C     -3.661918   -1.435334   -2.521180
  H      2.391583   -1.806170   -2.364827
  H      1.562523   -0.534667   -3.286084
  H      3.182198   -1.065568   -3.761655
  H      3.372624    1.088122   -2.619572
  H      4.054460   -0.166530   -1.546512
  H      4.085380   -1.739590    1.731193
  H      5.193626   -0.371999    2.053033
  H      3.898963   -0.961606    4.099027
  H      3.436357    0.652407    3.526476
  H      2.380869   -0.727002    3.217493
  H     -0.261026   -2.898860   -0.621598
  H      0.031848   -1.242118   -1.278329
  H     -2.739866    0.741601    2.086986
  H     -1.872551    2.274039    2.356801
  H     -4.618759    1.990210    1.015883
  H     -4.338066    2.571404    2.668418
  H     -3.762388    3.513400    1.281949
  H     -3.918697   -1.815611   -0.409621
  H     -5.202805   -0.806279   -1.136756
  H     -2.599430   -1.672083   -2.503511
  H     -4.216412   -2.308810   -2.848539
  H     -3.817264   -0.623217   -3.227269

 Total Charge           Charge          ....    0
 Multiplicity           Mult            ....    1
 Number of Electrons    NEL             ....  202
 Basis Dimension        Dim             ....  334

ORBITAL ENERGIES
----------------

  NO   OCC          E(Eh)            E(eV)
   0   2.0000     -88.043414     -2395.7831
   1   2.0000     -88.040555     -2395.7053
   2   2.0000     -87.979694     -2394.0492
   3   2.0000     -87.970841     -2393.8083
   4   2.0000     -76.420755     -2079.5145
   5   2.0000     -76.419676     -2079.4851
   6   2.0000     -18.789000      -511.2747
   7   2.0000     -18.786078      -511.1952
   8   2.0000     -18.781683      -511.0756
   9   2.0000     -18.781328      -511.0659
  10   2.0000      -9.958011      -270.9713
  11   2.0000      -9.957135      -270.9474
  12   2.0000      -9.952984      -270.8345
  13   2.0000      -9.949748      -270.7464
  14   2.0000      -9.949621      -270.7430
  15   2.0000      -9.882632      -268.9201
  16   2.0000      -9.881395      -268.8864
  17   2.0000      -9.881208      -268.8813
  18   2.0000      -9.881050      -268.8770
  19   2.0000      -7.688372      -209.2112
  20   2.0000      -7.685167      -209.1240
  21   2.0000      -7.624963      -207.4858
  22   2.0000      -7.615937      -207.2402
  23   2.0000      -6.417963      -174.6417
  24   2.0000      -6.416753      -174.6087
  25   2.0000      -5.715993      -155.5401
  26   2.0000      -5.712972      -155.4579
  27   2.0000      -5.712810      -155.4535
  28   2.0000      -5.709696      -155.3687
  29   2.0000      -5.705681      -155.2595
  30   2.0000      -5.702274      -155.1668
  31   2.0000      -5.653955      -153.8519
  32   2.0000      -5.645763      -153.6290
  33   2.0000      -5.645096      -153.6109
  34   2.0000      -5.644757      -153.6016
  35   2.0000      -5.636448      -153.3755
  36   2.0000      -5.635967      -153.3625
  37   2.0000      -4.640548      -126.2757
  38   2.0000      -4.639946      -126.2593
  39   2.0000      -4.639772      -126.2546
  40   2.0000      -4.638883      -126.2304
  41   2.0000      -4.638260      -126.2135
  42   2.0000      -4.636528      -126.1663
  43   2.0000      -0.982317       -26.7302
  44   2.0000      -0.981445       -26.7065
  45   2.0000      -0.938301       -25.5325
  46   2.0000      -0.937055       -25.4986
  47   2.0000      -0.760079       -20.6828
  48   2.0000      -0.716726       -19.5031
  49   2.0000      -0.709160       -19.2972
  50   2.0000      -0.687313       -18.7027
  51   2.0000      -0.686508       -18.6808
  52   2.0000      -0.676020       -18.3954
  53   2.0000      -0.646429       -17.5902
  54   2.0000      -0.633380       -17.2352
  55   2.0000      -0.587434       -15.9849
  56   2.0000      -0.582411       -15.8482
  57   2.0000      -0.572656       -15.5828
  58   2.0000      -0.569049       -15.4846
  59   2.0000      -0.568867       -15.4797
  60   2.0000      -0.502491       -13.6735
  61   2.0000      -0.495546       -13.4845
  62   2.0000      -0.469375       -12.7723
  63   2.0000      -0.467598       -12.7240
  64   2.0000      -0.451985       -12.2991
  65   2.0000      -0.446649       -12.1539
  66   2.0000      -0.437416       -11.9027
  67   2.0000      -0.434460       -11.8223
  68   2.0000      -0.429924       -11.6988
  69   2.0000      -0.418775       -11.3955
  70   2.0000      -0.407886       -11.0991
  71   2.0000      -0.403628       -10.9833
  72   2.0000      -0.395613       -10.7652
  73   2.0000      -0.383163       -10.4264
  74   2.0000      -0.379381       -10.3235
  75   2.0000      -0.358822        -9.7640
  76   2.0000      -0.353917        -9.6306
  77   2.0000      -0.352504        -9.5921
  78   2.0000      -0.349421        -9.5082
  79   2.0000      -0.348104        -9.4724
  80   2.0000      -0.344571        -9.3762
  81   2.0000      -0.341485        -9.2923
  82   2.0000      -0.338872        -9.2212
  83   2.0000      -0.335734        -9.1358
  84   2.0000      -0.333992        -9.0884
  85   2.0000      -0.316649        -8.6164
  86   2.0000      -0.313529        -8.5316
  87   2.0000      -0.294225        -8.0063
  88   2.0000      -0.292892        -7.9700
  89   2.0000      -0.286826        -7.8049
  90   2.0000      -0.280667        -7.6373
  91   2.0000      -0.271331        -7.3833
  92   2.0000      -0.270639        -7.3645
  93   2.0000      -0.259312        -7.0562
  94   2.0000      -0.254249        -6.9185
  95   2.0000      -0.239462        -6.5161
  96   2.0000      -0.218867        -5.9557
  97   2.0000      -0.199822        -5.4374
  98   2.0000      -0.193834        -5.2745
  99   2.0000      -0.183681        -4.9982
 100   2.0000      -0.181230        -4.9315
 101   0.0000      -0.038962        -1.0602
 102   0.0000      -0.029682        -0.8077
 103   0.0000      -0.013379        -0.3640
 104   0.0000       0.000087         0.0024
 105   0.0000       0.023313         0.6344

MULLIKEN ATOMIC CHARGES
-----------------------
   0 C :   -0.316159
   1 C :   -0.003505
   2 O :   -0.343083
   3 P :    0.602269
   4 S :   -0.303800
   5 O :   -0.382380
   6 C :   -0.015677
   7 C :   -0.308214
   8 S :   -0.133250
   9 C :   -0.353379
  10 S :   -0.104037
  11 P :    0.600083
  12 S :   -0.295512
  13 O :   -0.336817
  14 C :   -0.015172
  15 C :   -0.280901
  16 O :   -0.380288
  17 C :   -0.003550
  18 C :   -0.306102
  19 H :    0.116151
  20 H :    0.141402
  21 H :    0.108701
  22 H :    0.111715
  23 H :    0.100911
  24 H :    0.113883
  25 H :    0.109917
  26 H :    0.109386
  27 H :    0.128081
  28 H :    0.128048
  29 H :    0.179314
  30 H :    0.207479
  31 H :    0.100860
  32 H :    0.118985
  33 H :    0.116418
  34 H :    0.107501
  35 H :    0.122214
  36 H :    0.103315
  37 H :    0.104617
  38 H :    0.116818
  39 H :    0.108003
  40 H :    0.125757
Sum of atomic charges:   -0.0000000

LOEWDIN ATOMIC CHARGES
----------------------
   0 C :   -0.369369
   1 C :   -0.109391
   2 O :   -0.225591
   3 P :    0.559422
   4 S :   -0.304010
   5 O :   -0.246843
   6 C :   -0.115530
   7 C :   -0.370506
   8 S :    0.058874
   9 C :   -0.483366
  10 S :    0.070831
  11 P :    0.569341
  12 S :   -0.284463
  13 O :   -0.220433
  14 C :   -0.111725
  15 C :   -0.356926
  16 O :   -0.250845
  17 C :   -0.120288
  18 C :   -0.367844
  19 H :    0.115969
  20 H :    0.129480
  21 H :    0.129175
  22 H :    0.123626
  23 H :    0.108460
  24 H :    0.106678
  25 H :    0.121603
  26 H :    0.129074
  27 H :    0.131167
  28 H :    0.122254
  29 H :    0.135355
  30 H :    0.120712
  31 H :    0.103208
  32 H :    0.120942
  33 H :    0.125457
  34 H :    0.128277
  35 H :    0.130182
  36 H :    0.102449
  37 H :    0.118680
  38 H :    0.117199
  39 H :    0.128120
  40 H :    0.130597

  Mayer bond orders larger than 0.100000
B(  0-C ,  1-C ) :   1.1724 B(  0-C , 19-H ) :   0.9325 B(  0-C , 20-H ) :   0.9317
B(  0-C , 21-H ) :   0.9377 B(  1-C ,  2-O ) :   0.8998 B(  1-C , 22-H ) :   0.9347
B(  1-C , 23-H ) :   0.9198 B(  2-O ,  3-P ) :   1.1420 B(  3-P ,  4-S ) :   1.6824
B(  3-P ,  5-O ) :   1.0757 B(  3-P ,  8-S ) :   0.9310 B(  4-S ,  8-S ) :   0.1141
B(  5-O ,  6-C ) :   0.9153 B(  6-C ,  7-C ) :   1.1674 B(  6-C , 24-H ) :   0.9250
B(  6-C , 25-H ) :   0.9334 B(  7-C , 26-H ) :   0.9343 B(  7-C , 27-H ) :   0.9421
B(  7-C , 28-H ) :   0.9312 B(  8-S ,  9-C ) :   0.9959 B(  9-C , 10-S ) :   1.0093
B(  9-C , 29-H ) :   0.9109 B(  9-C , 30-H ) :   0.8328 B( 10-S , 11-P ) :   0.9399
B( 10-S , 12-S ) :   0.1168 B( 11-P , 12-S ) :   1.6331 B( 11-P , 13-O ) :   1.1554
B( 11-P , 16-O ) :   1.0654 B( 12-S , 30-H ) :   0.1203 B( 13-O , 14-C ) :   0.8922
B( 14-C , 15-C ) :   1.1640 B( 14-C , 31-H ) :   0.9171 B( 14-C , 32-H ) :   0.9294
B( 15-C , 33-H ) :   0.9435 B( 15-C , 34-H ) :   0.9406 B( 15-C , 35-H ) :   0.9472
B( 16-O , 17-C ) :   0.9227 B( 17-C , 18-C ) :   1.1657 B( 17-C , 36-H ) :   0.9182
B( 17-C , 37-H ) :   0.9330 B( 18-C , 38-H ) :   0.9355 B( 18-C , 39-H ) :   0.9358
B( 18-C , 40-H ) :   0.9439

Dispersion correction           -0.067645752
FINAL SINGLE POINT ENERGY     -2929.506943211153

DIPOLE MOMENT
-------------

Method             : SCF
Type of density    : Electron Density
Multiplicity       :   1
Irrep              :   0
Energy             : -2929.6245998009521827 Eh
Relativity type    :
Basis              : AO
                                X                 Y                 Z
Electronic contribution:      3.671170448       4.536020383       1.646804240
Nuclear contribution   :     -3.649117583      -5.998977739      -1.440408425
                        -----------------------------------------
Total Dipole Moment    :      0.022052865      -1.462957356       0.206395815
                        -----------------------------------------
Magnitude (a.u.)       :      1.477609484
Magnitude (Debye)      :      3.755784832

Rotational constants in cm-1:             0.011993             0.005591             0.004846
Rotational constants in MHz :           359.527307           167.618433           145.268290

                             ****ORCA TERMINATED NORMALLY****
TOTAL RUN TIME: 0 days 0 hours 0 minutes 21 seconds 562 msec
