                         Program Version 6.0.1  -  RELEASE   -
|  1> ! pbe def2-sv(p) def2/J RI DEFGRID1 loosescf d4 GCP(DFT/SV(P)) printgap
|  2> %output
|  3>     printlevel normal
|  4> end
|  5> * xyz 0 1
|  6> C 1.1441745237 -3.8222060607 -2.1273306697
|  7> C 2.0183182345 -3.6892985299 -0.8901045092
|  8> O 1.7958428479 -2.4251291968 -0.2341674714
|  9> C 2.4415312411 -1.3667008692 -0.6823064925
| 10> O 3.2515526599 -1.3807436952 -1.5811060076
| 11> C 2.0142135481 -0.1086417 0.050275364
| 12> C 0.9716505357 0.6178445467 -0.7996419203
| 13> H 1.3956576683 0.8453960364 -1.7838678666
| 14> C 0.4908940718 1.9228191632 -0.1847725578
| 15> O -0.6724750804 2.2689698389 -0.2294296977
| 16> O 1.4674612062 2.603185254 0.3476364893
| 17> C 1.1573119494 3.8692765454 0.9681943659
| 18> C 1.1042702354 4.985022735 -0.0617372405
| 19> S -0.4917761149 -0.4054638946 -1.1532003632
| 20> P -1.6047006716 -0.1218720339 0.6401534641
| 21> S -0.6827883658 0.4336161444 2.2771855542
| 22> O -2.8947184503 0.7324206651 0.3336202303
| 23> C -3.748823266 0.4758807628 -0.7979878276
| 24> O -2.270811616 -1.5766265202 0.7763834255
| 25> C -1.4864194612 -2.7032166351 1.1819705057
| 26> H 1.4242530759 -3.0729081637 -2.8639662554
| 27> H 1.2798720883 -4.8090802665 -2.5567721418
| 28> H 0.0974370421 -3.6817180492 -1.8712906885
| 29> H 3.0765229539 -3.7593283746 -1.1568063023
| 30> H 1.7652292856 -4.4357244559 -0.1369921204
| 31> H 2.8748866841 0.5482371515 0.1763022898
| 32> H 1.5966277845 -0.3698966556 1.0237306516
| 33> H 0.2026979018 3.7701225965 1.4928973658
| 34> H 1.9670545273 4.0183662192 1.6819893923
| 35> H 0.9435638567 5.9299504327 0.4463743264
| 36> H 2.0387501193 5.0290723041 -0.6142850159
| 37> H 0.285382603 4.8157754104 -0.7573212773
| 38> H -4.1828243838 -0.51909549 -0.7167431718
| 39> H -3.1762323544 0.5646300456 -1.7212007623
| 40> H -4.5174103392 1.2427248349 -0.749137042
| 41> H -1.0911222945 -2.5370719905 2.1849502169
| 42> H -0.6607905487 -2.8583617603 0.4871406384
| 43> H -2.1661733169 -3.5508967141 1.1722741988
| 44> *
| 45>
| 46>                          ****END OF INPUT****

CARTESIAN COORDINATES (ANGSTROEM)
---------------------------------
  C      1.144175   -3.822206   -2.127331
  C      2.018318   -3.689299   -0.890105
  O      1.795843   -2.425129   -0.234167
  C      2.441531   -1.366701   -0.682306
  O      3.251553   -1.380744   -1.581106
  C      2.014214   -0.108642    0.050275
  C      0.971651    0.617845   -0.799642
  H      1.395658    0.845396   -1.783868
  C      0.490894    1.922819   -0.184773
  O     -0.672475    2.268970   -0.229430
  O      1.467461    2.603185    0.347636
  C      1.157312    3.869277    0.968194
  C      1.104270    4.985023   -0.061737
  S     -0.491776   -0.405464   -1.153200
  P     -1.604701   -0.121872    0.640153
  S     -0.682788    0.433616    2.277186
  O     -2.894718    0.732421    0.333620
  C     -3.748823    0.475881   -0.797988
  O     -2.270812   -1.576627    0.776383
  C     -1.486419   -2.703217    1.181971
  H      1.424253   -3.072908   -2.863966
  H      1.279872   -4.809080   -2.556772
  H      0.097437   -3.681718   -1.871291
  H      3.076523   -3.759328   -1.156806
  H      1.765229   -4.435724   -0.136992
  H      2.874887    0.548237    0.176302
  H      1.596628   -0.369897    1.023731
  H      0.202698    3.770123    1.492897
  H      1.967055    4.018366    1.681989
  H      0.943564    5.929950    0.446374
  H      2.038750    5.029072   -0.614285
  H      0.285383    4.815775   -0.757321
  H     -4.182824   -0.519095   -0.716743
  H     -3.176232    0.564630   -1.721201
  H     -4.517410    1.242725   -0.749137
  H     -1.091122   -2.537072    2.184950
  H     -0.660791   -2.858362    0.487141
  H     -2.166173   -3.550897    1.172274

 Total Charge           Charge          ....    0
 Multiplicity           Mult            ....    1
 Number of Electrons    NEL             ....  174
 Basis Dimension        Dim             ....  316

ORBITAL ENERGIES
----------------

  NO   OCC          E(Eh)            E(eV)
   0   2.0000     -88.039690     -2395.6818
   1   2.0000     -87.980715     -2394.0770
   2   2.0000     -76.424195     -2079.6081
   3   2.0000     -18.815868      -512.0058
   4   2.0000     -18.804101      -511.6856
   5   2.0000     -18.787095      -511.2228
   6   2.0000     -18.786421      -511.2045
   7   2.0000     -18.743222      -510.0290
   8   2.0000     -18.739428      -509.9258
   9   2.0000     -10.022167      -272.7170
  10   2.0000     -10.009265      -272.3660
  11   2.0000      -9.953878      -270.8588
  12   2.0000      -9.952042      -270.8088
  13   2.0000      -9.950155      -270.7575
  14   2.0000      -9.944978      -270.6166
  15   2.0000      -9.939083      -270.4562
  16   2.0000      -9.903074      -269.4763
  17   2.0000      -9.890084      -269.1229
  18   2.0000      -9.887766      -269.0598
  19   2.0000      -7.684464      -209.1049
  20   2.0000      -7.625875      -207.5106
  21   2.0000      -6.420687      -174.7158
  22   2.0000      -5.712472      -155.4443
  23   2.0000      -5.708999      -155.3498
  24   2.0000      -5.701245      -155.1388
  25   2.0000      -5.655049      -153.8817
  26   2.0000      -5.646514      -153.6495
  27   2.0000      -5.645674      -153.6266
  28   2.0000      -4.643415      -126.3538
  29   2.0000      -4.642672      -126.3335
  30   2.0000      -4.641064      -126.2898
  31   2.0000      -1.024110       -27.8675
  32   2.0000      -1.011797       -27.5324
  33   2.0000      -0.981514       -26.7083
  34   2.0000      -0.936981       -25.4965
  35   2.0000      -0.925879       -25.1945
  36   2.0000      -0.916710       -24.9449
  37   2.0000      -0.767440       -20.8831
  38   2.0000      -0.711733       -19.3672
  39   2.0000      -0.708965       -19.2919
  40   2.0000      -0.690530       -18.7903
  41   2.0000      -0.656407       -17.8617
  42   2.0000      -0.631460       -17.1829
  43   2.0000      -0.626976       -17.0609
  44   2.0000      -0.618324       -16.8255
  45   2.0000      -0.596972       -16.2444
  46   2.0000      -0.567929       -15.4541
  47   2.0000      -0.513895       -13.9838
  48   2.0000      -0.502996       -13.6872
  49   2.0000      -0.499202       -13.5840
  50   2.0000      -0.485787       -13.2189
  51   2.0000      -0.470303       -12.7976
  52   2.0000      -0.454793       -12.3756
  53   2.0000      -0.444344       -12.0912
  54   2.0000      -0.436897       -11.8886
  55   2.0000      -0.430648       -11.7185
  56   2.0000      -0.425925       -11.5900
  57   2.0000      -0.421900       -11.4805
  58   2.0000      -0.416306       -11.3283
  59   2.0000      -0.409658       -11.1474
  60   2.0000      -0.401339       -10.9210
  61   2.0000      -0.395965       -10.7748
  62   2.0000      -0.392047       -10.6681
  63   2.0000      -0.388052       -10.5594
  64   2.0000      -0.384936       -10.4746
  65   2.0000      -0.364775        -9.9260
  66   2.0000      -0.363942        -9.9034
  67   2.0000      -0.352467        -9.5911
  68   2.0000      -0.350340        -9.5332
  69   2.0000      -0.339956        -9.2507
  70   2.0000      -0.334971        -9.1150
  71   2.0000      -0.328482        -8.9384
  72   2.0000      -0.327010        -8.8984
  73   2.0000      -0.312238        -8.4964
  74   2.0000      -0.303468        -8.2578
  75   2.0000      -0.299796        -8.1579
  76   2.0000      -0.296949        -8.0804
  77   2.0000      -0.289882        -7.8881
  78   2.0000      -0.271592        -7.3904
  79   2.0000      -0.265018        -7.2115
  80   2.0000      -0.263914        -7.1815
  81   2.0000      -0.256262        -6.9732
  82   2.0000      -0.238681        -6.4949
  83   2.0000      -0.222796        -6.0626
  84   2.0000      -0.217834        -5.9276
  85   2.0000      -0.198282        -5.3955
  86   2.0000      -0.195537        -5.3208
  87   0.0000      -0.044654        -1.2151
  88   0.0000      -0.032550        -0.8857
  89   0.0000      -0.020319        -0.5529
  90   0.0000       0.003345         0.0910
  91   0.0000       0.022476         0.6116

MULLIKEN ATOMIC CHARGES
-----------------------
   0 C :   -0.308747
   1 C :   -0.009684
   2 O :   -0.223927
   3 C :    0.111664
   4 O :   -0.204594
   5 C :   -0.041576
   6 C :   -0.335270
   7 H :    0.159797
   8 C :    0.206351
   9 O :   -0.187259
  10 O :   -0.218464
  11 C :   -0.006333
  12 C :   -0.310870
  13 S :   -0.096616
  14 P :    0.615298
  15 S :   -0.318897
  16 O :   -0.350854
  17 C :   -0.104074
  18 O :   -0.391248
  19 C :   -0.129022
  20 H :    0.125910
  21 H :    0.112029
  22 H :    0.120008
  23 H :    0.111531
  24 H :    0.102066
  25 H :    0.115150
  26 H :    0.114680
  27 H :    0.122681
  28 H :    0.107038
  29 H :    0.117263
  30 H :    0.114702
  31 H :    0.130075
  32 H :    0.121017
  33 H :    0.122730
  34 H :    0.131762
  35 H :    0.118412
  36 H :    0.138369
  37 H :    0.118904
Sum of atomic charges:   -0.0000000

LOEWDIN ATOMIC CHARGES
----------------------
   0 C :   -0.357402
   1 C :   -0.111944
   2 O :   -0.053698
   3 C :    0.023514
   4 O :   -0.169854
   5 C :   -0.254911
   6 C :   -0.257209
   7 H :    0.154177
   8 C :    0.003371
   9 O :   -0.165912
  10 O :   -0.035544
  11 C :   -0.105181
  12 C :   -0.357173
  13 S :    0.105332
  14 P :    0.589268
  15 S :   -0.304860
  16 O :   -0.228827
  17 C :   -0.208059
  18 O :   -0.264713
  19 C :   -0.223790
  20 H :    0.130442
  21 H :    0.129933
  22 H :    0.122830
  23 H :    0.121090
  24 H :    0.116324
  25 H :    0.144724
  26 H :    0.128530
  27 H :    0.126968
  28 H :    0.120654
  29 H :    0.133213
  30 H :    0.125154
  31 H :    0.131481
  32 H :    0.114251
  33 H :    0.111780
  34 H :    0.126937
  35 H :    0.112730
  36 H :    0.107042
  37 H :    0.119334

  Mayer bond orders larger than 0.100000
B(  0-C ,  1-C ) :   1.1767 B(  0-C , 20-H ) :   0.9421 B(  0-C , 21-H ) :   0.9427
B(  0-C , 22-H ) :   0.9492 B(  1-C ,  2-O ) :   0.9034 B(  1-C , 23-H ) :   0.9139
B(  1-C , 24-H ) :   0.9365 B(  2-O ,  3-C ) :   1.2196 B(  3-C ,  4-O ) :   2.0495
B(  3-C ,  5-C ) :   1.0047 B(  5-C ,  6-C ) :   1.0658 B(  5-C , 25-H ) :   0.8724
B(  5-C , 26-H ) :   0.8746 B(  6-C ,  7-H ) :   0.8575 B(  6-C ,  8-C ) :   0.8988
B(  6-C , 13-S ) :   1.0259 B(  8-C ,  9-O ) :   2.0106 B(  8-C , 10-O ) :   1.2726
B( 10-O , 11-C ) :   0.9016 B( 11-C , 12-C ) :   1.1735 B( 11-C , 27-H ) :   0.9135
B( 11-C , 28-H ) :   0.9370 B( 12-C , 29-H ) :   0.9438 B( 12-C , 30-H ) :   0.9474
B( 12-C , 31-H ) :   0.9446 B( 13-S , 14-P ) :   0.9441 B( 13-S , 15-S ) :   0.1137
B( 14-P , 15-S ) :   1.5957 B( 14-P , 16-O ) :   1.1456 B( 14-P , 18-O ) :   1.0626
B( 16-O , 17-C ) :   0.9196 B( 17-C , 32-H ) :   0.9468 B( 17-C , 33-H ) :   0.9393
B( 17-C , 34-H ) :   0.9598 B( 18-O , 19-C ) :   0.9333 B( 19-C , 35-H ) :   0.9393
B( 19-C , 36-H ) :   0.9244 B( 19-C , 37-H ) :   0.9566

Dispersion correction           -0.053604077
FINAL SINGLE POINT ENERGY     -1979.016453427343

DIPOLE MOMENT
-------------

Method             : SCF
Type of density    : Electron Density
Multiplicity       :   1
Irrep              :   0
Energy             : -1979.1455821410777389 Eh
Relativity type    :
Basis              : AO
                                X                 Y                 Z
Electronic contribution:     -4.580666808       2.224829437       5.940422930
Nuclear contribution   :      4.436249570      -2.543476213      -6.488721321
                        -----------------------------------------
Total Dipole Moment    :     -0.144417238      -0.318646776      -0.548298391
                        -----------------------------------------
Magnitude (a.u.)       :      0.650402362
Magnitude (Debye)      :      1.653191422

Rotational constants in cm-1:             0.011663             0.008487             0.006039
Rotational constants in MHz :           349.648069           254.423653           181.037011

                             ****ORCA TERMINATED NORMALLY****
TOTAL RUN TIME: 0 days 0 hours 0 minutes 51 seconds 150 msec
