                         Program Version 6.0.0  -   RELEASE  -
|  1> ! pbe def2-sv(p) def2/J RI DEFGRID1 loosescf d4 GCP(DFT/SV(P)) printgap
|  2> %output
|  3>     printlevel normal
|  4> end
|  5> * xyz 0 1
|  6> C 4.8421802601 -2.014381974 -0.640398575
|  7> C 4.5444443559 -1.1491648633 0.5660868274
|  8> O 3.8628591503 0.0735164668 0.2275498691
|  9> P 2.516447519 0.1804857711 -0.6063582227
| 10> S 2.6575366123 -0.0003398817 -2.5511143723
| 11> O 2.0379026503 1.6456664356 -0.2684211272
| 12> C 1.4728432405 2.1388132216 0.9670943842
| 13> C 2.2748571348 1.7694301306 2.1961533286
| 14> S 1.2154812288 -1.1983260282 0.3651834268
| 15> C 0.0025885762 -1.3116671661 -0.9669814926
| 16> S -0.805421551 0.2782393696 -1.3403474422
| 17> P -2.2829229807 0.2412178099 0.1803379616
| 18> S -3.3400354198 1.8818336769 0.3313044269
| 19> O -1.4121164389 -0.1564982166 1.4373515545
| 20> C -1.8566016679 0.1015060536 2.7880002146
| 21> C -3.0559322974 -0.7469271906 3.1499077387
| 22> O -3.0765427263 -1.1182368078 -0.0906949001
| 23> C -4.0815049484 -1.2095765163 -1.1179102982
| 24> C -5.4634756861 -0.9776139118 -0.538341673
| 25> H 5.431269105 -2.8720807229 -0.3320788615
| 26> H 3.9151192293 -2.3628764986 -1.0928278511
| 27> H 5.3931166251 -1.4477280604 -1.3873050945
| 28> H 5.4627363256 -0.8051976883 1.0452507956
| 29> H 3.9285840006 -1.6929604403 1.2878142342
| 30> H 1.4451514542 3.2190847317 0.8136829118
| 31> H 0.4467018546 1.7628850299 1.0403281143
| 32> H 2.2413978801 0.6949493997 2.3657670091
| 33> H 3.3097030002 2.0778104273 2.073039407
| 34> H 1.8485506948 2.2767766413 3.0564324712
| 35> H -0.7416345663 -2.0425486257 -0.6613603041
| 36> H 0.5087471546 -1.6037747952 -1.8870496327
| 37> H -0.9848496344 -0.1424124726 3.3964010595
| 38> H -2.0948883793 1.1660246853 2.8768614151
| 39> H -3.9084959726 -0.4564741037 2.537403922
| 40> H -2.8390910806 -1.7978313726 2.9784322929
| 41> H -3.3037050184 -0.5933278212 4.1954751561
| 42> H -3.8610378912 -0.4823831832 -1.9061673904
| 43> H -3.9845611993 -2.2206760027 -1.5182416805
| 44> H -5.5411678794 0.0342842809 -0.1464318611
| 45> H -6.2055869672 -1.1108791272 -1.3188265355
| 46> H -5.6548576364 -1.6839817595 0.2644863067
| 47> *
| 48>
| 49>                          ****END OF INPUT****

CARTESIAN COORDINATES (ANGSTROEM)
---------------------------------
  C      4.842180   -2.014382   -0.640399
  C      4.544444   -1.149165    0.566087
  O      3.862859    0.073516    0.227550
  P      2.516448    0.180486   -0.606358
  S      2.657537   -0.000340   -2.551114
  O      2.037903    1.645666   -0.268421
  C      1.472843    2.138813    0.967094
  C      2.274857    1.769430    2.196153
  S      1.215481   -1.198326    0.365183
  C      0.002589   -1.311667   -0.966981
  S     -0.805422    0.278239   -1.340347
  P     -2.282923    0.241218    0.180338
  S     -3.340035    1.881834    0.331304
  O     -1.412116   -0.156498    1.437352
  C     -1.856602    0.101506    2.788000
  C     -3.055932   -0.746927    3.149908
  O     -3.076543   -1.118237   -0.090695
  C     -4.081505   -1.209577   -1.117910
  C     -5.463476   -0.977614   -0.538342
  H      5.431269   -2.872081   -0.332079
  H      3.915119   -2.362876   -1.092828
  H      5.393117   -1.447728   -1.387305
  H      5.462736   -0.805198    1.045251
  H      3.928584   -1.692960    1.287814
  H      1.445151    3.219085    0.813683
  H      0.446702    1.762885    1.040328
  H      2.241398    0.694949    2.365767
  H      3.309703    2.077810    2.073039
  H      1.848551    2.276777    3.056432
  H     -0.741635   -2.042549   -0.661360
  H      0.508747   -1.603775   -1.887050
  H     -0.984850   -0.142412    3.396401
  H     -2.094888    1.166025    2.876861
  H     -3.908496   -0.456474    2.537404
  H     -2.839091   -1.797831    2.978432
  H     -3.303705   -0.593328    4.195475
  H     -3.861038   -0.482383   -1.906167
  H     -3.984561   -2.220676   -1.518242
  H     -5.541168    0.034284   -0.146432
  H     -6.205587   -1.110879   -1.318827
  H     -5.654858   -1.683982    0.264486

 Total Charge           Charge          ....    0
 Multiplicity           Mult            ....    1
 Number of Electrons    NEL             ....  202
 Basis Dimension        Dim             ....  334

ORBITAL ENERGIES
----------------

  NO   OCC          E(Eh)            E(eV)
   0   2.0000     -88.044939     -2395.8246
   1   2.0000     -88.044164     -2395.8035
   2   2.0000     -87.992587     -2394.4000
   3   2.0000     -87.978279     -2394.0107
   4   2.0000     -76.430697     -2079.7850
   5   2.0000     -76.425427     -2079.6416
   6   2.0000     -18.798561      -511.5349
   7   2.0000     -18.797840      -511.5152
   8   2.0000     -18.793285      -511.3913
   9   2.0000     -18.784984      -511.1654
  10   2.0000      -9.960361      -271.0352
  11   2.0000      -9.959151      -271.0023
  12   2.0000      -9.959094      -271.0007
  13   2.0000      -9.958451      -270.9832
  14   2.0000      -9.949916      -270.7510
  15   2.0000      -9.890952      -269.1465
  16   2.0000      -9.886830      -269.0343
  17   2.0000      -9.885512      -268.9985
  18   2.0000      -9.882853      -268.9261
  19   2.0000      -7.689711      -209.2477
  20   2.0000      -7.688872      -209.2249
  21   2.0000      -7.637690      -207.8321
  22   2.0000      -7.623640      -207.4498
  23   2.0000      -6.428244      -174.9214
  24   2.0000      -6.422133      -174.7551
  25   2.0000      -5.717387      -155.5780
  26   2.0000      -5.717077      -155.5696
  27   2.0000      -5.714199      -155.4913
  28   2.0000      -5.713217      -155.4645
  29   2.0000      -5.706950      -155.2940
  30   2.0000      -5.705756      -155.2615
  31   2.0000      -5.666593      -154.1958
  32   2.0000      -5.658386      -153.9725
  33   2.0000      -5.657821      -153.9571
  34   2.0000      -5.652739      -153.8188
  35   2.0000      -5.644226      -153.5872
  36   2.0000      -5.643610      -153.5704
  37   2.0000      -4.650731      -126.5528
  38   2.0000      -4.650228      -126.5391
  39   2.0000      -4.648569      -126.4940
  40   2.0000      -4.644818      -126.3919
  41   2.0000      -4.644453      -126.3820
  42   2.0000      -4.642109      -126.3182
  43   2.0000      -0.993826       -27.0434
  44   2.0000      -0.984277       -26.7835
  45   2.0000      -0.952516       -25.9193
  46   2.0000      -0.941550       -25.6209
  47   2.0000      -0.765873       -20.8405
  48   2.0000      -0.724039       -19.7021
  49   2.0000      -0.711536       -19.3619
  50   2.0000      -0.692539       -18.8450
  51   2.0000      -0.689898       -18.7731
  52   2.0000      -0.678000       -18.4493
  53   2.0000      -0.656302       -17.8589
  54   2.0000      -0.638659       -17.3788
  55   2.0000      -0.602128       -16.3847
  56   2.0000      -0.590347       -16.0642
  57   2.0000      -0.576950       -15.6996
  58   2.0000      -0.575215       -15.6524
  59   2.0000      -0.568745       -15.4763
  60   2.0000      -0.507555       -13.8113
  61   2.0000      -0.492305       -13.3963
  62   2.0000      -0.482274       -13.1233
  63   2.0000      -0.469108       -12.7651
  64   2.0000      -0.464343       -12.6354
  65   2.0000      -0.447442       -12.1755
  66   2.0000      -0.443137       -12.0584
  67   2.0000      -0.437073       -11.8934
  68   2.0000      -0.432283       -11.7630
  69   2.0000      -0.414526       -11.2798
  70   2.0000      -0.411474       -11.1968
  71   2.0000      -0.407974       -11.1015
  72   2.0000      -0.402624       -10.9560
  73   2.0000      -0.393258       -10.7011
  74   2.0000      -0.388579       -10.5738
  75   2.0000      -0.371413       -10.1067
  76   2.0000      -0.365064        -9.9339
  77   2.0000      -0.361480        -9.8364
  78   2.0000      -0.355679        -9.6785
  79   2.0000      -0.351671        -9.5695
  80   2.0000      -0.348366        -9.4795
  81   2.0000      -0.345416        -9.3993
  82   2.0000      -0.345023        -9.3885
  83   2.0000      -0.339918        -9.2496
  84   2.0000      -0.335602        -9.1322
  85   2.0000      -0.327891        -8.9224
  86   2.0000      -0.315444        -8.5837
  87   2.0000      -0.301563        -8.2059
  88   2.0000      -0.297659        -8.0997
  89   2.0000      -0.294973        -8.0266
  90   2.0000      -0.282928        -7.6989
  91   2.0000      -0.281458        -7.6589
  92   2.0000      -0.272303        -7.4097
  93   2.0000      -0.267369        -7.2755
  94   2.0000      -0.259058        -7.0493
  95   2.0000      -0.234804        -6.3893
  96   2.0000      -0.221850        -6.0368
  97   2.0000      -0.211950        -5.7675
  98   2.0000      -0.205816        -5.6005
  99   2.0000      -0.198091        -5.3903
 100   2.0000      -0.192651        -5.2423
 101   0.0000      -0.043006        -1.1703
 102   0.0000      -0.025904        -0.7049
 103   0.0000      -0.010662        -0.2901
 104   0.0000       0.000474         0.0129
 105   0.0000       0.009869         0.2685

MULLIKEN ATOMIC CHARGES
-----------------------
   0 C :   -0.306535
   1 C :   -0.008786
   2 O :   -0.373389
   3 P :    0.595927
   4 S :   -0.313826
   5 O :   -0.351864
   6 C :   -0.008828
   7 C :   -0.315167
   8 S :   -0.107688
   9 C :   -0.353148
  10 S :   -0.042091
  11 P :    0.589243
  12 S :   -0.319106
  13 O :   -0.372154
  14 C :   -0.009784
  15 C :   -0.307078
  16 O :   -0.379225
  17 C :   -0.011498
  18 C :   -0.294283
  19 H :    0.109502
  20 H :    0.122735
  21 H :    0.128688
  22 H :    0.109286
  23 H :    0.107522
  24 H :    0.110968
  25 H :    0.124700
  26 H :    0.113283
  27 H :    0.123675
  28 H :    0.111695
  29 H :    0.182409
  30 H :    0.196322
  31 H :    0.106400
  32 H :    0.113904
  33 H :    0.129559
  34 H :    0.117301
  35 H :    0.114133
  36 H :    0.105935
  37 H :    0.105866
  38 H :    0.130926
  39 H :    0.110955
  40 H :    0.113518
Sum of atomic charges:    0.0000000

LOEWDIN ATOMIC CHARGES
----------------------
   0 C :   -0.369108
   1 C :   -0.114240
   2 O :   -0.242158
   3 P :    0.567235
   4 S :   -0.313796
   5 O :   -0.230604
   6 C :   -0.113911
   7 C :   -0.368141
   8 S :    0.070842
   9 C :   -0.479897
  10 S :    0.107434
  11 P :    0.561517
  12 S :   -0.318634
  13 O :   -0.239934
  14 C :   -0.115436
  15 C :   -0.365047
  16 O :   -0.251817
  17 C :   -0.117194
  18 C :   -0.363513
  19 H :    0.129153
  20 H :    0.120169
  21 H :    0.131306
  22 H :    0.121311
  23 H :    0.105932
  24 H :    0.124016
  25 H :    0.106538
  26 H :    0.113723
  27 H :    0.128359
  28 H :    0.130068
  29 H :    0.131963
  30 H :    0.132805
  31 H :    0.118640
  32 H :    0.111936
  33 H :    0.124445
  34 H :    0.126831
  35 H :    0.131887
  36 H :    0.110107
  37 H :    0.117562
  38 H :    0.124904
  39 H :    0.130290
  40 H :    0.124457

  Mayer bond orders larger than 0.100000
B(  0-C ,  1-C ) :   1.1673 B(  0-C , 19-H ) :   0.9348 B(  0-C , 20-H ) :   0.9331
B(  0-C , 21-H ) :   0.9423 B(  1-C ,  2-O ) :   0.9136 B(  1-C , 22-H ) :   0.9337
B(  1-C , 23-H ) :   0.9260 B(  2-O ,  3-P ) :   1.0949 B(  3-P ,  4-S ) :   1.6317
B(  3-P ,  5-O ) :   1.1430 B(  3-P ,  8-S ) :   0.9353 B(  4-S ,  8-S ) :   0.1103
B(  5-O ,  6-C ) :   0.9020 B(  6-C ,  7-C ) :   1.1664 B(  6-C , 24-H ) :   0.9342
B(  6-C , 25-H ) :   0.9110 B(  7-C , 26-H ) :   0.9391 B(  7-C , 27-H ) :   0.9420
B(  7-C , 28-H ) :   0.9365 B(  8-S ,  9-C ) :   1.0025 B(  9-C , 10-S ) :   0.9851
B(  9-C , 29-H ) :   0.8934 B(  9-C , 30-H ) :   0.8784 B( 10-S , 11-P ) :   0.9817
B( 11-P , 12-S ) :   1.6379 B( 11-P , 13-O ) :   1.1012 B( 11-P , 16-O ) :   1.0671
B( 13-O , 14-C ) :   0.8956 B( 14-C , 15-C ) :   1.1704 B( 14-C , 31-H ) :   0.9320
B( 14-C , 32-H ) :   0.9171 B( 15-C , 33-H ) :   0.9333 B( 15-C , 34-H ) :   0.9457
B( 15-C , 35-H ) :   0.9374 B( 16-O , 17-C ) :   0.9034 B( 17-C , 18-C ) :   1.1703
B( 17-C , 36-H ) :   0.9133 B( 17-C , 37-H ) :   0.9349 B( 18-C , 38-H ) :   0.9313
B( 18-C , 39-H ) :   0.9396 B( 18-C , 40-H ) :   0.9452

Dispersion correction           -0.066000177
FINAL SINGLE POINT ENERGY     -2929.516911794106

DIPOLE MOMENT
-------------

Method             : SCF
Type of density    : Electron Density
Multiplicity       :   1
Irrep              :   0
Energy             : -2929.6368924815387800 Eh
Relativity type    :
Basis              : AO
                                X                 Y                 Z
Electronic contribution:      4.797053551       8.488242526     -15.357530501
Nuclear contribution   :     -5.047840336      -9.857926131      17.080372163
                        -----------------------------------------
Total Dipole Moment    :     -0.250786786      -1.369683605       1.722841662
                        -----------------------------------------
Magnitude (a.u.)       :      2.215199897
Magnitude (Debye)      :      5.630590667

Rotational constants in cm-1:             0.014058             0.004612             0.004305
Rotational constants in MHz :           421.460958           138.260172           129.063373

                             ****ORCA TERMINATED NORMALLY****
TOTAL RUN TIME: 0 days 0 hours 0 minutes 21 seconds 205 msec
