                         Program Version 6.0.0  -   RELEASE  -
|  1> ! pbe def2-sv(p) def2/J RI DEFGRID1 loosescf d4 GCP(DFT/SV(P)) printgap
|  2> %output
|  3>     printlevel normal
|  4> end
|  5> * xyz 0 1
|  6> C 2.9594984383 -1.070935721 -2.8648224299
|  7> C 1.6562792551 -0.9743753374 -2.100235963
|  8> O 1.6956175479 0.1308753434 -1.1618256753
|  9> P 1.9993196963 -0.0589303279 0.3695540806
| 10> S 2.2555106175 1.6078210488 1.3575350037
| 11> O 3.2734430936 -1.0102242266 0.3300700116
| 12> C 3.9483362637 -1.3954821047 1.5450534406
| 13> C 5.2975837328 -1.970790416 1.1654266061
| 14> S 0.539078617 -1.3811454941 1.18439616
| 15> C -0.5092798056 -0.2062367491 2.0949813998
| 16> S -2.2257858653 -0.1979079782 1.5343544486
| 17> P -1.8987812501 0.6044319522 -0.4092034373
| 18> S -0.739427502 2.1768529258 -0.5306485753
| 19> O -3.3700313061 0.7900010259 -0.9788801065
| 20> C -4.1392859157 1.9880863907 -0.7716989475
| 21> C -4.4939531565 2.2011279526 0.6853479632
| 22> O -1.3524542086 -0.6058702477 -1.2629636417
| 23> C -2.0570463194 -1.8707903194 -1.3894324621
| 24> C -2.8255597962 -1.9255160744 -2.6928753649
| 25> H 3.1661228817 -0.1286760501 -3.3651178462
| 26> H 3.7778655927 -1.2939360059 -2.1855312393
| 27> H 2.8781126177 -1.8613244887 -3.6044607279
| 28> H 1.4473894755 -1.8960606796 -1.5500186065
| 29> H 0.8182900475 -0.7388562952 -2.7590318145
| 30> H 4.0511716744 -0.509332667 2.1799150384
| 31> H 3.328199827 -2.1348566575 2.0591136529
| 32> H 5.88977779 -1.2225621196 0.6459474559
| 33> H 5.8187421316 -2.276061863 2.0666631601
| 34> H 5.166114946 -2.8318492619 0.5166221251
| 35> H -0.0738865858 0.792234035 1.9926888384
| 36> H -0.534038102 -0.5167967761 3.1363784116
| 37> H -3.564062123 2.8361384524 -1.1555578245
| 38> H -5.0288075185 1.8337336455 -1.3841432974
| 39> H -3.5961029949 2.4315712349 1.2570682891
| 40> H -5.1838734225 3.034893492 0.7671929668
| 41> H -4.9546802916 1.3074724338 1.0988519474
| 42> H -1.2716079327 -2.6282282724 -1.352592171
| 43> H -2.7232905325 -1.9922130915 -0.5312071459
| 44> H -2.1552993877 -1.763420158 -3.5324615944
| 45> H -3.2881649937 -2.9028767739 -2.7875738982
| 46> H -3.5968775015 -1.1603182225 -2.7069191624
| 47> *
| 48>
| 49>                          ****END OF INPUT****

CARTESIAN COORDINATES (ANGSTROEM)
---------------------------------
  C      2.959498   -1.070936   -2.864822
  C      1.656279   -0.974375   -2.100236
  O      1.695618    0.130875   -1.161826
  P      1.999320   -0.058930    0.369554
  S      2.255511    1.607821    1.357535
  O      3.273443   -1.010224    0.330070
  C      3.948336   -1.395482    1.545053
  C      5.297584   -1.970790    1.165427
  S      0.539079   -1.381145    1.184396
  C     -0.509280   -0.206237    2.094981
  S     -2.225786   -0.197908    1.534354
  P     -1.898781    0.604432   -0.409203
  S     -0.739428    2.176853   -0.530649
  O     -3.370031    0.790001   -0.978880
  C     -4.139286    1.988086   -0.771699
  C     -4.493953    2.201128    0.685348
  O     -1.352454   -0.605870   -1.262964
  C     -2.057046   -1.870790   -1.389432
  C     -2.825560   -1.925516   -2.692875
  H      3.166123   -0.128676   -3.365118
  H      3.777866   -1.293936   -2.185531
  H      2.878113   -1.861324   -3.604461
  H      1.447389   -1.896061   -1.550019
  H      0.818290   -0.738856   -2.759032
  H      4.051172   -0.509333    2.179915
  H      3.328200   -2.134857    2.059114
  H      5.889778   -1.222562    0.645947
  H      5.818742   -2.276062    2.066663
  H      5.166115   -2.831849    0.516622
  H     -0.073887    0.792234    1.992689
  H     -0.534038   -0.516797    3.136378
  H     -3.564062    2.836138   -1.155558
  H     -5.028808    1.833734   -1.384143
  H     -3.596103    2.431571    1.257068
  H     -5.183873    3.034893    0.767193
  H     -4.954680    1.307472    1.098852
  H     -1.271608   -2.628228   -1.352592
  H     -2.723291   -1.992213   -0.531207
  H     -2.155299   -1.763420   -3.532462
  H     -3.288165   -2.902877   -2.787574
  H     -3.596878   -1.160318   -2.706919

 Total Charge           Charge          ....    0
 Multiplicity           Mult            ....    1
 Number of Electrons    NEL             ....  202
 Basis Dimension        Dim             ....  334

ORBITAL ENERGIES
----------------

  NO   OCC          E(Eh)            E(eV)
   0   2.0000     -88.041831     -2395.7400
   1   2.0000     -88.038318     -2395.6444
   2   2.0000     -87.978578     -2394.0188
   3   2.0000     -87.977219     -2393.9818
   4   2.0000     -76.422772     -2079.5693
   5   2.0000     -76.419705     -2079.4859
   6   2.0000     -18.794079      -511.4129
   7   2.0000     -18.790835      -511.3246
   8   2.0000     -18.790432      -511.3137
   9   2.0000     -18.784097      -511.1413
  10   2.0000      -9.955505      -270.9031
  11   2.0000      -9.953713      -270.8543
  12   2.0000      -9.951882      -270.8045
  13   2.0000      -9.950348      -270.7627
  14   2.0000      -9.949706      -270.7453
  15   2.0000      -9.888481      -269.0792
  16   2.0000      -9.887830      -269.0615
  17   2.0000      -9.884310      -268.9657
  18   2.0000      -9.881963      -268.9019
  19   2.0000      -7.686881      -209.1707
  20   2.0000      -7.683169      -209.0696
  21   2.0000      -7.623573      -207.4480
  22   2.0000      -7.622460      -207.4177
  23   2.0000      -6.420242      -174.7037
  24   2.0000      -6.417263      -174.6226
  25   2.0000      -5.714680      -155.5043
  26   2.0000      -5.711259      -155.4113
  27   2.0000      -5.710969      -155.4034
  28   2.0000      -5.707619      -155.3122
  29   2.0000      -5.704069      -155.2156
  30   2.0000      -5.700306      -155.1132
  31   2.0000      -5.652624      -153.8157
  32   2.0000      -5.651574      -153.7871
  33   2.0000      -5.644042      -153.5822
  34   2.0000      -5.643771      -153.5748
  35   2.0000      -5.642950      -153.5525
  36   2.0000      -5.642499      -153.5402
  37   2.0000      -4.643180      -126.3474
  38   2.0000      -4.642016      -126.3157
  39   2.0000      -4.640321      -126.2695
  40   2.0000      -4.640074      -126.2628
  41   2.0000      -4.638985      -126.2332
  42   2.0000      -4.637517      -126.1933
  43   2.0000      -0.988189       -26.8900
  44   2.0000      -0.984338       -26.7852
  45   2.0000      -0.945335       -25.7239
  46   2.0000      -0.939500       -25.5651
  47   2.0000      -0.759491       -20.6668
  48   2.0000      -0.718307       -19.5461
  49   2.0000      -0.710006       -19.3203
  50   2.0000      -0.691126       -18.8065
  51   2.0000      -0.689181       -18.7536
  52   2.0000      -0.674122       -18.3438
  53   2.0000      -0.646561       -17.5938
  54   2.0000      -0.630128       -17.1466
  55   2.0000      -0.593927       -16.1616
  56   2.0000      -0.584038       -15.8925
  57   2.0000      -0.576165       -15.6782
  58   2.0000      -0.566121       -15.4049
  59   2.0000      -0.562046       -15.2941
  60   2.0000      -0.507989       -13.8231
  61   2.0000      -0.497927       -13.5493
  62   2.0000      -0.477476       -12.9928
  63   2.0000      -0.474350       -12.9077
  64   2.0000      -0.449857       -12.2412
  65   2.0000      -0.444851       -12.1050
  66   2.0000      -0.440523       -11.9872
  67   2.0000      -0.437768       -11.9123
  68   2.0000      -0.428362       -11.6563
  69   2.0000      -0.423150       -11.5145
  70   2.0000      -0.409954       -11.1554
  71   2.0000      -0.394173       -10.7260
  72   2.0000      -0.386120       -10.5069
  73   2.0000      -0.383725       -10.4417
  74   2.0000      -0.378130       -10.2894
  75   2.0000      -0.365685        -9.9508
  76   2.0000      -0.362228        -9.8567
  77   2.0000      -0.359880        -9.7928
  78   2.0000      -0.353831        -9.6282
  79   2.0000      -0.353674        -9.6240
  80   2.0000      -0.348593        -9.4857
  81   2.0000      -0.347806        -9.4643
  82   2.0000      -0.339890        -9.2489
  83   2.0000      -0.336529        -9.1574
  84   2.0000      -0.334479        -9.1016
  85   2.0000      -0.316691        -8.6176
  86   2.0000      -0.313152        -8.5213
  87   2.0000      -0.298495        -8.1225
  88   2.0000      -0.296258        -8.0616
  89   2.0000      -0.292023        -7.9464
  90   2.0000      -0.288037        -7.8379
  91   2.0000      -0.272703        -7.4206
  92   2.0000      -0.265997        -7.2381
  93   2.0000      -0.261879        -7.1261
  94   2.0000      -0.254672        -6.9300
  95   2.0000      -0.234028        -6.3682
  96   2.0000      -0.219689        -5.9780
  97   2.0000      -0.211788        -5.7631
  98   2.0000      -0.198494        -5.4013
  99   2.0000      -0.187714        -5.1079
 100   2.0000      -0.180881        -4.9220
 101   0.0000      -0.036702        -0.9987
 102   0.0000      -0.028223        -0.7680
 103   0.0000      -0.007909        -0.2152
 104   0.0000       0.009172         0.2496
 105   0.0000       0.022786         0.6200

MULLIKEN ATOMIC CHARGES
-----------------------
   0 C :   -0.282294
   1 C :   -0.021854
   2 O :   -0.339219
   3 P :    0.600914
   4 S :   -0.289412
   5 O :   -0.388063
   6 C :   -0.008003
   7 C :   -0.282433
   8 S :   -0.129071
   9 C :   -0.345313
  10 S :   -0.104154
  11 P :    0.578744
  12 S :   -0.273676
  13 O :   -0.382128
  14 C :    0.001708
  15 C :   -0.323209
  16 O :   -0.353883
  17 C :   -0.011094
  18 C :   -0.286002
  19 H :    0.122095
  20 H :    0.120613
  21 H :    0.104166
  22 H :    0.096299
  23 H :    0.118861
  24 H :    0.103981
  25 H :    0.099513
  26 H :    0.122533
  27 H :    0.112183
  28 H :    0.113550
  29 H :    0.205545
  30 H :    0.180444
  31 H :    0.113228
  32 H :    0.103341
  33 H :    0.133754
  34 H :    0.115193
  35 H :    0.116827
  36 H :    0.105888
  37 H :    0.103193
  38 H :    0.116162
  39 H :    0.109020
  40 H :    0.122057
Sum of atomic charges:   -0.0000000

LOEWDIN ATOMIC CHARGES
----------------------
   0 C :   -0.358947
   1 C :   -0.113334
   2 O :   -0.222036
   3 P :    0.568756
   4 S :   -0.294288
   5 O :   -0.251621
   6 C :   -0.123177
   7 C :   -0.350938
   8 S :    0.051107
   9 C :   -0.481151
  10 S :    0.072833
  11 P :    0.558667
  12 S :   -0.283572
  13 O :   -0.249220
  14 C :   -0.116865
  15 C :   -0.372226
  16 O :   -0.233220
  17 C :   -0.118583
  18 C :   -0.358307
  19 H :    0.130279
  20 H :    0.125303
  21 H :    0.127136
  22 H :    0.101340
  23 H :    0.120215
  24 H :    0.108567
  25 H :    0.105798
  26 H :    0.129192
  27 H :    0.130932
  28 H :    0.124532
  29 H :    0.125782
  30 H :    0.137055
  31 H :    0.113649
  32 H :    0.117585
  33 H :    0.123836
  34 H :    0.132259
  35 H :    0.122525
  36 H :    0.113982
  37 H :    0.103963
  38 H :    0.125735
  39 H :    0.129351
  40 H :    0.127106

  Mayer bond orders larger than 0.100000
B(  0-C ,  1-C ) :   1.1590 B(  0-C , 19-H ) :   0.9463 B(  0-C , 20-H ) :   0.9409
B(  0-C , 21-H ) :   0.9402 B(  1-C ,  2-O ) :   0.8920 B(  1-C , 22-H ) :   0.9153
B(  1-C , 23-H ) :   0.9269 B(  2-O ,  3-P ) :   1.1510 B(  3-P ,  4-S ) :   1.6505
B(  3-P ,  5-O ) :   1.0631 B(  3-P ,  8-S ) :   0.9428 B(  4-S ,  8-S ) :   0.1165
B(  5-O ,  6-C ) :   0.9081 B(  6-C ,  7-C ) :   1.1587 B(  6-C , 24-H ) :   0.9088
B(  6-C , 25-H ) :   0.9251 B(  7-C , 26-H ) :   0.9507 B(  7-C , 27-H ) :   0.9423
B(  7-C , 28-H ) :   0.9509 B(  8-S ,  9-C ) :   0.9968 B(  9-C , 10-S ) :   0.9972
B(  9-C , 29-H ) :   0.8448 B(  9-C , 30-H ) :   0.9117 B( 10-S , 11-P ) :   0.9435
B( 10-S , 12-S ) :   0.1081 B( 11-P , 12-S ) :   1.6783 B( 11-P , 13-O ) :   1.0761
B( 11-P , 16-O ) :   1.1194 B( 13-O , 14-C ) :   0.9052 B( 14-C , 15-C ) :   1.1667
B( 14-C , 31-H ) :   0.9171 B( 14-C , 32-H ) :   0.9340 B( 15-C , 33-H ) :   0.9337
B( 15-C , 34-H ) :   0.9370 B( 15-C , 35-H ) :   0.9433 B( 16-O , 17-C ) :   0.8841
B( 17-C , 18-C ) :   1.1643 B( 17-C , 36-H ) :   0.9301 B( 17-C , 37-H ) :   0.9093
B( 18-C , 38-H ) :   0.9485 B( 18-C , 39-H ) :   0.9400 B( 18-C , 40-H ) :   0.9416

Dispersion correction           -0.066797016
FINAL SINGLE POINT ENERGY     -2929.516473647009

DIPOLE MOMENT
-------------

Method             : SCF
Type of density    : Electron Density
Multiplicity       :   1
Irrep              :   0
Energy             : -2929.6360930617042868 Eh
Relativity type    :
Basis              : AO
                                X                 Y                 Z
Electronic contribution:     -1.000314820      11.547471905      10.250560673
Nuclear contribution   :      0.266910598     -13.340695526     -10.614787941
                        -----------------------------------------
Total Dipole Moment    :     -0.733404222      -1.793223620      -0.364227268
                        -----------------------------------------
Magnitude (a.u.)       :      1.971343249
Magnitude (Debye)      :      5.010756329

Rotational constants in cm-1:             0.013043             0.005228             0.004775
Rotational constants in MHz :           391.005998           156.735122           143.141863

                             ****ORCA TERMINATED NORMALLY****
TOTAL RUN TIME: 0 days 0 hours 0 minutes 21 seconds 309 msec
