                         Program Version 6.0.1  -  RELEASE   -
|  1> ! pbe def2-sv(p) def2/J RI DEFGRID1 loosescf d4 GCP(DFT/SV(P)) printgap
|  2> %output
|  3>     printlevel normal
|  4> end
|  5> * xyz 0 1
|  6> C 1.7369972355 -3.6577634802 0.3108084938
|  7> C 2.6606353821 -2.4537834015 0.3604120947
|  8> O 2.4124160596 -1.6325039 -0.7960957623
|  9> C 2.1559060902 -0.3542812235 -0.6511622456
| 10> O 2.1488714854 0.2502847026 0.401979213
| 11> C 1.8303439564 0.3156998748 -1.9726871532
| 12> C 0.4419021806 0.9497138293 -1.8631183658
| 13> H 0.2381565403 1.5564796359 -2.7485507452
| 14> C 0.3250289201 1.8235465509 -0.6303506052
| 15> O -0.5199075694 1.6164262503 0.2283640288
| 16> O 1.14376544 2.827028325 -0.6493756377
| 17> C 1.1656621875 3.7495230761 0.4656477403
| 18> C 2.2545660908 3.3632589842 1.4510169431
| 19> S -0.8786407002 -0.3153540332 -1.8071207296
| 20> P -1.4913084752 -0.5126771111 0.2137113779
| 21> S -0.4405995211 -0.8360555649 1.8499146444
| 22> O -2.8414135331 0.3210590329 0.4506422193
| 23> C -3.0063900912 1.3877084841 1.3816212095
| 24> O -2.1732015506 -1.9008706753 -0.2629457495
| 25> C -2.9266897066 -2.71812728 0.6314874347
| 26> H 1.8704252002 -4.1926877397 -0.6246214502
| 27> H 1.9600071543 -4.3154535075 1.1439849006
| 28> H 0.7004829286 -3.3343863544 0.3880615751
| 29> H 3.7092666262 -2.7550856926 0.3082787849
| 30> H 2.4870893514 -1.8566181626 1.2608461855
| 31> H 1.8459760867 -0.4185493625 -2.7752804836
| 32> H 2.5654151098 1.1013271047 -2.1550194598
| 33> H 1.3646720799 4.7191733123 0.0081233722
| 34> H 0.1842409633 3.7429027692 0.9458128709
| 35> H 2.2393453336 4.0500252155 2.2906011395
| 36> H 2.0865409386 2.351039663 1.8134836445
| 37> H 3.2281143392 3.3992045064 0.9714661495
| 38> H -2.2650516545 1.3096660075 2.1788982678
| 39> H -4.0114054856 1.2832983891 1.7854537652
| 40> H -2.8953623982 2.3397048699 0.8657583923
| 41> H -2.4073149752 -2.8036238974 1.589207322
| 42> H -3.0027987199 -3.6909348473 0.151764891
| 43> H -3.9157329782 -2.287611901 0.7857627566
| 44> *
| 45>
| 46>                          ****END OF INPUT****

CARTESIAN COORDINATES (ANGSTROEM)
---------------------------------
  C      1.736997   -3.657763    0.310808
  C      2.660635   -2.453783    0.360412
  O      2.412416   -1.632504   -0.796096
  C      2.155906   -0.354281   -0.651162
  O      2.148871    0.250285    0.401979
  C      1.830344    0.315700   -1.972687
  C      0.441902    0.949714   -1.863118
  H      0.238157    1.556480   -2.748551
  C      0.325029    1.823547   -0.630351
  O     -0.519908    1.616426    0.228364
  O      1.143765    2.827028   -0.649376
  C      1.165662    3.749523    0.465648
  C      2.254566    3.363259    1.451017
  S     -0.878641   -0.315354   -1.807121
  P     -1.491308   -0.512677    0.213711
  S     -0.440600   -0.836056    1.849915
  O     -2.841414    0.321059    0.450642
  C     -3.006390    1.387708    1.381621
  O     -2.173202   -1.900871   -0.262946
  C     -2.926690   -2.718127    0.631487
  H      1.870425   -4.192688   -0.624621
  H      1.960007   -4.315454    1.143985
  H      0.700483   -3.334386    0.388062
  H      3.709267   -2.755086    0.308279
  H      2.487089   -1.856618    1.260846
  H      1.845976   -0.418549   -2.775280
  H      2.565415    1.101327   -2.155019
  H      1.364672    4.719173    0.008123
  H      0.184241    3.742903    0.945813
  H      2.239345    4.050025    2.290601
  H      2.086541    2.351040    1.813484
  H      3.228114    3.399205    0.971466
  H     -2.265052    1.309666    2.178898
  H     -4.011405    1.283298    1.785454
  H     -2.895362    2.339705    0.865758
  H     -2.407315   -2.803624    1.589207
  H     -3.002799   -3.690935    0.151765
  H     -3.915733   -2.287612    0.785763

 Total Charge           Charge          ....    0
 Multiplicity           Mult            ....    1
 Number of Electrons    NEL             ....  174
 Basis Dimension        Dim             ....  316

ORBITAL ENERGIES
----------------

  NO   OCC          E(Eh)            E(eV)
   0   2.0000     -88.031334     -2395.4544
   1   2.0000     -87.960974     -2393.5398
   2   2.0000     -76.414206     -2079.3363
   3   2.0000     -18.824677      -512.2455
   4   2.0000     -18.804449      -511.6951
   5   2.0000     -18.772207      -510.8177
   6   2.0000     -18.769750      -510.7509
   7   2.0000     -18.762895      -510.5643
   8   2.0000     -18.739355      -509.9238
   9   2.0000     -10.036966      -273.1197
  10   2.0000     -10.012784      -272.4617
  11   2.0000      -9.958695      -270.9899
  12   2.0000      -9.955095      -270.8919
  13   2.0000      -9.937810      -270.4216
  14   2.0000      -9.927401      -270.1383
  15   2.0000      -9.923484      -270.0317
  16   2.0000      -9.916542      -269.8428
  17   2.0000      -9.884675      -268.9757
  18   2.0000      -9.873208      -268.6636
  19   2.0000      -7.676311      -208.8830
  20   2.0000      -7.606146      -206.9738
  21   2.0000      -6.408674      -174.3889
  22   2.0000      -5.704829      -155.2363
  23   2.0000      -5.700604      -155.1213
  24   2.0000      -5.692834      -154.9099
  25   2.0000      -5.635356      -153.3458
  26   2.0000      -5.626875      -153.1151
  27   2.0000      -5.625816      -153.0862
  28   2.0000      -4.631613      -126.0326
  29   2.0000      -4.630718      -126.0083
  30   2.0000      -4.629217      -125.9674
  31   2.0000      -1.037341       -28.2275
  32   2.0000      -1.010625       -27.5005
  33   2.0000      -0.961519       -26.1643
  34   2.0000      -0.943586       -25.6763
  35   2.0000      -0.918441       -24.9920
  36   2.0000      -0.916130       -24.9292
  37   2.0000      -0.768532       -20.9128
  38   2.0000      -0.714692       -19.4478
  39   2.0000      -0.705206       -19.1896
  40   2.0000      -0.684221       -18.6186
  41   2.0000      -0.647448       -17.6179
  42   2.0000      -0.623688       -16.9714
  43   2.0000      -0.612419       -16.6648
  44   2.0000      -0.608806       -16.5665
  45   2.0000      -0.587423       -15.9846
  46   2.0000      -0.562248       -15.2996
  47   2.0000      -0.512379       -13.9425
  48   2.0000      -0.503625       -13.7043
  49   2.0000      -0.500045       -13.6069
  50   2.0000      -0.490972       -13.3600
  51   2.0000      -0.466748       -12.7009
  52   2.0000      -0.460117       -12.5204
  53   2.0000      -0.449760       -12.2386
  54   2.0000      -0.436779       -11.8854
  55   2.0000      -0.431071       -11.7300
  56   2.0000      -0.423187       -11.5155
  57   2.0000      -0.416159       -11.3243
  58   2.0000      -0.405392       -11.0313
  59   2.0000      -0.400041       -10.8857
  60   2.0000      -0.395657       -10.7664
  61   2.0000      -0.394968       -10.7476
  62   2.0000      -0.383409       -10.4331
  63   2.0000      -0.378681       -10.3044
  64   2.0000      -0.371294       -10.1034
  65   2.0000      -0.365228        -9.9384
  66   2.0000      -0.360683        -9.8147
  67   2.0000      -0.348870        -9.4932
  68   2.0000      -0.340529        -9.2663
  69   2.0000      -0.336851        -9.1662
  70   2.0000      -0.335395        -9.1266
  71   2.0000      -0.332451        -9.0464
  72   2.0000      -0.315210        -8.5773
  73   2.0000      -0.307263        -8.3611
  74   2.0000      -0.295948        -8.0532
  75   2.0000      -0.287997        -7.8368
  76   2.0000      -0.287342        -7.8190
  77   2.0000      -0.283389        -7.7114
  78   2.0000      -0.269415        -7.3312
  79   2.0000      -0.259149        -7.0518
  80   2.0000      -0.256666        -6.9842
  81   2.0000      -0.251678        -6.8485
  82   2.0000      -0.241603        -6.5744
  83   2.0000      -0.227804        -6.1989
  84   2.0000      -0.210278        -5.7220
  85   2.0000      -0.180151        -4.9021
  86   2.0000      -0.173349        -4.7171
  87   0.0000      -0.046922        -1.2768
  88   0.0000      -0.037665        -1.0249
  89   0.0000      -0.025984        -0.7071
  90   0.0000       0.009388         0.2555
  91   0.0000       0.036877         1.0035

MULLIKEN ATOMIC CHARGES
-----------------------
   0 C :   -0.290559
   1 C :   -0.030437
   2 O :   -0.216466
   3 C :    0.098533
   4 O :   -0.186108
   5 C :   -0.034325
   6 C :   -0.316485
   7 H :    0.150541
   8 C :    0.247326
   9 O :   -0.218047
  10 O :   -0.213838
  11 C :   -0.025409
  12 C :   -0.303187
  13 S :   -0.078634
  14 P :    0.665183
  15 S :   -0.337524
  16 O :   -0.394721
  17 C :   -0.085215
  18 O :   -0.410492
  19 C :   -0.092097
  20 H :    0.106001
  21 H :    0.105651
  22 H :    0.128749
  23 H :    0.098755
  24 H :    0.130527
  25 H :    0.116665
  26 H :    0.123484
  27 H :    0.107325
  28 H :    0.117194
  29 H :    0.110919
  30 H :    0.158946
  31 H :    0.111136
  32 H :    0.114765
  33 H :    0.112115
  34 H :    0.103617
  35 H :    0.107102
  36 H :    0.114631
  37 H :    0.104379
Sum of atomic charges:    0.0000000

LOEWDIN ATOMIC CHARGES
----------------------
   0 C :   -0.355067
   1 C :   -0.111229
   2 O :   -0.042062
   3 C :    0.028006
   4 O :   -0.152218
   5 C :   -0.246188
   6 C :   -0.262337
   7 H :    0.148239
   8 C :    0.037463
   9 O :   -0.148131
  10 O :   -0.028767
  11 C :   -0.102933
  12 C :   -0.355917
  13 S :    0.118414
  14 P :    0.584985
  15 S :   -0.328648
  16 O :   -0.259071
  17 C :   -0.214879
  18 O :   -0.281049
  19 C :   -0.218358
  20 H :    0.121601
  21 H :    0.128387
  22 H :    0.125908
  23 H :    0.114168
  24 H :    0.123940
  25 H :    0.136487
  26 H :    0.144596
  27 H :    0.119451
  28 H :    0.122440
  29 H :    0.129964
  30 H :    0.142680
  31 H :    0.125115
  32 H :    0.107532
  33 H :    0.113845
  34 H :    0.106635
  35 H :    0.103188
  36 H :    0.116662
  37 H :    0.107149

  Mayer bond orders larger than 0.100000
B(  0-C ,  1-C ) :   1.1744 B(  0-C , 20-H ) :   0.9481 B(  0-C , 21-H ) :   0.9434
B(  0-C , 22-H ) :   0.9333 B(  1-C ,  2-O ) :   0.8962 B(  1-C , 23-H ) :   0.9340
B(  1-C , 24-H ) :   0.9030 B(  2-O ,  3-C ) :   1.2695 B(  2-O ,  4-O ) :   0.1049
B(  3-C ,  4-O ) :   1.9743 B(  3-C ,  5-C ) :   0.9852 B(  5-C ,  6-C ) :   1.0257
B(  5-C , 25-H ) :   0.9048 B(  5-C , 26-H ) :   0.8798 B(  6-C ,  7-H ) :   0.8758
B(  6-C ,  8-C ) :   0.9096 B(  6-C , 13-S ) :   1.0424 B(  8-C ,  9-O ) :   1.8337
B(  8-C , 10-O ) :   1.2896 B(  9-O , 14-P ) :   0.1833 B( 10-O , 11-C ) :   0.8927
B( 11-C , 12-C ) :   1.1822 B( 11-C , 27-H ) :   0.9366 B( 11-C , 28-H ) :   0.9136
B( 12-C , 29-H ) :   0.9406 B( 12-C , 30-H ) :   0.9300 B( 12-C , 31-H ) :   0.9493
B( 13-S , 14-P ) :   0.9264 B( 13-S , 15-S ) :   0.1105 B( 14-P , 15-S ) :   1.5564
B( 14-P , 16-O ) :   1.0747 B( 14-P , 18-O ) :   1.0270 B( 16-O , 17-C ) :   0.9393
B( 17-C , 32-H ) :   0.9305 B( 17-C , 33-H ) :   0.9549 B( 17-C , 34-H ) :   0.9547
B( 18-O , 19-C ) :   0.9457 B( 19-C , 35-H ) :   0.9283 B( 19-C , 36-H ) :   0.9608
B( 19-C , 37-H ) :   0.9529

Dispersion correction           -0.055037169
FINAL SINGLE POINT ENERGY     -1979.008574676044

DIPOLE MOMENT
-------------

Method             : SCF
Type of density    : Electron Density
Multiplicity       :   1
Irrep              :   0
Energy             : -1979.1383998570095173 Eh
Relativity type    :
Basis              : AO
                                X                 Y                 Z
Electronic contribution:     -6.440461998       0.327120428      -7.943626892
Nuclear contribution   :      6.985412838       0.698988231       7.476540226
                        -----------------------------------------
Total Dipole Moment    :      0.544950840       1.026108659      -0.467086666
                        -----------------------------------------
Magnitude (a.u.)       :      1.252214180
Magnitude (Debye)      :      3.182875497

Rotational constants in cm-1:             0.011634             0.009800             0.007242
Rotational constants in MHz :           348.787706           293.810347           217.116960

                             ****ORCA TERMINATED NORMALLY****
TOTAL RUN TIME: 0 days 0 hours 0 minutes 37 seconds 731 msec
