                         Program Version 6.0.0  -   RELEASE  -
|  1> ! pbe def2-sv(p) def2/J RI DEFGRID1 loosescf d4 GCP(DFT/SV(P)) printgap
|  2> %output
|  3>     printlevel normal
|  4> end
|  5> * xyz 0 1
|  6> C 4.3238644701 0.0922229858 -1.7918265878
|  7> C 4.4280367509 0.1484770101 -0.2811836091
|  8> O 3.4527005038 -0.6856391653 0.3610278755
|  9> P 1.8902232414 -0.3596162434 0.3282357391
| 10> S 1.5169063616 1.5670600356 0.4559277421
| 11> O 1.3760672885 -1.3359459954 1.4636526103
| 12> C 2.043264042 -1.5250888944 2.7299427589
| 13> C 2.0185652675 -0.2718134964 3.5811701179
| 14> S 1.1466725053 -1.3771834759 -1.3725481718
| 15> C 0.2133127942 -0.056426474 -2.195754473
| 16> S -1.5833841912 -0.3600850023 -2.2708716229
| 17> P -2.1747745681 0.3262187307 -0.3812550521
| 18> S -4.0783929977 0.2225587581 0.0621392802
| 19> O -1.5407613853 1.7758812489 -0.4442409174
| 20> C -1.8034892726 2.7643681894 0.5770359959
| 21> C -2.8271527157 3.7642672395 0.0812464399
| 22> O -1.233331103 -0.4119261882 0.695041266
| 23> C -1.722020266 -1.5640560513 1.4041965656
| 24> C -1.7516488891 -2.7967368811 0.5240148162
| 25> H 4.3317309994 -0.9397532229 -2.1332040154
| 26> H 3.3987738275 0.5655497455 -2.1183921509
| 27> H 5.1626535595 0.6241094562 -2.2293428857
| 28> H 4.294154572 1.1755257508 0.0743349269
| 29> H 5.382805255 -0.2446451383 0.0707379621
| 30> H 1.4831082028 -2.3376023614 3.1964709217
| 31> H 3.0686814004 -1.8472485544 2.5376897777
| 32> H 0.9963355441 0.073961448 3.7192437549
| 33> H 2.4595727232 -0.4828285947 4.5503436627
| 34> H 2.5866539469 0.5221185965 3.0977261111
| 35> H 0.5326971587 -0.0213458077 -3.2335999068
| 36> H 0.4002188418 0.8897489304 -1.6827624123
| 37> H -2.1497168141 2.2615619003 1.4845202756
| 38> H -0.8350773585 3.2321602636 0.7684281335
| 39> H -2.4869380551 4.2144717794 -0.8468730132
| 40> H -3.778623426 3.2667458882 -0.0954043402
| 41> H -2.9625956103 4.5376621565 0.8303402206
| 42> H -1.0310217428 -1.679600746 2.2389918124
| 43> H -2.7258852786 -1.3350755772 1.7772973827
| 44> H -0.7611507432 -3.006136776 0.1268973945
| 45> H -2.0921377698 -3.645325476 1.1084958378
| 46> H -2.440273151 -2.6400953691 -0.3065810413
| 47> *
| 48>
| 49>                          ****END OF INPUT****

CARTESIAN COORDINATES (ANGSTROEM)
---------------------------------
  C      4.323864    0.092223   -1.791827
  C      4.428037    0.148477   -0.281184
  O      3.452701   -0.685639    0.361028
  P      1.890223   -0.359616    0.328236
  S      1.516906    1.567060    0.455928
  O      1.376067   -1.335946    1.463653
  C      2.043264   -1.525089    2.729943
  C      2.018565   -0.271813    3.581170
  S      1.146673   -1.377183   -1.372548
  C      0.213313   -0.056426   -2.195754
  S     -1.583384   -0.360085   -2.270872
  P     -2.174775    0.326219   -0.381255
  S     -4.078393    0.222559    0.062139
  O     -1.540761    1.775881   -0.444241
  C     -1.803489    2.764368    0.577036
  C     -2.827153    3.764267    0.081246
  O     -1.233331   -0.411926    0.695041
  C     -1.722020   -1.564056    1.404197
  C     -1.751649   -2.796737    0.524015
  H      4.331731   -0.939753   -2.133204
  H      3.398774    0.565550   -2.118392
  H      5.162654    0.624109   -2.229343
  H      4.294155    1.175526    0.074335
  H      5.382805   -0.244645    0.070738
  H      1.483108   -2.337602    3.196471
  H      3.068681   -1.847249    2.537690
  H      0.996336    0.073961    3.719244
  H      2.459573   -0.482829    4.550344
  H      2.586654    0.522119    3.097726
  H      0.532697   -0.021346   -3.233600
  H      0.400219    0.889749   -1.682762
  H     -2.149717    2.261562    1.484520
  H     -0.835077    3.232160    0.768428
  H     -2.486938    4.214472   -0.846873
  H     -3.778623    3.266746   -0.095404
  H     -2.962596    4.537662    0.830340
  H     -1.031022   -1.679601    2.238992
  H     -2.725885   -1.335076    1.777297
  H     -0.761151   -3.006137    0.126897
  H     -2.092138   -3.645325    1.108496
  H     -2.440273   -2.640095   -0.306581

 Total Charge           Charge          ....    0
 Multiplicity           Mult            ....    1
 Number of Electrons    NEL             ....  202
 Basis Dimension        Dim             ....  334

ORBITAL ENERGIES
----------------

  NO   OCC          E(Eh)            E(eV)
   0   2.0000     -88.047370     -2395.8908
   1   2.0000     -88.040497     -2395.7037
   2   2.0000     -87.994616     -2394.4552
   3   2.0000     -87.981896     -2394.1091
   4   2.0000     -76.433682     -2079.8662
   5   2.0000     -76.419581     -2079.4825
   6   2.0000     -18.798531      -511.5340
   7   2.0000     -18.797580      -511.5082
   8   2.0000     -18.783434      -511.1232
   9   2.0000     -18.781873      -511.0808
  10   2.0000      -9.961866      -271.0762
  11   2.0000      -9.957585      -270.9597
  12   2.0000      -9.957367      -270.9537
  13   2.0000      -9.944213      -270.5958
  14   2.0000      -9.938161      -270.4311
  15   2.0000      -9.889889      -269.1176
  16   2.0000      -9.889662      -269.1114
  17   2.0000      -9.874449      -268.6974
  18   2.0000      -9.870735      -268.5963
  19   2.0000      -7.692338      -209.3192
  20   2.0000      -7.686179      -209.1516
  21   2.0000      -7.639342      -207.8771
  22   2.0000      -7.627106      -207.5441
  23   2.0000      -6.430747      -174.9895
  24   2.0000      -6.417531      -174.6299
  25   2.0000      -5.720246      -155.6558
  26   2.0000      -5.716825      -155.5627
  27   2.0000      -5.714447      -155.4980
  28   2.0000      -5.710377      -155.3873
  29   2.0000      -5.709258      -155.3568
  30   2.0000      -5.702961      -155.1855
  31   2.0000      -5.668120      -154.2374
  32   2.0000      -5.660341      -154.0257
  33   2.0000      -5.659254      -153.9961
  34   2.0000      -5.656053      -153.9090
  35   2.0000      -5.647899      -153.6872
  36   2.0000      -5.647036      -153.6637
  37   2.0000      -4.653548      -126.6295
  38   2.0000      -4.652238      -126.5938
  39   2.0000      -4.651320      -126.5688
  40   2.0000      -4.639946      -126.2594
  41   2.0000      -4.639433      -126.2454
  42   2.0000      -4.637999      -126.2064
  43   2.0000      -0.994890       -27.0723
  44   2.0000      -0.976307       -26.5667
  45   2.0000      -0.949966       -25.8499
  46   2.0000      -0.935183       -25.4476
  47   2.0000      -0.763120       -20.7656
  48   2.0000      -0.724370       -19.7111
  49   2.0000      -0.705142       -19.1879
  50   2.0000      -0.694011       -18.8850
  51   2.0000      -0.676352       -18.4045
  52   2.0000      -0.674441       -18.3525
  53   2.0000      -0.654187       -17.8013
  54   2.0000      -0.639477       -17.4011
  55   2.0000      -0.602935       -16.4067
  56   2.0000      -0.584967       -15.9178
  57   2.0000      -0.584256       -15.8984
  58   2.0000      -0.563521       -15.3342
  59   2.0000      -0.559691       -15.2300
  60   2.0000      -0.503524       -13.7016
  61   2.0000      -0.492843       -13.4109
  62   2.0000      -0.476783       -12.9739
  63   2.0000      -0.464270       -12.6334
  64   2.0000      -0.458567       -12.4782
  65   2.0000      -0.448861       -12.2141
  66   2.0000      -0.437856       -11.9147
  67   2.0000      -0.429180       -11.6786
  68   2.0000      -0.425205       -11.5704
  69   2.0000      -0.420060       -11.4304
  70   2.0000      -0.415387       -11.3032
  71   2.0000      -0.408407       -11.1133
  72   2.0000      -0.391495       -10.6531
  73   2.0000      -0.383219       -10.4279
  74   2.0000      -0.378851       -10.3091
  75   2.0000      -0.374300       -10.1852
  76   2.0000      -0.366203        -9.9649
  77   2.0000      -0.359021        -9.7695
  78   2.0000      -0.354192        -9.6381
  79   2.0000      -0.349949        -9.5226
  80   2.0000      -0.345983        -9.4147
  81   2.0000      -0.342234        -9.3127
  82   2.0000      -0.337153        -9.1744
  83   2.0000      -0.332058        -9.0358
  84   2.0000      -0.322895        -8.7864
  85   2.0000      -0.319514        -8.6944
  86   2.0000      -0.309414        -8.4196
  87   2.0000      -0.302085        -8.2202
  88   2.0000      -0.296047        -8.0559
  89   2.0000      -0.287846        -7.8327
  90   2.0000      -0.282843        -7.6966
  91   2.0000      -0.281186        -7.6515
  92   2.0000      -0.269834        -7.3425
  93   2.0000      -0.267216        -7.2713
  94   2.0000      -0.257606        -7.0098
  95   2.0000      -0.229069        -6.2333
  96   2.0000      -0.217714        -5.9243
  97   2.0000      -0.213060        -5.7976
  98   2.0000      -0.207775        -5.6539
  99   2.0000      -0.202509        -5.5106
 100   2.0000      -0.196272        -5.3408
 101   0.0000      -0.042401        -1.1538
 102   0.0000      -0.028601        -0.7783
 103   0.0000      -0.017708        -0.4819
 104   0.0000       0.002593         0.0706
 105   0.0000       0.005471         0.1489

MULLIKEN ATOMIC CHARGES
-----------------------
   0 C :   -0.312853
   1 C :   -0.002842
   2 O :   -0.384329
   3 P :    0.647595
   4 S :   -0.321907
   5 O :   -0.374237
   6 C :   -0.006001
   7 C :   -0.314954
   8 S :   -0.077703
   9 C :   -0.376607
  10 S :   -0.066884
  11 P :    0.616595
  12 S :   -0.325577
  13 O :   -0.371218
  14 C :   -0.003131
  15 C :   -0.283310
  16 O :   -0.383837
  17 C :   -0.010004
  18 C :   -0.316325
  19 H :    0.120597
  20 H :    0.119345
  21 H :    0.114317
  22 H :    0.110395
  23 H :    0.103690
  24 H :    0.109556
  25 H :    0.113992
  26 H :    0.125656
  27 H :    0.112413
  28 H :    0.127804
  29 H :    0.184746
  30 H :    0.215272
  31 H :    0.098403
  32 H :    0.110106
  33 H :    0.112006
  34 H :    0.123936
  35 H :    0.105008
  36 H :    0.100765
  37 H :    0.111421
  38 H :    0.127179
  39 H :    0.103057
  40 H :    0.117865
Sum of atomic charges:    0.0000000

LOEWDIN ATOMIC CHARGES
----------------------
   0 C :   -0.368135
   1 C :   -0.121503
   2 O :   -0.249721
   3 P :    0.579026
   4 S :   -0.289479
   5 O :   -0.232842
   6 C :   -0.112606
   7 C :   -0.365702
   8 S :    0.102582
   9 C :   -0.482229
  10 S :    0.093187
  11 P :    0.569604
  12 S :   -0.318709
  13 O :   -0.242261
  14 C :   -0.114328
  15 C :   -0.359459
  16 O :   -0.250960
  17 C :   -0.130101
  18 C :   -0.370253
  19 H :    0.125826
  20 H :    0.119034
  21 H :    0.131407
  22 H :    0.108525
  23 H :    0.117848
  24 H :    0.118678
  25 H :    0.114662
  26 H :    0.129944
  27 H :    0.130414
  28 H :    0.122934
  29 H :    0.138502
  30 H :    0.127674
  31 H :    0.108201
  32 H :    0.111872
  33 H :    0.125403
  34 H :    0.125721
  35 H :    0.127419
  36 H :    0.111351
  37 H :    0.104780
  38 H :    0.117955
  39 H :    0.126607
  40 H :    0.119127

  Mayer bond orders larger than 0.100000
B(  0-C ,  1-C ) :   1.1659 B(  0-C , 19-H ) :   0.9433 B(  0-C , 20-H ) :   0.9393
B(  0-C , 21-H ) :   0.9379 B(  1-C ,  2-O ) :   0.9159 B(  1-C , 22-H ) :   0.9129
B(  1-C , 23-H ) :   0.9328 B(  2-O ,  3-P ) :   1.0699 B(  3-P ,  4-S ) :   1.6010
B(  3-P ,  5-O ) :   1.1204 B(  3-P ,  8-S ) :   0.9631 B(  4-S ,  8-S ) :   0.1245
B(  5-O ,  6-C ) :   0.9028 B(  6-C ,  7-C ) :   1.1695 B(  6-C , 24-H ) :   0.9299
B(  6-C , 25-H ) :   0.9259 B(  7-C , 26-H ) :   0.9474 B(  7-C , 27-H ) :   0.9366
B(  7-C , 28-H ) :   0.9341 B(  8-S ,  9-C ) :   0.9993 B(  9-C , 10-S ) :   0.9855
B(  9-C , 29-H ) :   0.9093 B(  9-C , 30-H ) :   0.8466 B( 10-S , 11-P ) :   0.9851
B( 11-P , 12-S ) :   1.6300 B( 11-P , 13-O ) :   1.1208 B( 11-P , 16-O ) :   1.0677
B( 13-O , 14-C ) :   0.8873 B( 14-C , 15-C ) :   1.1691 B( 14-C , 31-H ) :   0.9150
B( 14-C , 32-H ) :   0.9246 B( 15-C , 33-H ) :   0.9475 B( 15-C , 34-H ) :   0.9373
B( 15-C , 35-H ) :   0.9411 B( 16-O , 17-C ) :   0.9059 B( 17-C , 18-C ) :   1.1708
B( 17-C , 36-H ) :   0.9197 B( 17-C , 37-H ) :   0.9073 B( 18-C , 38-H ) :   0.9366
B( 18-C , 39-H ) :   0.9392 B( 18-C , 40-H ) :   0.9362

Dispersion correction           -0.068601617
FINAL SINGLE POINT ENERGY     -2929.519929884701

DIPOLE MOMENT
-------------

Method             : SCF
Type of density    : Electron Density
Multiplicity       :   1
Irrep              :   0
Energy             : -2929.6400449023649344 Eh
Relativity type    :
Basis              : AO
                                X                 Y                 Z
Electronic contribution:    -10.394249253      -3.209474631     -11.614963595
Nuclear contribution   :     12.411932783       3.005685627      12.304170162
                        -----------------------------------------
Total Dipole Moment    :      2.017683530      -0.203789004       0.689206567
                        -----------------------------------------
Magnitude (a.u.)       :      2.141864253
Magnitude (Debye)      :      5.444186273

Rotational constants in cm-1:             0.011539             0.005627             0.005524
Rotational constants in MHz :           345.934171           168.690879           165.618680

                             ****ORCA TERMINATED NORMALLY****
TOTAL RUN TIME: 0 days 0 hours 0 minutes 22 seconds 18 msec
