                         Program Version 6.0.0  -   RELEASE  -
|  1> ! pbe def2-sv(p) def2/J RI DEFGRID1 loosescf d4 GCP(DFT/SV(P)) printgap
|  2> %output
|  3>     printlevel normal
|  4> end
|  5> * xyz 0 1
|  6> C 1.4992998899 -2.8774226525 1.2285922753
|  7> C 1.9339962484 -1.5515211475 1.8197206918
|  8> O 2.9838800239 -0.9263992154 1.0631724238
|  9> P 2.8136179566 -0.257509522 -0.3706083768
| 10> S 2.6233489884 -1.474347683 -1.8947756328
| 11> O 4.1503388563 0.556453444 -0.5133962464
| 12> C 4.492569522 1.8020648119 0.1446481568
| 13> C 4.2906628019 1.7661840332 1.6437257629
| 14> S 1.2572201638 1.1941881487 -0.1456937267
| 15> C -0.0009599001 0.4111427961 -1.1802036407
| 16> S -1.0621820087 -0.7343866105 -0.2641074176
| 17> P -2.8454991847 0.4442433411 -0.1339596085
| 18> S -2.7886183427 2.2163479829 -0.9571854706
| 19> O -3.2601825203 0.4128931553 1.4047385136
| 20> C -2.7920412733 1.377135976 2.3631508533
| 21> C -1.3251093058 1.1904833464 2.6938381549
| 22> O -3.9606155038 -0.469764056 -0.7681638452
| 23> C -4.1813047608 -1.8459164269 -0.3572850027
| 24> C -3.8260976234 -2.7849602252 -1.4923708593
| 25> H 2.3578507789 -3.5308565668 1.0974606623
| 26> H 0.7845895036 -3.3495618408 1.8945423997
| 27> H 1.0278142784 -2.7255615676 0.259255342
| 28> H 2.3743299996 -1.6842671833 2.8095566492
| 29> H 1.0874236977 -0.860961498 1.8809864281
| 30> H 5.5432771708 1.9369574204 -0.117041027
| 31> H 3.8936011645 2.5953897534 -0.309729832
| 32> H 4.6768126259 2.6865168796 2.0712248132
| 33> H 3.2314759583 1.6863295498 1.8803943117
| 34> H 4.8183927828 0.9196733537 2.0749012863
| 35> H 0.5030320795 -0.1592229662 -1.9630534329
| 36> H -0.6200807063 1.2096553385 -1.5937872304
| 37> H -2.9753186501 2.3798345022 1.9645724522
| 38> H -3.4253170165 1.2036395042 3.234581761
| 39> H -0.7093701348 1.451805052 1.8338679208
| 40> H -1.0598749075 1.8429733402 3.5193661365
| 41> H -1.1331130487 0.1579436918 2.9751621223
| 42> H -3.5858447544 -2.0547180008 0.5338030971
| 43> H -5.242780516 -1.9021632206 -0.1116923754
| 44> H -4.0809305529 -3.800233183 -1.205784741
| 45> H -4.3812303494 -2.5143850124 -2.3862488712
| 46> H -2.7621679666 -2.7349923213 -1.7112584697
| 47> *
| 48>
| 49>                          ****END OF INPUT****

CARTESIAN COORDINATES (ANGSTROEM)
---------------------------------
  C      1.499300   -2.877423    1.228592
  C      1.933996   -1.551521    1.819721
  O      2.983880   -0.926399    1.063172
  P      2.813618   -0.257510   -0.370608
  S      2.623349   -1.474348   -1.894776
  O      4.150339    0.556453   -0.513396
  C      4.492570    1.802065    0.144648
  C      4.290663    1.766184    1.643726
  S      1.257220    1.194188   -0.145694
  C     -0.000960    0.411143   -1.180204
  S     -1.062182   -0.734387   -0.264107
  P     -2.845499    0.444243   -0.133960
  S     -2.788618    2.216348   -0.957185
  O     -3.260183    0.412893    1.404739
  C     -2.792041    1.377136    2.363151
  C     -1.325109    1.190483    2.693838
  O     -3.960616   -0.469764   -0.768164
  C     -4.181305   -1.845916   -0.357285
  C     -3.826098   -2.784960   -1.492371
  H      2.357851   -3.530857    1.097461
  H      0.784590   -3.349562    1.894542
  H      1.027814   -2.725562    0.259255
  H      2.374330   -1.684267    2.809557
  H      1.087424   -0.860961    1.880986
  H      5.543277    1.936957   -0.117041
  H      3.893601    2.595390   -0.309730
  H      4.676813    2.686517    2.071225
  H      3.231476    1.686330    1.880394
  H      4.818393    0.919673    2.074901
  H      0.503032   -0.159223   -1.963053
  H     -0.620081    1.209655   -1.593787
  H     -2.975319    2.379835    1.964572
  H     -3.425317    1.203640    3.234582
  H     -0.709370    1.451805    1.833868
  H     -1.059875    1.842973    3.519366
  H     -1.133113    0.157944    2.975162
  H     -3.585845   -2.054718    0.533803
  H     -5.242781   -1.902163   -0.111692
  H     -4.080931   -3.800233   -1.205785
  H     -4.381230   -2.514385   -2.386249
  H     -2.762168   -2.734992   -1.711258

 Total Charge           Charge          ....    0
 Multiplicity           Mult            ....    1
 Number of Electrons    NEL             ....  202
 Basis Dimension        Dim             ....  334

ORBITAL ENERGIES
----------------

  NO   OCC          E(Eh)            E(eV)
   0   2.0000     -88.049515     -2395.9491
   1   2.0000     -88.047687     -2395.8994
   2   2.0000     -87.994731     -2394.4584
   3   2.0000     -87.985541     -2394.2083
   4   2.0000     -76.431124     -2079.7966
   5   2.0000     -76.428690     -2079.7304
   6   2.0000     -18.795741      -511.4581
   7   2.0000     -18.794137      -511.4145
   8   2.0000     -18.793633      -511.4008
   9   2.0000     -18.792240      -511.3628
  10   2.0000      -9.962185      -271.0848
  11   2.0000      -9.962018      -271.0803
  12   2.0000      -9.957160      -270.9481
  13   2.0000      -9.955861      -270.9128
  14   2.0000      -9.952149      -270.8118
  15   2.0000      -9.894366      -269.2394
  16   2.0000      -9.888544      -269.0810
  17   2.0000      -9.888305      -269.0745
  18   2.0000      -9.881458      -268.8882
  19   2.0000      -7.693619      -209.3540
  20   2.0000      -7.692093      -209.3125
  21   2.0000      -7.639850      -207.8909
  22   2.0000      -7.630684      -207.6415
  23   2.0000      -6.428852      -174.9380
  24   2.0000      -6.425970      -174.8595
  25   2.0000      -5.721324      -155.6851
  26   2.0000      -5.719831      -155.6445
  27   2.0000      -5.718048      -155.5960
  28   2.0000      -5.716641      -155.5577
  29   2.0000      -5.711037      -155.4052
  30   2.0000      -5.709253      -155.3567
  31   2.0000      -5.668830      -154.2567
  32   2.0000      -5.660369      -154.0265
  33   2.0000      -5.660019      -154.0169
  34   2.0000      -5.659762      -154.0100
  35   2.0000      -5.651446      -153.7837
  36   2.0000      -5.650500      -153.7579
  37   2.0000      -4.651504      -126.5739
  38   2.0000      -4.650435      -126.5448
  39   2.0000      -4.649396      -126.5165
  40   2.0000      -4.648623      -126.4955
  41   2.0000      -4.648029      -126.4793
  42   2.0000      -4.646110      -126.4271
  43   2.0000      -0.991805       -26.9884
  44   2.0000      -0.988681       -26.9034
  45   2.0000      -0.947926       -25.7944
  46   2.0000      -0.946768       -25.7629
  47   2.0000      -0.764649       -20.8072
  48   2.0000      -0.725676       -19.7466
  49   2.0000      -0.717150       -19.5146
  50   2.0000      -0.693831       -18.8801
  51   2.0000      -0.693069       -18.8594
  52   2.0000      -0.681767       -18.5518
  53   2.0000      -0.653687       -17.7877
  54   2.0000      -0.642100       -17.4724
  55   2.0000      -0.600471       -16.3396
  56   2.0000      -0.595088       -16.1932
  57   2.0000      -0.579373       -15.7655
  58   2.0000      -0.578670       -15.7464
  59   2.0000      -0.564951       -15.3731
  60   2.0000      -0.509529       -13.8650
  61   2.0000      -0.496731       -13.5167
  62   2.0000      -0.477911       -13.0046
  63   2.0000      -0.477008       -12.9800
  64   2.0000      -0.462553       -12.5867
  65   2.0000      -0.451956       -12.2983
  66   2.0000      -0.446067       -12.1381
  67   2.0000      -0.441509       -12.0141
  68   2.0000      -0.435220       -11.8429
  69   2.0000      -0.427523       -11.6335
  70   2.0000      -0.405725       -11.0403
  71   2.0000      -0.404733       -11.0134
  72   2.0000      -0.401939       -10.9373
  73   2.0000      -0.396138       -10.7795
  74   2.0000      -0.380662       -10.3583
  75   2.0000      -0.373821       -10.1722
  76   2.0000      -0.362680        -9.8690
  77   2.0000      -0.360530        -9.8105
  78   2.0000      -0.359021        -9.7695
  79   2.0000      -0.356322        -9.6960
  80   2.0000      -0.352617        -9.5952
  81   2.0000      -0.350150        -9.5281
  82   2.0000      -0.347093        -9.4449
  83   2.0000      -0.343387        -9.3440
  84   2.0000      -0.337655        -9.1881
  85   2.0000      -0.320903        -8.7322
  86   2.0000      -0.313988        -8.5440
  87   2.0000      -0.305894        -8.3238
  88   2.0000      -0.300549        -8.1784
  89   2.0000      -0.296055        -8.0561
  90   2.0000      -0.289903        -7.8887
  91   2.0000      -0.279655        -7.6098
  92   2.0000      -0.275916        -7.5081
  93   2.0000      -0.265860        -7.2344
  94   2.0000      -0.263844        -7.1796
  95   2.0000      -0.236347        -6.4313
  96   2.0000      -0.222413        -6.0522
  97   2.0000      -0.215916        -5.8754
  98   2.0000      -0.210656        -5.7322
  99   2.0000      -0.205599        -5.5946
 100   2.0000      -0.197280        -5.3683
 101   0.0000      -0.049902        -1.3579
 102   0.0000      -0.038715        -1.0535
 103   0.0000      -0.020479        -0.5573
 104   0.0000       0.002922         0.0795
 105   0.0000       0.008350         0.2272

MULLIKEN ATOMIC CHARGES
-----------------------
   0 C :   -0.300855
   1 C :   -0.034686
   2 O :   -0.368496
   3 P :    0.598086
   4 S :   -0.300856
   5 O :   -0.358209
   6 C :   -0.003242
   7 C :   -0.319671
   8 S :   -0.127433
   9 C :   -0.337227
  10 S :   -0.121975
  11 P :    0.599090
  12 S :   -0.298669
  13 O :   -0.379174
  14 C :    0.005658
  15 C :   -0.338337
  16 O :   -0.355284
  17 C :   -0.019478
  18 C :   -0.284487
  19 H :    0.120128
  20 H :    0.104054
  21 H :    0.130158
  22 H :    0.104145
  23 H :    0.123726
  24 H :    0.115455
  25 H :    0.116674
  26 H :    0.117607
  27 H :    0.123677
  28 H :    0.128436
  29 H :    0.197970
  30 H :    0.194662
  31 H :    0.112278
  32 H :    0.104684
  33 H :    0.138469
  34 H :    0.111840
  35 H :    0.121277
  36 H :    0.107187
  37 H :    0.115326
  38 H :    0.110116
  39 H :    0.122900
  40 H :    0.124475
Sum of atomic charges:   -0.0000000

LOEWDIN ATOMIC CHARGES
----------------------
   0 C :   -0.367447
   1 C :   -0.121767
   2 O :   -0.241642
   3 P :    0.566103
   4 S :   -0.295782
   5 O :   -0.233206
   6 C :   -0.110754
   7 C :   -0.368208
   8 S :    0.077600
   9 C :   -0.489037
  10 S :    0.076853
  11 P :    0.568941
  12 S :   -0.291158
  13 O :   -0.250659
  14 C :   -0.115813
  15 C :   -0.372999
  16 O :   -0.238523
  17 C :   -0.112012
  18 C :   -0.358557
  19 H :    0.129024
  20 H :    0.127460
  21 H :    0.114404
  22 H :    0.118549
  23 H :    0.102861
  24 H :    0.125338
  25 H :    0.113563
  26 H :    0.133335
  27 H :    0.117468
  28 H :    0.131294
  29 H :    0.126654
  30 H :    0.126414
  31 H :    0.112111
  32 H :    0.118656
  33 H :    0.112579
  34 H :    0.130887
  35 H :    0.122248
  36 H :    0.106971
  37 H :    0.123521
  38 H :    0.130016
  39 H :    0.130945
  40 H :    0.123772

  Mayer bond orders larger than 0.100000
B(  0-C ,  1-C ) :   1.1664 B(  0-C , 19-H ) :   0.9443 B(  0-C , 20-H ) :   0.9375
B(  0-C , 21-H ) :   0.9264 B(  1-C ,  2-O ) :   0.9156 B(  1-C , 22-H ) :   0.9344
B(  1-C , 23-H ) :   0.9055 B(  2-O ,  3-P ) :   1.0868 B(  3-P ,  4-S ) :   1.6456
B(  3-P ,  5-O ) :   1.1513 B(  3-P ,  8-S ) :   0.9296 B(  4-S ,  8-S ) :   0.1127
B(  4-S , 29-H ) :   0.1107 B(  5-O ,  6-C ) :   0.9021 B(  6-C ,  7-C ) :   1.1671
B(  6-C , 24-H ) :   0.9346 B(  6-C , 25-H ) :   0.9258 B(  7-C , 26-H ) :   0.9343
B(  7-C , 27-H ) :   0.9395 B(  7-C , 28-H ) :   0.9415 B(  8-S ,  9-C ) :   1.0151
B(  9-C , 10-S ) :   1.0163 B(  9-C , 29-H ) :   0.8520 B(  9-C , 30-H ) :   0.8503
B( 10-S , 11-P ) :   0.9339 B( 10-S , 12-S ) :   0.1129 B( 11-P , 12-S ) :   1.6372
B( 11-P , 13-O ) :   1.0874 B( 11-P , 16-O ) :   1.1497 B( 12-S , 30-H ) :   0.1124
B( 13-O , 14-C ) :   0.9142 B( 14-C , 15-C ) :   1.1616 B( 14-C , 31-H ) :   0.9168
B( 14-C , 32-H ) :   0.9339 B( 15-C , 33-H ) :   0.9274 B( 15-C , 34-H ) :   0.9362
B( 15-C , 35-H ) :   0.9387 B( 16-O , 17-C ) :   0.8852 B( 17-C , 18-C ) :   1.1631
B( 17-C , 36-H ) :   0.9186 B( 17-C , 37-H ) :   0.9337 B( 18-C , 38-H ) :   0.9395
B( 18-C , 39-H ) :   0.9458 B( 18-C , 40-H ) :   0.9399

Dispersion correction           -0.063926432
FINAL SINGLE POINT ENERGY     -2929.514922370219

DIPOLE MOMENT
-------------

Method             : SCF
Type of density    : Electron Density
Multiplicity       :   1
Irrep              :   0
Energy             : -2929.6362842013122645 Eh
Relativity type    :
Basis              : AO
                                X                 Y                 Z
Electronic contribution:     -0.448754940       6.824400603     -16.011705871
Nuclear contribution   :      0.328969470      -7.006142844      18.041976647
                        -----------------------------------------
Total Dipole Moment    :     -0.119785470      -0.181742241       2.030270776
                        -----------------------------------------
Magnitude (a.u.)       :      2.041905538
Magnitude (Debye)      :      5.190111413

Rotational constants in cm-1:             0.012038             0.004579             0.004186
Rotational constants in MHz :           360.901891           137.276190           125.489962

                             ****ORCA TERMINATED NORMALLY****
TOTAL RUN TIME: 0 days 0 hours 0 minutes 20 seconds 938 msec
