                         Program Version 6.0.1  -  RELEASE   -
|  1> ! r2scan-3c def2/J RI DEFGRID2 scfconv6 printgap
|  2> %output
|  3>     printlevel normal
|  4> end
|  5> * xyz 0 1
|  6> C 4.7447051259 -1.6832191171 0.930680718
|  7> C 4.3084494039 -2.4925959339 -0.279767874
|  8> O 2.8872268995 -2.3633103689 -0.4762380636
|  9> C 2.4464107335 -1.4445336262 -1.3082120659
| 10> O 3.1461823742 -0.7414405516 -2.0054586953
| 11> C 0.9274932983 -1.4094780119 -1.3408204989
| 12> C 0.4819596471 0.0464075076 -1.3996388384
| 13> H 0.9532865156 0.5235897743 -2.2675584929
| 14> C 0.9661003386 0.8065761562 -0.1780280137
| 15> O 1.9763088763 0.5016682463 0.4133485149
| 16> O 0.2163463764 1.8530435984 0.0930846359
| 17> C 0.5957745384 2.7053517123 1.1932091345
| 18> C 0.0406661482 4.0906494644 0.9289516767
| 19> S -1.3078065621 0.2428078854 -1.683144391
| 20> P -2.0392488557 0.10837517 0.2780269522
| 21> S -0.9281993057 -0.7305605226 1.6767743063
| 22> O -2.5378853593 1.586206151 0.5661549717
| 23> C -3.2602539175 1.8787095713 1.7757981166
| 24> O -3.45007294 -0.6265530233 0.0992014143
| 25> C -3.5464386946 -2.0464232725 -0.0571249795
| 26> H 4.236822883 -2.0409251302 1.8218845265
| 27> H 5.817747475 -1.773676314 1.0620535095
| 28> H 4.4847034927 -0.6367489943 0.7850999283
| 29> H 4.4755088534 -3.5596588067 -0.1293000917
| 30> H 4.8165066619 -2.1476814397 -1.184919615
| 31> H 0.5469604082 -1.9122203046 -0.4510032364
| 32> H 0.5845119695 -1.9314607409 -2.2349826355
| 33> H 0.179305508 2.2657856227 2.1055263198
| 34> H 1.6870015009 2.6989893072 1.2697349159
| 35> H -1.0294708354 4.0282554848 0.7546707552
| 36> H 0.2332962826 4.7225804498 1.7892014025
| 37> H 0.5122916551 4.5234730875 0.0515292447
| 38> H -2.7392482737 1.4586593663 2.6381076413
| 39> H -4.264993891 1.4635409013 1.7146618005
| 40> H -3.2961057126 2.9630676042 1.8422663111
| 41> H -4.5865451684 -2.2945497988 0.138487601
| 42> H -2.8943302632 -2.547208117 0.6608822083
| 43> H -3.2701382432 -2.3267163162 -1.0728304343
| 44> *
| 45>
| 46>                          ****END OF INPUT****

CARTESIAN COORDINATES (ANGSTROEM)
---------------------------------
  C      4.744705   -1.683219    0.930681
  C      4.308449   -2.492596   -0.279768
  O      2.887227   -2.363310   -0.476238
  C      2.446411   -1.444534   -1.308212
  O      3.146182   -0.741441   -2.005459
  C      0.927493   -1.409478   -1.340820
  C      0.481960    0.046408   -1.399639
  H      0.953287    0.523590   -2.267558
  C      0.966100    0.806576   -0.178028
  O      1.976309    0.501668    0.413349
  O      0.216346    1.853044    0.093085
  C      0.595775    2.705352    1.193209
  C      0.040666    4.090649    0.928952
  S     -1.307807    0.242808   -1.683144
  P     -2.039249    0.108375    0.278027
  S     -0.928199   -0.730561    1.676774
  O     -2.537885    1.586206    0.566155
  C     -3.260254    1.878710    1.775798
  O     -3.450073   -0.626553    0.099201
  C     -3.546439   -2.046423   -0.057125
  H      4.236823   -2.040925    1.821885
  H      5.817747   -1.773676    1.062054
  H      4.484703   -0.636749    0.785100
  H      4.475509   -3.559659   -0.129300
  H      4.816507   -2.147681   -1.184920
  H      0.546960   -1.912220   -0.451003
  H      0.584512   -1.931461   -2.234983
  H      0.179306    2.265786    2.105526
  H      1.687002    2.698989    1.269735
  H     -1.029471    4.028255    0.754671
  H      0.233296    4.722580    1.789201
  H      0.512292    4.523473    0.051529
  H     -2.739248    1.458659    2.638108
  H     -4.264994    1.463541    1.714662
  H     -3.296106    2.963068    1.842266
  H     -4.586545   -2.294550    0.138488
  H     -2.894330   -2.547208    0.660882
  H     -3.270138   -2.326716   -1.072830

 Total Charge           Charge          ....    0
 Multiplicity           Mult            ....    1
 Number of Electrons    NEL             ....  174
 Basis Dimension        Dim             ....  510

ORBITAL ENERGIES
----------------

  NO   OCC          E(Eh)            E(eV)
   0   2.0000     -88.582495     -2410.4522
   1   2.0000     -88.523602     -2408.8497
   2   2.0000     -76.919464     -2093.0850
   3   2.0000     -19.003497      -517.1114
   4   2.0000     -18.996795      -516.9291
   5   2.0000     -18.995215      -516.8861
   6   2.0000     -18.989420      -516.7284
   7   2.0000     -18.936650      -515.2924
   8   2.0000     -18.919724      -514.8319
   9   2.0000     -10.165460      -276.6162
  10   2.0000     -10.149281      -276.1760
  11   2.0000     -10.099208      -274.8134
  12   2.0000     -10.098865      -274.8041
  13   2.0000     -10.094773      -274.6927
  14   2.0000     -10.092994      -274.6443
  15   2.0000     -10.081578      -274.3337
  16   2.0000     -10.048914      -273.4448
  17   2.0000     -10.032565      -273.0000
  18   2.0000     -10.015599      -272.5383
  19   2.0000      -7.876758      -214.3375
  20   2.0000      -7.818204      -212.7441
  21   2.0000      -6.597748      -179.5338
  22   2.0000      -5.823917      -158.4768
  23   2.0000      -5.820519      -158.3844
  24   2.0000      -5.813682      -158.1983
  25   2.0000      -5.765899      -156.8981
  26   2.0000      -5.758597      -156.6994
  27   2.0000      -5.758079      -156.6853
  28   2.0000      -4.743360      -129.0734
  29   2.0000      -4.742685      -129.0550
  30   2.0000      -4.741406      -129.0202
  31   2.0000      -1.082819       -29.4650
  32   2.0000      -1.065877       -29.0040
  33   2.0000      -1.054124       -28.6842
  34   2.0000      -1.012691       -27.5567
  35   2.0000      -0.987681       -26.8762
  36   2.0000      -0.970107       -26.3980
  37   2.0000      -0.811328       -22.0774
  38   2.0000      -0.750781       -20.4298
  39   2.0000      -0.744862       -20.2687
  40   2.0000      -0.730102       -19.8671
  41   2.0000      -0.691680       -18.8216
  42   2.0000      -0.677731       -18.4420
  43   2.0000      -0.669211       -18.2102
  44   2.0000      -0.649462       -17.6728
  45   2.0000      -0.620835       -16.8938
  46   2.0000      -0.590632       -16.0719
  47   2.0000      -0.545335       -14.8393
  48   2.0000      -0.535389       -14.5687
  49   2.0000      -0.516843       -14.0640
  50   2.0000      -0.503467       -13.7000
  51   2.0000      -0.496025       -13.4975
  52   2.0000      -0.478446       -13.0192
  53   2.0000      -0.460832       -12.5399
  54   2.0000      -0.456941       -12.4340
  55   2.0000      -0.449706       -12.2371
  56   2.0000      -0.445847       -12.1321
  57   2.0000      -0.441621       -12.0171
  58   2.0000      -0.435359       -11.8467
  59   2.0000      -0.428247       -11.6532
  60   2.0000      -0.424124       -11.5410
  61   2.0000      -0.417874       -11.3709
  62   2.0000      -0.407192       -11.0802
  63   2.0000      -0.394705       -10.7405
  64   2.0000      -0.387067       -10.5326
  65   2.0000      -0.378671       -10.3042
  66   2.0000      -0.371722       -10.1151
  67   2.0000      -0.370320       -10.0769
  68   2.0000      -0.357614        -9.7312
  69   2.0000      -0.352688        -9.5971
  70   2.0000      -0.345718        -9.4075
  71   2.0000      -0.334206        -9.0942
  72   2.0000      -0.329665        -8.9706
  73   2.0000      -0.327942        -8.9238
  74   2.0000      -0.327053        -8.8996
  75   2.0000      -0.319739        -8.7005
  76   2.0000      -0.312887        -8.5141
  77   2.0000      -0.297200        -8.0872
  78   2.0000      -0.294859        -8.0235
  79   2.0000      -0.285039        -7.7563
  80   2.0000      -0.276362        -7.5202
  81   2.0000      -0.261924        -7.1273
  82   2.0000      -0.255730        -6.9588
  83   2.0000      -0.238416        -6.4876
  84   2.0000      -0.228249        -6.2110
  85   2.0000      -0.221011        -6.0140
  86   2.0000      -0.220008        -5.9867
  87   0.0000      -0.047027        -1.2797
  88   0.0000      -0.030132        -0.8199
  89   0.0000      -0.001580        -0.0430
  90   0.0000       0.003262         0.0888
  91   0.0000       0.010000         0.2721

MULLIKEN ATOMIC CHARGES
-----------------------
   0 C :   -0.458838
   1 C :   -0.151607
   2 O :   -0.148390
   3 C :    0.347261
   4 O :   -0.413492
   5 C :   -0.428626
   6 C :    0.049262
   7 H :    0.218044
   8 C :    0.236933
   9 O :   -0.378090
  10 O :   -0.132024
  11 C :   -0.145001
  12 C :   -0.464855
  13 S :   -0.118119
  14 P :    0.766841
  15 S :   -0.470931
  16 O :   -0.337321
  17 C :   -0.295439
  18 O :   -0.346981
  19 C :   -0.296763
  20 H :    0.149675
  21 H :    0.141423
  22 H :    0.181123
  23 H :    0.144333
  24 H :    0.173033
  25 H :    0.210422
  26 H :    0.184909
  27 H :    0.164590
  28 H :    0.175160
  29 H :    0.159363
  30 H :    0.149750
  31 H :    0.153409
  32 H :    0.176436
  33 H :    0.164092
  34 H :    0.153891
  35 H :    0.152077
  36 H :    0.176773
  37 H :    0.157679
Sum of atomic charges:   -0.0000000

LOEWDIN ATOMIC CHARGES
----------------------
   0 C :   -0.387666
   1 C :    0.030174
   2 O :   -0.575729
   3 C :    0.359077
   4 O :   -0.442405
   5 C :   -0.212645
   6 C :   -0.194135
   7 H :    0.217894
   8 C :    0.342966
   9 O :   -0.410552
  10 O :   -0.620852
  11 C :    0.035319
  12 C :   -0.383927
  13 S :    0.243494
  14 P :    0.399070
  15 S :   -0.087050
  16 O :   -0.662941
  17 C :   -0.053622
  18 O :   -0.680678
  19 C :   -0.059077
  20 H :    0.158432
  21 H :    0.155543
  22 H :    0.172373
  23 H :    0.175810
  24 H :    0.190118
  25 H :    0.199800
  26 H :    0.185073
  27 H :    0.182962
  28 H :    0.191519
  29 H :    0.162909
  30 H :    0.159623
  31 H :    0.159478
  32 H :    0.176559
  33 H :    0.172896
  34 H :    0.176982
  35 H :    0.177345
  36 H :    0.177133
  37 H :    0.168727

  Mayer bond orders larger than 0.100000
B(  0-C ,  1-C ) :   0.9463 B(  0-C , 20-H ) :   0.9696 B(  0-C , 21-H ) :   0.9690
B(  0-C , 22-H ) :   0.9656 B(  1-C ,  2-O ) :   0.7975 B(  1-C , 23-H ) :   0.9617
B(  1-C , 24-H ) :   0.9709 B(  2-O ,  3-C ) :   1.1128 B(  3-C ,  4-O ) :   1.8660
B(  3-C ,  5-C ) :   0.8582 B(  5-C ,  6-C ) :   0.8868 B(  5-C , 25-H ) :   0.9805
B(  5-C , 26-H ) :   0.9519 B(  6-C ,  7-H ) :   0.8765 B(  6-C ,  8-C ) :   0.9637
B(  6-C , 13-S ) :   0.8453 B(  8-C ,  9-O ) :   1.7805 B(  8-C , 10-O ) :   1.1275
B( 10-O , 11-C ) :   0.7309 B( 11-C , 12-C ) :   0.9343 B( 11-C , 27-H ) :   0.9434
B( 11-C , 28-H ) :   0.9552 B( 12-C , 29-H ) :   0.9726 B( 12-C , 30-H ) :   0.9714
B( 12-C , 31-H ) :   0.9721 B( 13-S , 14-P ) :   1.1272 B( 14-P , 15-S ) :   1.6950
B( 14-P , 16-O ) :   1.1677 B( 14-P , 18-O ) :   1.0222 B( 16-O , 17-C ) :   0.8027
B( 17-C , 32-H ) :   0.9586 B( 17-C , 33-H ) :   0.9596 B( 17-C , 34-H ) :   0.9666
B( 18-O , 19-C ) :   0.8318 B( 19-C , 35-H ) :   0.9670 B( 19-C , 36-H ) :   0.9572
B( 19-C , 37-H ) :   0.9600

Dispersion correction           -0.017828839
FINAL SINGLE POINT ENERGY     -1981.454882344554

DIPOLE MOMENT
-------------

Method             : SCF
Type of density    : Electron Density
Multiplicity       :   1
Irrep              :   0
Energy             : -1981.4744487593311533 Eh
Relativity type    :
Basis              : AO
                                X                 Y                 Z
Electronic contribution:     -9.097505341      -2.957965692      -8.007108945
Nuclear contribution   :      7.968452387       3.182501814       8.451271840
                        -----------------------------------------
Total Dipole Moment    :     -1.129052955       0.224536122       0.444162895
                        -----------------------------------------
Magnitude (a.u.)       :      1.233879136
Magnitude (Debye)      :      3.136271520

Rotational constants in cm-1:             0.014701             0.006744             0.005781
Rotational constants in MHz :           440.739311           202.190930           173.320028

                             ****ORCA TERMINATED NORMALLY****
TOTAL RUN TIME: 0 days 0 hours 1 minutes 23 seconds 757 msec
