                         Program Version 6.0.1  -  RELEASE   -
|  1> ! r2scan-3c def2/J RI DEFGRID2 scfconv6 printgap
|  2> %output
|  3>     printlevel normal
|  4> end
|  5> %cpcm
|  6>     smd true
|  7>     smdsolvent "water"
|  8> end
|  9> * xyz 0 1
| 10> C 4.7447051259 -1.6832191171 0.930680718
| 11> C 4.3084494039 -2.4925959339 -0.279767874
| 12> O 2.8872268995 -2.3633103689 -0.4762380636
| 13> C 2.4464107335 -1.4445336262 -1.3082120659
| 14> O 3.1461823742 -0.7414405516 -2.0054586953
| 15> C 0.9274932983 -1.4094780119 -1.3408204989
| 16> C 0.4819596471 0.0464075076 -1.3996388384
| 17> H 0.9532865156 0.5235897743 -2.2675584929
| 18> C 0.9661003386 0.8065761562 -0.1780280137
| 19> O 1.9763088763 0.5016682463 0.4133485149
| 20> O 0.2163463764 1.8530435984 0.0930846359
| 21> C 0.5957745384 2.7053517123 1.1932091345
| 22> C 0.0406661482 4.0906494644 0.9289516767
| 23> S -1.3078065621 0.2428078854 -1.683144391
| 24> P -2.0392488557 0.10837517 0.2780269522
| 25> S -0.9281993057 -0.7305605226 1.6767743063
| 26> O -2.5378853593 1.586206151 0.5661549717
| 27> C -3.2602539175 1.8787095713 1.7757981166
| 28> O -3.45007294 -0.6265530233 0.0992014143
| 29> C -3.5464386946 -2.0464232725 -0.0571249795
| 30> H 4.236822883 -2.0409251302 1.8218845265
| 31> H 5.817747475 -1.773676314 1.0620535095
| 32> H 4.4847034927 -0.6367489943 0.7850999283
| 33> H 4.4755088534 -3.5596588067 -0.1293000917
| 34> H 4.8165066619 -2.1476814397 -1.184919615
| 35> H 0.5469604082 -1.9122203046 -0.4510032364
| 36> H 0.5845119695 -1.9314607409 -2.2349826355
| 37> H 0.179305508 2.2657856227 2.1055263198
| 38> H 1.6870015009 2.6989893072 1.2697349159
| 39> H -1.0294708354 4.0282554848 0.7546707552
| 40> H 0.2332962826 4.7225804498 1.7892014025
| 41> H 0.5122916551 4.5234730875 0.0515292447
| 42> H -2.7392482737 1.4586593663 2.6381076413
| 43> H -4.264993891 1.4635409013 1.7146618005
| 44> H -3.2961057126 2.9630676042 1.8422663111
| 45> H -4.5865451684 -2.2945497988 0.138487601
| 46> H -2.8943302632 -2.547208117 0.6608822083
| 47> H -3.2701382432 -2.3267163162 -1.0728304343
| 48> *
| 49>
| 50>                          ****END OF INPUT****

CARTESIAN COORDINATES (ANGSTROEM)
---------------------------------
  C      4.744705   -1.683219    0.930681
  C      4.308449   -2.492596   -0.279768
  O      2.887227   -2.363310   -0.476238
  C      2.446411   -1.444534   -1.308212
  O      3.146182   -0.741441   -2.005459
  C      0.927493   -1.409478   -1.340820
  C      0.481960    0.046408   -1.399639
  H      0.953287    0.523590   -2.267558
  C      0.966100    0.806576   -0.178028
  O      1.976309    0.501668    0.413349
  O      0.216346    1.853044    0.093085
  C      0.595775    2.705352    1.193209
  C      0.040666    4.090649    0.928952
  S     -1.307807    0.242808   -1.683144
  P     -2.039249    0.108375    0.278027
  S     -0.928199   -0.730561    1.676774
  O     -2.537885    1.586206    0.566155
  C     -3.260254    1.878710    1.775798
  O     -3.450073   -0.626553    0.099201
  C     -3.546439   -2.046423   -0.057125
  H      4.236823   -2.040925    1.821885
  H      5.817747   -1.773676    1.062054
  H      4.484703   -0.636749    0.785100
  H      4.475509   -3.559659   -0.129300
  H      4.816507   -2.147681   -1.184920
  H      0.546960   -1.912220   -0.451003
  H      0.584512   -1.931461   -2.234983
  H      0.179306    2.265786    2.105526
  H      1.687002    2.698989    1.269735
  H     -1.029471    4.028255    0.754671
  H      0.233296    4.722580    1.789201
  H      0.512292    4.523473    0.051529
  H     -2.739248    1.458659    2.638108
  H     -4.264994    1.463541    1.714662
  H     -3.296106    2.963068    1.842266
  H     -4.586545   -2.294550    0.138488
  H     -2.894330   -2.547208    0.660882
  H     -3.270138   -2.326716   -1.072830

 Total Charge           Charge          ....    0
 Multiplicity           Mult            ....    1
 Number of Electrons    NEL             ....  174
 Basis Dimension        Dim             ....  510

ORBITAL ENERGIES
----------------

  NO   OCC          E(Eh)            E(eV)
   0   2.0000     -88.587169     -2410.5794
   1   2.0000     -88.529798     -2409.0183
   2   2.0000     -76.923073     -2093.1832
   3   2.0000     -19.011317      -517.3242
   4   2.0000     -19.005939      -517.1779
   5   2.0000     -18.996757      -516.9280
   6   2.0000     -18.995310      -516.8887
   7   2.0000     -18.953829      -515.7599
   8   2.0000     -18.943769      -515.4862
   9   2.0000     -10.179278      -276.9922
  10   2.0000     -10.169162      -276.7170
  11   2.0000     -10.102515      -274.9034
  12   2.0000     -10.087506      -274.4950
  13   2.0000     -10.084241      -274.4061
  14   2.0000     -10.083380      -274.3827
  15   2.0000     -10.081539      -274.3326
  16   2.0000     -10.052691      -273.5476
  17   2.0000     -10.020077      -272.6602
  18   2.0000     -10.018498      -272.6172
  19   2.0000      -7.881406      -214.4640
  20   2.0000      -7.824699      -212.9209
  21   2.0000      -6.601404      -179.6333
  22   2.0000      -5.828590      -158.6040
  23   2.0000      -5.825185      -158.5114
  24   2.0000      -5.818296      -158.3239
  25   2.0000      -5.772328      -157.0730
  26   2.0000      -5.765098      -156.8763
  27   2.0000      -5.764581      -156.8622
  28   2.0000      -4.746946      -129.1710
  29   2.0000      -4.746331      -129.1542
  30   2.0000      -4.745176      -129.1228
  31   2.0000      -1.092760       -29.7355
  32   2.0000      -1.083460       -29.4824
  33   2.0000      -1.053781       -28.6748
  34   2.0000      -1.011611       -27.5273
  35   2.0000      -1.003093       -27.2956
  36   2.0000      -0.992602       -27.0101
  37   2.0000      -0.816082       -22.2067
  38   2.0000      -0.753502       -20.5038
  39   2.0000      -0.742719       -20.2104
  40   2.0000      -0.731154       -19.8957
  41   2.0000      -0.693411       -18.8687
  42   2.0000      -0.670164       -18.2361
  43   2.0000      -0.667081       -18.1522
  44   2.0000      -0.650681       -17.7059
  45   2.0000      -0.624183       -16.9849
  46   2.0000      -0.591141       -16.0858
  47   2.0000      -0.542913       -14.7734
  48   2.0000      -0.535211       -14.5638
  49   2.0000      -0.524814       -14.2809
  50   2.0000      -0.506720       -13.7886
  51   2.0000      -0.492067       -13.3898
  52   2.0000      -0.487624       -13.2689
  53   2.0000      -0.465850       -12.6764
  54   2.0000      -0.462490       -12.5850
  55   2.0000      -0.457987       -12.4624
  56   2.0000      -0.452775       -12.3206
  57   2.0000      -0.445134       -12.1127
  58   2.0000      -0.438894       -11.9429
  59   2.0000      -0.427069       -11.6211
  60   2.0000      -0.424759       -11.5583
  61   2.0000      -0.412327       -11.2200
  62   2.0000      -0.409686       -11.1481
  63   2.0000      -0.398898       -10.8546
  64   2.0000      -0.389766       -10.6061
  65   2.0000      -0.378091       -10.2884
  66   2.0000      -0.373616       -10.1666
  67   2.0000      -0.364500        -9.9186
  68   2.0000      -0.361081        -9.8255
  69   2.0000      -0.355924        -9.6852
  70   2.0000      -0.347332        -9.4514
  71   2.0000      -0.339800        -9.2464
  72   2.0000      -0.334636        -9.1059
  73   2.0000      -0.331793        -9.0285
  74   2.0000      -0.322646        -8.7796
  75   2.0000      -0.319900        -8.7049
  76   2.0000      -0.313975        -8.5437
  77   2.0000      -0.305440        -8.3115
  78   2.0000      -0.292971        -7.9721
  79   2.0000      -0.286108        -7.7854
  80   2.0000      -0.282756        -7.6942
  81   2.0000      -0.277968        -7.5639
  82   2.0000      -0.267758        -7.2861
  83   2.0000      -0.257749        -7.0137
  84   2.0000      -0.242162        -6.5896
  85   2.0000      -0.228823        -6.2266
  86   2.0000      -0.226397        -6.1606
  87   0.0000      -0.053511        -1.4561
  88   0.0000      -0.040122        -1.0918
  89   0.0000      -0.018198        -0.4952
  90   0.0000       0.000692         0.0188
  91   0.0000       0.006382         0.1737

MULLIKEN ATOMIC CHARGES
-----------------------
   0 C :   -0.503079
   1 C :   -0.137770
   2 O :   -0.175243
   3 C :    0.364570
   4 O :   -0.487125
   5 C :   -0.441145
   6 C :    0.051688
   7 H :    0.253360
   8 C :    0.254514
   9 O :   -0.446782
  10 O :   -0.142598
  11 C :   -0.137388
  12 C :   -0.508730
  13 S :   -0.128830
  14 P :    0.807432
  15 S :   -0.519156
  16 O :   -0.368867
  17 C :   -0.307245
  18 O :   -0.375708
  19 C :   -0.307721
  20 H :    0.168675
  21 H :    0.171148
  22 H :    0.169739
  23 H :    0.174599
  24 H :    0.177587
  25 H :    0.215861
  26 H :    0.225341
  27 H :    0.182140
  28 H :    0.180723
  29 H :    0.169592
  30 H :    0.173365
  31 H :    0.167900
  32 H :    0.181128
  33 H :    0.181409
  34 H :    0.183632
  35 H :    0.179431
  36 H :    0.176780
  37 H :    0.176774
Sum of atomic charges:   -0.0000000

LOEWDIN ATOMIC CHARGES
----------------------
   0 C :   -0.391811
   1 C :    0.036579
   2 O :   -0.584051
   3 C :    0.365296
   4 O :   -0.492809
   5 C :   -0.207077
   6 C :   -0.191830
   7 H :    0.229911
   8 C :    0.347522
   9 O :   -0.460822
  10 O :   -0.623104
  11 C :    0.039605
  12 C :   -0.385421
  13 S :    0.246840
  14 P :    0.404315
  15 S :   -0.117238
  16 O :   -0.678040
  17 C :   -0.046548
  18 O :   -0.690203
  19 C :   -0.053801
  20 H :    0.162371
  21 H :    0.167605
  22 H :    0.164740
  23 H :    0.189302
  24 H :    0.192052
  25 H :    0.200481
  26 H :    0.202449
  27 H :    0.188614
  28 H :    0.194114
  29 H :    0.165633
  30 H :    0.169813
  31 H :    0.162725
  32 H :    0.179765
  33 H :    0.179821
  34 H :    0.189903
  35 H :    0.188742
  36 H :    0.177925
  37 H :    0.176632

  Mayer bond orders larger than 0.100000
B(  0-C ,  1-C ) :   0.9269 B(  0-C , 20-H ) :   0.9696 B(  0-C , 21-H ) :   0.9611
B(  0-C , 22-H ) :   0.9683 B(  1-C ,  2-O ) :   0.7839 B(  1-C , 23-H ) :   0.9512
B(  1-C , 24-H ) :   0.9652 B(  2-O ,  3-C ) :   1.1190 B(  3-C ,  4-O ) :   1.8062
B(  3-C ,  5-C ) :   0.8783 B(  5-C ,  6-C ) :   0.8515 B(  5-C , 25-H ) :   0.9818
B(  5-C , 26-H ) :   0.9295 B(  6-C ,  7-H ) :   0.8777 B(  6-C ,  8-C ) :   0.9551
B(  6-C , 13-S ) :   0.8343 B(  8-C ,  9-O ) :   1.7320 B(  8-C , 10-O ) :   1.1494
B( 10-O , 11-C ) :   0.7233 B( 11-C , 12-C ) :   0.9337 B( 11-C , 27-H ) :   0.9322
B( 11-C , 28-H ) :   0.9499 B( 12-C , 29-H ) :   0.9675 B( 12-C , 30-H ) :   0.9632
B( 12-C , 31-H ) :   0.9723 B( 13-S , 14-P ) :   1.1340 B( 14-P , 15-S ) :   1.6469
B( 14-P , 16-O ) :   1.1734 B( 14-P , 18-O ) :   1.0341 B( 16-O , 17-C ) :   0.7925
B( 17-C , 32-H ) :   0.9529 B( 17-C , 33-H ) :   0.9518 B( 17-C , 34-H ) :   0.9560
B( 18-O , 19-C ) :   0.8238 B( 19-C , 35-H ) :   0.9573 B( 19-C , 36-H ) :   0.9543
B( 19-C , 37-H ) :   0.9524

Dispersion correction           -0.017828839
FINAL SINGLE POINT ENERGY     -1981.469249720505

DIPOLE MOMENT
-------------

Method             : SCF
Type of density    : Electron Density
Multiplicity       :   1
Irrep              :   0
Energy             : -1981.4888161352814677 Eh
Relativity type    :
Basis              : AO
                                X                 Y                 Z
Electronic contribution:     -9.572703193      -3.043768424      -8.020113914
Nuclear contribution   :      7.968452387       3.182501814       8.451271840
                        -----------------------------------------
Total Dipole Moment    :     -1.604250806       0.138733390       0.431157926
                        -----------------------------------------
Magnitude (a.u.)       :      1.666962735
Magnitude (Debye)      :      4.237082546

Rotational constants in cm-1:             0.014701             0.006744             0.005781
Rotational constants in MHz :           440.739311           202.190930           173.320028

                             ****ORCA TERMINATED NORMALLY****
TOTAL RUN TIME: 0 days 0 hours 1 minutes 50 seconds 48 msec
