                         Program Version 6.0.0  -   RELEASE  -
|  1> ! pbe def2-sv(p) def2/J RI DEFGRID1 loosescf d4 GCP(DFT/SV(P)) printgap
|  2> %output
|  3>     printlevel normal
|  4> end
|  5> * xyz 0 1
|  6> C 4.9854834259 -2.6964282672 -0.7770855055
|  7> C 4.0361810824 -1.5947991688 -1.2029240054
|  8> O 3.051638532 -1.4355870022 -0.1619081795
|  9> P 2.1239681429 -0.1523451061 -0.0773555716
| 10> S 3.051013518 1.5760035156 -0.196491282
| 11> O 1.317540254 -0.4389580346 1.2519181324
| 12> C 1.6689173502 0.1791812858 2.5078163442
| 13> C 2.9793966603 -0.3603700447 3.0392008277
| 14> S 0.6623164705 -0.5121943468 -1.566000127
| 15> C -0.0264202416 1.1648550076 -1.5580637426
| 16> S -0.8495030818 1.5718536578 -0.0041186322
| 17> P -2.6698695188 0.4976813085 -0.3287275123
| 18> S -3.182370524 0.3659796999 -2.21276264
| 19> O -3.7195049096 1.291305468 0.5348178171
| 20> C -3.8974428361 1.1747172905 1.9696354395
| 21> C -2.6315762193 1.4793684712 2.7406479481
| 22> O -2.5721175397 -0.8925317285 0.4444933048
| 23> C -2.2046958781 -2.1479630381 -0.1632577824
| 24> C -1.152510688 -2.830970629 0.6867243734
| 25> H 4.4316148996 -3.6147786737 -0.6064609634
| 26> H 5.7181258045 -2.8578883573 -1.5609176499
| 27> H 5.4969923441 -2.4175524236 0.1396060544
| 28> H 3.5163485834 -1.8513028106 -2.1300944989
| 29> H 4.5584787982 -0.64169847 -1.3382885941
| 30> H 1.7216021164 1.2622285579 2.3593776645
| 31> H 0.8324026144 -0.0635717929 3.1640713992
| 32> H 3.7887858494 -0.0872544401 2.3628654025
| 33> H 3.1770418853 0.0676672963 4.01683862
| 34> H 2.9367991301 -1.4434020318 3.1169510601
| 35> H -0.745932187 1.2162358857 -2.376372697
| 36> H 0.7807567148 1.8857479858 -1.6868629966
| 37> H -4.6837366939 1.9011822401 2.1796097458
| 38> H -4.2533317963 0.1656644901 2.1858480021
| 39> H -2.2457265901 2.4588829786 2.4679846221
| 40> H -2.8498326604 1.4630029387 3.8039629925
| 41> H -1.871622829 0.7316354126 2.5215619609
| 42> H -3.1199417452 -2.7430168491 -0.2090277661
| 43> H -1.8490165358 -1.971352007 -1.1828283131
| 44> H -0.9215078806 -3.7968160413 0.2496156966
| 45> H -0.2439181196 -2.2353451565 0.7247281177
| 46> H -1.5245660568 -2.9721710427 1.6973421473
| 47> *
| 48>
| 49>                          ****END OF INPUT****

CARTESIAN COORDINATES (ANGSTROEM)
---------------------------------
  C      4.985483   -2.696428   -0.777086
  C      4.036181   -1.594799   -1.202924
  O      3.051639   -1.435587   -0.161908
  P      2.123968   -0.152345   -0.077356
  S      3.051014    1.576004   -0.196491
  O      1.317540   -0.438958    1.251918
  C      1.668917    0.179181    2.507816
  C      2.979397   -0.360370    3.039201
  S      0.662316   -0.512194   -1.566000
  C     -0.026420    1.164855   -1.558064
  S     -0.849503    1.571854   -0.004119
  P     -2.669870    0.497681   -0.328728
  S     -3.182371    0.365980   -2.212763
  O     -3.719505    1.291305    0.534818
  C     -3.897443    1.174717    1.969635
  C     -2.631576    1.479368    2.740648
  O     -2.572118   -0.892532    0.444493
  C     -2.204696   -2.147963   -0.163258
  C     -1.152511   -2.830971    0.686724
  H      4.431615   -3.614779   -0.606461
  H      5.718126   -2.857888   -1.560918
  H      5.496992   -2.417552    0.139606
  H      3.516349   -1.851303   -2.130094
  H      4.558479   -0.641698   -1.338289
  H      1.721602    1.262229    2.359378
  H      0.832403   -0.063572    3.164071
  H      3.788786   -0.087254    2.362865
  H      3.177042    0.067667    4.016839
  H      2.936799   -1.443402    3.116951
  H     -0.745932    1.216236   -2.376373
  H      0.780757    1.885748   -1.686863
  H     -4.683737    1.901182    2.179610
  H     -4.253332    0.165664    2.185848
  H     -2.245727    2.458883    2.467985
  H     -2.849833    1.463003    3.803963
  H     -1.871623    0.731635    2.521562
  H     -3.119942   -2.743017   -0.209028
  H     -1.849017   -1.971352   -1.182828
  H     -0.921508   -3.796816    0.249616
  H     -0.243918   -2.235345    0.724728
  H     -1.524566   -2.972171    1.697342

 Total Charge           Charge          ....    0
 Multiplicity           Mult            ....    1
 Number of Electrons    NEL             ....  202
 Basis Dimension        Dim             ....  334

ORBITAL ENERGIES
----------------

  NO   OCC          E(Eh)            E(eV)
   0   2.0000     -88.044756     -2395.8196
   1   2.0000     -88.037828     -2395.6311
   2   2.0000     -87.993546     -2394.4261
   3   2.0000     -87.982967     -2394.1382
   4   2.0000     -76.431635     -2079.8105
   5   2.0000     -76.425905     -2079.6546
   6   2.0000     -18.799946      -511.5725
   7   2.0000     -18.797254      -511.4993
   8   2.0000     -18.793703      -511.4027
   9   2.0000     -18.790294      -511.3099
  10   2.0000      -9.960564      -271.0407
  11   2.0000      -9.958359      -270.9807
  12   2.0000      -9.956481      -270.9296
  13   2.0000      -9.949638      -270.7434
  14   2.0000      -9.947947      -270.6974
  15   2.0000      -9.893477      -269.2152
  16   2.0000      -9.893068      -269.2041
  17   2.0000      -9.887862      -269.0624
  18   2.0000      -9.878626      -268.8111
  19   2.0000      -7.689767      -209.2492
  20   2.0000      -7.682643      -209.0553
  21   2.0000      -7.638405      -207.8516
  22   2.0000      -7.628245      -207.5751
  23   2.0000      -6.429187      -174.9471
  24   2.0000      -6.423203      -174.7843
  25   2.0000      -5.717500      -155.5811
  26   2.0000      -5.714374      -155.4960
  27   2.0000      -5.710580      -155.3928
  28   2.0000      -5.707168      -155.2999
  29   2.0000      -5.706803      -155.2900
  30   2.0000      -5.699602      -155.0941
  31   2.0000      -5.667195      -154.2122
  32   2.0000      -5.659014      -153.9896
  33   2.0000      -5.658738      -153.9821
  34   2.0000      -5.657210      -153.9405
  35   2.0000      -5.648844      -153.7129
  36   2.0000      -5.648324      -153.6987
  37   2.0000      -4.651607      -126.5767
  38   2.0000      -4.650994      -126.5600
  39   2.0000      -4.649699      -126.5247
  40   2.0000      -4.646203      -126.4296
  41   2.0000      -4.644617      -126.3865
  42   2.0000      -4.643651      -126.3602
  43   2.0000      -0.994219       -27.0541
  44   2.0000      -0.986936       -26.8559
  45   2.0000      -0.953086       -25.9348
  46   2.0000      -0.942218       -25.6390
  47   2.0000      -0.764182       -20.7945
  48   2.0000      -0.725224       -19.7343
  49   2.0000      -0.713793       -19.4233
  50   2.0000      -0.693876       -18.8813
  51   2.0000      -0.691588       -18.8191
  52   2.0000      -0.675152       -18.3718
  53   2.0000      -0.651499       -17.7282
  54   2.0000      -0.636967       -17.3327
  55   2.0000      -0.603883       -16.4325
  56   2.0000      -0.596215       -16.2238
  57   2.0000      -0.574007       -15.6195
  58   2.0000      -0.570466       -15.5232
  59   2.0000      -0.559894       -15.2355
  60   2.0000      -0.509527       -13.8649
  61   2.0000      -0.499943       -13.6041
  62   2.0000      -0.483430       -13.1548
  63   2.0000      -0.476680       -12.9711
  64   2.0000      -0.459899       -12.5145
  65   2.0000      -0.449133       -12.2215
  66   2.0000      -0.443144       -12.0586
  67   2.0000      -0.440071       -11.9749
  68   2.0000      -0.426524       -11.6063
  69   2.0000      -0.423565       -11.5258
  70   2.0000      -0.411155       -11.1881
  71   2.0000      -0.400557       -10.8997
  72   2.0000      -0.387681       -10.5493
  73   2.0000      -0.385489       -10.4897
  74   2.0000      -0.384633       -10.4664
  75   2.0000      -0.376990       -10.2584
  76   2.0000      -0.368906       -10.0384
  77   2.0000      -0.362162        -9.8549
  78   2.0000      -0.361192        -9.8285
  79   2.0000      -0.353441        -9.6176
  80   2.0000      -0.351407        -9.5623
  81   2.0000      -0.350068        -9.5258
  82   2.0000      -0.344957        -9.3867
  83   2.0000      -0.341091        -9.2816
  84   2.0000      -0.331193        -9.0122
  85   2.0000      -0.325319        -8.8524
  86   2.0000      -0.312479        -8.5030
  87   2.0000      -0.305728        -8.3193
  88   2.0000      -0.300703        -8.1825
  89   2.0000      -0.291275        -7.9260
  90   2.0000      -0.288419        -7.8483
  91   2.0000      -0.280799        -7.6409
  92   2.0000      -0.274539        -7.4706
  93   2.0000      -0.268030        -7.2935
  94   2.0000      -0.255046        -6.9402
  95   2.0000      -0.236036        -6.4229
  96   2.0000      -0.218194        -5.9374
  97   2.0000      -0.215372        -5.8606
  98   2.0000      -0.206146        -5.6095
  99   2.0000      -0.202283        -5.5044
 100   2.0000      -0.196540        -5.3481
 101   0.0000      -0.047039        -1.2800
 102   0.0000      -0.023842        -0.6488
 103   0.0000      -0.001850        -0.0504
 104   0.0000      -0.001679        -0.0457
 105   0.0000       0.008280         0.2253

MULLIKEN ATOMIC CHARGES
-----------------------
   0 C :   -0.280681
   1 C :   -0.014560
   2 O :   -0.376802
   3 P :    0.618027
   4 S :   -0.328577
   5 O :   -0.358306
   6 C :   -0.008964
   7 C :   -0.303158
   8 S :   -0.088832
   9 C :   -0.363623
  10 S :   -0.102135
  11 P :    0.618342
  12 S :   -0.313789
  13 O :   -0.367024
  14 C :    0.014214
  15 C :   -0.359066
  16 O :   -0.391437
  17 C :    0.002086
  18 C :   -0.310102
  19 H :    0.117791
  20 H :    0.114676
  21 H :    0.119518
  22 H :    0.105896
  23 H :    0.108502
  24 H :    0.115135
  25 H :    0.110269
  26 H :    0.123350
  27 H :    0.113138
  28 H :    0.116144
  29 H :    0.195586
  30 H :    0.194350
  31 H :    0.113291
  32 H :    0.109680
  33 H :    0.134437
  34 H :    0.118263
  35 H :    0.146146
  36 H :    0.102505
  37 H :    0.108005
  38 H :    0.104122
  39 H :    0.140197
  40 H :    0.103387
Sum of atomic charges:   -0.0000000

LOEWDIN ATOMIC CHARGES
----------------------
   0 C :   -0.350032
   1 C :   -0.119516
   2 O :   -0.245686
   3 P :    0.571818
   4 S :   -0.318945
   5 O :   -0.229111
   6 C :   -0.117113
   7 C :   -0.365105
   8 S :    0.087334
   9 C :   -0.488977
  10 S :    0.078310
  11 P :    0.574384
  12 S :   -0.307794
  13 O :   -0.239175
  14 C :   -0.105550
  15 C :   -0.377406
  16 O :   -0.254475
  17 C :   -0.115671
  18 C :   -0.364193
  19 H :    0.127661
  20 H :    0.132192
  21 H :    0.128236
  22 H :    0.111203
  23 H :    0.110099
  24 H :    0.111845
  25 H :    0.117901
  26 H :    0.122157
  27 H :    0.131214
  28 H :    0.126305
  29 H :    0.128515
  30 H :    0.130177
  31 H :    0.123966
  32 H :    0.115731
  33 H :    0.128380
  34 H :    0.134000
  35 H :    0.122313
  36 H :    0.114429
  37 H :    0.101129
  38 H :    0.128261
  39 H :    0.120183
  40 H :    0.121008

  Mayer bond orders larger than 0.100000
B(  0-C ,  1-C ) :   1.1608 B(  0-C , 19-H ) :   0.9504 B(  0-C , 20-H ) :   0.9415
B(  0-C , 21-H ) :   0.9515 B(  1-C ,  2-O ) :   0.9020 B(  1-C , 22-H ) :   0.9287
B(  1-C , 23-H ) :   0.9120 B(  2-O ,  3-P ) :   1.1115 B(  3-P ,  4-S ) :   1.5995
B(  3-P ,  5-O ) :   1.1087 B(  3-P ,  8-S ) :   0.9641 B(  4-S ,  8-S ) :   0.1062
B(  5-O ,  6-C ) :   0.8954 B(  6-C ,  7-C ) :   1.1663 B(  6-C , 24-H ) :   0.9155
B(  6-C , 25-H ) :   0.9300 B(  7-C , 26-H ) :   0.9328 B(  7-C , 27-H ) :   0.9389
B(  7-C , 28-H ) :   0.9462 B(  8-S ,  9-C ) :   0.9922 B(  9-C , 10-S ) :   1.0195
B(  9-C , 29-H ) :   0.8635 B(  9-C , 30-H ) :   0.8759 B( 10-S , 11-P ) :   0.9361
B( 10-S , 12-S ) :   0.1102 B( 11-P , 12-S ) :   1.6467 B( 11-P , 13-O ) :   1.1455
B( 11-P , 16-O ) :   1.0702 B( 13-O , 14-C ) :   0.8970 B( 14-C , 15-C ) :   1.1697
B( 14-C , 31-H ) :   0.9342 B( 14-C , 32-H ) :   0.9284 B( 15-C , 33-H ) :   0.9380
B( 15-C , 34-H ) :   0.9344 B( 15-C , 35-H ) :   0.9284 B( 16-O , 17-C ) :   0.8945
B( 17-C , 18-C ) :   1.1637 B( 17-C , 36-H ) :   0.9359 B( 17-C , 37-H ) :   0.9014
B( 18-C , 38-H ) :   0.9396 B( 18-C , 39-H ) :   0.9253 B( 18-C , 40-H ) :   0.9479

Dispersion correction           -0.065230362
FINAL SINGLE POINT ENERGY     -2929.522255228420

DIPOLE MOMENT
-------------

Method             : SCF
Type of density    : Electron Density
Multiplicity       :   1
Irrep              :   0
Energy             : -2929.6427260530822423 Eh
Relativity type    :
Basis              : AO
                                X                 Y                 Z
Electronic contribution:    -11.673322819      13.892436429     -17.627307164
Nuclear contribution   :     12.336215212     -15.000156222      19.177835385
                        -----------------------------------------
Total Dipole Moment    :      0.662892393      -1.107719793       1.550528221
                        -----------------------------------------
Magnitude (a.u.)       :      2.017574591
Magnitude (Debye)      :      5.128267059

Rotational constants in cm-1:             0.012398             0.004994             0.004678
Rotational constants in MHz :           371.682431           149.706280           140.244566

                             ****ORCA TERMINATED NORMALLY****
TOTAL RUN TIME: 0 days 0 hours 0 minutes 21 seconds 648 msec
