                         Program Version 6.0.0  -   RELEASE  -
|  1> ! pbe def2-sv(p) def2/J RI DEFGRID1 loosescf d4 GCP(DFT/SV(P)) printgap
|  2> %output
|  3>     printlevel normal
|  4> end
|  5> * xyz 0 1
|  6> C 3.1960947399 0.2075733153 3.3547801958
|  7> C 1.887618776 -0.3097896439 2.7960899641
|  8> O 1.5957169793 0.2687504651 1.5049240519
|  9> P 2.4156725873 -0.1258455601 0.2090664814
| 10> S 3.1029229094 -1.9655372135 0.1618844177
| 11> O 3.5170694019 1.0167091752 0.1536283616
| 12> C 4.6925648687 0.9156815774 -0.6685075594
| 13> C 4.3631088158 0.9793546333 -2.1459578688
| 14> S 1.0183062692 0.4050623771 -1.2870369855
| 15> C 0.0705913674 -1.1384768875 -1.2060315753
| 16> S -1.0648957628 -1.1884641641 0.1957314735
| 17> P -2.4638725641 0.2255501912 -0.5912073681
| 18> S -2.7314809538 0.0490460675 -2.5232399696
| 19> O -2.0100189458 1.6804301294 -0.1996647044
| 20> C -2.2193489933 2.3286921094 1.0799082838
| 21> C -1.4652460618 1.6477366798 2.2015987545
| 22> O -3.748645199 0.0033728397 0.3119379831
| 23> C -4.5643372625 -1.1784984334 0.1624263254
| 24> C -5.9032863239 -0.9038188218 0.8160460375
| 25> H 3.3310961935 -0.1701164925 4.3633796864
| 26> H 4.0241125526 -0.1346296652 2.7351258786
| 27> H 3.1954442145 1.2941984 3.3704939736
| 28> H 1.0369847925 -0.0205502269 3.4142140772
| 29> H 1.9134873034 -1.3986971762 2.6883956373
| 30> H 5.3052337508 1.7620198695 -0.3551629668
| 31> H 5.2018934202 -0.0236229365 -0.4298420564
| 32> H 5.2836984198 1.0178351854 -2.7194811394
| 33> H 3.799940493 0.094757272 -2.4415081929
| 34> H 3.7644900229 1.8607335706 -2.3628224688
| 35> H 0.7560889452 -1.9799811091 -1.0986796796
| 36> H -0.5032492848 -1.2064558292 -2.13121628
| 37> H -1.852164331 3.3411974277 0.9048227181
| 38> H -3.2918266527 2.3483946535 1.280593831
| 39> H -1.5796047758 2.2306598089 3.1103086834
| 40> H -1.8579706322 0.6461207341 2.3677136756
| 41> H -0.4094194575 1.5748488351 1.9516562042
| 42> H -4.6740803063 -1.3927183221 -0.9056531573
| 43> H -4.0453899071 -2.0117157016 0.6432593197
| 44> H -6.3928751115 -0.0662455113 0.327107712
| 45> H -6.5292019677 -1.7853999724 0.7255538906
| 46> H -5.7642491494 -0.668168703 1.8670097016
| 47> *
| 48>
| 49>                          ****END OF INPUT****

CARTESIAN COORDINATES (ANGSTROEM)
---------------------------------
  C      3.196095    0.207573    3.354780
  C      1.887619   -0.309790    2.796090
  O      1.595717    0.268750    1.504924
  P      2.415673   -0.125846    0.209066
  S      3.102923   -1.965537    0.161884
  O      3.517069    1.016709    0.153628
  C      4.692565    0.915682   -0.668508
  C      4.363109    0.979355   -2.145958
  S      1.018306    0.405062   -1.287037
  C      0.070591   -1.138477   -1.206032
  S     -1.064896   -1.188464    0.195731
  P     -2.463873    0.225550   -0.591207
  S     -2.731481    0.049046   -2.523240
  O     -2.010019    1.680430   -0.199665
  C     -2.219349    2.328692    1.079908
  C     -1.465246    1.647737    2.201599
  O     -3.748645    0.003373    0.311938
  C     -4.564337   -1.178498    0.162426
  C     -5.903286   -0.903819    0.816046
  H      3.331096   -0.170116    4.363380
  H      4.024113   -0.134630    2.735126
  H      3.195444    1.294198    3.370494
  H      1.036985   -0.020550    3.414214
  H      1.913487   -1.398697    2.688396
  H      5.305234    1.762020   -0.355163
  H      5.201893   -0.023623   -0.429842
  H      5.283698    1.017835   -2.719481
  H      3.799940    0.094757   -2.441508
  H      3.764490    1.860734   -2.362822
  H      0.756089   -1.979981   -1.098680
  H     -0.503249   -1.206456   -2.131216
  H     -1.852164    3.341197    0.904823
  H     -3.291827    2.348395    1.280594
  H     -1.579605    2.230660    3.110309
  H     -1.857971    0.646121    2.367714
  H     -0.409419    1.574849    1.951656
  H     -4.674080   -1.392718   -0.905653
  H     -4.045390   -2.011716    0.643259
  H     -6.392875   -0.066246    0.327108
  H     -6.529202   -1.785400    0.725554
  H     -5.764249   -0.668169    1.867010

 Total Charge           Charge          ....    0
 Multiplicity           Mult            ....    1
 Number of Electrons    NEL             ....  202
 Basis Dimension        Dim             ....  334

ORBITAL ENERGIES
----------------

  NO   OCC          E(Eh)            E(eV)
   0   2.0000     -88.040151     -2395.6943
   1   2.0000     -88.037429     -2395.6202
   2   2.0000     -87.991662     -2394.3749
   3   2.0000     -87.981531     -2394.0992
   4   2.0000     -76.428323     -2079.7204
   5   2.0000     -76.425284     -2079.6377
   6   2.0000     -18.799499      -511.5604
   7   2.0000     -18.797339      -511.5016
   8   2.0000     -18.793682      -511.4021
   9   2.0000     -18.790309      -511.3103
  10   2.0000      -9.956636      -270.9338
  11   2.0000      -9.955748      -270.9097
  12   2.0000      -9.955130      -270.8929
  13   2.0000      -9.953402      -270.8458
  14   2.0000      -9.947549      -270.6866
  15   2.0000      -9.891992      -269.1748
  16   2.0000      -9.886702      -269.0308
  17   2.0000      -9.884838      -268.9801
  18   2.0000      -9.884418      -268.9687
  19   2.0000      -7.685329      -209.1284
  20   2.0000      -7.682481      -209.0509
  21   2.0000      -7.636531      -207.8006
  22   2.0000      -7.626873      -207.5378
  23   2.0000      -6.426135      -174.8640
  24   2.0000      -6.422808      -174.7735
  25   2.0000      -5.713140      -155.4624
  26   2.0000      -5.710145      -155.3809
  27   2.0000      -5.710026      -155.3777
  28   2.0000      -5.707176      -155.3002
  29   2.0000      -5.702156      -155.1636
  30   2.0000      -5.699520      -155.0918
  31   2.0000      -5.665276      -154.1600
  32   2.0000      -5.657205      -153.9404
  33   2.0000      -5.656844      -153.9306
  34   2.0000      -5.655844      -153.9033
  35   2.0000      -5.647597      -153.6789
  36   2.0000      -5.646823      -153.6579
  37   2.0000      -4.648593      -126.4947
  38   2.0000      -4.647844      -126.4743
  39   2.0000      -4.646684      -126.4427
  40   2.0000      -4.645967      -126.4232
  41   2.0000      -4.644341      -126.3789
  42   2.0000      -4.642923      -126.3403
  43   2.0000      -0.990869       -26.9629
  44   2.0000      -0.990535       -26.9538
  45   2.0000      -0.950008       -25.8510
  46   2.0000      -0.946307       -25.7503
  47   2.0000      -0.762269       -20.7424
  48   2.0000      -0.722870       -19.6703
  49   2.0000      -0.710875       -19.3439
  50   2.0000      -0.694468       -18.8974
  51   2.0000      -0.689334       -18.7577
  52   2.0000      -0.675804       -18.3895
  53   2.0000      -0.650264       -17.6946
  54   2.0000      -0.635127       -17.2827
  55   2.0000      -0.603372       -16.4186
  56   2.0000      -0.592291       -16.1170
  57   2.0000      -0.575598       -15.6628
  58   2.0000      -0.574520       -15.6335
  59   2.0000      -0.557714       -15.1762
  60   2.0000      -0.508431       -13.8351
  61   2.0000      -0.495447       -13.4818
  62   2.0000      -0.476627       -12.9697
  63   2.0000      -0.475650       -12.9431
  64   2.0000      -0.459195       -12.4953
  65   2.0000      -0.446729       -12.1561
  66   2.0000      -0.442699       -12.0464
  67   2.0000      -0.441043       -12.0014
  68   2.0000      -0.431059       -11.7297
  69   2.0000      -0.417898       -11.3716
  70   2.0000      -0.407896       -11.0994
  71   2.0000      -0.399991       -10.8843
  72   2.0000      -0.395730       -10.7684
  73   2.0000      -0.388185       -10.5631
  74   2.0000      -0.379132       -10.3167
  75   2.0000      -0.372401       -10.1335
  76   2.0000      -0.369957       -10.0670
  77   2.0000      -0.358937        -9.7672
  78   2.0000      -0.356670        -9.7055
  79   2.0000      -0.352595        -9.5946
  80   2.0000      -0.351785        -9.5725
  81   2.0000      -0.347461        -9.4549
  82   2.0000      -0.342055        -9.3078
  83   2.0000      -0.340373        -9.2620
  84   2.0000      -0.335403        -9.1268
  85   2.0000      -0.324114        -8.8196
  86   2.0000      -0.311940        -8.4883
  87   2.0000      -0.305307        -8.3078
  88   2.0000      -0.298335        -8.1181
  89   2.0000      -0.294431        -8.0119
  90   2.0000      -0.285891        -7.7795
  91   2.0000      -0.278619        -7.5816
  92   2.0000      -0.273145        -7.4327
  93   2.0000      -0.266644        -7.2558
  94   2.0000      -0.255377        -6.9492
  95   2.0000      -0.232867        -6.3366
  96   2.0000      -0.219525        -5.9736
  97   2.0000      -0.213654        -5.8138
  98   2.0000      -0.203714        -5.5434
  99   2.0000      -0.202541        -5.5114
 100   2.0000      -0.193841        -5.2747
 101   0.0000      -0.044314        -1.2058
 102   0.0000      -0.023965        -0.6521
 103   0.0000      -0.001752        -0.0477
 104   0.0000       0.001317         0.0358
 105   0.0000       0.016808         0.4574

MULLIKEN ATOMIC CHARGES
-----------------------
   0 C :   -0.304328
   1 C :   -0.005744
   2 O :   -0.357423
   3 P :    0.609718
   4 S :   -0.337039
   5 O :   -0.371481
   6 C :   -0.005495
   7 C :   -0.317572
   8 S :   -0.054909
   9 C :   -0.383229
  10 S :   -0.101707
  11 P :    0.617117
  12 S :   -0.320013
  13 O :   -0.354268
  14 C :    0.012913
  15 C :   -0.353984
  16 O :   -0.391146
  17 C :   -0.010988
  18 C :   -0.281297
  19 H :    0.112593
  20 H :    0.121763
  21 H :    0.116109
  22 H :    0.107626
  23 H :    0.113736
  24 H :    0.106556
  25 H :    0.111584
  26 H :    0.114622
  27 H :    0.130040
  28 H :    0.121238
  29 H :    0.189341
  30 H :    0.199037
  31 H :    0.110084
  32 H :    0.108095
  33 H :    0.107860
  34 H :    0.117597
  35 H :    0.156644
  36 H :    0.109693
  37 H :    0.105941
  38 H :    0.121927
  39 H :    0.114698
  40 H :    0.114091
Sum of atomic charges:   -0.0000000

LOEWDIN ATOMIC CHARGES
----------------------
   0 C :   -0.363306
   1 C :   -0.117809
   2 O :   -0.234840
   3 P :    0.575671
   4 S :   -0.323407
   5 O :   -0.242429
   6 C :   -0.118635
   7 C :   -0.369311
   8 S :    0.101190
   9 C :   -0.492431
  10 S :    0.064938
  11 P :    0.571238
  12 S :   -0.313133
  13 O :   -0.232952
  14 C :   -0.104706
  15 C :   -0.375929
  16 O :   -0.250200
  17 C :   -0.119072
  18 C :   -0.350420
  19 H :    0.130661
  20 H :    0.122682
  21 H :    0.126322
  22 H :    0.117034
  23 H :    0.110879
  24 H :    0.119329
  25 H :    0.110856
  26 H :    0.132003
  27 H :    0.122755
  28 H :    0.126033
  29 H :    0.126765
  30 H :    0.128295
  31 H :    0.123124
  32 H :    0.113245
  33 H :    0.128377
  34 H :    0.115877
  35 H :    0.132044
  36 H :    0.111500
  37 H :    0.110297
  38 H :    0.129567
  39 H :    0.132432
  40 H :    0.125465

  Mayer bond orders larger than 0.100000
B(  0-C ,  1-C ) :   1.1640 B(  0-C , 19-H ) :   0.9393 B(  0-C , 20-H ) :   0.9372
B(  0-C , 21-H ) :   0.9467 B(  1-C ,  2-O ) :   0.8974 B(  1-C , 22-H ) :   0.9311
B(  1-C , 23-H ) :   0.9152 B(  2-O ,  3-P ) :   1.1189 B(  3-P ,  4-S ) :   1.5826
B(  3-P ,  5-O ) :   1.1134 B(  3-P ,  8-S ) :   0.9731 B(  4-S ,  8-S ) :   0.1094
B(  5-O ,  6-C ) :   0.9057 B(  6-C ,  7-C ) :   1.1662 B(  6-C , 24-H ) :   0.9336
B(  6-C , 25-H ) :   0.9166 B(  7-C , 26-H ) :   0.9377 B(  7-C , 27-H ) :   0.9349
B(  7-C , 28-H ) :   0.9445 B(  8-S ,  9-C ) :   1.0030 B(  9-C , 10-S ) :   1.0093
B(  9-C , 29-H ) :   0.8680 B(  9-C , 30-H ) :   0.8636 B( 10-S , 11-P ) :   0.9408
B( 10-S , 12-S ) :   0.1138 B( 11-P , 12-S ) :   1.6456 B( 11-P , 13-O ) :   1.1478
B( 11-P , 16-O ) :   1.0759 B( 13-O , 14-C ) :   0.8970 B( 14-C , 15-C ) :   1.1705
B( 14-C , 31-H ) :   0.9337 B( 14-C , 32-H ) :   0.9283 B( 15-C , 33-H ) :   0.9350
B( 15-C , 34-H ) :   0.9400 B( 15-C , 35-H ) :   0.9208 B( 16-O , 17-C ) :   0.8988
B( 17-C , 18-C ) :   1.1599 B( 17-C , 36-H ) :   0.9096 B( 17-C , 37-H ) :   0.9290
B( 18-C , 38-H ) :   0.9506 B( 18-C , 39-H ) :   0.9415 B( 18-C , 40-H ) :   0.9513

Dispersion correction           -0.064350472
FINAL SINGLE POINT ENERGY     -2929.521942241147

DIPOLE MOMENT
-------------

Method             : SCF
Type of density    : Electron Density
Multiplicity       :   1
Irrep              :   0
Energy             : -2929.6429569803940467 Eh
Relativity type    :
Basis              : AO
                                X                 Y                 Z
Electronic contribution:     -0.708347553      -4.509047281     -15.093071647
Nuclear contribution   :      0.692487546       5.017047213      16.702931607
                        -----------------------------------------
Total Dipole Moment    :     -0.015860008       0.507999932       1.609859961
                        -----------------------------------------
Magnitude (a.u.)       :      1.688183806
Magnitude (Debye)      :      4.291022222

Rotational constants in cm-1:             0.013487             0.004527             0.004144
Rotational constants in MHz :           404.322043           135.711295           124.237186

                             ****ORCA TERMINATED NORMALLY****
TOTAL RUN TIME: 0 days 0 hours 0 minutes 20 seconds 591 msec
