                         Program Version 6.0.0  -   RELEASE  -
|  1> ! pbe def2-sv(p) def2/J RI DEFGRID1 loosescf d4 GCP(DFT/SV(P)) printgap
|  2> %output
|  3>     printlevel normal
|  4> end
|  5> * xyz 0 1
|  6> C 0.595739106 1.7076290244 -0.0669904828
|  7> C 1.3933963969 0.4116250075 -0.2670490709
|  8> H 1.5999210048 0.2652111542 -1.3383957051
|  9> C 0.5466466554 -0.7732779515 0.2178820123
| 10> H 0.3647861067 -0.6663403821 1.2973251556
| 11> C -0.796678429 -0.7503278281 -0.5154316957
| 12> H -0.5993749293 -0.8254091345 -1.5979270117
| 13> C -1.4837191466 0.6012666257 -0.258991112
| 14> H -2.3913173778 0.6594769559 -0.8735141365
| 15> O -0.6660849488 1.6544911856 -0.7181226317
| 16> O -1.7662362401 0.7164122066 1.0945415579
| 17> O -1.6534144446 -1.7792616382 -0.1079599057
| 18> O 1.1660385203 -2.00741471 -0.0560536944
| 19> O 2.5880005531 0.4041582043 0.4776454552
| 20> H 1.1044986792 2.5634081502 -0.5111331414
| 21> H 0.4594822447 1.8703231629 1.00924516
| 22> H -2.4135209258 1.4215498789 1.2468008766
| 23> H -1.135537562 -2.5989324652 -0.0692663716
| 24> H 2.0522470616 -1.9944416072 0.334689918
| 25> H 3.1807838699 1.1000589991 0.1612308195
| 26> *
| 27>
| 28>                          ****END OF INPUT****

CARTESIAN COORDINATES (ANGSTROEM)
---------------------------------
  C      0.595739    1.707629   -0.066990
  C      1.393396    0.411625   -0.267049
  H      1.599921    0.265211   -1.338396
  C      0.546647   -0.773278    0.217882
  H      0.364786   -0.666340    1.297325
  C     -0.796678   -0.750328   -0.515432
  H     -0.599375   -0.825409   -1.597927
  C     -1.483719    0.601267   -0.258991
  H     -2.391317    0.659477   -0.873514
  O     -0.666085    1.654491   -0.718123
  O     -1.766236    0.716412    1.094542
  O     -1.653414   -1.779262   -0.107960
  O      1.166039   -2.007415   -0.056054
  O      2.588001    0.404158    0.477645
  H      1.104499    2.563408   -0.511133
  H      0.459482    1.870323    1.009245
  H     -2.413521    1.421550    1.246801
  H     -1.135538   -2.598932   -0.069266
  H      2.052247   -1.994442    0.334690
  H      3.180784    1.100059    0.161231

 Total Charge           Charge          ....    0
 Multiplicity           Mult            ....    1
 Number of Electrons    NEL             ....   80
 Basis Dimension        Dim             ....  160

ORBITAL ENERGIES
----------------

  NO   OCC          E(Eh)            E(eV)
   0   2.0000     -18.764284      -510.6021
   1   2.0000     -18.763838      -510.5900
   2   2.0000     -18.760474      -510.4984
   3   2.0000     -18.751573      -510.2562
   4   2.0000     -18.738161      -509.8913
   5   2.0000      -9.981468      -271.6095
   6   2.0000      -9.941959      -270.5345
   7   2.0000      -9.935042      -270.3462
   8   2.0000      -9.934610      -270.3345
   9   2.0000      -9.932344      -270.2728
  10   2.0000      -0.977517       -26.5996
  11   2.0000      -0.945992       -25.7417
  12   2.0000      -0.928896       -25.2765
  13   2.0000      -0.911069       -24.7914
  14   2.0000      -0.906136       -24.6572
  15   2.0000      -0.699625       -19.0378
  16   2.0000      -0.676411       -18.4061
  17   2.0000      -0.581795       -15.8315
  18   2.0000      -0.573999       -15.6193
  19   2.0000      -0.525756       -14.3066
  20   2.0000      -0.494674       -13.4608
  21   2.0000      -0.483422       -13.1546
  22   2.0000      -0.473911       -12.8958
  23   2.0000      -0.444954       -12.1078
  24   2.0000      -0.428513       -11.6604
  25   2.0000      -0.410008       -11.1569
  26   2.0000      -0.394229       -10.7275
  27   2.0000      -0.373848       -10.1729
  28   2.0000      -0.362970        -9.8769
  29   2.0000      -0.350904        -9.5486
  30   2.0000      -0.331964        -9.0332
  31   2.0000      -0.314986        -8.5712
  32   2.0000      -0.301440        -8.2026
  33   2.0000      -0.275578        -7.4989
  34   2.0000      -0.257132        -6.9969
  35   2.0000      -0.253060        -6.8861
  36   2.0000      -0.238682        -6.4949
  37   2.0000      -0.224097        -6.0980
  38   2.0000      -0.212486        -5.7821
  39   2.0000      -0.208997        -5.6871
  40   0.0000       0.010109         0.2751
  41   0.0000       0.025488         0.6936
  42   0.0000       0.041432         1.1274
  43   0.0000       0.060504         1.6464
  44   0.0000       0.073178         1.9913

MULLIKEN ATOMIC CHARGES
-----------------------
   0 C :    0.082953
   1 C :   -0.021329
   2 H :    0.059096
   3 C :    0.021990
   4 H :    0.076518
   5 C :    0.100257
   6 H :    0.061311
   7 C :    0.136553
   8 H :    0.072589
   9 O :   -0.317276
  10 O :   -0.384189
  11 O :   -0.418400
  12 O :   -0.429906
  13 O :   -0.421716
  14 H :    0.082075
  15 H :    0.067138
  16 H :    0.308293
  17 H :    0.307947
  18 H :    0.310096
  19 H :    0.306001
Sum of atomic charges:    0.0000000

LOEWDIN ATOMIC CHARGES
----------------------
   0 C :   -0.131888
   1 C :   -0.090223
   2 H :    0.101104
   3 C :   -0.077916
   4 H :    0.111814
   5 C :   -0.074851
   6 H :    0.104417
   7 C :    0.001337
   8 H :    0.102870
   9 O :   -0.162497
  10 O :   -0.294873
  11 O :   -0.316521
  12 O :   -0.326399
  13 O :   -0.322657
  14 H :    0.110478
  15 H :    0.105134
  16 H :    0.292956
  17 H :    0.287521
  18 H :    0.289739
  19 H :    0.290455

  Mayer bond orders larger than 0.100000
B(  0-C ,  1-C ) :   1.0544 B(  0-C ,  9-O ) :   1.0080 B(  0-C , 14-H ) :   0.9264
B(  0-C , 15-H ) :   0.8834 B(  1-C ,  2-H ) :   0.8772 B(  1-C ,  3-C ) :   1.0211
B(  1-C , 13-O ) :   1.0599 B(  3-C ,  4-H ) :   0.8817 B(  3-C ,  5-C ) :   1.0042
B(  3-C , 12-O ) :   1.0759 B(  5-C ,  6-H ) :   0.8805 B(  5-C ,  7-C ) :   0.9898
B(  5-C , 11-O ) :   1.0987 B(  7-C ,  8-H ) :   0.9036 B(  7-C ,  9-O ) :   1.0477
B(  7-C , 10-O ) :   1.1306 B( 10-O , 16-H ) :   0.8419 B( 11-O , 17-H ) :   0.8357
B( 12-O , 18-H ) :   0.8372 B( 13-O , 19-H ) :   0.8470

Dispersion correction           -0.019144914
FINAL SINGLE POINT ENERGY      -571.418040128796

DIPOLE MOMENT
-------------

Method             : SCF
Type of density    : Electron Density
Multiplicity       :   1
Irrep              :   0
Energy             :  -571.5259771136135214 Eh
Relativity type    :
Basis              : AO
                                X                 Y                 Z
Electronic contribution:     -1.381177266      -0.967984169       0.259567593
Nuclear contribution   :      2.079670226       1.668939408      -0.309641131
                        -----------------------------------------
Total Dipole Moment    :      0.698492960       0.700955239      -0.050073538
                        -----------------------------------------
Magnitude (a.u.)       :      0.990826938
Magnitude (Debye)      :      2.518481930

Rotational constants in cm-1:             0.056660             0.045144             0.029175
Rotational constants in MHz :          1698.633335          1353.380825           874.653773

                             ****ORCA TERMINATED NORMALLY****
TOTAL RUN TIME: 0 days 0 hours 0 minutes 11 seconds 281 msec
