                         Program Version 6.0.0  -   RELEASE  -
|  1> ! pbe def2-sv(p) def2/J RI DEFGRID1 loosescf d4 GCP(DFT/SV(P)) printgap
|  2> %output
|  3>     printlevel normal
|  4> end
|  5> * xyz 0 1
|  6> C 4.0477448915 -2.1437550155 -1.4442038617
|  7> C 4.2443186644 -1.0158124657 -0.4512789277
|  8> O 2.992467491 -0.4840016822 0.0142752435
|  9> P 2.053734344 0.3959966802 -0.9332789726
| 10> S 3.0038501021 1.5821262303 -2.1655775228
| 11> O 1.0997533996 1.1064265947 0.1166742213
| 12> C 1.441730272 2.3685007297 0.7197736579
| 13> C 2.5295226643 2.2192654127 1.7612710823
| 14> S 0.6807950007 -0.9546773395 -1.7677610197
| 15> C 0.2045043358 -1.891962908 -0.2610115664
| 16> S -1.5818373228 -1.9530660884 -0.0460548058
| 17> P -1.8400965711 -0.0713991822 0.9244982836
| 18> S -0.6815463147 0.1547677108 2.4863535592
| 19> O -3.3970254068 -0.0554354289 1.2332132447
| 20> C -3.959954898 -0.9147612988 2.2460221389
| 21> C -5.3484767702 -0.4028267608 2.5705549604
| 22> O -1.6962276726 1.0910131071 -0.1314352436
| 23> C -2.6922760923 1.4763402767 -1.1118819849
| 24> C -2.978171106 0.3859017862 -2.1228185811
| 25> H 3.4399838264 -2.9333147641 -1.0099939205
| 26> H 3.5544513842 -1.7678471345 -2.3403882254
| 27> H 5.0159917425 -2.5485719792 -1.7206997293
| 28> H 4.8165674082 -0.2011921677 -0.9069170263
| 29> H 4.7408653978 -1.3575638736 0.4578480275
| 30> H 1.7476221181 3.0569575598 -0.0748618819
| 31> H 0.5042833675 2.7054808753 1.1660025127
| 32> H 2.6833359213 3.1730676218 2.2558794867
| 33> H 2.234465004 1.4748184914 2.497511294
| 34> H 3.4596109215 1.9076301445 1.2890761313
| 35> H 0.6595351078 -1.4244522854 0.6124789367
| 36> H 0.5354541223 -2.9185795166 -0.3901638443
| 37> H -3.9898359499 -1.9327340643 1.8492778804
| 38> H -3.306747425 -0.8914846143 3.1243718095
| 39> H -5.7943751302 -1.041745504 3.3255572989
| 40> H -5.293452346 0.6138776027 2.9496716441
| 41> H -5.9681245058 -0.4143782785 1.6787181749
| 42> H -3.5991451729 1.7650014784 -0.5780107596
| 43> H -2.2434589013 2.3511725072 -1.5858633815
| 44> H -2.0551074684 0.0422812336 -2.5858691232
| 45> H -3.4702384441 -0.4592729207 -1.6465429073
| 46> H -3.6311761475 0.785784638 -2.8924985462
| 47> *
| 48>
| 49>                          ****END OF INPUT****

CARTESIAN COORDINATES (ANGSTROEM)
---------------------------------
  C      4.047745   -2.143755   -1.444204
  C      4.244319   -1.015812   -0.451279
  O      2.992467   -0.484002    0.014275
  P      2.053734    0.395997   -0.933279
  S      3.003850    1.582126   -2.165578
  O      1.099753    1.106427    0.116674
  C      1.441730    2.368501    0.719774
  C      2.529523    2.219265    1.761271
  S      0.680795   -0.954677   -1.767761
  C      0.204504   -1.891963   -0.261012
  S     -1.581837   -1.953066   -0.046055
  P     -1.840097   -0.071399    0.924498
  S     -0.681546    0.154768    2.486354
  O     -3.397025   -0.055435    1.233213
  C     -3.959955   -0.914761    2.246022
  C     -5.348477   -0.402827    2.570555
  O     -1.696228    1.091013   -0.131435
  C     -2.692276    1.476340   -1.111882
  C     -2.978171    0.385902   -2.122819
  H      3.439984   -2.933315   -1.009994
  H      3.554451   -1.767847   -2.340388
  H      5.015992   -2.548572   -1.720700
  H      4.816567   -0.201192   -0.906917
  H      4.740865   -1.357564    0.457848
  H      1.747622    3.056958   -0.074862
  H      0.504283    2.705481    1.166003
  H      2.683336    3.173068    2.255879
  H      2.234465    1.474818    2.497511
  H      3.459611    1.907630    1.289076
  H      0.659535   -1.424452    0.612479
  H      0.535454   -2.918580   -0.390164
  H     -3.989836   -1.932734    1.849278
  H     -3.306747   -0.891485    3.124372
  H     -5.794375   -1.041746    3.325557
  H     -5.293452    0.613878    2.949672
  H     -5.968125   -0.414378    1.678718
  H     -3.599145    1.765001   -0.578011
  H     -2.243459    2.351173   -1.585863
  H     -2.055107    0.042281   -2.585869
  H     -3.470238   -0.459273   -1.646543
  H     -3.631176    0.785785   -2.892499

 Total Charge           Charge          ....    0
 Multiplicity           Mult            ....    1
 Number of Electrons    NEL             ....  202
 Basis Dimension        Dim             ....  334

ORBITAL ENERGIES
----------------

  NO   OCC          E(Eh)            E(eV)
   0   2.0000     -88.045802     -2395.8481
   1   2.0000     -88.040138     -2395.6940
   2   2.0000     -87.984248     -2394.1731
   3   2.0000     -87.984100     -2394.1691
   4   2.0000     -76.429157     -2079.7431
   5   2.0000     -76.420593     -2079.5101
   6   2.0000     -18.802459      -511.6409
   7   2.0000     -18.791846      -511.3521
   8   2.0000     -18.789913      -511.2995
   9   2.0000     -18.777865      -510.9717
  10   2.0000      -9.959534      -271.0127
  11   2.0000      -9.959007      -270.9983
  12   2.0000      -9.956404      -270.9275
  13   2.0000      -9.949892      -270.7503
  14   2.0000      -9.936572      -270.3879
  15   2.0000      -9.894308      -269.2378
  16   2.0000      -9.884367      -268.9673
  17   2.0000      -9.884036      -268.9583
  18   2.0000      -9.871182      -268.6085
  19   2.0000      -7.691026      -209.2835
  20   2.0000      -7.685421      -209.1309
  21   2.0000      -7.629324      -207.6044
  22   2.0000      -7.629301      -207.6038
  23   2.0000      -6.426493      -174.8738
  24   2.0000      -6.418583      -174.6585
  25   2.0000      -5.718806      -155.6166
  26   2.0000      -5.715582      -155.5289
  27   2.0000      -5.713736      -155.4787
  28   2.0000      -5.709699      -155.3688
  29   2.0000      -5.708027      -155.3233
  30   2.0000      -5.702114      -155.1624
  31   2.0000      -5.658324      -153.9708
  32   2.0000      -5.658239      -153.9685
  33   2.0000      -5.649956      -153.7431
  34   2.0000      -5.649917      -153.7421
  35   2.0000      -5.649437      -153.7290
  36   2.0000      -5.649330      -153.7261
  37   2.0000      -4.649611      -126.5224
  38   2.0000      -4.648179      -126.4834
  39   2.0000      -4.646527      -126.4384
  40   2.0000      -4.640866      -126.2844
  41   2.0000      -4.640529      -126.2752
  42   2.0000      -4.639103      -126.2364
  43   2.0000      -0.993410       -27.0321
  44   2.0000      -0.979746       -26.6602
  45   2.0000      -0.948338       -25.8056
  46   2.0000      -0.938150       -25.5284
  47   2.0000      -0.763481       -20.7754
  48   2.0000      -0.723029       -19.6746
  49   2.0000      -0.707928       -19.2637
  50   2.0000      -0.695454       -18.9243
  51   2.0000      -0.683266       -18.5926
  52   2.0000      -0.670374       -18.2418
  53   2.0000      -0.650782       -17.7087
  54   2.0000      -0.636336       -17.3156
  55   2.0000      -0.595477       -16.2038
  56   2.0000      -0.590969       -16.0811
  57   2.0000      -0.577147       -15.7050
  58   2.0000      -0.567705       -15.4480
  59   2.0000      -0.560973       -15.2649
  60   2.0000      -0.511045       -13.9062
  61   2.0000      -0.487661       -13.2699
  62   2.0000      -0.476198       -12.9580
  63   2.0000      -0.466700       -12.6996
  64   2.0000      -0.457125       -12.4390
  65   2.0000      -0.448791       -12.2122
  66   2.0000      -0.442691       -12.0462
  67   2.0000      -0.436712       -11.8835
  68   2.0000      -0.430398       -11.7117
  69   2.0000      -0.415900       -11.3172
  70   2.0000      -0.409578       -11.1452
  71   2.0000      -0.401574       -10.9274
  72   2.0000      -0.392448       -10.6790
  73   2.0000      -0.381685       -10.3862
  74   2.0000      -0.380839       -10.3632
  75   2.0000      -0.372910       -10.1474
  76   2.0000      -0.369373       -10.0511
  77   2.0000      -0.358360        -9.7515
  78   2.0000      -0.350822        -9.5464
  79   2.0000      -0.349924        -9.5219
  80   2.0000      -0.343913        -9.3583
  81   2.0000      -0.343071        -9.3354
  82   2.0000      -0.340347        -9.2613
  83   2.0000      -0.333214        -9.0672
  84   2.0000      -0.326693        -8.8898
  85   2.0000      -0.325233        -8.8500
  86   2.0000      -0.313488        -8.5304
  87   2.0000      -0.308373        -8.3913
  88   2.0000      -0.295138        -8.0311
  89   2.0000      -0.291655        -7.9363
  90   2.0000      -0.278620        -7.5816
  91   2.0000      -0.273030        -7.4295
  92   2.0000      -0.264095        -7.1864
  93   2.0000      -0.262209        -7.1351
  94   2.0000      -0.260131        -7.0785
  95   2.0000      -0.236485        -6.4351
  96   2.0000      -0.217223        -5.9109
  97   2.0000      -0.209002        -5.6872
  98   2.0000      -0.204487        -5.5644
  99   2.0000      -0.199004        -5.4152
 100   2.0000      -0.192998        -5.2517
 101   0.0000      -0.045097        -1.2272
 102   0.0000      -0.025681        -0.6988
 103   0.0000      -0.019524        -0.5313
 104   0.0000       0.005677         0.1545
 105   0.0000       0.017461         0.4751

MULLIKEN ATOMIC CHARGES
-----------------------
   0 C :   -0.313323
   1 C :   -0.007978
   2 O :   -0.379898
   3 P :    0.604902
   4 S :   -0.327586
   5 O :   -0.360214
   6 C :    0.005430
   7 C :   -0.307078
   8 S :   -0.075152
   9 C :   -0.361548
  10 S :   -0.109853
  11 P :    0.628813
  12 S :   -0.312881
  13 O :   -0.387801
  14 C :   -0.015111
  15 C :   -0.281814
  16 O :   -0.353024
  17 C :    0.005111
  18 C :   -0.325425
  19 H :    0.111604
  20 H :    0.129122
  21 H :    0.112843
  22 H :    0.112131
  23 H :    0.105739
  24 H :    0.105169
  25 H :    0.102751
  26 H :    0.105900
  27 H :    0.123429
  28 H :    0.113087
  29 H :    0.206706
  30 H :    0.187294
  31 H :    0.106716
  32 H :    0.109376
  33 H :    0.115308
  34 H :    0.122718
  35 H :    0.115645
  36 H :    0.108412
  37 H :    0.113187
  38 H :    0.137634
  39 H :    0.117823
  40 H :    0.111833
Sum of atomic charges:    0.0000000

LOEWDIN ATOMIC CHARGES
----------------------
   0 C :   -0.367434
   1 C :   -0.121860
   2 O :   -0.247680
   3 P :    0.565503
   4 S :   -0.322392
   5 O :   -0.235232
   6 C :   -0.121070
   7 C :   -0.363736
   8 S :    0.082958
   9 C :   -0.474314
  10 S :    0.073552
  11 P :    0.581032
  12 S :   -0.304668
  13 O :   -0.249211
  14 C :   -0.120729
  15 C :   -0.350551
  16 O :   -0.227354
  17 C :   -0.106642
  18 C :   -0.372617
  19 H :    0.121566
  20 H :    0.122548
  21 H :    0.131112
  22 H :    0.109831
  23 H :    0.118536
  24 H :    0.106270
  25 H :    0.114792
  26 H :    0.127808
  27 H :    0.126372
  28 H :    0.118941
  29 H :    0.129922
  30 H :    0.135799
  31 H :    0.109847
  32 H :    0.110959
  33 H :    0.132782
  34 H :    0.130011
  35 H :    0.126192
  36 H :    0.113476
  37 H :    0.124275
  38 H :    0.125017
  39 H :    0.115525
  40 H :    0.130863

  Mayer bond orders larger than 0.100000
B(  0-C ,  1-C ) :   1.1643 B(  0-C , 19-H ) :   0.9462 B(  0-C , 20-H ) :   0.9348
B(  0-C , 21-H ) :   0.9387 B(  1-C ,  2-O ) :   0.9136 B(  1-C , 22-H ) :   0.9123
B(  1-C , 23-H ) :   0.9335 B(  2-O ,  3-P ) :   1.0545 B(  3-P ,  4-S ) :   1.6327
B(  3-P ,  5-O ) :   1.1299 B(  3-P ,  8-S ) :   0.9866 B(  5-O ,  6-C ) :   0.9002
B(  6-C ,  7-C ) :   1.1682 B(  6-C , 24-H ) :   0.9170 B(  6-C , 25-H ) :   0.9212
B(  7-C , 26-H ) :   0.9398 B(  7-C , 27-H ) :   0.9439 B(  7-C , 28-H ) :   0.9402
B(  8-S ,  9-C ) :   0.9590 B(  9-C , 10-S ) :   1.0182 B(  9-C , 29-H ) :   0.8601
B(  9-C , 30-H ) :   0.9085 B( 10-S , 11-P ) :   0.9384 B( 10-S , 12-S ) :   0.1075
B( 11-P , 12-S ) :   1.6419 B( 11-P , 13-O ) :   1.0761 B( 11-P , 16-O ) :   1.1459
B( 13-O , 14-C ) :   0.9003 B( 14-C , 15-C ) :   1.1605 B( 14-C , 31-H ) :   0.9291
B( 14-C , 32-H ) :   0.9087 B( 15-C , 33-H ) :   0.9414 B( 15-C , 34-H ) :   0.9506
B( 15-C , 35-H ) :   0.9511 B( 16-O , 17-C ) :   0.8940 B( 17-C , 18-C ) :   1.1717
B( 17-C , 36-H ) :   0.9282 B( 17-C , 37-H ) :   0.9330 B( 18-C , 38-H ) :   0.9336
B( 18-C , 39-H ) :   0.9398 B( 18-C , 40-H ) :   0.9347

Dispersion correction           -0.066371761
FINAL SINGLE POINT ENERGY     -2929.516113552475

DIPOLE MOMENT
-------------

Method             : SCF
Type of density    : Electron Density
Multiplicity       :   1
Irrep              :   0
Energy             : -2929.6371525689601185 Eh
Relativity type    :
Basis              : AO
                                X                 Y                 Z
Electronic contribution:      4.750791905      -0.453282268      -4.864097923
Nuclear contribution   :     -5.837883842      -0.245714838       5.205421972
                        -----------------------------------------
Total Dipole Moment    :     -1.087091937      -0.698997106       0.341324048
                        -----------------------------------------
Magnitude (a.u.)       :      1.336737798
Magnitude (Debye)      :      3.397717461

Rotational constants in cm-1:             0.013374             0.004960             0.004779
Rotational constants in MHz :           400.940454           148.706678           143.275294

                             ****ORCA TERMINATED NORMALLY****
TOTAL RUN TIME: 0 days 0 hours 0 minutes 21 seconds 709 msec
