                         Program Version 6.0.1  -  RELEASE   -
|  1> ! pbe def2-sv(p) def2/J RI DEFGRID1 loosescf d4 GCP(DFT/SV(P)) printgap
|  2> %output
|  3>     printlevel normal
|  4> end
|  5> * xyz 0 1
|  6> C 3.0289730733 -3.8397562244 1.2527501996
|  7> C 2.9590774107 -3.2285477618 -0.137415622
|  8> O 2.9155521936 -1.7894047826 -0.0659457707
|  9> C 1.75238463 -1.2017452543 0.1025178177
| 10> O 0.6928663673 -1.7954084818 0.1729992754
| 11> C 1.8935989113 0.3008885359 0.1970226728
| 12> C 0.587980149 0.9826626279 -0.171814315
| 13> H 0.2281153014 0.6376639974 -1.1514614233
| 14> C 0.6325833246 2.5027874256 -0.1922575667
| 15> O -0.2721588941 3.170158234 -0.6404189717
| 16> O 1.7296385812 2.9773310847 0.3493758283
| 17> C 1.8964767275 4.409455939 0.4153089053
| 18> C 2.5281722099 4.9426025447 -0.8602697403
| 19> S -0.7507376337 0.5628609219 1.0107677984
| 20> P -1.7895450897 -0.8905745343 -0.1561593911
| 21> S -1.2967568461 -1.1081520529 -2.0382020497
| 22> O -1.9140906956 -2.2323241716 0.6596709701
| 23> C -2.3413115611 -2.2571255724 2.0355851379
| 24> O -3.3055392961 -0.3600706399 0.003687711
| 25> C -3.7288181284 0.8410286907 -0.6407541405
| 26> H 2.1183216281 -3.6186820414 1.804726754
| 27> H 3.1335924531 -4.9160840227 1.1650842791
| 28> H 3.8808244257 -3.4389049784 1.7949646495
| 29> H 2.0715817997 -3.5778819843 -0.6734266816
| 30> H 3.8592395656 -3.4425753012 -0.7134201184
| 31> H 2.6954811776 0.6213451645 -0.4682512726
| 32> H 2.1771314282 0.556336422 1.2207843372
| 33> H 0.917533717 4.8660417515 0.5834121742
| 34> H 2.5454784944 4.5650128966 1.2768692032
| 35> H 2.6906402206 6.010465283 -0.7588944332
| 36> H 3.4798114944 4.4518201331 -1.0433789943
| 37> H 1.8684669392 4.765934958 -1.7068000353
| 38> H -2.244726423 -3.2958802444 2.3407122662
| 39> H -3.3749067374 -1.9233378173 2.1090599881
| 40> H -1.6961996188 -1.6158642719 2.6364106832
| 41> H -4.7894004773 0.9342736884 -0.4233091172
| 42> H -3.5625672672 0.7673004236 -1.7168468095
| 43> H -3.1791626826 1.698031976 -0.2471840065
| 44> *
| 45>
| 46>                          ****END OF INPUT****

CARTESIAN COORDINATES (ANGSTROEM)
---------------------------------
  C      3.028973   -3.839756    1.252750
  C      2.959077   -3.228548   -0.137416
  O      2.915552   -1.789405   -0.065946
  C      1.752385   -1.201745    0.102518
  O      0.692866   -1.795408    0.172999
  C      1.893599    0.300889    0.197023
  C      0.587980    0.982663   -0.171814
  H      0.228115    0.637664   -1.151461
  C      0.632583    2.502787   -0.192258
  O     -0.272159    3.170158   -0.640419
  O      1.729639    2.977331    0.349376
  C      1.896477    4.409456    0.415309
  C      2.528172    4.942603   -0.860270
  S     -0.750738    0.562861    1.010768
  P     -1.789545   -0.890575   -0.156159
  S     -1.296757   -1.108152   -2.038202
  O     -1.914091   -2.232324    0.659671
  C     -2.341312   -2.257126    2.035585
  O     -3.305539   -0.360071    0.003688
  C     -3.728818    0.841029   -0.640754
  H      2.118322   -3.618682    1.804727
  H      3.133592   -4.916084    1.165084
  H      3.880824   -3.438905    1.794965
  H      2.071582   -3.577882   -0.673427
  H      3.859240   -3.442575   -0.713420
  H      2.695481    0.621345   -0.468251
  H      2.177131    0.556336    1.220784
  H      0.917534    4.866042    0.583412
  H      2.545478    4.565013    1.276869
  H      2.690640    6.010465   -0.758894
  H      3.479811    4.451820   -1.043379
  H      1.868467    4.765935   -1.706800
  H     -2.244726   -3.295880    2.340712
  H     -3.374907   -1.923338    2.109060
  H     -1.696200   -1.615864    2.636411
  H     -4.789400    0.934274   -0.423309
  H     -3.562567    0.767300   -1.716847
  H     -3.179163    1.698032   -0.247184

 Total Charge           Charge          ....    0
 Multiplicity           Mult            ....    1
 Number of Electrons    NEL             ....  174
 Basis Dimension        Dim             ....  316

ORBITAL ENERGIES
----------------

  NO   OCC          E(Eh)            E(eV)
   0   2.0000     -88.032995     -2395.4996
   1   2.0000     -87.972135     -2393.8435
   2   2.0000     -76.415236     -2079.3643
   3   2.0000     -18.813550      -511.9427
   4   2.0000     -18.807922      -511.7896
   5   2.0000     -18.782928      -511.1095
   6   2.0000     -18.773774      -510.8604
   7   2.0000     -18.743173      -510.0277
   8   2.0000     -18.739868      -509.9377
   9   2.0000     -10.016271      -272.5566
  10   2.0000     -10.014321      -272.5035
  11   2.0000      -9.955518      -270.9034
  12   2.0000      -9.950306      -270.7616
  13   2.0000      -9.944086      -270.5923
  14   2.0000      -9.938904      -270.4513
  15   2.0000      -9.925812      -270.0951
  16   2.0000      -9.911152      -269.6962
  17   2.0000      -9.892969      -269.2014
  18   2.0000      -9.890135      -269.1242
  19   2.0000      -7.677245      -208.9084
  20   2.0000      -7.617457      -207.2815
  21   2.0000      -6.411699      -174.4712
  22   2.0000      -5.705229      -155.2472
  23   2.0000      -5.702092      -155.1618
  24   2.0000      -5.693919      -154.9394
  25   2.0000      -5.646641      -153.6529
  26   2.0000      -5.638377      -153.4281
  27   2.0000      -5.636960      -153.3895
  28   2.0000      -4.634462      -126.1101
  29   2.0000      -4.633573      -126.0859
  30   2.0000      -4.632106      -126.0460
  31   2.0000      -1.020262       -27.7627
  32   2.0000      -1.016124       -27.6501
  33   2.0000      -0.974606       -26.5204
  34   2.0000      -0.927619       -25.2418
  35   2.0000      -0.920538       -25.0491
  36   2.0000      -0.920008       -25.0347
  37   2.0000      -0.760739       -20.7008
  38   2.0000      -0.714674       -19.4473
  39   2.0000      -0.708346       -19.2751
  40   2.0000      -0.686431       -18.6787
  41   2.0000      -0.655768       -17.8444
  42   2.0000      -0.626318       -17.0430
  43   2.0000      -0.619169       -16.8484
  44   2.0000      -0.610875       -16.6228
  45   2.0000      -0.598197       -16.2778
  46   2.0000      -0.567750       -15.4493
  47   2.0000      -0.507918       -13.8212
  48   2.0000      -0.503112       -13.6904
  49   2.0000      -0.500144       -13.6096
  50   2.0000      -0.475558       -12.9406
  51   2.0000      -0.463676       -12.6173
  52   2.0000      -0.457054       -12.4371
  53   2.0000      -0.452873       -12.3233
  54   2.0000      -0.433004       -11.7826
  55   2.0000      -0.429373       -11.6838
  56   2.0000      -0.424216       -11.5435
  57   2.0000      -0.417489       -11.3605
  58   2.0000      -0.408799       -11.1240
  59   2.0000      -0.407107       -11.0779
  60   2.0000      -0.400893       -10.9089
  61   2.0000      -0.394448       -10.7335
  62   2.0000      -0.388899       -10.5825
  63   2.0000      -0.386031       -10.5044
  64   2.0000      -0.378804       -10.3078
  65   2.0000      -0.366432        -9.9711
  66   2.0000      -0.361318        -9.8320
  67   2.0000      -0.357573        -9.7301
  68   2.0000      -0.351690        -9.5700
  69   2.0000      -0.339198        -9.2300
  70   2.0000      -0.332829        -9.0567
  71   2.0000      -0.331790        -9.0285
  72   2.0000      -0.325654        -8.8615
  73   2.0000      -0.305993        -8.3265
  74   2.0000      -0.302615        -8.2346
  75   2.0000      -0.299803        -8.1580
  76   2.0000      -0.286486        -7.7957
  77   2.0000      -0.284965        -7.7543
  78   2.0000      -0.268252        -7.2995
  79   2.0000      -0.265909        -7.2358
  80   2.0000      -0.259697        -7.0667
  81   2.0000      -0.248044        -6.7496
  82   2.0000      -0.238034        -6.4772
  83   2.0000      -0.226129        -6.1533
  84   2.0000      -0.204291        -5.5590
  85   2.0000      -0.194393        -5.2897
  86   2.0000      -0.183989        -5.0066
  87   0.0000      -0.046397        -1.2625
  88   0.0000      -0.031637        -0.8609
  89   0.0000      -0.025764        -0.7011
  90   0.0000       0.027072         0.7367
  91   0.0000       0.034707         0.9444

MULLIKEN ATOMIC CHARGES
-----------------------
   0 C :   -0.306605
   1 C :   -0.013898
   2 O :   -0.225453
   3 C :    0.144964
   4 O :   -0.199754
   5 C :   -0.035251
   6 C :   -0.391183
   7 H :    0.158622
   8 C :    0.227207
   9 O :   -0.186278
  10 O :   -0.227112
  11 C :   -0.012719
  12 C :   -0.305523
  13 S :   -0.108242
  14 P :    0.633761
  15 S :   -0.310118
  16 O :   -0.356555
  17 C :   -0.104332
  18 O :   -0.395415
  19 C :   -0.103388
  20 H :    0.125534
  21 H :    0.115601
  22 H :    0.113451
  23 H :    0.121713
  24 H :    0.104470
  25 H :    0.113612
  26 H :    0.120404
  27 H :    0.114214
  28 H :    0.105292
  29 H :    0.116391
  30 H :    0.115153
  31 H :    0.131190
  32 H :    0.129036
  33 H :    0.124881
  34 H :    0.117246
  35 H :    0.115263
  36 H :    0.114907
  37 H :    0.118912
Sum of atomic charges:    0.0000000

LOEWDIN ATOMIC CHARGES
----------------------
   0 C :   -0.356068
   1 C :   -0.109918
   2 O :   -0.054160
   3 C :    0.041517
   4 O :   -0.165231
   5 C :   -0.256538
   6 C :   -0.269818
   7 H :    0.135556
   8 C :    0.011848
   9 O :   -0.158423
  10 O :   -0.050636
  11 C :   -0.108860
  12 C :   -0.355267
  13 S :    0.096637
  14 P :    0.596822
  15 S :   -0.303249
  16 O :   -0.230525
  17 C :   -0.208010
  18 O :   -0.269853
  19 C :   -0.223180
  20 H :    0.129797
  21 H :    0.132034
  22 H :    0.124413
  23 H :    0.125953
  24 H :    0.118899
  25 H :    0.142326
  26 H :    0.145792
  27 H :    0.123177
  28 H :    0.119206
  29 H :    0.132685
  30 H :    0.125220
  31 H :    0.132766
  32 H :    0.125124
  33 H :    0.116119
  34 H :    0.108695
  35 H :    0.117315
  36 H :    0.109630
  37 H :    0.108207

  Mayer bond orders larger than 0.100000
B(  0-C ,  1-C ) :   1.1738 B(  0-C , 20-H ) :   0.9462 B(  0-C , 21-H ) :   0.9442
B(  0-C , 22-H ) :   0.9487 B(  1-C ,  2-O ) :   0.9107 B(  1-C , 23-H ) :   0.9144
B(  1-C , 24-H ) :   0.9372 B(  2-O ,  3-C ) :   1.2543 B(  3-C ,  4-O ) :   1.9571
B(  3-C ,  5-C ) :   1.0025 B(  5-C ,  6-C ) :   1.0017 B(  5-C , 25-H ) :   0.8925
B(  5-C , 26-H ) :   0.8739 B(  6-C ,  7-H ) :   0.8269 B(  6-C ,  8-C ) :   0.9023
B(  6-C , 13-S ) :   1.0252 B(  7-H , 15-S ) :   0.1303 B(  8-C ,  9-O ) :   2.0662
B(  8-C , 10-O ) :   1.2548 B( 10-O , 11-C ) :   0.9077 B( 11-C , 12-C ) :   1.1764
B( 11-C , 27-H ) :   0.9134 B( 11-C , 28-H ) :   0.9366 B( 12-C , 29-H ) :   0.9436
B( 12-C , 30-H ) :   0.9486 B( 12-C , 31-H ) :   0.9455 B( 13-S , 14-P ) :   0.9269
B( 13-S , 15-S ) :   0.1147 B( 14-P , 15-S ) :   1.6082 B( 14-P , 16-O ) :   1.1353
B( 14-P , 18-O ) :   1.0490 B( 16-O , 17-C ) :   0.9232 B( 17-C , 32-H ) :   0.9600
B( 17-C , 33-H ) :   0.9465 B( 17-C , 34-H ) :   0.9397 B( 18-O , 19-C ) :   0.9392
B( 19-C , 35-H ) :   0.9583 B( 19-C , 36-H ) :   0.9382 B( 19-C , 37-H ) :   0.9375

Dispersion correction           -0.050380595
FINAL SINGLE POINT ENERGY     -1979.013750862377

DIPOLE MOMENT
-------------

Method             : SCF
Type of density    : Electron Density
Multiplicity       :   1
Irrep              :   0
Energy             : -1979.1450802993126672 Eh
Relativity type    :
Basis              : AO
                                X                 Y                 Z
Electronic contribution:    -12.318916797      -4.280813229      -4.499829254
Nuclear contribution   :     13.682623617       4.605997373       5.832655142
                        -----------------------------------------
Total Dipole Moment    :      1.363706820       0.325184143       1.332825888
                        -----------------------------------------
Magnitude (a.u.)       :      1.934390309
Magnitude (Debye)      :      4.916829418

Rotational constants in cm-1:             0.010246             0.007840             0.005241
Rotational constants in MHz :           307.174147           235.045907           157.126744

                             ****ORCA TERMINATED NORMALLY****
TOTAL RUN TIME: 0 days 0 hours 0 minutes 32 seconds 518 msec
