                         Program Version 6.0.0  -   RELEASE  -
|  1> ! pbe def2-sv(p) def2/J RI DEFGRID1 loosescf d4 GCP(DFT/SV(P)) printgap
|  2> %output
|  3>     printlevel normal
|  4> end
|  5> * xyz 0 1
|  6> C 2.3126513759 0.7524909564 -2.9407727296
|  7> C 1.8816722923 -0.5366245752 -2.2714523573
|  8> O 2.6752162793 -0.8163927002 -1.1075254676
|  9> P 2.4127089939 -0.235392251 0.3537916822
| 10> S 2.5643954659 1.6882071594 0.6644012685
| 11> O 3.5313362608 -0.9902280225 1.163819396
| 12> C 3.6600464564 -2.435613136 1.2096585301
| 13> C 3.2700279065 -2.9475362809 2.5819824789
| 14> S 0.5703722686 -1.1511376042 0.89798395
| 15> C -0.2263522136 0.2329442788 1.7789727036
| 16> S -2.0075990142 0.220693659 1.5422359217
| 17> P -2.0129811183 0.5766391387 -0.5646246908
| 18> S -0.6901777011 1.8917263514 -1.1701314818
| 19> O -3.5474476673 0.8426745126 -0.8722711742
| 20> C -4.4028445694 1.7322290812 -0.1310107582
| 21> C -3.8614200276 3.144786004 -0.0670387094
| 22> O -1.7657962499 -0.7721742559 -1.3435699494
| 23> C -2.67466286 -1.8974228398 -1.4451334393
| 24> C -2.708318812 -2.7266983034 -0.1771080889
| 25> H 2.1038978011 1.6019470338 -2.2924008564
| 26> H 3.3774337099 0.726890757 -3.1554846848
| 27> H 1.756515245 0.8794872521 -3.8640396807
| 28> H 2.0509696578 -1.3971530302 -2.9217720627
| 29> H 0.8240083597 -0.4914830946 -1.9925785612
| 30> H 3.0398552866 -2.8772211184 0.4268166861
| 31> H 4.7123489092 -2.6289725021 0.9963483859
| 32> H 3.4771055667 -4.0116181607 2.6347239476
| 33> H 3.8446930481 -2.4315069615 3.3460131214
| 34> H 2.2111270083 -2.7820377957 2.7639744423
| 35> H 0.2001675845 1.1673431172 1.4005401942
| 36> H -0.0570786369 0.1274285644 2.8476841545
| 37> H -5.3475554037 1.6922315649 -0.6762153214
| 38> H -4.5335443619 1.3222864044 0.8740614997
| 39> H -3.6732458834 3.5256434207 -1.0682446345
| 40> H -4.5804267925 3.785820265 0.4326910942
| 41> H -2.9241059535 3.1643490384 0.4876686255
| 42> H -3.6657109671 -1.5199302354 -1.701564172
| 43> H -2.2664658772 -2.4672095995 -2.2814834357
| 44> H -1.6959789887 -2.9686195031 0.1392434841
| 45> H -3.205851905 -2.1880931309 0.6255256689
| 46> H -3.250858784 -3.646007746 -0.3741010849
| 47> *
| 48>
| 49>                          ****END OF INPUT****

CARTESIAN COORDINATES (ANGSTROEM)
---------------------------------
  C      2.312651    0.752491   -2.940773
  C      1.881672   -0.536625   -2.271452
  O      2.675216   -0.816393   -1.107525
  P      2.412709   -0.235392    0.353792
  S      2.564395    1.688207    0.664401
  O      3.531336   -0.990228    1.163819
  C      3.660046   -2.435613    1.209659
  C      3.270028   -2.947536    2.581982
  S      0.570372   -1.151138    0.897984
  C     -0.226352    0.232944    1.778973
  S     -2.007599    0.220694    1.542236
  P     -2.012981    0.576639   -0.564625
  S     -0.690178    1.891726   -1.170131
  O     -3.547448    0.842675   -0.872271
  C     -4.402845    1.732229   -0.131011
  C     -3.861420    3.144786   -0.067039
  O     -1.765796   -0.772174   -1.343570
  C     -2.674663   -1.897423   -1.445133
  C     -2.708319   -2.726698   -0.177108
  H      2.103898    1.601947   -2.292401
  H      3.377434    0.726891   -3.155485
  H      1.756515    0.879487   -3.864040
  H      2.050970   -1.397153   -2.921772
  H      0.824008   -0.491483   -1.992579
  H      3.039855   -2.877221    0.426817
  H      4.712349   -2.628973    0.996348
  H      3.477106   -4.011618    2.634724
  H      3.844693   -2.431507    3.346013
  H      2.211127   -2.782038    2.763974
  H      0.200168    1.167343    1.400540
  H     -0.057079    0.127429    2.847684
  H     -5.347555    1.692232   -0.676215
  H     -4.533544    1.322286    0.874061
  H     -3.673246    3.525643   -1.068245
  H     -4.580427    3.785820    0.432691
  H     -2.924106    3.164349    0.487669
  H     -3.665711   -1.519930   -1.701564
  H     -2.266466   -2.467210   -2.281483
  H     -1.695979   -2.968620    0.139243
  H     -3.205852   -2.188093    0.625526
  H     -3.250859   -3.646008   -0.374101

 Total Charge           Charge          ....    0
 Multiplicity           Mult            ....    1
 Number of Electrons    NEL             ....  202
 Basis Dimension        Dim             ....  334

ORBITAL ENERGIES
----------------

  NO   OCC          E(Eh)            E(eV)
   0   2.0000     -88.049830     -2395.9577
   1   2.0000     -88.040402     -2395.7011
   2   2.0000     -87.981028     -2394.0855
   3   2.0000     -87.977788     -2393.9973
   4   2.0000     -76.429504     -2079.7525
   5   2.0000     -76.419616     -2079.4835
   6   2.0000     -18.800363      -511.5839
   7   2.0000     -18.793068      -511.3854
   8   2.0000     -18.784471      -511.1514
   9   2.0000     -18.783755      -511.1320
  10   2.0000      -9.964273      -271.1417
  11   2.0000      -9.958859      -270.9943
  12   2.0000      -9.953809      -270.8569
  13   2.0000      -9.953630      -270.8520
  14   2.0000      -9.938829      -270.4493
  15   2.0000      -9.888958      -269.0922
  16   2.0000      -9.885840      -269.0074
  17   2.0000      -9.884376      -268.9675
  18   2.0000      -9.865552      -268.4553
  19   2.0000      -7.694550      -209.3793
  20   2.0000      -7.684819      -209.1146
  21   2.0000      -7.625856      -207.5101
  22   2.0000      -7.623035      -207.4333
  23   2.0000      -6.426272      -174.8678
  24   2.0000      -6.417015      -174.6159
  25   2.0000      -5.722338      -155.7127
  26   2.0000      -5.718927      -155.6199
  27   2.0000      -5.712654      -155.4492
  28   2.0000      -5.711818      -155.4265
  29   2.0000      -5.709338      -155.3590
  30   2.0000      -5.701888      -155.1562
  31   2.0000      -5.655002      -153.8804
  32   2.0000      -5.652124      -153.8021
  33   2.0000      -5.646322      -153.6442
  34   2.0000      -5.645949      -153.6341
  35   2.0000      -5.643565      -153.5692
  36   2.0000      -5.643044      -153.5550
  37   2.0000      -4.649287      -126.5135
  38   2.0000      -4.648246      -126.4852
  39   2.0000      -4.646212      -126.4299
  40   2.0000      -4.639653      -126.2514
  41   2.0000      -4.638939      -126.2320
  42   2.0000      -4.637321      -126.1879
  43   2.0000      -0.992886       -27.0178
  44   2.0000      -0.980481       -26.6802
  45   2.0000      -0.948275       -25.8039
  46   2.0000      -0.935612       -25.4593
  47   2.0000      -0.764005       -20.7896
  48   2.0000      -0.721572       -19.6350
  49   2.0000      -0.711278       -19.3549
  50   2.0000      -0.694746       -18.9050
  51   2.0000      -0.682266       -18.5654
  52   2.0000      -0.673311       -18.3217
  53   2.0000      -0.649979       -17.6868
  54   2.0000      -0.632247       -17.2043
  55   2.0000      -0.592317       -16.1178
  56   2.0000      -0.585451       -15.9309
  57   2.0000      -0.579326       -15.7643
  58   2.0000      -0.569160       -15.4876
  59   2.0000      -0.563366       -15.3300
  60   2.0000      -0.505224       -13.7478
  61   2.0000      -0.497852       -13.5472
  62   2.0000      -0.475615       -12.9421
  63   2.0000      -0.468376       -12.7452
  64   2.0000      -0.454687       -12.3726
  65   2.0000      -0.445116       -12.1122
  66   2.0000      -0.442093       -12.0300
  67   2.0000      -0.434579       -11.8255
  68   2.0000      -0.431706       -11.7473
  69   2.0000      -0.417119       -11.3504
  70   2.0000      -0.414546       -11.2804
  71   2.0000      -0.405468       -11.0333
  72   2.0000      -0.390625       -10.6294
  73   2.0000      -0.387326       -10.5397
  74   2.0000      -0.380433       -10.3521
  75   2.0000      -0.358989        -9.7686
  76   2.0000      -0.358261        -9.7488
  77   2.0000      -0.355137        -9.6638
  78   2.0000      -0.352942        -9.6040
  79   2.0000      -0.350331        -9.5330
  80   2.0000      -0.346428        -9.4268
  81   2.0000      -0.345583        -9.4038
  82   2.0000      -0.343189        -9.3386
  83   2.0000      -0.334617        -9.1054
  84   2.0000      -0.323815        -8.8115
  85   2.0000      -0.321500        -8.7485
  86   2.0000      -0.310210        -8.4413
  87   2.0000      -0.302010        -8.2181
  88   2.0000      -0.295901        -8.0519
  89   2.0000      -0.290421        -7.9028
  90   2.0000      -0.281714        -7.6658
  91   2.0000      -0.280486        -7.6324
  92   2.0000      -0.271027        -7.3750
  93   2.0000      -0.263570        -7.1721
  94   2.0000      -0.254630        -6.9288
  95   2.0000      -0.235851        -6.4178
  96   2.0000      -0.218709        -5.9514
  97   2.0000      -0.207901        -5.6573
  98   2.0000      -0.197407        -5.3717
  99   2.0000      -0.192254        -5.2315
 100   2.0000      -0.184750        -5.0273
 101   0.0000      -0.045999        -1.2517
 102   0.0000      -0.033057        -0.8995
 103   0.0000      -0.013163        -0.3582
 104   0.0000       0.008510         0.2316
 105   0.0000       0.015276         0.4157

MULLIKEN ATOMIC CHARGES
-----------------------
   0 C :   -0.294924
   1 C :   -0.030464
   2 O :   -0.379761
   3 P :    0.610424
   4 S :   -0.290645
   5 O :   -0.357744
   6 C :   -0.010586
   7 C :   -0.285549
   8 S :   -0.139630
   9 C :   -0.336896
  10 S :   -0.129233
  11 P :    0.611111
  12 S :   -0.296334
  13 O :   -0.381116
  14 C :   -0.015282
  15 C :   -0.309096
  16 O :   -0.348714
  17 C :   -0.002420
  18 C :   -0.319605
  19 H :    0.140378
  20 H :    0.106514
  21 H :    0.104133
  22 H :    0.092651
  23 H :    0.129907
  24 H :    0.101268
  25 H :    0.111474
  26 H :    0.106839
  27 H :    0.120261
  28 H :    0.116161
  29 H :    0.216847
  30 H :    0.180456
  31 H :    0.110257
  32 H :    0.115162
  33 H :    0.128070
  34 H :    0.112637
  35 H :    0.131232
  36 H :    0.109894
  37 H :    0.108368
  38 H :    0.130428
  39 H :    0.122619
  40 H :    0.110910
Sum of atomic charges:   -0.0000000

LOEWDIN ATOMIC CHARGES
----------------------
   0 C :   -0.363542
   1 C :   -0.123184
   2 O :   -0.245390
   3 P :    0.562480
   4 S :   -0.283338
   5 O :   -0.240051
   6 C :   -0.112816
   7 C :   -0.360233
   8 S :    0.059752
   9 C :   -0.478428
  10 S :    0.071861
  11 P :    0.564986
  12 S :   -0.287586
  13 O :   -0.244533
  14 C :   -0.114946
  15 C :   -0.368448
  16 O :   -0.232666
  17 C :   -0.109857
  18 C :   -0.371389
  19 H :    0.124029
  20 H :    0.121909
  21 H :    0.128269
  22 H :    0.112342
  23 H :    0.106140
  24 H :    0.106067
  25 H :    0.122056
  26 H :    0.128071
  27 H :    0.129293
  28 H :    0.118978
  29 H :    0.124565
  30 H :    0.134637
  31 H :    0.121618
  32 H :    0.107950
  33 H :    0.131669
  34 H :    0.130874
  35 H :    0.123708
  36 H :    0.113087
  37 H :    0.121375
  38 H :    0.124362
  39 H :    0.116546
  40 H :    0.129782

  Mayer bond orders larger than 0.100000
B(  0-C ,  1-C ) :   1.1724 B(  0-C , 19-H ) :   0.9305 B(  0-C , 20-H ) :   0.9463
B(  0-C , 21-H ) :   0.9393 B(  1-C ,  2-O ) :   0.9021 B(  1-C , 22-H ) :   0.9354
B(  1-C , 23-H ) :   0.9004 B(  2-O ,  3-P ) :   1.0982 B(  3-P ,  4-S ) :   1.6669
B(  3-P ,  5-O ) :   1.1336 B(  3-P ,  8-S ) :   0.9317 B(  4-S ,  8-S ) :   0.1173
B(  5-O ,  6-C ) :   0.8940 B(  6-C ,  7-C ) :   1.1625 B(  6-C , 24-H ) :   0.9185
B(  6-C , 25-H ) :   0.9350 B(  7-C , 26-H ) :   0.9404 B(  7-C , 27-H ) :   0.9463
B(  7-C , 28-H ) :   0.9392 B(  8-S ,  9-C ) :   0.9945 B(  9-C , 10-S ) :   1.0126
B(  9-C , 29-H ) :   0.8382 B(  9-C , 30-H ) :   0.9091 B( 10-S , 11-P ) :   0.9212
B( 10-S , 12-S ) :   0.1093 B( 11-P , 12-S ) :   1.6598 B( 11-P , 13-O ) :   1.0830
B( 11-P , 16-O ) :   1.1188 B( 13-O , 14-C ) :   0.9108 B( 14-C , 15-C ) :   1.1664
B( 14-C , 31-H ) :   0.9330 B( 14-C , 32-H ) :   0.9258 B( 15-C , 33-H ) :   0.9433
B( 15-C , 34-H ) :   0.9349 B( 15-C , 35-H ) :   0.9315 B( 16-O , 17-C ) :   0.9006
B( 17-C , 18-C ) :   1.1674 B( 17-C , 36-H ) :   0.9250 B( 17-C , 37-H ) :   0.9352
B( 18-C , 38-H ) :   0.9395 B( 18-C , 39-H ) :   0.9382 B( 18-C , 40-H ) :   0.9365

Dispersion correction           -0.066439084
FINAL SINGLE POINT ENERGY     -2929.514999200389

DIPOLE MOMENT
-------------

Method             : SCF
Type of density    : Electron Density
Multiplicity       :   1
Irrep              :   0
Energy             : -2929.6335623623617721 Eh
Relativity type    :
Basis              : AO
                                X                 Y                 Z
Electronic contribution:      5.878781851       9.387473261       3.111266782
Nuclear contribution   :     -7.489218746     -11.117882039      -3.044909472
                        -----------------------------------------
Total Dipole Moment    :     -1.610436895      -1.730408778       0.066357310
                        -----------------------------------------
Magnitude (a.u.)       :      2.364788537
Magnitude (Debye)      :      6.010814773

Rotational constants in cm-1:             0.012001             0.005280             0.004864
Rotational constants in MHz :           359.782277           158.288877           145.832233

                             ****ORCA TERMINATED NORMALLY****
TOTAL RUN TIME: 0 days 0 hours 0 minutes 21 seconds 351 msec
