                         Program Version 6.0.0  -   RELEASE  -
|  1> ! wb97x-v def2-tzvp def2/J RIJCOSX DEFGRID2 scfconv7 GCP(DFT/TZ) printgap
|  2> %output
|  3>     printlevel normal
|  4> end
|  5> %cpcm
|  6>     smd true
|  7>     smdsolvent "water"
|  8> end
|  9> * xyz 0 1
| 10> C -1.2526951326519236 -0.3025559256526452 0.023102016945224402
| 11> C -0.006164611135519793 0.563564126155987 0.033451150439868696
| 12> N 1.2115765257769966 -0.2743507374844725 0.02555273324897873
| 13> H -2.1543862069555404 0.3174812909870038 0.047342707103266185
| 14> H -1.29250789387592 -0.9171011666591979 -0.8837019926096837
| 15> H -1.2736024846887846 -0.9725159069059676 0.8890378548184401
| 16> H 0.008430226088963239 1.176702483813898 0.9416196551001749
| 17> H -0.043774426315161846 1.2606775472446126 -0.818667440348178
| 18> H 1.2181050198597363 -0.7999368624018395 -0.8452723925548896
| 19> H 2.0202188404435097 0.33793242603890816 -0.03366912483647615
| 20> *
| 21>
| 22>                          ****END OF INPUT****

CARTESIAN COORDINATES (ANGSTROEM)
---------------------------------
  C     -1.252695   -0.302556    0.023102
  C     -0.006165    0.563564    0.033451
  N      1.211577   -0.274351    0.025553
  H     -2.154386    0.317481    0.047343
  H     -1.292508   -0.917101   -0.883702
  H     -1.273602   -0.972516    0.889038
  H      0.008430    1.176702    0.941620
  H     -0.043774    1.260678   -0.818667
  H      1.218105   -0.799937   -0.845272
  H      2.020219    0.337932   -0.033669

 Total Charge           Charge          ....    0
 Multiplicity           Mult            ....    1
 Number of Electrons    NEL             ....   26
 Basis Dimension        Dim             ....  135

ORBITAL ENERGIES
----------------

  NO   OCC          E(Eh)            E(eV)
   0   2.0000     -16.498371      -448.9435
   1   2.0000     -12.057877      -328.1115
   2   2.0000     -12.024953      -327.2156
   3   2.0000      -1.433064       -38.9956
   4   2.0000      -1.232188       -33.5295
   5   2.0000      -1.081314       -29.4240
   6   2.0000      -0.949217       -25.8295
   7   2.0000      -0.913429       -24.8557
   8   2.0000      -0.860275       -23.4093
   9   2.0000      -0.812288       -22.1035
  10   2.0000      -0.793639       -21.5960
  11   2.0000      -0.770898       -20.9772
  12   2.0000      -0.711830       -19.3699
  13   0.0000      -0.055916        -1.5216
  14   0.0000      -0.010510        -0.2860
  15   0.0000       0.015562         0.4235
  16   0.0000       0.031054         0.8450
  17   0.0000       0.043004         1.1702

MULLIKEN ATOMIC CHARGES
-----------------------
   0 C :   -0.367001
   1 C :   -0.074725
   2 N :   -0.601576
   3 H :    0.123830
   4 H :    0.119728
   5 H :    0.112380
   6 H :    0.105631
   7 H :    0.093386
   8 H :    0.243803
   9 H :    0.244546
Sum of atomic charges:   -0.0000000

LOEWDIN ATOMIC CHARGES
----------------------
   0 C :   -0.323373
   1 C :   -0.361424
   2 N :   -0.215559
   3 H :    0.121119
   4 H :    0.117979
   5 H :    0.115610
   6 H :    0.123359
   7 H :    0.113079
   8 H :    0.155484
   9 H :    0.153726

  Mayer bond orders larger than 0.100000
B(  0-C ,  1-C ) :   0.9893 B(  0-C ,  3-H ) :   0.9759 B(  0-C ,  4-H ) :   0.9756
B(  0-C ,  5-H ) :   0.9746 B(  1-C ,  2-N ) :   0.9829 B(  1-C ,  6-H ) :   0.9725
B(  1-C ,  7-H ) :   0.9811 B(  2-N ,  8-H ) :   0.9302 B(  2-N ,  9-H ) :   0.9327

FINAL SINGLE POINT ENERGY      -135.181645523459

DIPOLE MOMENT
-------------

Method             : SCF
Type of density    : Electron Density
Multiplicity       :   1
Irrep              :   0
Energy             :  -135.1885002998590721 Eh
Relativity type    :
Basis              : AO
                                X                 Y                 Z
Electronic contribution:      1.460322241       0.047238689       0.079189124
Nuclear contribution   :     -1.463784797       0.420738444      -0.707541484
                        -----------------------------------------
Total Dipole Moment    :     -0.003462557       0.467977133      -0.628352360
                        -----------------------------------------
Magnitude (a.u.)       :      0.783480232
Magnitude (Debye)      :      1.991448488

Rotational constants in cm-1:             1.089762             0.296374             0.260368
Rotational constants in MHz :         32670.254994          8885.067686          7805.632233

                             ****ORCA TERMINATED NORMALLY****
TOTAL RUN TIME: 0 days 0 hours 0 minutes 27 seconds 711 msec
