                         Program Version 6.0.0  -   RELEASE  -
|  1> ! r2scan-3c def2/J RI DEFGRID2 scfconv6 printgap
|  2> %output
|  3>     printlevel normal
|  4> end
|  5> * xyz 0 1
|  6> C 5.7390688599 -0.1992792365 0.1730049096
|  7> C 4.3934264554 -0.6055214314 -0.3932790993
|  8> O 3.3759268815 0.1366112562 0.305899412
|  9> P 1.8932150978 0.2402708175 -0.2594799976
| 10> S 1.7871412303 0.7451695134 -2.1551857473
| 11> O 1.2401015862 1.2031808508 0.8131936756
| 12> C 1.2424393838 2.6376846202 0.6554649567
| 13> C 2.643533237 3.2080141758 0.6340734505
| 14> S 1.103700226 -1.6451012811 0.2598525134
| 15> C -0.0573860615 -1.9172710068 -1.1198452205
| 16> S -1.7563812835 -2.2125150243 -0.569220248
| 17> P -2.1862514836 -0.3025952401 0.1819402302
| 18> S -1.5863471247 1.2615641274 -0.8506652833
| 19> O -1.5903603926 -0.4457072654 1.6408639214
| 20> C -1.6320796034 0.6437766462 2.5900237672
| 21> C -0.5402016231 0.4131009492 3.6138337639
| 22> O -3.7486001435 -0.3080415731 0.4765904173
| 23> C -4.7225490167 0.0965602657 -0.5020246054
| 24> C -4.7942941266 -0.8716100774 -1.6646349615
| 25> H 6.5190216311 -0.7693586955 -0.3207332611
| 26> H 5.9111099013 0.860596201 0.0085741211
| 27> H 5.7661798762 -0.3995381141 1.2400436196
| 28> H 4.2023953712 -1.6717625516 -0.2435145996
| 29> H 4.3188451797 -0.3758920081 -1.4616900373
| 30> H 0.7023618391 2.882962506 -0.2653123446
| 31> H 0.6738708509 2.9936088666 1.5161594233
| 32> H 3.167571084 2.8666959004 -0.2579730651
| 33> H 2.5876857201 4.2919861951 0.6166221472
| 34> H 3.1938548333 2.8839705245 1.5135479276
| 35> H 0.2442362283 -2.821237837 -1.6427279748
| 36> H -0.0190324949 -1.0489583233 -1.7840729851
| 37> H -1.486286987 1.5840025996 2.0465371375
| 38> H -2.6234190801 0.6450527469 3.0492887603
| 39> H 0.4324223421 0.4194879759 3.1281620006
| 40> H -0.5771588796 1.2001167846 4.3601345911
| 41> H -0.6840473032 -0.550213577 4.0943308666
| 42> H -5.6578742789 0.1270957767 0.0582057147
| 43> H -4.4628719006 1.1009636139 -0.8517832359
| 44> H -4.9392349172 -1.8863494799 -1.3028993515
| 45> H -5.6204110854 -0.595695062 -2.3120842629
| 46> H -3.8687515095 -0.8332177389 -2.2379881792
| 47> *
| 48>
| 49>                          ****END OF INPUT****

CARTESIAN COORDINATES (ANGSTROEM)
---------------------------------
  C      5.739069   -0.199279    0.173005
  C      4.393426   -0.605521   -0.393279
  O      3.375927    0.136611    0.305899
  P      1.893215    0.240271   -0.259480
  S      1.787141    0.745170   -2.155186
  O      1.240102    1.203181    0.813194
  C      1.242439    2.637685    0.655465
  C      2.643533    3.208014    0.634073
  S      1.103700   -1.645101    0.259853
  C     -0.057386   -1.917271   -1.119845
  S     -1.756381   -2.212515   -0.569220
  P     -2.186251   -0.302595    0.181940
  S     -1.586347    1.261564   -0.850665
  O     -1.590360   -0.445707    1.640864
  C     -1.632080    0.643777    2.590024
  C     -0.540202    0.413101    3.613834
  O     -3.748600   -0.308042    0.476590
  C     -4.722549    0.096560   -0.502025
  C     -4.794294   -0.871610   -1.664635
  H      6.519022   -0.769359   -0.320733
  H      5.911110    0.860596    0.008574
  H      5.766180   -0.399538    1.240044
  H      4.202395   -1.671763   -0.243515
  H      4.318845   -0.375892   -1.461690
  H      0.702362    2.882963   -0.265312
  H      0.673871    2.993609    1.516159
  H      3.167571    2.866696   -0.257973
  H      2.587686    4.291986    0.616622
  H      3.193855    2.883971    1.513548
  H      0.244236   -2.821238   -1.642728
  H     -0.019032   -1.048958   -1.784073
  H     -1.486287    1.584003    2.046537
  H     -2.623419    0.645053    3.049289
  H      0.432422    0.419488    3.128162
  H     -0.577159    1.200117    4.360135
  H     -0.684047   -0.550214    4.094331
  H     -5.657874    0.127096    0.058206
  H     -4.462872    1.100964   -0.851783
  H     -4.939235   -1.886349   -1.302899
  H     -5.620411   -0.595695   -2.312084
  H     -3.868752   -0.833218   -2.237988

 Total Charge           Charge          ....    0
 Multiplicity           Mult            ....    1
 Number of Electrons    NEL             ....  202
 Basis Dimension        Dim             ....  539

ORBITAL ENERGIES
----------------

  NO   OCC          E(Eh)            E(eV)
   0   2.0000     -88.576784     -2410.2968
   1   2.0000     -88.572727     -2410.1864
   2   2.0000     -88.515388     -2408.6261
   3   2.0000     -88.514111     -2408.5914
   4   2.0000     -76.910313     -2092.8360
   5   2.0000     -76.910141     -2092.8313
   6   2.0000     -18.990756      -516.7647
   7   2.0000     -18.987497      -516.6761
   8   2.0000     -18.986774      -516.6564
   9   2.0000     -18.983282      -516.5614
  10   2.0000     -10.105526      -274.9853
  11   2.0000     -10.096385      -274.7366
  12   2.0000     -10.094343      -274.6810
  13   2.0000     -10.093672      -274.6628
  14   2.0000     -10.093411      -274.6557
  15   2.0000     -10.031342      -272.9667
  16   2.0000     -10.027531      -272.8630
  17   2.0000     -10.024973      -272.7934
  18   2.0000     -10.024846      -272.7899
  19   2.0000      -7.871424      -214.1923
  20   2.0000      -7.867095      -214.0745
  21   2.0000      -7.810115      -212.5240
  22   2.0000      -7.808895      -212.4908
  23   2.0000      -6.588877      -179.2925
  24   2.0000      -6.588624      -179.2856
  25   2.0000      -5.818472      -158.3287
  26   2.0000      -5.815107      -158.2371
  27   2.0000      -5.813941      -158.2054
  28   2.0000      -5.810981      -158.1248
  29   2.0000      -5.808459      -158.0562
  30   2.0000      -5.804180      -157.9398
  31   2.0000      -5.757791      -156.6775
  32   2.0000      -5.756528      -156.6431
  33   2.0000      -5.750597      -156.4817
  34   2.0000      -5.749891      -156.4625
  35   2.0000      -5.749232      -156.4446
  36   2.0000      -5.748861      -156.4344
  37   2.0000      -4.734476      -128.8316
  38   2.0000      -4.733937      -128.8170
  39   2.0000      -4.733788      -128.8129
  40   2.0000      -4.733520      -128.8056
  41   2.0000      -4.732543      -128.7791
  42   2.0000      -4.732511      -128.7782
  43   2.0000      -1.046944       -28.4888
  44   2.0000      -1.046240       -28.4696
  45   2.0000      -1.006816       -27.3969
  46   2.0000      -1.005909       -27.3722
  47   2.0000      -0.799590       -21.7580
  48   2.0000      -0.757203       -20.6045
  49   2.0000      -0.747085       -20.3292
  50   2.0000      -0.730070       -19.8662
  51   2.0000      -0.728930       -19.8352
  52   2.0000      -0.709516       -19.3069
  53   2.0000      -0.682233       -18.5645
  54   2.0000      -0.661958       -18.0128
  55   2.0000      -0.631120       -17.1736
  56   2.0000      -0.621025       -16.8990
  57   2.0000      -0.603566       -16.4239
  58   2.0000      -0.595923       -16.2159
  59   2.0000      -0.587504       -15.9868
  60   2.0000      -0.527236       -14.3468
  61   2.0000      -0.522076       -14.2064
  62   2.0000      -0.492127       -13.3915
  63   2.0000      -0.489526       -13.3207
  64   2.0000      -0.469032       -12.7630
  65   2.0000      -0.462048       -12.5730
  66   2.0000      -0.456372       -12.4185
  67   2.0000      -0.450350       -12.2546
  68   2.0000      -0.440915       -11.9979
  69   2.0000      -0.436163       -11.8686
  70   2.0000      -0.427396       -11.6300
  71   2.0000      -0.414574       -11.2811
  72   2.0000      -0.403185       -10.9712
  73   2.0000      -0.401112       -10.9148
  74   2.0000      -0.395200       -10.7539
  75   2.0000      -0.386952       -10.5295
  76   2.0000      -0.382425       -10.4063
  77   2.0000      -0.370793       -10.0898
  78   2.0000      -0.367755       -10.0071
  79   2.0000      -0.363725        -9.8975
  80   2.0000      -0.358731        -9.7616
  81   2.0000      -0.356586        -9.7032
  82   2.0000      -0.351956        -9.5772
  83   2.0000      -0.348374        -9.4797
  84   2.0000      -0.345012        -9.3883
  85   2.0000      -0.325684        -8.8623
  86   2.0000      -0.322963        -8.7883
  87   2.0000      -0.311993        -8.4898
  88   2.0000      -0.308714        -8.4005
  89   2.0000      -0.301817        -8.2129
  90   2.0000      -0.299091        -8.1387
  91   2.0000      -0.287090        -7.8121
  92   2.0000      -0.282194        -7.6789
  93   2.0000      -0.275298        -7.4912
  94   2.0000      -0.272019        -7.4020
  95   2.0000      -0.246930        -6.7193
  96   2.0000      -0.232849        -6.3362
  97   2.0000      -0.227288        -6.1848
  98   2.0000      -0.215163        -5.8549
  99   2.0000      -0.206996        -5.6326
 100   2.0000      -0.198860        -5.4113
 101   0.0000      -0.041648        -1.1333
 102   0.0000      -0.031271        -0.8509
 103   0.0000      -0.009128        -0.2484
 104   0.0000       0.014017         0.3814
 105   0.0000       0.023622         0.6428

MULLIKEN ATOMIC CHARGES
-----------------------
   0 C :   -0.442367
   1 C :   -0.159950
   2 O :   -0.275861
   3 P :    0.660077
   4 S :   -0.469001
   5 O :   -0.263318
   6 C :   -0.153386
   7 C :   -0.463071
   8 S :   -0.132768
   9 C :   -0.230514
  10 S :   -0.101422
  11 P :    0.708724
  12 S :   -0.450475
  13 O :   -0.285231
  14 C :   -0.119509
  15 C :   -0.478463
  16 O :   -0.317407
  17 C :   -0.154745
  18 C :   -0.461297
  19 H :    0.146337
  20 H :    0.154229
  21 H :    0.153294
  22 H :    0.152925
  23 H :    0.171505
  24 H :    0.185036
  25 H :    0.147100
  26 H :    0.174782
  27 H :    0.147330
  28 H :    0.156394
  29 H :    0.192592
  30 H :    0.217410
  31 H :    0.161633
  32 H :    0.150951
  33 H :    0.177843
  34 H :    0.142973
  35 H :    0.152914
  36 H :    0.146574
  37 H :    0.174310
  38 H :    0.156048
  39 H :    0.148169
  40 H :    0.179635
Sum of atomic charges:   -0.0000000

LOEWDIN ATOMIC CHARGES
----------------------
   0 C :   -0.386452
   1 C :    0.015495
   2 O :   -0.673470
   3 P :    0.371301
   4 S :   -0.129702
   5 O :   -0.677075
   6 C :    0.010608
   7 C :   -0.401771
   8 S :    0.175563
   9 C :   -0.412348
  10 S :    0.171150
  11 P :    0.371480
  12 S :   -0.098957
  13 O :   -0.669953
  14 C :    0.023752
  15 C :   -0.390575
  16 O :   -0.661350
  17 C :    0.018524
  18 C :   -0.407071
  19 H :    0.159507
  20 H :    0.159603
  21 H :    0.159556
  22 H :    0.172192
  23 H :    0.180344
  24 H :    0.185358
  25 H :    0.179087
  26 H :    0.167206
  27 H :    0.159391
  28 H :    0.160957
  29 H :    0.180612
  30 H :    0.201724
  31 H :    0.179070
  32 H :    0.171905
  33 H :    0.171129
  34 H :    0.157743
  35 H :    0.160598
  36 H :    0.178879
  37 H :    0.180248
  38 H :    0.159744
  39 H :    0.159680
  40 H :    0.166314

  Mayer bond orders larger than 0.100000
B(  0-C ,  1-C ) :   0.9533 B(  0-C , 19-H ) :   0.9651 B(  0-C , 20-H ) :   0.9721
B(  0-C , 21-H ) :   0.9721 B(  1-C ,  2-O ) :   0.7893 B(  1-C , 22-H ) :   0.9456
B(  1-C , 23-H ) :   0.9499 B(  2-O ,  3-P ) :   1.0799 B(  3-P ,  4-S ) :   1.7334
B(  3-P ,  5-O ) :   1.1730 B(  3-P ,  8-S ) :   1.1120 B(  5-O ,  6-C ) :   0.7889
B(  6-C ,  7-C ) :   0.9094 B(  6-C , 24-H ) :   0.9602 B(  6-C , 25-H ) :   0.9585
B(  7-C , 26-H ) :   0.9622 B(  7-C , 27-H ) :   0.9594 B(  7-C , 28-H ) :   0.9719
B(  8-S ,  9-C ) :   0.8973 B(  9-C , 10-S ) :   0.9179 B(  9-C , 29-H ) :   0.9126
B(  9-C , 30-H ) :   0.9030 B( 10-S , 11-P ) :   1.1106 B( 11-P , 12-S ) :   1.7493
B( 11-P , 13-O ) :   1.1849 B( 11-P , 16-O ) :   1.0488 B( 13-O , 14-C ) :   0.7451
B( 14-C , 15-C ) :   0.9384 B( 14-C , 31-H ) :   0.9590 B( 14-C , 32-H ) :   0.9430
B( 15-C , 33-H ) :   0.9679 B( 15-C , 34-H ) :   0.9685 B( 15-C , 35-H ) :   0.9691
B( 16-O , 17-C ) :   0.8199 B( 17-C , 18-C ) :   0.9187 B( 17-C , 36-H ) :   0.9588
B( 17-C , 37-H ) :   0.9658 B( 18-C , 38-H ) :   0.9689 B( 18-C , 39-H ) :   0.9588
B( 18-C , 40-H ) :   0.9618

Dispersion correction           -0.022097705
FINAL SINGLE POINT ENERGY     -2932.461991837859

DIPOLE MOMENT
-------------

Method             : SCF
Type of density    : Electron Density
Multiplicity       :   1
Irrep              :   0
Energy             : -2932.4865299802290792 Eh
Relativity type    :
Basis              : AO
                                X                 Y                 Z
Electronic contribution:     -7.546169477     -10.351102807      -7.754567076
Nuclear contribution   :      7.563617714      10.348066621       8.610595966
                        -----------------------------------------
Total Dipole Moment    :      0.017448237      -0.003036186       0.856028889
                        -----------------------------------------
Magnitude (a.u.)       :      0.856212076
Magnitude (Debye)      :      2.176318142

Rotational constants in cm-1:             0.013102             0.005174             0.004874
Rotational constants in MHz :           392.791883           155.116660           146.109071

                             ****ORCA TERMINATED NORMALLY****
TOTAL RUN TIME: 0 days 0 hours 1 minutes 22 seconds 501 msec
