                         Program Version 6.0.0  -   RELEASE  -
|  1> ! r2scan-3c def2/J RI DEFGRID2 scfconv6 printgap
|  2> %output
|  3>     printlevel normal
|  4> end
|  5> %cpcm
|  6>     smd true
|  7>     smdsolvent "water"
|  8> end
|  9> * xyz 0 1
| 10> C 5.7390688599 -0.1992792365 0.1730049096
| 11> C 4.3934264554 -0.6055214314 -0.3932790993
| 12> O 3.3759268815 0.1366112562 0.305899412
| 13> P 1.8932150978 0.2402708175 -0.2594799976
| 14> S 1.7871412303 0.7451695134 -2.1551857473
| 15> O 1.2401015862 1.2031808508 0.8131936756
| 16> C 1.2424393838 2.6376846202 0.6554649567
| 17> C 2.643533237 3.2080141758 0.6340734505
| 18> S 1.103700226 -1.6451012811 0.2598525134
| 19> C -0.0573860615 -1.9172710068 -1.1198452205
| 20> S -1.7563812835 -2.2125150243 -0.569220248
| 21> P -2.1862514836 -0.3025952401 0.1819402302
| 22> S -1.5863471247 1.2615641274 -0.8506652833
| 23> O -1.5903603926 -0.4457072654 1.6408639214
| 24> C -1.6320796034 0.6437766462 2.5900237672
| 25> C -0.5402016231 0.4131009492 3.6138337639
| 26> O -3.7486001435 -0.3080415731 0.4765904173
| 27> C -4.7225490167 0.0965602657 -0.5020246054
| 28> C -4.7942941266 -0.8716100774 -1.6646349615
| 29> H 6.5190216311 -0.7693586955 -0.3207332611
| 30> H 5.9111099013 0.860596201 0.0085741211
| 31> H 5.7661798762 -0.3995381141 1.2400436196
| 32> H 4.2023953712 -1.6717625516 -0.2435145996
| 33> H 4.3188451797 -0.3758920081 -1.4616900373
| 34> H 0.7023618391 2.882962506 -0.2653123446
| 35> H 0.6738708509 2.9936088666 1.5161594233
| 36> H 3.167571084 2.8666959004 -0.2579730651
| 37> H 2.5876857201 4.2919861951 0.6166221472
| 38> H 3.1938548333 2.8839705245 1.5135479276
| 39> H 0.2442362283 -2.821237837 -1.6427279748
| 40> H -0.0190324949 -1.0489583233 -1.7840729851
| 41> H -1.486286987 1.5840025996 2.0465371375
| 42> H -2.6234190801 0.6450527469 3.0492887603
| 43> H 0.4324223421 0.4194879759 3.1281620006
| 44> H -0.5771588796 1.2001167846 4.3601345911
| 45> H -0.6840473032 -0.550213577 4.0943308666
| 46> H -5.6578742789 0.1270957767 0.0582057147
| 47> H -4.4628719006 1.1009636139 -0.8517832359
| 48> H -4.9392349172 -1.8863494799 -1.3028993515
| 49> H -5.6204110854 -0.595695062 -2.3120842629
| 50> H -3.8687515095 -0.8332177389 -2.2379881792
| 51> *
| 52>
| 53>                          ****END OF INPUT****

CARTESIAN COORDINATES (ANGSTROEM)
---------------------------------
  C      5.739069   -0.199279    0.173005
  C      4.393426   -0.605521   -0.393279
  O      3.375927    0.136611    0.305899
  P      1.893215    0.240271   -0.259480
  S      1.787141    0.745170   -2.155186
  O      1.240102    1.203181    0.813194
  C      1.242439    2.637685    0.655465
  C      2.643533    3.208014    0.634073
  S      1.103700   -1.645101    0.259853
  C     -0.057386   -1.917271   -1.119845
  S     -1.756381   -2.212515   -0.569220
  P     -2.186251   -0.302595    0.181940
  S     -1.586347    1.261564   -0.850665
  O     -1.590360   -0.445707    1.640864
  C     -1.632080    0.643777    2.590024
  C     -0.540202    0.413101    3.613834
  O     -3.748600   -0.308042    0.476590
  C     -4.722549    0.096560   -0.502025
  C     -4.794294   -0.871610   -1.664635
  H      6.519022   -0.769359   -0.320733
  H      5.911110    0.860596    0.008574
  H      5.766180   -0.399538    1.240044
  H      4.202395   -1.671763   -0.243515
  H      4.318845   -0.375892   -1.461690
  H      0.702362    2.882963   -0.265312
  H      0.673871    2.993609    1.516159
  H      3.167571    2.866696   -0.257973
  H      2.587686    4.291986    0.616622
  H      3.193855    2.883971    1.513548
  H      0.244236   -2.821238   -1.642728
  H     -0.019032   -1.048958   -1.784073
  H     -1.486287    1.584003    2.046537
  H     -2.623419    0.645053    3.049289
  H      0.432422    0.419488    3.128162
  H     -0.577159    1.200117    4.360135
  H     -0.684047   -0.550214    4.094331
  H     -5.657874    0.127096    0.058206
  H     -4.462872    1.100964   -0.851783
  H     -4.939235   -1.886349   -1.302899
  H     -5.620411   -0.595695   -2.312084
  H     -3.868752   -0.833218   -2.237988

 Total Charge           Charge          ....    0
 Multiplicity           Mult            ....    1
 Number of Electrons    NEL             ....  202
 Basis Dimension        Dim             ....  539

ORBITAL ENERGIES
----------------

  NO   OCC          E(Eh)            E(eV)
   0   2.0000     -88.582287     -2410.4466
   1   2.0000     -88.578839     -2410.3528
   2   2.0000     -88.525329     -2408.8967
   3   2.0000     -88.522397     -2408.8169
   4   2.0000     -76.917585     -2093.0339
   5   2.0000     -76.916872     -2093.0145
   6   2.0000     -18.994494      -516.8664
   7   2.0000     -18.992248      -516.8053
   8   2.0000     -18.991496      -516.7849
   9   2.0000     -18.989614      -516.7337
  10   2.0000     -10.106305      -275.0065
  11   2.0000     -10.088816      -274.5306
  12   2.0000     -10.088261      -274.5155
  13   2.0000     -10.088079      -274.5106
  14   2.0000     -10.087921      -274.5063
  15   2.0000     -10.019104      -272.6337
  16   2.0000     -10.018750      -272.6240
  17   2.0000     -10.017850      -272.5996
  18   2.0000     -10.017799      -272.5982
  19   2.0000      -7.876885      -214.3409
  20   2.0000      -7.873218      -214.2411
  21   2.0000      -7.820389      -212.8036
  22   2.0000      -7.817430      -212.7231
  23   2.0000      -6.596108      -179.4892
  24   2.0000      -6.595506      -179.4728
  25   2.0000      -5.823911      -158.4767
  26   2.0000      -5.820538      -158.3849
  27   2.0000      -5.820043      -158.3714
  28   2.0000      -5.817113      -158.2917
  29   2.0000      -5.813987      -158.2066
  30   2.0000      -5.810329      -158.1071
  31   2.0000      -5.767991      -156.9550
  32   2.0000      -5.765017      -156.8741
  33   2.0000      -5.760862      -156.7610
  34   2.0000      -5.760187      -156.7426
  35   2.0000      -5.757789      -156.6774
  36   2.0000      -5.757372      -156.6661
  37   2.0000      -4.741380      -129.0195
  38   2.0000      -4.741059      -129.0108
  39   2.0000      -4.740996      -129.0091
  40   2.0000      -4.740422      -128.9934
  41   2.0000      -4.740112      -128.9850
  42   2.0000      -4.739198      -128.9601
  43   2.0000      -1.051558       -28.6143
  44   2.0000      -1.050805       -28.5939
  45   2.0000      -1.010825       -27.5060
  46   2.0000      -1.010047       -27.4848
  47   2.0000      -0.803275       -21.8582
  48   2.0000      -0.756832       -20.5944
  49   2.0000      -0.743600       -20.2344
  50   2.0000      -0.723681       -19.6924
  51   2.0000      -0.722963       -19.6728
  52   2.0000      -0.710477       -19.3331
  53   2.0000      -0.687573       -18.7098
  54   2.0000      -0.669705       -18.2236
  55   2.0000      -0.631886       -17.1945
  56   2.0000      -0.619253       -16.8507
  57   2.0000      -0.600275       -16.3343
  58   2.0000      -0.590436       -16.0666
  59   2.0000      -0.586987       -15.9727
  60   2.0000      -0.526252       -14.3200
  61   2.0000      -0.521532       -14.1916
  62   2.0000      -0.491963       -13.3870
  63   2.0000      -0.488357       -13.2889
  64   2.0000      -0.470288       -12.7972
  65   2.0000      -0.463268       -12.6062
  66   2.0000      -0.455194       -12.3865
  67   2.0000      -0.446091       -12.1388
  68   2.0000      -0.438308       -11.9270
  69   2.0000      -0.435995       -11.8640
  70   2.0000      -0.425920       -11.5899
  71   2.0000      -0.412945       -11.2368
  72   2.0000      -0.404093       -10.9959
  73   2.0000      -0.401685       -10.9304
  74   2.0000      -0.393954       -10.7200
  75   2.0000      -0.385999       -10.5036
  76   2.0000      -0.382557       -10.4099
  77   2.0000      -0.362766        -9.8714
  78   2.0000      -0.361927        -9.8485
  79   2.0000      -0.356665        -9.7053
  80   2.0000      -0.352603        -9.5948
  81   2.0000      -0.350786        -9.5454
  82   2.0000      -0.348457        -9.4820
  83   2.0000      -0.346121        -9.4184
  84   2.0000      -0.343843        -9.3565
  85   2.0000      -0.324854        -8.8397
  86   2.0000      -0.321644        -8.7524
  87   2.0000      -0.311410        -8.4739
  88   2.0000      -0.306430        -8.3384
  89   2.0000      -0.304270        -8.2796
  90   2.0000      -0.299866        -8.1598
  91   2.0000      -0.288506        -7.8506
  92   2.0000      -0.283172        -7.7055
  93   2.0000      -0.277903        -7.5621
  94   2.0000      -0.274561        -7.4712
  95   2.0000      -0.252853        -6.8805
  96   2.0000      -0.240640        -6.5481
  97   2.0000      -0.236753        -6.4424
  98   2.0000      -0.224399        -6.1062
  99   2.0000      -0.215756        -5.8710
 100   2.0000      -0.208815        -5.6821
 101   0.0000      -0.047240        -1.2855
 102   0.0000      -0.038795        -1.0557
 103   0.0000      -0.013883        -0.3778
 104   0.0000       0.008522         0.2319
 105   0.0000       0.018139         0.4936

MULLIKEN ATOMIC CHARGES
-----------------------
   0 C :   -0.484034
   1 C :   -0.150717
   2 O :   -0.304564
   3 P :    0.699441
   4 S :   -0.523144
   5 O :   -0.285675
   6 C :   -0.149391
   7 C :   -0.504323
   8 S :   -0.145895
   9 C :   -0.228393
  10 S :   -0.114054
  11 P :    0.730828
  12 S :   -0.495662
  13 O :   -0.319192
  14 C :   -0.116058
  15 C :   -0.513177
  16 O :   -0.341572
  17 C :   -0.152799
  18 C :   -0.494573
  19 H :    0.169063
  20 H :    0.165592
  21 H :    0.165448
  22 H :    0.170178
  23 H :    0.172355
  24 H :    0.180890
  25 H :    0.180940
  26 H :    0.172392
  27 H :    0.172738
  28 H :    0.170628
  29 H :    0.235230
  30 H :    0.213855
  31 H :    0.173486
  32 H :    0.172850
  33 H :    0.171321
  34 H :    0.170686
  35 H :    0.166187
  36 H :    0.174162
  37 H :    0.177787
  38 H :    0.170676
  39 H :    0.173315
  40 H :    0.173174
Sum of atomic charges:   -0.0000000

LOEWDIN ATOMIC CHARGES
----------------------
   0 C :   -0.389788
   1 C :    0.020081
   2 O :   -0.686191
   3 P :    0.376096
   4 S :   -0.163735
   5 O :   -0.686657
   6 C :    0.014543
   7 C :   -0.404383
   8 S :    0.170152
   9 C :   -0.405940
  10 S :    0.168402
  11 P :    0.373258
  12 S :   -0.124737
  13 O :   -0.690019
  14 C :    0.027968
  15 C :   -0.393508
  16 O :   -0.672780
  17 C :    0.023752
  18 C :   -0.409847
  19 H :    0.168466
  20 H :    0.162286
  21 H :    0.162970
  22 H :    0.179069
  23 H :    0.181068
  24 H :    0.183524
  25 H :    0.191707
  26 H :    0.163696
  27 H :    0.168889
  28 H :    0.164539
  29 H :    0.197437
  30 H :    0.199957
  31 H :    0.183505
  32 H :    0.181282
  33 H :    0.166882
  34 H :    0.169158
  35 H :    0.163026
  36 H :    0.190487
  37 H :    0.181274
  38 H :    0.163661
  39 H :    0.168833
  40 H :    0.161618

  Mayer bond orders larger than 0.100000
B(  0-C ,  1-C ) :   0.9500 B(  0-C , 19-H ) :   0.9589 B(  0-C , 20-H ) :   0.9696
B(  0-C , 21-H ) :   0.9692 B(  1-C ,  2-O ) :   0.7826 B(  1-C , 22-H ) :   0.9373
B(  1-C , 23-H ) :   0.9468 B(  2-O ,  3-P ) :   1.0872 B(  3-P ,  4-S ) :   1.6842
B(  3-P ,  5-O ) :   1.1791 B(  3-P ,  8-S ) :   1.1285 B(  5-O ,  6-C ) :   0.7745
B(  6-C ,  7-C ) :   0.8978 B(  6-C , 24-H ) :   0.9586 B(  6-C , 25-H ) :   0.9476
B(  7-C , 26-H ) :   0.9626 B(  7-C , 27-H ) :   0.9533 B(  7-C , 28-H ) :   0.9704
B(  8-S ,  9-C ) :   0.8898 B(  9-C , 10-S ) :   0.9109 B(  9-C , 29-H ) :   0.8966
B(  9-C , 30-H ) :   0.9072 B( 10-S , 11-P ) :   1.1234 B( 11-P , 12-S ) :   1.7156
B( 11-P , 13-O ) :   1.1844 B( 11-P , 16-O ) :   1.0566 B( 13-O , 14-C ) :   0.7370
B( 14-C , 15-C ) :   0.9301 B( 14-C , 31-H ) :   0.9521 B( 14-C , 32-H ) :   0.9334
B( 15-C , 33-H ) :   0.9678 B( 15-C , 34-H ) :   0.9614 B( 15-C , 35-H ) :   0.9687
B( 16-O , 17-C ) :   0.8085 B( 17-C , 18-C ) :   0.9065 B( 17-C , 36-H ) :   0.9491
B( 17-C , 37-H ) :   0.9641 B( 18-C , 38-H ) :   0.9659 B( 18-C , 39-H ) :   0.9534
B( 18-C , 40-H ) :   0.9633

Dispersion correction           -0.022097705
FINAL SINGLE POINT ENERGY     -2932.470252260890

DIPOLE MOMENT
-------------

Method             : SCF
Type of density    : Electron Density
Multiplicity       :   1
Irrep              :   0
Energy             : -2932.4947904032596853 Eh
Relativity type    :
Basis              : AO
                                X                 Y                 Z
Electronic contribution:     -7.618276854     -10.364970588      -7.503228172
Nuclear contribution   :      7.563617714      10.348066621       8.610595966
                        -----------------------------------------
Total Dipole Moment    :     -0.054659141      -0.016903967       1.107367793
                        -----------------------------------------
Magnitude (a.u.)       :      1.108844802
Magnitude (Debye)      :      2.818459500

Rotational constants in cm-1:             0.013102             0.005174             0.004874
Rotational constants in MHz :           392.791883           155.116660           146.109071

                             ****ORCA TERMINATED NORMALLY****
TOTAL RUN TIME: 0 days 0 hours 1 minutes 50 seconds 545 msec
