                         Program Version 6.0.0  -   RELEASE  -
|  1> ! pbe def2-sv(p) def2/J RI DEFGRID1 loosescf d4 GCP(DFT/SV(P)) printgap
|  2> %output
|  3>     printlevel normal
|  4> end
|  5> * xyz 0 1
|  6> C 4.5262214577 0.9362831279 -2.032531039
|  7> C 4.1071572404 -0.0744960511 -0.9855909064
|  8> O 3.090832966 0.5497974326 -0.1522385534
|  9> P 2.1337811085 -0.2767864935 0.7841857993
| 10> S 1.1978543285 0.8255375782 2.1008773144
| 11> O 3.122601293 -1.3483270073 1.4213200038
| 12> C 2.7822923992 -2.1077532345 2.5943092365
| 13> C 1.6907562383 -3.1194423246 2.3123017352
| 14> S 0.9555494641 -1.4700996727 -0.5575460795
| 15> C 0.6238645533 -0.2440856228 -1.8581987571
| 16> S -0.018819017 1.3366764546 -1.2412012455
| 17> P -1.982534036 0.686713646 -0.7775634626
| 18> S -2.6848060893 -0.7974764674 -1.8477392979
| 19> O -2.6621100917 2.100756627 -0.9620697271
| 20> C -4.0717465206 2.253668088 -1.2317090463
| 21> C -4.919876355 1.935584352 -0.0182224514
| 22> O -2.0500896184 0.4748137629 0.7963882697
| 23> C -1.9923881535 -0.8034995909 1.4546989545
| 24> C -3.3744101464 -1.2215741167 1.9155124033
| 25> H 5.2849943976 0.4941951458 -2.6702556558
| 26> H 3.6756578428 1.2356999725 -2.639699258
| 27> H 4.9310902825 1.8218260273 -1.5513822083
| 28> H 4.9410911716 -0.3497557906 -0.3377815354
| 29> H 3.6917002424 -0.9815561601 -1.4331884858
| 30> H 3.7194220977 -2.5906369568 2.874123782
| 31> H 2.4716994185 -1.4104344867 3.3789034974
| 32> H 1.5248800219 -3.7270837307 3.1958313238
| 33> H 0.7649322306 -2.6036679656 2.0590752921
| 34> H 1.9714146201 -3.758847853 1.4795355194
| 35> H -0.1135566829 -0.7086504488 -2.5152024582
| 36> H 1.5381655441 -0.0150806906 -2.3981962178
| 37> H -4.1664421771 3.2991060381 -1.5290268699
| 38> H -4.3347543899 1.6026063079 -2.0717779777
| 39> H -5.9560045527 2.1807207222 -0.2299900185
| 40> H -4.8469512877 0.8759075627 0.2189848271
| 41> H -4.5782218774 2.5116154917 0.8379971824
| 42> H -1.5770301056 -1.5498686937 0.7701267632
| 43> H -1.3130195324 -0.6555265604 2.2975884437
| 44> H -3.2915656376 -2.1347249095 2.4958263118
| 45> H -3.8154404255 -0.4424179218 2.5307296108
| 46> H -4.0134654919 -1.4077221115 1.0547045064
| 47> *
| 48>
| 49>                          ****END OF INPUT****

CARTESIAN COORDINATES (ANGSTROEM)
---------------------------------
  C      4.526221    0.936283   -2.032531
  C      4.107157   -0.074496   -0.985591
  O      3.090833    0.549797   -0.152239
  P      2.133781   -0.276786    0.784186
  S      1.197854    0.825538    2.100877
  O      3.122601   -1.348327    1.421320
  C      2.782292   -2.107753    2.594309
  C      1.690756   -3.119442    2.312302
  S      0.955549   -1.470100   -0.557546
  C      0.623865   -0.244086   -1.858199
  S     -0.018819    1.336676   -1.241201
  P     -1.982534    0.686714   -0.777563
  S     -2.684806   -0.797476   -1.847739
  O     -2.662110    2.100757   -0.962070
  C     -4.071747    2.253668   -1.231709
  C     -4.919876    1.935584   -0.018222
  O     -2.050090    0.474814    0.796388
  C     -1.992388   -0.803500    1.454699
  C     -3.374410   -1.221574    1.915512
  H      5.284994    0.494195   -2.670256
  H      3.675658    1.235700   -2.639699
  H      4.931090    1.821826   -1.551382
  H      4.941091   -0.349756   -0.337782
  H      3.691700   -0.981556   -1.433188
  H      3.719422   -2.590637    2.874124
  H      2.471699   -1.410434    3.378903
  H      1.524880   -3.727084    3.195831
  H      0.764932   -2.603668    2.059075
  H      1.971415   -3.758848    1.479536
  H     -0.113557   -0.708650   -2.515202
  H      1.538166   -0.015081   -2.398196
  H     -4.166442    3.299106   -1.529027
  H     -4.334754    1.602606   -2.071778
  H     -5.956005    2.180721   -0.229990
  H     -4.846951    0.875908    0.218985
  H     -4.578222    2.511615    0.837997
  H     -1.577030   -1.549869    0.770127
  H     -1.313020   -0.655527    2.297588
  H     -3.291566   -2.134725    2.495826
  H     -3.815440   -0.442418    2.530730
  H     -4.013465   -1.407722    1.054705

 Total Charge           Charge          ....    0
 Multiplicity           Mult            ....    1
 Number of Electrons    NEL             ....  202
 Basis Dimension        Dim             ....  334

ORBITAL ENERGIES
----------------

  NO   OCC          E(Eh)            E(eV)
   0   2.0000     -88.041491     -2395.7308
   1   2.0000     -88.035453     -2395.5665
   2   2.0000     -87.988412     -2394.2864
   3   2.0000     -87.981822     -2394.1071
   4   2.0000     -76.426983     -2079.6839
   5   2.0000     -76.422838     -2079.5711
   6   2.0000     -18.797801      -511.5142
   7   2.0000     -18.794093      -511.4133
   8   2.0000     -18.788068      -511.2493
   9   2.0000     -18.782222      -511.0903
  10   2.0000      -9.962648      -271.0974
  11   2.0000      -9.956806      -270.9385
  12   2.0000      -9.955702      -270.9084
  13   2.0000      -9.951812      -270.8026
  14   2.0000      -9.938473      -270.4396
  15   2.0000      -9.896077      -269.2859
  16   2.0000      -9.890369      -269.1306
  17   2.0000      -9.883437      -268.9420
  18   2.0000      -9.876781      -268.7609
  19   2.0000      -7.685857      -209.1428
  20   2.0000      -7.680729      -209.0033
  21   2.0000      -7.633363      -207.7144
  22   2.0000      -7.626985      -207.5408
  23   2.0000      -6.424281      -174.8136
  24   2.0000      -6.420591      -174.7131
  25   2.0000      -5.713738      -155.4787
  26   2.0000      -5.710334      -155.3861
  27   2.0000      -5.708701      -155.3416
  28   2.0000      -5.705451      -155.2532
  29   2.0000      -5.702979      -155.1859
  30   2.0000      -5.697304      -155.0315
  31   2.0000      -5.662039      -154.0719
  32   2.0000      -5.656025      -153.9083
  33   2.0000      -5.654338      -153.8624
  34   2.0000      -5.653416      -153.8373
  35   2.0000      -5.647694      -153.6816
  36   2.0000      -5.646915      -153.6604
  37   2.0000      -4.647502      -126.4650
  38   2.0000      -4.646004      -126.4242
  39   2.0000      -4.644203      -126.3752
  40   2.0000      -4.642922      -126.3403
  41   2.0000      -4.642189      -126.3204
  42   2.0000      -4.641408      -126.2991
  43   2.0000      -0.992312       -27.0022
  44   2.0000      -0.980866       -26.6907
  45   2.0000      -0.948836       -25.8191
  46   2.0000      -0.938740       -25.5444
  47   2.0000      -0.760377       -20.6909
  48   2.0000      -0.723181       -19.6787
  49   2.0000      -0.710594       -19.3363
  50   2.0000      -0.694956       -18.9107
  51   2.0000      -0.681819       -18.5532
  52   2.0000      -0.670706       -18.2508
  53   2.0000      -0.650990       -17.7143
  54   2.0000      -0.638162       -17.3653
  55   2.0000      -0.599512       -16.3135
  56   2.0000      -0.590918       -16.0797
  57   2.0000      -0.578868       -15.7518
  58   2.0000      -0.563442       -15.3320
  59   2.0000      -0.559599       -15.2275
  60   2.0000      -0.512011       -13.9325
  61   2.0000      -0.493193       -13.4205
  62   2.0000      -0.478981       -13.0337
  63   2.0000      -0.472035       -12.8447
  64   2.0000      -0.464715       -12.6455
  65   2.0000      -0.445144       -12.1130
  66   2.0000      -0.441684       -12.0188
  67   2.0000      -0.430327       -11.7098
  68   2.0000      -0.424826       -11.5601
  69   2.0000      -0.418788       -11.3958
  70   2.0000      -0.399412       -10.8686
  71   2.0000      -0.397302       -10.8111
  72   2.0000      -0.390157       -10.6167
  73   2.0000      -0.383639       -10.4393
  74   2.0000      -0.379074       -10.3151
  75   2.0000      -0.375904       -10.2289
  76   2.0000      -0.366993        -9.9864
  77   2.0000      -0.366200        -9.9648
  78   2.0000      -0.361577        -9.8390
  79   2.0000      -0.353720        -9.6252
  80   2.0000      -0.349343        -9.5061
  81   2.0000      -0.347415        -9.4536
  82   2.0000      -0.340040        -9.2529
  83   2.0000      -0.333536        -9.0760
  84   2.0000      -0.330995        -9.0068
  85   2.0000      -0.322139        -8.7658
  86   2.0000      -0.312885        -8.5140
  87   2.0000      -0.307775        -8.3750
  88   2.0000      -0.295800        -8.0491
  89   2.0000      -0.287406        -7.8207
  90   2.0000      -0.281913        -7.6713
  91   2.0000      -0.273493        -7.4421
  92   2.0000      -0.271892        -7.3986
  93   2.0000      -0.261734        -7.1221
  94   2.0000      -0.256692        -6.9850
  95   2.0000      -0.238129        -6.4798
  96   2.0000      -0.215349        -5.8599
  97   2.0000      -0.211381        -5.7520
  98   2.0000      -0.204806        -5.5731
  99   2.0000      -0.194741        -5.2992
 100   2.0000      -0.188789        -5.1372
 101   0.0000      -0.048754        -1.3267
 102   0.0000      -0.022981        -0.6253
 103   0.0000      -0.015684        -0.4268
 104   0.0000       0.006657         0.1811
 105   0.0000       0.018359         0.4996

MULLIKEN ATOMIC CHARGES
-----------------------
   0 C :   -0.286705
   1 C :   -0.023190
   2 O :   -0.365437
   3 P :    0.600899
   4 S :   -0.287164
   5 O :   -0.383326
   6 C :    0.001734
   7 C :   -0.337798
   8 S :   -0.120197
   9 C :   -0.363756
  10 S :   -0.069479
  11 P :    0.642821
  12 S :   -0.347371
  13 O :   -0.374313
  14 C :   -0.001451
  15 C :   -0.320656
  16 O :   -0.361072
  17 C :   -0.042453
  18 C :   -0.290277
  19 H :    0.114790
  20 H :    0.124352
  21 H :    0.126812
  22 H :    0.114546
  23 H :    0.106821
  24 H :    0.105390
  25 H :    0.110755
  26 H :    0.117501
  27 H :    0.137737
  28 H :    0.122641
  29 H :    0.193815
  30 H :    0.187545
  31 H :    0.107660
  32 H :    0.111364
  33 H :    0.111517
  34 H :    0.132950
  35 H :    0.122533
  36 H :    0.119867
  37 H :    0.117745
  38 H :    0.105036
  39 H :    0.113439
  40 H :    0.124375
Sum of atomic charges:   -0.0000000

LOEWDIN ATOMIC CHARGES
----------------------
   0 C :   -0.350299
   1 C :   -0.114892
   2 O :   -0.239623
   3 P :    0.565095
   4 S :   -0.292036
   5 O :   -0.250023
   6 C :   -0.118667
   7 C :   -0.371588
   8 S :    0.065065
   9 C :   -0.482025
  10 S :    0.097815
  11 P :    0.578062
  12 S :   -0.325195
  13 O :   -0.242785
  14 C :   -0.112345
  15 C :   -0.364697
  16 O :   -0.236278
  17 C :   -0.129460
  18 C :   -0.360077
  19 H :    0.132331
  20 H :    0.125253
  21 H :    0.133169
  22 H :    0.119433
  23 H :    0.105967
  24 H :    0.119079
  25 H :    0.110740
  26 H :    0.133556
  27 H :    0.121012
  28 H :    0.126374
  29 H :    0.129571
  30 H :    0.127069
  31 H :    0.120209
  32 H :    0.111174
  33 H :    0.130573
  34 H :    0.125266
  35 H :    0.129254
  36 H :    0.100005
  37 H :    0.110525
  38 H :    0.127871
  39 H :    0.123772
  40 H :    0.121747

  Mayer bond orders larger than 0.100000
B(  0-C ,  1-C ) :   1.1592 B(  0-C , 19-H ) :   0.9399 B(  0-C , 20-H ) :   0.9466
B(  0-C , 21-H ) :   0.9460 B(  1-C ,  2-O ) :   0.8859 B(  1-C , 22-H ) :   0.9291
B(  1-C , 23-H ) :   0.9131 B(  2-O ,  3-P ) :   1.1209 B(  3-P ,  4-S ) :   1.6742
B(  3-P ,  5-O ) :   1.0713 B(  3-P ,  8-S ) :   0.9403 B(  4-S ,  8-S ) :   0.1062
B(  5-O ,  6-C ) :   0.9116 B(  6-C ,  7-C ) :   1.1633 B(  6-C , 24-H ) :   0.9328
B(  6-C , 25-H ) :   0.9129 B(  7-C , 26-H ) :   0.9376 B(  7-C , 27-H ) :   0.9291
B(  7-C , 28-H ) :   0.9427 B(  8-S ,  9-C ) :   0.9841 B(  9-C , 10-S ) :   1.0335
B(  9-C , 29-H ) :   0.8718 B(  9-C , 30-H ) :   0.8954 B( 10-S , 11-P ) :   0.9369
B( 10-S , 12-S ) :   0.1078 B( 11-P , 12-S ) :   1.5846 B( 11-P , 13-O ) :   1.1359
B( 11-P , 16-O ) :   1.1284 B( 13-O , 14-C ) :   0.9098 B( 14-C , 15-C ) :   1.1620
B( 14-C , 31-H ) :   0.9356 B( 14-C , 32-H ) :   0.9179 B( 15-C , 33-H ) :   0.9373
B( 15-C , 34-H ) :   0.9337 B( 15-C , 35-H ) :   0.9454 B( 16-O , 17-C ) :   0.8993
B( 17-C , 18-C ) :   1.1653 B( 17-C , 36-H ) :   0.8993 B( 17-C , 37-H ) :   0.9143
B( 18-C , 38-H ) :   0.9401 B( 18-C , 39-H ) :   0.9454 B( 18-C , 40-H ) :   0.9321

Dispersion correction           -0.066353076
FINAL SINGLE POINT ENERGY     -2929.518835458421

DIPOLE MOMENT
-------------

Method             : SCF
Type of density    : Electron Density
Multiplicity       :   1
Irrep              :   0
Energy             : -2929.6370529450077811 Eh
Relativity type    :
Basis              : AO
                                X                 Y                 Z
Electronic contribution:      4.040758964       7.442814576      -5.583307571
Nuclear contribution   :     -3.372516136      -8.137142835       5.512441947
                        -----------------------------------------
Total Dipole Moment    :      0.668242828      -0.694328259      -0.070865623
                        -----------------------------------------
Magnitude (a.u.)       :      0.966261944
Magnitude (Debye)      :      2.456042678

Rotational constants in cm-1:             0.012310             0.005264             0.004547
Rotational constants in MHz :           369.041809           157.797543           136.325046

                             ****ORCA TERMINATED NORMALLY****
TOTAL RUN TIME: 0 days 0 hours 0 minutes 20 seconds 940 msec
