                         Program Version 6.0.0  -   RELEASE  -
|  1> ! pbe def2-sv(p) def2/J RI DEFGRID1 loosescf d4 GCP(DFT/SV(P)) printgap
|  2> %output
|  3>     printlevel normal
|  4> end
|  5> * xyz 0 1
|  6> C -1.7438006234 -0.6661398378 2.31589e-05
|  7> C -0.4666331349 0.1178989499 -2.46961e-05
|  8> O -0.3951575483 1.3301406163 2.40555e-05
|  9> O 0.5937401217 -0.6821406601 1.09985e-05
| 10> C 1.9044024982 -0.1088852295 2.2618e-06
| 11> H -1.5262860109 -1.7284772369 0.0041897232
| 12> H -2.3222307541 -0.3987232184 -0.8805743238
| 13> H -2.3263631933 -0.3922148769 0.8758442198
| 14> H 2.4154046573 -0.4489100627 -0.8987959227
| 15> H 2.4217148695 -0.4665286566 0.8881806924
| 16> H 1.8322911268 0.9793074957 0.0105905516
| 17> *
| 18>
| 19>                          ****END OF INPUT****

CARTESIAN COORDINATES (ANGSTROEM)
---------------------------------
  C     -1.743801   -0.666140    0.000023
  C     -0.466633    0.117899   -0.000025
  O     -0.395158    1.330141    0.000024
  O      0.593740   -0.682141    0.000011
  C      1.904402   -0.108885    0.000002
  H     -1.526286   -1.728477    0.004190
  H     -2.322231   -0.398723   -0.880574
  H     -2.326363   -0.392215    0.875844
  H      2.415405   -0.448910   -0.898796
  H      2.421715   -0.466529    0.888181
  H      1.832291    0.979307    0.010591

 Total Charge           Charge          ....    0
 Multiplicity           Mult            ....    1
 Number of Electrons    NEL             ....   40
 Basis Dimension        Dim             ....   82

ORBITAL ENERGIES
----------------

  NO   OCC          E(Eh)            E(eV)
   0   2.0000     -18.800003      -511.5741
   1   2.0000     -18.731252      -509.7033
   2   2.0000     -10.006205      -272.2827
   3   2.0000      -9.938318      -270.4354
   4   2.0000      -9.891788      -269.1692
   5   2.0000      -1.003884       -27.3171
   6   2.0000      -0.907664       -24.6988
   7   2.0000      -0.696611       -18.9558
   8   2.0000      -0.633474       -17.2377
   9   2.0000      -0.508369       -13.8334
  10   2.0000      -0.442175       -12.0322
  11   2.0000      -0.437908       -11.9161
  12   2.0000      -0.414785       -11.2869
  13   2.0000      -0.389941       -10.6108
  14   2.0000      -0.362904        -9.8751
  15   2.0000      -0.357745        -9.7347
  16   2.0000      -0.326926        -8.8961
  17   2.0000      -0.297003        -8.0819
  18   2.0000      -0.254526        -6.9260
  19   2.0000      -0.219464        -5.9719
  20   0.0000      -0.017812        -0.4847
  21   0.0000       0.050796         1.3822
  22   0.0000       0.063202         1.7198
  23   0.0000       0.094238         2.5643
  24   0.0000       0.106987         2.9113

MULLIKEN ATOMIC CHARGES
-----------------------
   0 C :   -0.260455
   1 C :    0.078350
   2 O :   -0.210281
   3 O :   -0.241543
   4 C :   -0.133388
   5 H :    0.117609
   6 H :    0.135510
   7 H :    0.135412
   8 H :    0.122404
   9 H :    0.122412
  10 H :    0.133970
Sum of atomic charges:   -0.0000000

LOEWDIN ATOMIC CHARGES
----------------------
   0 C :   -0.359612
   1 C :    0.028825
   2 O :   -0.177205
   3 O :   -0.076994
   4 C :   -0.210359
   5 H :    0.133760
   6 H :    0.148069
   7 H :    0.147996
   8 H :    0.120510
   9 H :    0.120539
  10 H :    0.124472

  Mayer bond orders larger than 0.100000
B(  0-C ,  1-C ) :   1.0728 B(  0-C ,  5-H ) :   0.9389 B(  0-C ,  6-H ) :   0.9316
B(  0-C ,  7-H ) :   0.9317 B(  1-C ,  2-O ) :   2.0646 B(  1-C ,  3-O ) :   1.2171
B(  3-O ,  4-C ) :   0.9368 B(  4-C ,  8-H ) :   0.9608 B(  4-C ,  9-H ) :   0.9608
B(  4-C , 10-H ) :   0.9278

Dispersion correction           -0.006277396
FINAL SINGLE POINT ENERGY      -267.812341539756

DIPOLE MOMENT
-------------

Method             : SCF
Type of density    : Electron Density
Multiplicity       :   1
Irrep              :   0
Energy             :  -267.8565211396087875 Eh
Relativity type    :
Basis              : AO
                                X                 Y                 Z
Electronic contribution:     -0.203749892       1.625591758       0.000021094
Nuclear contribution   :      0.466904010      -2.294107990      -0.000529603
                        -----------------------------------------
Total Dipole Moment    :      0.263154118      -0.668516232      -0.000508509
                        -----------------------------------------
Magnitude (a.u.)       :      0.718445754
Magnitude (Debye)      :      1.826143981

Rotational constants in cm-1:             0.342142             0.137705             0.101945
Rotational constants in MHz :         10257.160348          4128.292817          3056.228612

                             ****ORCA TERMINATED NORMALLY****
TOTAL RUN TIME: 0 days 0 hours 0 minutes 4 seconds 723 msec
