                         Program Version 6.0.0  -   RELEASE  -
|  1> ! pbe def2-sv(p) def2/J RI DEFGRID1 loosescf d4 GCP(DFT/SV(P)) printgap
|  2> %output
|  3>     printlevel normal
|  4> end
|  5> * xyz 0 1
|  6> C 5.6653987607 1.2339886702 -0.4687189892
|  7> C 4.3466297371 0.7329686798 -1.0212683306
|  8> O 3.4879961489 0.42216364 0.0956331679
|  9> P 1.9263408914 0.2114745992 -0.102607867
| 10> S 1.0053625714 1.683576328 -1.0011696249
| 11> O 1.419443715 -0.0327802115 1.3653388372
| 12> C 1.964232386 -1.0513066801 2.2452052493
| 13> C 3.0072532502 -0.4582580341 3.1688552168
| 14> S 1.8802567292 -1.6675366851 -1.1057102441
| 15> C 0.114729261 -1.7411437048 -1.4763116799
| 16> S -0.9156057891 -1.8969749325 0.018008154
| 17> P -2.0156468347 -0.1015093616 -0.0762379855
| 18> S -2.2930566724 0.5761172957 -1.9014532961
| 19> O -1.281603579 0.7712087724 1.0166873121
| 20> C -1.8734076519 1.8859418157 1.7193953782
| 21> C -2.3638787188 2.9652680203 0.7781997037
| 22> O -3.365390094 -0.4595575991 0.6839535997
| 23> C -4.4661935542 -1.1219929168 0.0305060809
| 24> C -5.7483914016 -0.7049675264 0.722758405
| 25> H 6.3280237197 1.4717734856 -1.2942374024
| 26> H 5.5045548302 2.126287506 0.1297594864
| 27> H 6.1239455414 0.4691013005 0.1511216918
| 28> H 4.4788107617 -0.1774921046 -1.6117231336
| 29> H 3.8532861671 1.4915208576 -1.6378611835
| 30> H 1.0980982991 -1.4215101049 2.7974024398
| 31> H 2.3843492215 -1.8575757623 1.6373437251
| 32> H 3.8490639719 -0.0833907367 2.5930432652
| 33> H 2.579808509 0.361756052 3.7391596467
| 34> H 3.3525198356 -1.2286546179 3.8512442523
| 35> H -0.0286479059 -2.6339385419 -2.0794238487
| 36> H -0.1949486377 -0.8437847947 -2.0205703007
| 37> H -2.6863229879 1.5021183448 2.3398621929
| 38> H -1.0564605959 2.2460637392 2.3473421849
| 39> H -3.1827849307 2.5877994282 0.1665417764
| 40> H -2.7103114915 3.8189875766 1.3519136905
| 41> H -1.5580869728 3.2776252151 0.1156517183
| 42> H -4.468623115 -0.8342452347 -1.0264407395
| 43> H -4.3009078777 -2.1989832875 0.1104138041
| 44> H -5.7016005093 -0.9605877214 1.7773796312
| 45> H -5.897633508 0.3668748331 0.6247291354
| 46> H -6.5831311467 -1.2239962207 0.2634730032
| 47> *
| 48>
| 49>                          ****END OF INPUT****

CARTESIAN COORDINATES (ANGSTROEM)
---------------------------------
  C      5.665399    1.233989   -0.468719
  C      4.346630    0.732969   -1.021268
  O      3.487996    0.422164    0.095633
  P      1.926341    0.211475   -0.102608
  S      1.005363    1.683576   -1.001170
  O      1.419444   -0.032780    1.365339
  C      1.964232   -1.051307    2.245205
  C      3.007253   -0.458258    3.168855
  S      1.880257   -1.667537   -1.105710
  C      0.114729   -1.741144   -1.476312
  S     -0.915606   -1.896975    0.018008
  P     -2.015647   -0.101509   -0.076238
  S     -2.293057    0.576117   -1.901453
  O     -1.281604    0.771209    1.016687
  C     -1.873408    1.885942    1.719395
  C     -2.363879    2.965268    0.778200
  O     -3.365390   -0.459558    0.683954
  C     -4.466194   -1.121993    0.030506
  C     -5.748391   -0.704968    0.722758
  H      6.328024    1.471773   -1.294237
  H      5.504555    2.126288    0.129759
  H      6.123946    0.469101    0.151122
  H      4.478811   -0.177492   -1.611723
  H      3.853286    1.491521   -1.637861
  H      1.098098   -1.421510    2.797402
  H      2.384349   -1.857576    1.637344
  H      3.849064   -0.083391    2.593043
  H      2.579809    0.361756    3.739160
  H      3.352520   -1.228655    3.851244
  H     -0.028648   -2.633939   -2.079424
  H     -0.194949   -0.843785   -2.020570
  H     -2.686323    1.502118    2.339862
  H     -1.056461    2.246064    2.347342
  H     -3.182785    2.587799    0.166542
  H     -2.710311    3.818988    1.351914
  H     -1.558087    3.277625    0.115652
  H     -4.468623   -0.834245   -1.026441
  H     -4.300908   -2.198983    0.110414
  H     -5.701601   -0.960588    1.777380
  H     -5.897634    0.366875    0.624729
  H     -6.583131   -1.223996    0.263473

 Total Charge           Charge          ....    0
 Multiplicity           Mult            ....    1
 Number of Electrons    NEL             ....  202
 Basis Dimension        Dim             ....  334

ORBITAL ENERGIES
----------------

  NO   OCC          E(Eh)            E(eV)
   0   2.0000     -88.039174     -2395.6677
   1   2.0000     -88.037676     -2395.6270
   2   2.0000     -87.977627     -2393.9929
   3   2.0000     -87.975459     -2393.9339
   4   2.0000     -76.420372     -2079.5040
   5   2.0000     -76.420163     -2079.4984
   6   2.0000     -18.792376      -511.3666
   7   2.0000     -18.790699      -511.3209
   8   2.0000     -18.787585      -511.2362
   9   2.0000     -18.779105      -511.0054
  10   2.0000      -9.952210      -270.8134
  11   2.0000      -9.951275      -270.7880
  12   2.0000      -9.950775      -270.7744
  13   2.0000      -9.948579      -270.7146
  14   2.0000      -9.946452      -270.6567
  15   2.0000      -9.888891      -269.0904
  16   2.0000      -9.886975      -269.0383
  17   2.0000      -9.884408      -268.9684
  18   2.0000      -9.872994      -268.6578
  19   2.0000      -7.684407      -209.1033
  20   2.0000      -7.683002      -209.0651
  21   2.0000      -7.622625      -207.4222
  22   2.0000      -7.620621      -207.3676
  23   2.0000      -6.417722      -174.6351
  24   2.0000      -6.417620      -174.6323
  25   2.0000      -5.712158      -155.4357
  26   2.0000      -5.710843      -155.3999
  27   2.0000      -5.708731      -155.3425
  28   2.0000      -5.707500      -155.3090
  29   2.0000      -5.701689      -155.1509
  30   2.0000      -5.699959      -155.1038
  31   2.0000      -5.651492      -153.7849
  32   2.0000      -5.649637      -153.7345
  33   2.0000      -5.643446      -153.5660
  34   2.0000      -5.642619      -153.5435
  35   2.0000      -5.641119      -153.5027
  36   2.0000      -5.640743      -153.4924
  37   2.0000      -4.640602      -126.2772
  38   2.0000      -4.640465      -126.2735
  39   2.0000      -4.639632      -126.2508
  40   2.0000      -4.639158      -126.2379
  41   2.0000      -4.638073      -126.2084
  42   2.0000      -4.637720      -126.1988
  43   2.0000      -0.986063       -26.8321
  44   2.0000      -0.981823       -26.7168
  45   2.0000      -0.943019       -25.6609
  46   2.0000      -0.936657       -25.4877
  47   2.0000      -0.758785       -20.6476
  48   2.0000      -0.718753       -19.5583
  49   2.0000      -0.708149       -19.2697
  50   2.0000      -0.690965       -18.8021
  51   2.0000      -0.684631       -18.6298
  52   2.0000      -0.669596       -18.2206
  53   2.0000      -0.644847       -17.5472
  54   2.0000      -0.628202       -17.0942
  55   2.0000      -0.589680       -16.0460
  56   2.0000      -0.584777       -15.9126
  57   2.0000      -0.568789       -15.4775
  58   2.0000      -0.566909       -15.4264
  59   2.0000      -0.561641       -15.2830
  60   2.0000      -0.506492       -13.7823
  61   2.0000      -0.499078       -13.5806
  62   2.0000      -0.479009       -13.0345
  63   2.0000      -0.466297       -12.6886
  64   2.0000      -0.445843       -12.1320
  65   2.0000      -0.444479       -12.0949
  66   2.0000      -0.438640       -11.9360
  67   2.0000      -0.433607       -11.7990
  68   2.0000      -0.429716       -11.6932
  69   2.0000      -0.409465       -11.1421
  70   2.0000      -0.403679       -10.9847
  71   2.0000      -0.401081       -10.9140
  72   2.0000      -0.387223       -10.5369
  73   2.0000      -0.382406       -10.4058
  74   2.0000      -0.379296       -10.3212
  75   2.0000      -0.365396        -9.9429
  76   2.0000      -0.362163        -9.8550
  77   2.0000      -0.355676        -9.6784
  78   2.0000      -0.352262        -9.5855
  79   2.0000      -0.351225        -9.5573
  80   2.0000      -0.344024        -9.3614
  81   2.0000      -0.339342        -9.2340
  82   2.0000      -0.335960        -9.1419
  83   2.0000      -0.335194        -9.1211
  84   2.0000      -0.328459        -8.9378
  85   2.0000      -0.315391        -8.5822
  86   2.0000      -0.311949        -8.4886
  87   2.0000      -0.298488        -8.1223
  88   2.0000      -0.296571        -8.0701
  89   2.0000      -0.290629        -7.9084
  90   2.0000      -0.277856        -7.5608
  91   2.0000      -0.269821        -7.3422
  92   2.0000      -0.267631        -7.2826
  93   2.0000      -0.258969        -7.0469
  94   2.0000      -0.253797        -6.9062
  95   2.0000      -0.234762        -6.3882
  96   2.0000      -0.219863        -5.9828
  97   2.0000      -0.209672        -5.7055
  98   2.0000      -0.195750        -5.3266
  99   2.0000      -0.186362        -5.0712
 100   2.0000      -0.179135        -4.8745
 101   0.0000      -0.036314        -0.9882
 102   0.0000      -0.027584        -0.7506
 103   0.0000      -0.003362        -0.0915
 104   0.0000       0.015783         0.4295
 105   0.0000       0.022443         0.6107

MULLIKEN ATOMIC CHARGES
-----------------------
   0 C :   -0.282733
   1 C :   -0.012260
   2 O :   -0.384941
   3 P :    0.587651
   4 S :   -0.290942
   5 O :   -0.340804
   6 C :   -0.009398
   7 C :   -0.289131
   8 S :   -0.114345
   9 C :   -0.354589
  10 S :   -0.105721
  11 P :    0.627039
  12 S :   -0.312567
  13 O :   -0.350483
  14 C :    0.008922
  15 C :   -0.322266
  16 O :   -0.389230
  17 C :   -0.005741
  18 C :   -0.285505
  19 H :    0.113302
  20 H :    0.121927
  21 H :    0.115298
  22 H :    0.104358
  23 H :    0.107012
  24 H :    0.107960
  25 H :    0.100264
  26 H :    0.122077
  27 H :    0.116236
  28 H :    0.107896
  29 H :    0.180524
  30 H :    0.209194
  31 H :    0.102214
  32 H :    0.104877
  33 H :    0.122002
  34 H :    0.105115
  35 H :    0.137638
  36 H :    0.105238
  37 H :    0.099237
  38 H :    0.114483
  39 H :    0.118257
  40 H :    0.111933
Sum of atomic charges:    0.0000000

LOEWDIN ATOMIC CHARGES
----------------------
   0 C :   -0.350657
   1 C :   -0.121127
   2 O :   -0.252261
   3 P :    0.558698
   4 S :   -0.295759
   5 O :   -0.224304
   6 C :   -0.116343
   7 C :   -0.360008
   8 S :    0.059281
   9 C :   -0.480073
  10 S :    0.070359
  11 P :    0.569350
  12 S :   -0.302611
  13 O :   -0.229104
  14 C :   -0.107055
  15 C :   -0.369481
  16 O :   -0.252225
  17 C :   -0.122466
  18 C :   -0.351584
  19 H :    0.131529
  20 H :    0.129398
  21 H :    0.125105
  22 H :    0.108487
  23 H :    0.110316
  24 H :    0.118797
  25 H :    0.102501
  26 H :    0.125419
  27 H :    0.126877
  28 H :    0.128725
  29 H :    0.136715
  30 H :    0.126222
  31 H :    0.109341
  32 H :    0.120530
  33 H :    0.118679
  34 H :    0.126662
  35 H :    0.132437
  36 H :    0.105915
  37 H :    0.110628
  38 H :    0.125312
  39 H :    0.126918
  40 H :    0.130851

  Mayer bond orders larger than 0.100000
B(  0-C ,  1-C ) :   1.1593 B(  0-C , 19-H ) :   0.9420 B(  0-C , 20-H ) :   0.9509
B(  0-C , 21-H ) :   0.9509 B(  1-C ,  2-O ) :   0.9058 B(  1-C , 22-H ) :   0.9282
B(  1-C , 23-H ) :   0.9089 B(  2-O ,  3-P ) :   1.0702 B(  3-P ,  4-S ) :   1.6744
B(  3-P ,  5-O ) :   1.1475 B(  3-P ,  8-S ) :   0.9430 B(  4-S ,  8-S ) :   0.1071
B(  5-O ,  6-C ) :   0.8903 B(  6-C ,  7-C ) :   1.1635 B(  6-C , 24-H ) :   0.9331
B(  6-C , 25-H ) :   0.9099 B(  7-C , 26-H ) :   0.9408 B(  7-C , 27-H ) :   0.9474
B(  7-C , 28-H ) :   0.9402 B(  8-S ,  9-C ) :   0.9992 B(  9-C , 10-S ) :   0.9982
B(  9-C , 29-H ) :   0.9121 B(  9-C , 30-H ) :   0.8451 B( 10-S , 11-P ) :   0.9594
B( 10-S , 12-S ) :   0.1224 B( 11-P , 12-S ) :   1.6110 B( 11-P , 13-O ) :   1.1476
B( 11-P , 16-O ) :   1.0784 B( 13-O , 14-C ) :   0.9050 B( 14-C , 15-C ) :   1.1676
B( 14-C , 31-H ) :   0.9315 B( 14-C , 32-H ) :   0.9322 B( 15-C , 33-H ) :   0.9346
B( 15-C , 34-H ) :   0.9357 B( 15-C , 35-H ) :   0.9400 B( 16-O , 17-C ) :   0.9059
B( 17-C , 18-C ) :   1.1595 B( 17-C , 36-H ) :   0.9011 B( 17-C , 37-H ) :   0.9312
B( 18-C , 38-H ) :   0.9509 B( 18-C , 39-H ) :   0.9513 B( 18-C , 40-H ) :   0.9422

Dispersion correction           -0.065824121
FINAL SINGLE POINT ENERGY     -2929.516240124900

DIPOLE MOMENT
-------------

Method             : SCF
Type of density    : Electron Density
Multiplicity       :   1
Irrep              :   0
Energy             : -2929.6351672446480734 Eh
Relativity type    :
Basis              : AO
                                X                 Y                 Z
Electronic contribution:     -0.879861540      -6.525823503     -12.609846559
Nuclear contribution   :      1.202862153       5.818866277      13.762499210
                        -----------------------------------------
Total Dipole Moment    :      0.323000613      -0.706957226       1.152652651
                        -----------------------------------------
Magnitude (a.u.)       :      1.390225179
Magnitude (Debye)      :      3.533671580

Rotational constants in cm-1:             0.013697             0.004836             0.004766
Rotational constants in MHz :           410.622850           144.981734           142.868753

                             ****ORCA TERMINATED NORMALLY****
TOTAL RUN TIME: 0 days 0 hours 0 minutes 21 seconds 77 msec
