                         Program Version 6.0.0  -   RELEASE  -
|  1> ! pbe def2-sv(p) def2/J RI DEFGRID1 loosescf d4 GCP(DFT/SV(P)) printgap
|  2> %output
|  3>     printlevel normal
|  4> end
|  5> * xyz 0 1
|  6> C 5.4338039502 1.4598690198 -1.7917269228
|  7> C 4.1137128202 0.7165909617 -1.8365214281
|  8> O 3.8695128172 0.1603585471 -0.5295199202
|  9> P 2.4072646431 -0.0830954752 0.0118030347
| 10> S 1.1623469473 1.4028080848 -0.3314553104
| 11> O 2.8497450908 -0.3767844841 1.4989665074
| 12> C 2.045793127 -1.025790896 2.5005482024
| 13> C 1.1079177781 -0.0514946321 3.1860025102
| 14> S 1.8355631583 -1.9543918993 -0.8263947895
| 15> C 0.0778529404 -1.6616448845 -1.1225263224
| 16> S -0.9011486677 -1.6216544652 0.4236722142
| 17> P -2.1194094695 0.06867713 0.0674739262
| 18> S -2.1616531563 0.7322539683 -1.7807707484
| 19> O -1.6607163291 1.078217946 1.1948093186
| 20> C -1.8362483698 2.5011934089 1.0652036283
| 21> C -3.2993533023 2.8849239323 1.109718289
| 22> O -3.509973283 -0.3964468741 0.6876437262
| 23> C -4.323926699 -1.4312015213 0.1055704685
| 24> C -5.3185099432 -0.859234548 -0.8864964491
| 25> H 6.227477585 0.7832052919 -1.4892650362
| 26> H 5.6528643164 1.8578387472 -2.7771163298
| 27> H 5.3777187018 2.2772196093 -1.0781448035
| 28> H 4.1466427603 -0.1098028811 -2.5512679571
| 29> H 3.2880097231 1.3882802229 -2.0988712471
| 30> H 1.4882165364 -1.8506721396 2.0441840844
| 31> H 2.7792901781 -1.4266632948 3.202650394
| 32> H 0.3721011921 0.3331340772 2.4818641074
| 33> H 0.5865785992 -0.5622875111 3.9891710809
| 34> H 1.6693574708 0.7855796933 3.5923321151
| 35> H -0.2608274978 -2.4996902907 -1.7260070462
| 36> H -0.0676029589 -0.7126984718 -1.6456618688
| 37> H -1.2775673961 2.912672579 1.9069656194
| 38> H -1.3688573966 2.8243905141 0.1286553948
| 39> H -3.7592619095 2.4982295705 2.0152900581
| 40> H -3.3900069364 3.9662414305 1.0859656263
| 41> H -3.8139205899 2.4657045554 0.2455709729
| 42> H -3.6767627626 -2.173867504 -0.3708506563
| 43> H -4.8314825797 -1.8869923752 0.957898148
| 44> H -4.7968245438 -0.3945837278 -1.7202176635
| 45> H -5.946813328 -1.6594747877 -1.2638793279
| 46> H -5.9409536808 -0.1116170362 -0.4028508706
| 47> *
| 48>
| 49>                          ****END OF INPUT****

CARTESIAN COORDINATES (ANGSTROEM)
---------------------------------
  C      5.433804    1.459869   -1.791727
  C      4.113713    0.716591   -1.836521
  O      3.869513    0.160359   -0.529520
  P      2.407265   -0.083095    0.011803
  S      1.162347    1.402808   -0.331455
  O      2.849745   -0.376784    1.498967
  C      2.045793   -1.025791    2.500548
  C      1.107918   -0.051495    3.186003
  S      1.835563   -1.954392   -0.826395
  C      0.077853   -1.661645   -1.122526
  S     -0.901149   -1.621654    0.423672
  P     -2.119409    0.068677    0.067474
  S     -2.161653    0.732254   -1.780771
  O     -1.660716    1.078218    1.194809
  C     -1.836248    2.501193    1.065204
  C     -3.299353    2.884924    1.109718
  O     -3.509973   -0.396447    0.687644
  C     -4.323927   -1.431202    0.105570
  C     -5.318510   -0.859235   -0.886496
  H      6.227478    0.783205   -1.489265
  H      5.652864    1.857839   -2.777116
  H      5.377719    2.277220   -1.078145
  H      4.146643   -0.109803   -2.551268
  H      3.288010    1.388280   -2.098871
  H      1.488217   -1.850672    2.044184
  H      2.779290   -1.426663    3.202650
  H      0.372101    0.333134    2.481864
  H      0.586579   -0.562288    3.989171
  H      1.669357    0.785580    3.592332
  H     -0.260827   -2.499690   -1.726007
  H     -0.067603   -0.712698   -1.645662
  H     -1.277567    2.912673    1.906966
  H     -1.368857    2.824391    0.128655
  H     -3.759262    2.498230    2.015290
  H     -3.390007    3.966241    1.085966
  H     -3.813921    2.465705    0.245571
  H     -3.676763   -2.173868   -0.370851
  H     -4.831483   -1.886992    0.957898
  H     -4.796825   -0.394584   -1.720218
  H     -5.946813   -1.659475   -1.263879
  H     -5.940954   -0.111617   -0.402851

 Total Charge           Charge          ....    0
 Multiplicity           Mult            ....    1
 Number of Electrons    NEL             ....  202
 Basis Dimension        Dim             ....  334

ORBITAL ENERGIES
----------------

  NO   OCC          E(Eh)            E(eV)
   0   2.0000     -88.046674     -2395.8718
   1   2.0000     -88.045509     -2395.8401
   2   2.0000     -87.988684     -2394.2938
   3   2.0000     -87.984216     -2394.1722
   4   2.0000     -76.427534     -2079.6989
   5   2.0000     -76.424924     -2079.6279
   6   2.0000     -18.791301      -511.3373
   7   2.0000     -18.788987      -511.2743
   8   2.0000     -18.788173      -511.2522
   9   2.0000     -18.788004      -511.2476
  10   2.0000      -9.955351      -270.8989
  11   2.0000      -9.953967      -270.8612
  12   2.0000      -9.949374      -270.7362
  13   2.0000      -9.948992      -270.7258
  14   2.0000      -9.947208      -270.6773
  15   2.0000      -9.884243      -268.9639
  16   2.0000      -9.880810      -268.8705
  17   2.0000      -9.879971      -268.8477
  18   2.0000      -9.873587      -268.6740
  19   2.0000      -7.691715      -209.3022
  20   2.0000      -7.690199      -209.2610
  21   2.0000      -7.633563      -207.7198
  22   2.0000      -7.628748      -207.5888
  23   2.0000      -6.424802      -174.8277
  24   2.0000      -6.422194      -174.7568
  25   2.0000      -5.719635      -155.6392
  26   2.0000      -5.718005      -155.5948
  27   2.0000      -5.715886      -155.5372
  28   2.0000      -5.714737      -155.5059
  29   2.0000      -5.709032      -155.3507
  30   2.0000      -5.707237      -155.3018
  31   2.0000      -5.662480      -154.0839
  32   2.0000      -5.657590      -153.9508
  33   2.0000      -5.654274      -153.8606
  34   2.0000      -5.653622      -153.8429
  35   2.0000      -5.649303      -153.7253
  36   2.0000      -5.649102      -153.7199
  37   2.0000      -4.647031      -126.4521
  38   2.0000      -4.646583      -126.4400
  39   2.0000      -4.645616      -126.4136
  40   2.0000      -4.644500      -126.3833
  41   2.0000      -4.644406      -126.3807
  42   2.0000      -4.642443      -126.3273
  43   2.0000      -0.987201       -26.8631
  44   2.0000      -0.986625       -26.8474
  45   2.0000      -0.943942       -25.6860
  46   2.0000      -0.942149       -25.6372
  47   2.0000      -0.762261       -20.7422
  48   2.0000      -0.721147       -19.6234
  49   2.0000      -0.709788       -19.3143
  50   2.0000      -0.684412       -18.6238
  51   2.0000      -0.680464       -18.5164
  52   2.0000      -0.675100       -18.3704
  53   2.0000      -0.650095       -17.6900
  54   2.0000      -0.636666       -17.3246
  55   2.0000      -0.598774       -16.2935
  56   2.0000      -0.591064       -16.0837
  57   2.0000      -0.570426       -15.5221
  58   2.0000      -0.564190       -15.3524
  59   2.0000      -0.557977       -15.1833
  60   2.0000      -0.505014       -13.7421
  61   2.0000      -0.496566       -13.5122
  62   2.0000      -0.472821       -12.8661
  63   2.0000      -0.471687       -12.8353
  64   2.0000      -0.450352       -12.2547
  65   2.0000      -0.442929       -12.0527
  66   2.0000      -0.438405       -11.9296
  67   2.0000      -0.435901       -11.8615
  68   2.0000      -0.426827       -11.6145
  69   2.0000      -0.411631       -11.2010
  70   2.0000      -0.403927       -10.9914
  71   2.0000      -0.402379       -10.9493
  72   2.0000      -0.399601       -10.8737
  73   2.0000      -0.387303       -10.5391
  74   2.0000      -0.377411       -10.2699
  75   2.0000      -0.372012       -10.1230
  76   2.0000      -0.364470        -9.9177
  77   2.0000      -0.355381        -9.6704
  78   2.0000      -0.351050        -9.5526
  79   2.0000      -0.347528        -9.4567
  80   2.0000      -0.343456        -9.3459
  81   2.0000      -0.338379        -9.2078
  82   2.0000      -0.337940        -9.1958
  83   2.0000      -0.333405        -9.0724
  84   2.0000      -0.329552        -8.9676
  85   2.0000      -0.314665        -8.5625
  86   2.0000      -0.312725        -8.5097
  87   2.0000      -0.297039        -8.0828
  88   2.0000      -0.295600        -8.0437
  89   2.0000      -0.289569        -7.8796
  90   2.0000      -0.283362        -7.7107
  91   2.0000      -0.273614        -7.4454
  92   2.0000      -0.266468        -7.2510
  93   2.0000      -0.264311        -7.1923
  94   2.0000      -0.256804        -6.9880
  95   2.0000      -0.240792        -6.5523
  96   2.0000      -0.224155        -6.0996
  97   2.0000      -0.214413        -5.8345
  98   2.0000      -0.203755        -5.5444
  99   2.0000      -0.199790        -5.4366
 100   2.0000      -0.190013        -5.1705
 101   0.0000      -0.045210        -1.2302
 102   0.0000      -0.036295        -0.9876
 103   0.0000      -0.009054        -0.2464
 104   0.0000       0.011003         0.2994
 105   0.0000       0.016005         0.4355

MULLIKEN ATOMIC CHARGES
-----------------------
   0 C :   -0.280494
   1 C :   -0.009496
   2 O :   -0.360118
   3 P :    0.604178
   4 S :   -0.326809
   5 O :   -0.351507
   6 C :   -0.010438
   7 C :   -0.324699
   8 S :   -0.118670
   9 C :   -0.338932
  10 S :   -0.111490
  11 P :    0.624067
  12 S :   -0.316263
  13 O :   -0.356369
  14 C :   -0.006496
  15 C :   -0.302401
  16 O :   -0.369482
  17 C :   -0.007162
  18 C :   -0.295804
  19 H :    0.116578
  20 H :    0.110525
  21 H :    0.120410
  22 H :    0.099418
  23 H :    0.106718
  24 H :    0.107992
  25 H :    0.104353
  26 H :    0.156402
  27 H :    0.103422
  28 H :    0.111262
  29 H :    0.178918
  30 H :    0.211942
  31 H :    0.106333
  32 H :    0.123067
  33 H :    0.114629
  34 H :    0.111322
  35 H :    0.124001
  36 H :    0.095167
  37 H :    0.106542
  38 H :    0.129111
  39 H :    0.106391
  40 H :    0.113884
Sum of atomic charges:    0.0000000

LOEWDIN ATOMIC CHARGES
----------------------
   0 C :   -0.350396
   1 C :   -0.121222
   2 O :   -0.237325
   3 P :    0.561507
   4 S :   -0.301193
   5 O :   -0.229876
   6 C :   -0.116639
   7 C :   -0.370128
   8 S :    0.070816
   9 C :   -0.478876
  10 S :    0.079545
  11 P :    0.574716
  12 S :   -0.300304
  13 O :   -0.229354
  14 C :   -0.117090
  15 C :   -0.365669
  16 O :   -0.245294
  17 C :   -0.117677
  18 C :   -0.365325
  19 H :    0.126765
  20 H :    0.129991
  21 H :    0.129164
  22 H :    0.110297
  23 H :    0.106675
  24 H :    0.097279
  25 H :    0.118143
  26 H :    0.124177
  27 H :    0.127720
  28 H :    0.125069
  29 H :    0.134721
  30 H :    0.124108
  31 H :    0.119686
  32 H :    0.110151
  33 H :    0.125579
  34 H :    0.130473
  35 H :    0.121582
  36 H :    0.102861
  37 H :    0.118633
  38 H :    0.123253
  39 H :    0.128149
  40 H :    0.125308

  Mayer bond orders larger than 0.100000
B(  0-C ,  1-C ) :   1.1612 B(  0-C , 19-H ) :   0.9509 B(  0-C , 20-H ) :   0.9421
B(  0-C , 21-H ) :   0.9509 B(  1-C ,  2-O ) :   0.9079 B(  1-C , 22-H ) :   0.9313
B(  1-C , 23-H ) :   0.9030 B(  2-O ,  3-P ) :   1.1289 B(  3-P ,  4-S ) :   1.6353
B(  3-P ,  5-O ) :   1.1407 B(  3-P ,  8-S ) :   0.9285 B(  4-S ,  8-S ) :   0.1196
B(  5-O ,  6-C ) :   0.9140 B(  6-C ,  7-C ) :   1.1642 B(  6-C , 24-H ) :   0.9071
B(  6-C , 25-H ) :   0.9348 B(  7-C , 26-H ) :   0.9222 B(  7-C , 27-H ) :   0.9389
B(  7-C , 28-H ) :   0.9452 B(  8-S ,  9-C ) :   1.0107 B(  9-C , 10-S ) :   0.9847
B(  9-C , 29-H ) :   0.9087 B(  9-C , 30-H ) :   0.8468 B( 10-S , 11-P ) :   0.9534
B( 10-S , 12-S ) :   0.1174 B( 11-P , 12-S ) :   1.6003 B( 11-P , 13-O ) :   1.1311
B( 11-P , 16-O ) :   1.1034 B( 13-O , 14-C ) :   0.8960 B( 14-C , 15-C ) :   1.1626
B( 14-C , 31-H ) :   0.9340 B( 14-C , 32-H ) :   0.9146 B( 15-C , 33-H ) :   0.9453
B( 15-C , 34-H ) :   0.9389 B( 15-C , 35-H ) :   0.9335 B( 16-O , 17-C ) :   0.9118
B( 17-C , 18-C ) :   1.1653 B( 17-C , 36-H ) :   0.9134 B( 17-C , 37-H ) :   0.9366
B( 18-C , 38-H ) :   0.9303 B( 18-C , 39-H ) :   0.9395 B( 18-C , 40-H ) :   0.9467

Dispersion correction           -0.065768736
FINAL SINGLE POINT ENERGY     -2929.524486382227

DIPOLE MOMENT
-------------

Method             : SCF
Type of density    : Electron Density
Multiplicity       :   1
Irrep              :   0
Energy             : -2929.6430175879713715 Eh
Relativity type    :
Basis              : AO
                                X                 Y                 Z
Electronic contribution:      7.041997545      -8.703208488      -3.971798491
Nuclear contribution   :     -7.308664681       8.227471737       4.290758350
                        -----------------------------------------
Total Dipole Moment    :     -0.266667136      -0.475736752       0.318959859
                        -----------------------------------------
Magnitude (a.u.)       :      0.631800768
Magnitude (Debye)      :      1.605909928

Rotational constants in cm-1:             0.013010             0.004738             0.004658
Rotational constants in MHz :           390.025900           142.031894           139.642416

                             ****ORCA TERMINATED NORMALLY****
TOTAL RUN TIME: 0 days 0 hours 0 minutes 20 seconds 886 msec
