                         Program Version 6.0.0  -   RELEASE  -
|  1> ! pbe def2-sv(p) def2/J RI DEFGRID1 loosescf d4 GCP(DFT/SV(P)) printgap
|  2> %output
|  3>     printlevel normal
|  4> end
|  5> * xyz 0 1
|  6> C 4.9123364918 1.3554852515 -0.9783638088
|  7> C 4.492071145 -0.0709744121 -1.2631424324
|  8> O 3.6595406129 -0.6277025931 -0.228317359
|  9> P 2.3303334024 0.030306291 0.3457072946
| 10> S 2.50331867 1.5073148866 1.6138380664
| 11> O 1.6605720065 -1.2108866482 1.050975548
| 12> C 1.545613884 -2.5165052668 0.4272606825
| 13> C 0.6602540792 -3.3707944244 1.3084388623
| 14> S 1.2092982342 0.4426390261 -1.423329464
| 15> C 0.0743774898 1.6400940518 -0.6707353823
| 16> S -0.8920111174 0.977319134 0.7093957646
| 17> P -2.2911937274 -0.1638618225 -0.4424138532
| 18> S -1.5914166226 -1.7262453537 -1.385960545
| 19> O -2.9754091545 0.8558299045 -1.4331272916
| 20> C -3.9614640857 1.8572839187 -1.0681190231
| 21> C -3.3178763948 3.1921963093 -0.7500228679
| 22> O -3.4517504437 -0.4756639987 0.5981393803
| 23> C -3.4023674334 -1.6011094543 1.4917381168
| 24> C -2.5868189975 -1.2942398422 2.7320496838
| 25> H 4.042527168 2.0107305339 -0.9781717288
| 26> H 5.391247252 1.4226289709 -0.0044187917
| 27> H 5.6054124814 1.6860284338 -1.7452348577
| 28> H 5.351594312 -0.7432569397 -1.2879555767
| 29> H 3.945326102 -0.1332689878 -2.2083541352
| 30> H 1.1090565646 -2.3951510173 -0.5692512094
| 31> H 2.549487736 -2.9343658852 0.3364863475
| 32> H -0.3507392043 -2.9731111335 1.3174651743
| 33> H 0.6363468307 -4.3799043649 0.910556695
| 34> H 1.0465492056 -3.3857084882 2.3234039394
| 35> H -0.5876816134 1.9746520378 -1.4663618872
| 36> H 0.6529475133 2.4643662833 -0.2543564063
| 37> H -4.5957611231 1.9254221339 -1.9535424991
| 38> H -4.5429834621 1.4859969322 -0.2238001167
| 39> H -2.696903221 3.121276674 0.1398236472
| 40> H -2.7085349574 3.5291182096 -1.5847664541
| 41> H -4.1018068939 3.9218340503 -0.5717809678
| 42> H -4.4477477482 -1.7899390097 1.7412757173
| 43> H -2.9939151314 -2.4598174401 0.9477970937
| 44> H -2.9793284028 -0.4126652012 3.2316532536
| 45> H -2.6326883453 -2.1412939207 3.4091126544
| 46> H -1.546072687 -1.1058765811 2.4717960894
| 47> *
| 48>
| 49>                          ****END OF INPUT****

CARTESIAN COORDINATES (ANGSTROEM)
---------------------------------
  C      4.912336    1.355485   -0.978364
  C      4.492071   -0.070974   -1.263142
  O      3.659541   -0.627703   -0.228317
  P      2.330333    0.030306    0.345707
  S      2.503319    1.507315    1.613838
  O      1.660572   -1.210887    1.050976
  C      1.545614   -2.516505    0.427261
  C      0.660254   -3.370794    1.308439
  S      1.209298    0.442639   -1.423329
  C      0.074377    1.640094   -0.670735
  S     -0.892011    0.977319    0.709396
  P     -2.291194   -0.163862   -0.442414
  S     -1.591417   -1.726245   -1.385961
  O     -2.975409    0.855830   -1.433127
  C     -3.961464    1.857284   -1.068119
  C     -3.317876    3.192196   -0.750023
  O     -3.451750   -0.475664    0.598139
  C     -3.402367   -1.601109    1.491738
  C     -2.586819   -1.294240    2.732050
  H      4.042527    2.010731   -0.978172
  H      5.391247    1.422629   -0.004419
  H      5.605412    1.686028   -1.745235
  H      5.351594   -0.743257   -1.287956
  H      3.945326   -0.133269   -2.208354
  H      1.109057   -2.395151   -0.569251
  H      2.549488   -2.934366    0.336486
  H     -0.350739   -2.973111    1.317465
  H      0.636347   -4.379904    0.910557
  H      1.046549   -3.385708    2.323404
  H     -0.587682    1.974652   -1.466362
  H      0.652948    2.464366   -0.254356
  H     -4.595761    1.925422   -1.953542
  H     -4.542983    1.485997   -0.223800
  H     -2.696903    3.121277    0.139824
  H     -2.708535    3.529118   -1.584766
  H     -4.101807    3.921834   -0.571781
  H     -4.447748   -1.789939    1.741276
  H     -2.993915   -2.459817    0.947797
  H     -2.979328   -0.412665    3.231653
  H     -2.632688   -2.141294    3.409113
  H     -1.546073   -1.105877    2.471796

 Total Charge           Charge          ....    0
 Multiplicity           Mult            ....    1
 Number of Electrons    NEL             ....  202
 Basis Dimension        Dim             ....  334

ORBITAL ENERGIES
----------------

  NO   OCC          E(Eh)            E(eV)
   0   2.0000     -88.042222     -2395.7507
   1   2.0000     -88.038116     -2395.6389
   2   2.0000     -87.984501     -2394.1800
   3   2.0000     -87.979455     -2394.0427
   4   2.0000     -76.427858     -2079.7078
   5   2.0000     -76.421796     -2079.5428
   6   2.0000     -18.798193      -511.5248
   7   2.0000     -18.796243      -511.4718
   8   2.0000     -18.790871      -511.3256
   9   2.0000     -18.782221      -511.0902
  10   2.0000      -9.960907      -271.0501
  11   2.0000      -9.956793      -270.9381
  12   2.0000      -9.956732      -270.9364
  13   2.0000      -9.956356      -270.9262
  14   2.0000      -9.941836      -270.5311
  15   2.0000      -9.892088      -269.1774
  16   2.0000      -9.887569      -269.0544
  17   2.0000      -9.881362      -268.8855
  18   2.0000      -9.878416      -268.8054
  19   2.0000      -7.686349      -209.1562
  20   2.0000      -7.683049      -209.0664
  21   2.0000      -7.629619      -207.6125
  22   2.0000      -7.624806      -207.4815
  23   2.0000      -6.425401      -174.8440
  24   2.0000      -6.418775      -174.6638
  25   2.0000      -5.714130      -155.4894
  26   2.0000      -5.711069      -155.4061
  27   2.0000      -5.710784      -155.3983
  28   2.0000      -5.707574      -155.3110
  29   2.0000      -5.703350      -155.1960
  30   2.0000      -5.700163      -155.1093
  31   2.0000      -5.658515      -153.9760
  32   2.0000      -5.653844      -153.8489
  33   2.0000      -5.650454      -153.7567
  34   2.0000      -5.649549      -153.7321
  35   2.0000      -5.645337      -153.6174
  36   2.0000      -5.644894      -153.6054
  37   2.0000      -4.648662      -126.4965
  38   2.0000      -4.647064      -126.4530
  39   2.0000      -4.645308      -126.4053
  40   2.0000      -4.641648      -126.3057
  41   2.0000      -4.640762      -126.2816
  42   2.0000      -4.638867      -126.2300
  43   2.0000      -0.992558       -27.0089
  44   2.0000      -0.982784       -26.7429
  45   2.0000      -0.949550       -25.8386
  46   2.0000      -0.937402       -25.5080
  47   2.0000      -0.762259       -20.7421
  48   2.0000      -0.721777       -19.6405
  49   2.0000      -0.710155       -19.3243
  50   2.0000      -0.694624       -18.9017
  51   2.0000      -0.685811       -18.6619
  52   2.0000      -0.673755       -18.3338
  53   2.0000      -0.649494       -17.6736
  54   2.0000      -0.636502       -17.3201
  55   2.0000      -0.595332       -16.1998
  56   2.0000      -0.585717       -15.9382
  57   2.0000      -0.583736       -15.8843
  58   2.0000      -0.565666       -15.3925
  59   2.0000      -0.560751       -15.2588
  60   2.0000      -0.505980       -13.7684
  61   2.0000      -0.499857       -13.6018
  62   2.0000      -0.480264       -13.0686
  63   2.0000      -0.469219       -12.7681
  64   2.0000      -0.463296       -12.6069
  65   2.0000      -0.449734       -12.2379
  66   2.0000      -0.442219       -12.0334
  67   2.0000      -0.433158       -11.7868
  68   2.0000      -0.425384       -11.5753
  69   2.0000      -0.416458       -11.3324
  70   2.0000      -0.412365       -11.2210
  71   2.0000      -0.401481       -10.9248
  72   2.0000      -0.390813       -10.6346
  73   2.0000      -0.381447       -10.3797
  74   2.0000      -0.379422       -10.3246
  75   2.0000      -0.374156       -10.1813
  76   2.0000      -0.364143        -9.9088
  77   2.0000      -0.362330        -9.8595
  78   2.0000      -0.355194        -9.6653
  79   2.0000      -0.349522        -9.5110
  80   2.0000      -0.346304        -9.4234
  81   2.0000      -0.343092        -9.3360
  82   2.0000      -0.340984        -9.2786
  83   2.0000      -0.332309        -9.0426
  84   2.0000      -0.331879        -9.0309
  85   2.0000      -0.325342        -8.8530
  86   2.0000      -0.313957        -8.5432
  87   2.0000      -0.306233        -8.3330
  88   2.0000      -0.295058        -8.0289
  89   2.0000      -0.293555        -7.9880
  90   2.0000      -0.289604        -7.8805
  91   2.0000      -0.274592        -7.4720
  92   2.0000      -0.268346        -7.3021
  93   2.0000      -0.264550        -7.1988
  94   2.0000      -0.254360        -6.9215
  95   2.0000      -0.239319        -6.5122
  96   2.0000      -0.217376        -5.9151
  97   2.0000      -0.207160        -5.6371
  98   2.0000      -0.198191        -5.3930
  99   2.0000      -0.195383        -5.3166
 100   2.0000      -0.187462        -5.1011
 101   0.0000      -0.042796        -1.1645
 102   0.0000      -0.025999        -0.7075
 103   0.0000      -0.007050        -0.1918
 104   0.0000       0.000218         0.0059
 105   0.0000       0.014212         0.3867

MULLIKEN ATOMIC CHARGES
-----------------------
   0 C :   -0.308510
   1 C :   -0.008019
   2 O :   -0.384885
   3 P :    0.607829
   4 S :   -0.317586
   5 O :   -0.355766
   6 C :   -0.020984
   7 C :   -0.292480
   8 S :   -0.094749
   9 C :   -0.357232
  10 S :   -0.085093
  11 P :    0.613610
  12 S :   -0.307629
  13 O :   -0.370250
  14 C :   -0.008681
  15 C :   -0.317923
  16 O :   -0.384283
  17 C :   -0.017798
  18 C :   -0.331240
  19 H :    0.122637
  20 H :    0.127206
  21 H :    0.110091
  22 H :    0.107850
  23 H :    0.112555
  24 H :    0.121263
  25 H :    0.101467
  26 H :    0.124792
  27 H :    0.105927
  28 H :    0.114817
  29 H :    0.185742
  30 H :    0.194007
  31 H :    0.112715
  32 H :    0.116584
  33 H :    0.130151
  34 H :    0.122562
  35 H :    0.114838
  36 H :    0.106244
  37 H :    0.118886
  38 H :    0.117782
  39 H :    0.115856
  40 H :    0.157695
Sum of atomic charges:    0.0000000

LOEWDIN ATOMIC CHARGES
----------------------
   0 C :   -0.369454
   1 C :   -0.114319
   2 O :   -0.246373
   3 P :    0.567903
   4 S :   -0.314373
   5 O :   -0.234949
   6 C :   -0.118698
   7 C :   -0.352971
   8 S :    0.069912
   9 C :   -0.481142
  10 S :    0.091059
  11 P :    0.564590
  12 S :   -0.302759
  13 O :   -0.243452
  14 C :   -0.109153
  15 C :   -0.366586
  16 O :   -0.245701
  17 C :   -0.119894
  18 C :   -0.369281
  19 H :    0.119954
  20 H :    0.130371
  21 H :    0.129406
  22 H :    0.120608
  23 H :    0.108595
  24 H :    0.106309
  25 H :    0.109890
  26 H :    0.120914
  27 H :    0.129679
  28 H :    0.126320
  29 H :    0.129846
  30 H :    0.132059
  31 H :    0.122791
  32 H :    0.115646
  33 H :    0.120899
  34 H :    0.125744
  35 H :    0.132705
  36 H :    0.119418
  37 H :    0.108923
  38 H :    0.127009
  39 H :    0.133162
  40 H :    0.125392

  Mayer bond orders larger than 0.100000
B(  0-C ,  1-C ) :   1.1666 B(  0-C , 19-H ) :   0.9327 B(  0-C , 20-H ) :   0.9427
B(  0-C , 21-H ) :   0.9349 B(  1-C ,  2-O ) :   0.9148 B(  1-C , 22-H ) :   0.9335
B(  1-C , 23-H ) :   0.9267 B(  2-O ,  3-P ) :   1.0834 B(  3-P ,  4-S ) :   1.6316
B(  3-P ,  5-O ) :   1.1389 B(  3-P ,  8-S ) :   0.9476 B(  4-S ,  8-S ) :   0.1111
B(  5-O ,  6-C ) :   0.8888 B(  6-C ,  7-C ) :   1.1700 B(  6-C , 24-H ) :   0.9059
B(  6-C , 25-H ) :   0.9289 B(  7-C , 26-H ) :   0.9317 B(  7-C , 27-H ) :   0.9398
B(  7-C , 28-H ) :   0.9489 B(  8-S ,  9-C ) :   1.0071 B(  9-C , 10-S ) :   0.9972
B(  9-C , 29-H ) :   0.8897 B(  9-C , 30-H ) :   0.8847 B( 10-S , 11-P ) :   0.9484
B( 10-S , 12-S ) :   0.1112 B( 11-P , 12-S ) :   1.6707 B( 11-P , 13-O ) :   1.1140
B( 11-P , 16-O ) :   1.0765 B( 13-O , 14-C ) :   0.8968 B( 14-C , 15-C ) :   1.1693
B( 14-C , 31-H ) :   0.9351 B( 14-C , 32-H ) :   0.9190 B( 15-C , 33-H ) :   0.9315
B( 15-C , 34-H ) :   0.9422 B( 15-C , 35-H ) :   0.9376 B( 16-O , 17-C ) :   0.9066
B( 17-C , 18-C ) :   1.1675 B( 17-C , 36-H ) :   0.9320 B( 17-C , 37-H ) :   0.9079
B( 18-C , 38-H ) :   0.9445 B( 18-C , 39-H ) :   0.9392 B( 18-C , 40-H ) :   0.9226

Dispersion correction           -0.066398033
FINAL SINGLE POINT ENERGY     -2929.517824304070

DIPOLE MOMENT
-------------

Method             : SCF
Type of density    : Electron Density
Multiplicity       :   1
Irrep              :   0
Energy             : -2929.6362959895122913 Eh
Relativity type    :
Basis              : AO
                                X                 Y                 Z
Electronic contribution:      2.992967949       1.268248573      -4.164373106
Nuclear contribution   :     -3.702350978      -1.168200746       3.835509815
                        -----------------------------------------
Total Dipole Moment    :     -0.709383029       0.100047827      -0.328863290
                        -----------------------------------------
Magnitude (a.u.)       :      0.788279718
Magnitude (Debye)      :      2.003647810

Rotational constants in cm-1:             0.011913             0.005397             0.004732
Rotational constants in MHz :           357.144620           161.792007           141.850088

                             ****ORCA TERMINATED NORMALLY****
TOTAL RUN TIME: 0 days 0 hours 0 minutes 21 seconds 319 msec
