                         Program Version 6.0.0  -   RELEASE  -
|  1> ! pbe def2-sv(p) def2/J RI DEFGRID1 loosescf d4 GCP(DFT/SV(P)) printgap
|  2> %output
|  3>     printlevel normal
|  4> end
|  5> * xyz 0 1
|  6> C 2.3991413385 2.4719567934 -1.1651652597
|  7> C 3.456814683 1.3897039952 -1.1160274931
|  8> O 3.4619845764 0.6599565071 0.1246569518
|  9> P 2.1808134402 0.0816896955 0.8652641725
| 10> S 1.1575649021 1.3312312227 1.9636592946
| 11> O 2.781570351 -1.0460019604 1.7888715602
| 12> C 3.7314275767 -2.0452265701 1.3397033151
| 13> C 5.1451710328 -1.6280358999 1.6895302225
| 14> S 1.1952069161 -0.9637545911 -0.7296148898
| 15> C 0.042483904 -1.9466044445 0.2594666236
| 16> S -1.3236353823 -0.9985789712 0.9862477299
| 17> P -2.044065109 -0.1348666697 -0.8314404224
| 18> S -1.8240941391 -1.2346084302 -2.4309481443
| 19> O -1.3705069941 1.2829905722 -0.9569999248
| 20> C -1.6073873073 2.3538828989 -0.0062467861
| 21> C -2.6647364553 3.3016788307 -0.5291906124
| 22> O -3.5432081573 0.2219938602 -0.4502854939
| 23> C -4.5351010276 -0.815942344 -0.3051679585
| 24> C -5.8991781461 -0.1568383248 -0.2978981133
| 25> H 2.4897978129 3.1297743439 -0.3035369198
| 26> H 2.5174441579 3.0506423724 -2.0758246375
| 27> H 1.4050648722 2.0242584791 -1.1621860008
| 28> H 4.4612546782 1.8134339038 -1.1706128561
| 29> H 3.3104237308 0.6727767053 -1.9290754572
| 30> H 3.4461384108 -2.95522804 1.8711931248
| 31> H 3.6153512443 -2.1916440372 0.2623626394
| 32> H 5.4078941525 -0.7119657505 1.1674660246
| 33> H 5.2270727268 -1.4554812071 2.7591012941
| 34> H 5.8312104817 -2.4175346357 1.3990942788
| 35> H 0.5629045691 -2.4155880633 1.0914615984
| 36> H -0.365049461 -2.6884910927 -0.4266079982
| 37> H -1.8917477476 1.9210129884 0.956540812
| 38> H -0.6413018653 2.8498632436 0.1050584638
| 39> H -2.7705293594 4.1273648649 0.1673160028
| 40> H -2.370089476 3.6855771217 -1.5019183671
| 41> H -3.6169878218 2.7873118739 -0.6265903143
| 42> H -4.4295630446 -1.5151871575 -1.1410792309
| 43> H -4.3408691572 -1.345158169 0.6318601714
| 44> H -6.6610659593 -0.9201800363 -0.1797853672
| 45> H -5.9672695679 0.5491848075 0.5247558661
| 46> H -6.0637054785 0.3715202835 -1.2327733594
| 47> *
| 48>
| 49>                          ****END OF INPUT****

CARTESIAN COORDINATES (ANGSTROEM)
---------------------------------
  C      2.399141    2.471957   -1.165165
  C      3.456815    1.389704   -1.116027
  O      3.461985    0.659957    0.124657
  P      2.180813    0.081690    0.865264
  S      1.157565    1.331231    1.963659
  O      2.781570   -1.046002    1.788872
  C      3.731428   -2.045227    1.339703
  C      5.145171   -1.628036    1.689530
  S      1.195207   -0.963755   -0.729615
  C      0.042484   -1.946604    0.259467
  S     -1.323635   -0.998579    0.986248
  P     -2.044065   -0.134867   -0.831440
  S     -1.824094   -1.234608   -2.430948
  O     -1.370507    1.282991   -0.957000
  C     -1.607387    2.353883   -0.006247
  C     -2.664736    3.301679   -0.529191
  O     -3.543208    0.221994   -0.450285
  C     -4.535101   -0.815942   -0.305168
  C     -5.899178   -0.156838   -0.297898
  H      2.489798    3.129774   -0.303537
  H      2.517444    3.050642   -2.075825
  H      1.405065    2.024258   -1.162186
  H      4.461255    1.813434   -1.170613
  H      3.310424    0.672777   -1.929075
  H      3.446138   -2.955228    1.871193
  H      3.615351   -2.191644    0.262363
  H      5.407894   -0.711966    1.167466
  H      5.227073   -1.455481    2.759101
  H      5.831210   -2.417535    1.399094
  H      0.562905   -2.415588    1.091462
  H     -0.365049   -2.688491   -0.426608
  H     -1.891748    1.921013    0.956541
  H     -0.641302    2.849863    0.105058
  H     -2.770529    4.127365    0.167316
  H     -2.370089    3.685577   -1.501918
  H     -3.616988    2.787312   -0.626590
  H     -4.429563   -1.515187   -1.141079
  H     -4.340869   -1.345158    0.631860
  H     -6.661066   -0.920180   -0.179785
  H     -5.967270    0.549185    0.524756
  H     -6.063705    0.371520   -1.232773

 Total Charge           Charge          ....    0
 Multiplicity           Mult            ....    1
 Number of Electrons    NEL             ....  202
 Basis Dimension        Dim             ....  334

ORBITAL ENERGIES
----------------

  NO   OCC          E(Eh)            E(eV)
   0   2.0000     -88.042311     -2395.7531
   1   2.0000     -88.035666     -2395.5723
   2   2.0000     -87.982567     -2394.1274
   3   2.0000     -87.977559     -2393.9911
   4   2.0000     -76.424541     -2079.6175
   5   2.0000     -76.423495     -2079.5890
   6   2.0000     -18.794398      -511.4216
   7   2.0000     -18.794268      -511.4180
   8   2.0000     -18.792721      -511.3759
   9   2.0000     -18.788662      -511.2655
  10   2.0000      -9.960416      -271.0367
  11   2.0000      -9.958018      -270.9714
  12   2.0000      -9.957553      -270.9588
  13   2.0000      -9.953506      -270.8487
  14   2.0000      -9.945715      -270.6367
  15   2.0000      -9.889632      -269.1106
  16   2.0000      -9.887327      -269.0479
  17   2.0000      -9.883814      -268.9522
  18   2.0000      -9.879936      -268.8467
  19   2.0000      -7.686446      -209.1588
  20   2.0000      -7.680779      -209.0046
  21   2.0000      -7.627891      -207.5655
  22   2.0000      -7.622848      -207.4282
  23   2.0000      -6.421742      -174.7445
  24   2.0000      -6.420968      -174.7234
  25   2.0000      -5.714206      -155.4915
  26   2.0000      -5.710969      -155.4034
  27   2.0000      -5.708629      -155.3397
  28   2.0000      -5.705356      -155.2506
  29   2.0000      -5.703668      -155.2047
  30   2.0000      -5.697706      -155.0425
  31   2.0000      -5.656917      -153.9325
  32   2.0000      -5.651945      -153.7972
  33   2.0000      -5.648373      -153.7000
  34   2.0000      -5.648046      -153.6911
  35   2.0000      -5.643244      -153.5605
  36   2.0000      -5.642987      -153.5535
  37   2.0000      -4.644908      -126.3944
  38   2.0000      -4.643895      -126.3668
  39   2.0000      -4.643821      -126.3648
  40   2.0000      -4.642719      -126.3348
  41   2.0000      -4.641405      -126.2990
  42   2.0000      -4.641130      -126.2916
  43   2.0000      -0.989208       -26.9177
  44   2.0000      -0.987743       -26.8779
  45   2.0000      -0.946922       -25.7671
  46   2.0000      -0.943494       -25.6738
  47   2.0000      -0.761239       -20.7144
  48   2.0000      -0.719956       -19.5910
  49   2.0000      -0.711091       -19.3498
  50   2.0000      -0.692832       -18.8529
  51   2.0000      -0.689890       -18.7729
  52   2.0000      -0.670492       -18.2450
  53   2.0000      -0.648029       -17.6338
  54   2.0000      -0.637771       -17.3546
  55   2.0000      -0.588798       -16.0220
  56   2.0000      -0.586275       -15.9534
  57   2.0000      -0.577767       -15.7218
  58   2.0000      -0.568199       -15.4615
  59   2.0000      -0.565655       -15.3922
  60   2.0000      -0.510069       -13.8797
  61   2.0000      -0.503002       -13.6874
  62   2.0000      -0.477557       -12.9950
  63   2.0000      -0.473770       -12.8919
  64   2.0000      -0.460523       -12.5315
  65   2.0000      -0.444533       -12.0964
  66   2.0000      -0.440895       -11.9974
  67   2.0000      -0.439032       -11.9467
  68   2.0000      -0.430069       -11.7028
  69   2.0000      -0.414912       -11.2903
  70   2.0000      -0.409905       -11.1541
  71   2.0000      -0.395125       -10.7519
  72   2.0000      -0.388356       -10.5677
  73   2.0000      -0.386247       -10.5103
  74   2.0000      -0.380134       -10.3440
  75   2.0000      -0.372746       -10.1429
  76   2.0000      -0.360574        -9.8117
  77   2.0000      -0.357634        -9.7317
  78   2.0000      -0.355145        -9.6640
  79   2.0000      -0.351948        -9.5770
  80   2.0000      -0.348236        -9.4760
  81   2.0000      -0.346478        -9.4281
  82   2.0000      -0.341951        -9.3050
  83   2.0000      -0.338562        -9.2127
  84   2.0000      -0.333539        -9.0760
  85   2.0000      -0.321728        -8.7547
  86   2.0000      -0.314898        -8.5688
  87   2.0000      -0.300256        -8.1704
  88   2.0000      -0.297356        -8.0915
  89   2.0000      -0.291205        -7.9241
  90   2.0000      -0.290044        -7.8925
  91   2.0000      -0.279067        -7.5938
  92   2.0000      -0.271655        -7.3921
  93   2.0000      -0.261871        -7.1259
  94   2.0000      -0.254506        -6.9254
  95   2.0000      -0.240207        -6.5364
  96   2.0000      -0.216026        -5.8784
  97   2.0000      -0.203122        -5.5272
  98   2.0000      -0.200534        -5.4568
  99   2.0000      -0.194044        -5.2802
 100   2.0000      -0.183584        -4.9956
 101   0.0000      -0.043205        -1.1757
 102   0.0000      -0.024746        -0.6734
 103   0.0000      -0.010067        -0.2739
 104   0.0000       0.004339         0.1181
 105   0.0000       0.017782         0.4839

MULLIKEN ATOMIC CHARGES
-----------------------
   0 C :   -0.347623
   1 C :   -0.004752
   2 O :   -0.383950
   3 P :    0.586336
   4 S :   -0.303447
   5 O :   -0.360319
   6 C :   -0.016921
   7 C :   -0.285175
   8 S :   -0.098694
   9 C :   -0.338633
  10 S :   -0.087809
  11 P :    0.604019
  12 S :   -0.321699
  13 O :   -0.352006
  14 C :   -0.022981
  15 C :   -0.283729
  16 O :   -0.384157
  17 C :   -0.010772
  18 C :   -0.282878
  19 H :    0.129522
  20 H :    0.114294
  21 H :    0.155729
  22 H :    0.110000
  23 H :    0.116517
  24 H :    0.106929
  25 H :    0.099450
  26 H :    0.122958
  27 H :    0.120902
  28 H :    0.108942
  29 H :    0.181210
  30 H :    0.192159
  31 H :    0.108429
  32 H :    0.122795
  33 H :    0.109287
  34 H :    0.114872
  35 H :    0.118840
  36 H :    0.105688
  37 H :    0.103910
  38 H :    0.113446
  39 H :    0.117014
  40 H :    0.122302
Sum of atomic charges:    0.0000000

LOEWDIN ATOMIC CHARGES
----------------------
   0 C :   -0.376225
   1 C :   -0.113347
   2 O :   -0.247588
   3 P :    0.560945
   4 S :   -0.304425
   5 O :   -0.238826
   6 C :   -0.118149
   7 C :   -0.357692
   8 S :    0.077503
   9 C :   -0.476138
  10 S :    0.067884
  11 P :    0.568922
  12 S :   -0.319226
  13 O :   -0.230680
  14 C :   -0.116498
  15 C :   -0.359631
  16 O :   -0.248089
  17 C :   -0.121072
  18 C :   -0.350736
  19 H :    0.129250
  20 H :    0.131920
  21 H :    0.126571
  22 H :    0.121570
  23 H :    0.111320
  24 H :    0.118261
  25 H :    0.103723
  26 H :    0.127185
  27 H :    0.129315
  28 H :    0.129147
  29 H :    0.131689
  30 H :    0.132930
  31 H :    0.107782
  32 H :    0.116951
  33 H :    0.129635
  34 H :    0.126736
  35 H :    0.123766
  36 H :    0.109680
  37 H :    0.108531
  38 H :    0.131663
  39 H :    0.126332
  40 H :    0.129112

  Mayer bond orders larger than 0.100000
B(  0-C ,  1-C ) :   1.1699 B(  0-C , 19-H ) :   0.9388 B(  0-C , 20-H ) :   0.9324
B(  0-C , 21-H ) :   0.9226 B(  1-C ,  2-O ) :   0.9116 B(  1-C , 22-H ) :   0.9330
B(  1-C , 23-H ) :   0.9267 B(  2-O ,  3-P ) :   1.0721 B(  3-P ,  4-S ) :   1.6912
B(  3-P ,  5-O ) :   1.1144 B(  3-P ,  8-S ) :   0.9341 B(  4-S ,  8-S ) :   0.1140
B(  5-O ,  6-C ) :   0.8922 B(  6-C ,  7-C ) :   1.1696 B(  6-C , 24-H ) :   0.9340
B(  6-C , 25-H ) :   0.9095 B(  7-C , 26-H ) :   0.9426 B(  7-C , 27-H ) :   0.9472
B(  7-C , 28-H ) :   0.9400 B(  8-S ,  9-C ) :   1.0043 B(  9-C , 10-S ) :   1.0067
B(  9-C , 29-H ) :   0.9002 B(  9-C , 30-H ) :   0.8897 B( 10-S , 11-P ) :   0.9582
B( 10-S , 12-S ) :   0.1124 B( 11-P , 12-S ) :   1.6347 B( 11-P , 13-O ) :   1.1436
B( 11-P , 16-O ) :   1.0756 B( 13-O , 14-C ) :   0.8802 B( 14-C , 15-C ) :   1.1580
B( 14-C , 31-H ) :   0.9197 B( 14-C , 32-H ) :   0.9212 B( 15-C , 33-H ) :   0.9407
B( 15-C , 34-H ) :   0.9464 B( 15-C , 35-H ) :   0.9415 B( 16-O , 17-C ) :   0.9048
B( 17-C , 18-C ) :   1.1591 B( 17-C , 36-H ) :   0.9108 B( 17-C , 37-H ) :   0.9260
B( 18-C , 38-H ) :   0.9418 B( 18-C , 39-H ) :   0.9506 B( 18-C , 40-H ) :   0.9506

Dispersion correction           -0.065382381
FINAL SINGLE POINT ENERGY     -2929.515510156109

DIPOLE MOMENT
-------------

Method             : SCF
Type of density    : Electron Density
Multiplicity       :   1
Irrep              :   0
Energy             : -2929.6350237793699307 Eh
Relativity type    :
Basis              : AO
                                X                 Y                 Z
Electronic contribution:      1.178644874      -8.195596567       0.819922967
Nuclear contribution   :     -0.870940790       7.967084629      -0.780091937
                        -----------------------------------------
Total Dipole Moment    :      0.307704083      -0.228511938       0.039831030
                        -----------------------------------------
Magnitude (a.u.)       :      0.385338837
Magnitude (Debye)      :      0.979453486

Rotational constants in cm-1:             0.013628             0.004802             0.004434
Rotational constants in MHz :           408.566673           143.958460           132.919570

                             ****ORCA TERMINATED NORMALLY****
TOTAL RUN TIME: 0 days 0 hours 0 minutes 20 seconds 923 msec
