                         Program Version 6.0.0  -   RELEASE  -
|  1> ! pbe def2-sv(p) def2/J RI DEFGRID1 loosescf d4 GCP(DFT/SV(P)) printgap
|  2> %output
|  3>     printlevel normal
|  4> end
|  5> * xyz 0 1
|  6> C 3.9560260521 1.0339975267 -1.7856214764
|  7> C 2.5703482626 0.43455149 -1.9023919372
|  8> O 2.3183080259 -0.5074359384 -0.8502776916
|  9> P 1.9792102886 -0.0428799266 0.6438768675
| 10> S 1.0131050749 1.6563445447 0.7571142847
| 11> O 3.3257843215 0.0790616243 1.4701291176
| 12> C 4.1306619833 -1.0189465931 1.961502398
| 13> C 4.754310616 -1.829103531 0.8446906694
| 14> S 1.1232906088 -1.8165817203 1.3742395042
| 15> C -0.4125919013 -1.861593419 0.4144978034
| 16> S -1.6875829142 -0.719094523 1.0287130355
| 17> P -2.0238920523 0.4819008248 -0.7029101119
| 18> S -0.8790933336 0.0776700548 -2.2379196294
| 19> O -1.9409722255 1.9930924101 -0.2747559318
| 20> C -2.9293862741 2.714300593 0.4980629556
| 21> C -3.1103880831 2.1395504725 1.8863146277
| 22> O -3.5865431231 0.3343485524 -0.9922717083
| 23> C -4.1435133062 -0.7065173272 -1.812424168
| 24> C -3.9437175704 -2.0872091998 -1.2212934482
| 25> H 4.0426181058 1.5712778476 -0.8412413913
| 26> H 4.7090923278 0.251651623 -1.8229042722
| 27> H 4.1165744398 1.7281628526 -2.6044642777
| 28> H 2.4435797733 -0.1435723593 -2.8191377285
| 29> H 1.8047312301 1.2173582677 -1.8660974891
| 30> H 4.8877916147 -0.5203120516 2.5690334495
| 31> H 3.5026521709 -1.648105874 2.5970102372
| 32> H 5.3715931032 -2.6096760878 1.2782622094
| 33> H 3.9801261505 -2.287910319 0.2335897469
| 34> H 5.3724252284 -1.1931157195 0.2164789995
| 35> H -0.7869714953 -2.8756998559 0.5286893066
| 36> H -0.1994555258 -1.6244907614 -0.6319724955
| 37> H -2.5204965605 3.7253241367 0.5336372597
| 38> H -3.8689887427 2.7065016035 -0.0584257581
| 39> H -3.5417570739 1.1409702058 1.8308094119
| 40> H -2.1498565925 2.0802390445 2.3936667576
| 41> H -3.7757817246 2.7825003988 2.4539039131
| 42> H -5.2009416037 -0.4450376673 -1.8747122588
| 43> H -3.6856524066 -0.6440616767 -2.8044970632
| 44> H -4.284061113 -2.1121851959 -0.1892894024
| 45> H -4.5074360806 -2.8080815198 -1.8047217806
| 46> H -2.889060463 -2.3557829691 -1.2554010977
| 47> *
| 48>
| 49>                          ****END OF INPUT****

CARTESIAN COORDINATES (ANGSTROEM)
---------------------------------
  C      3.956026    1.033998   -1.785621
  C      2.570348    0.434551   -1.902392
  O      2.318308   -0.507436   -0.850278
  P      1.979210   -0.042880    0.643877
  S      1.013105    1.656345    0.757114
  O      3.325784    0.079062    1.470129
  C      4.130662   -1.018947    1.961502
  C      4.754311   -1.829104    0.844691
  S      1.123291   -1.816582    1.374240
  C     -0.412592   -1.861593    0.414498
  S     -1.687583   -0.719095    1.028713
  P     -2.023892    0.481901   -0.702910
  S     -0.879093    0.077670   -2.237920
  O     -1.940972    1.993092   -0.274756
  C     -2.929386    2.714301    0.498063
  C     -3.110388    2.139550    1.886315
  O     -3.586543    0.334349   -0.992272
  C     -4.143513   -0.706517   -1.812424
  C     -3.943718   -2.087209   -1.221293
  H      4.042618    1.571278   -0.841241
  H      4.709092    0.251652   -1.822904
  H      4.116574    1.728163   -2.604464
  H      2.443580   -0.143572   -2.819138
  H      1.804731    1.217358   -1.866097
  H      4.887792   -0.520312    2.569033
  H      3.502652   -1.648106    2.597010
  H      5.371593   -2.609676    1.278262
  H      3.980126   -2.287910    0.233590
  H      5.372425   -1.193116    0.216479
  H     -0.786971   -2.875700    0.528689
  H     -0.199456   -1.624491   -0.631972
  H     -2.520497    3.725324    0.533637
  H     -3.868989    2.706502   -0.058426
  H     -3.541757    1.140970    1.830809
  H     -2.149857    2.080239    2.393667
  H     -3.775782    2.782500    2.453904
  H     -5.200942   -0.445038   -1.874712
  H     -3.685652   -0.644062   -2.804497
  H     -4.284061   -2.112185   -0.189289
  H     -4.507436   -2.808082   -1.804722
  H     -2.889060   -2.355783   -1.255401

 Total Charge           Charge          ....    0
 Multiplicity           Mult            ....    1
 Number of Electrons    NEL             ....  202
 Basis Dimension        Dim             ....  334

ORBITAL ENERGIES
----------------

  NO   OCC          E(Eh)            E(eV)
   0   2.0000     -88.041421     -2395.7289
   1   2.0000     -88.037931     -2395.6339
   2   2.0000     -87.984230     -2394.1726
   3   2.0000     -87.970653     -2393.8032
   4   2.0000     -76.424326     -2079.6116
   5   2.0000     -76.416190     -2079.3902
   6   2.0000     -18.788059      -511.2491
   7   2.0000     -18.786694      -511.2119
   8   2.0000     -18.785081      -511.1680
   9   2.0000     -18.779725      -511.0223
  10   2.0000      -9.956697      -270.9355
  11   2.0000      -9.954372      -270.8722
  12   2.0000      -9.953103      -270.8377
  13   2.0000      -9.952749      -270.8281
  14   2.0000      -9.935026      -270.3458
  15   2.0000      -9.886884      -269.0358
  16   2.0000      -9.886175      -269.0165
  17   2.0000      -9.884741      -268.9775
  18   2.0000      -9.875631      -268.7296
  19   2.0000      -7.686973      -209.1732
  20   2.0000      -7.682561      -209.0531
  21   2.0000      -7.629180      -207.6005
  22   2.0000      -7.615632      -207.2319
  23   2.0000      -6.421434      -174.7361
  24   2.0000      -6.414013      -174.5342
  25   2.0000      -5.714792      -155.5074
  26   2.0000      -5.711357      -155.4139
  27   2.0000      -5.710581      -155.3928
  28   2.0000      -5.707144      -155.2993
  29   2.0000      -5.704016      -155.2142
  30   2.0000      -5.699392      -155.0883
  31   2.0000      -5.658044      -153.9632
  32   2.0000      -5.649791      -153.7386
  33   2.0000      -5.649316      -153.7257
  34   2.0000      -5.644713      -153.6005
  35   2.0000      -5.636394      -153.3741
  36   2.0000      -5.635455      -153.3485
  37   2.0000      -4.644323      -126.3785
  38   2.0000      -4.642867      -126.3388
  39   2.0000      -4.642001      -126.3153
  40   2.0000      -4.636913      -126.1768
  41   2.0000      -4.635728      -126.1446
  42   2.0000      -4.634198      -126.1029
  43   2.0000      -0.984155       -26.7802
  44   2.0000      -0.975490       -26.5444
  45   2.0000      -0.939211       -25.5572
  46   2.0000      -0.937472       -25.5099
  47   2.0000      -0.759355       -20.6631
  48   2.0000      -0.717477       -19.5235
  49   2.0000      -0.707749       -19.2588
  50   2.0000      -0.689360       -18.7584
  51   2.0000      -0.686900       -18.6915
  52   2.0000      -0.671938       -18.2844
  53   2.0000      -0.646906       -17.6032
  54   2.0000      -0.631434       -17.1822
  55   2.0000      -0.597285       -16.2529
  56   2.0000      -0.584863       -15.9149
  57   2.0000      -0.578137       -15.7319
  58   2.0000      -0.571065       -15.5395
  59   2.0000      -0.558084       -15.1862
  60   2.0000      -0.494477       -13.4554
  61   2.0000      -0.488866       -13.3027
  62   2.0000      -0.469344       -12.7715
  63   2.0000      -0.466352       -12.6901
  64   2.0000      -0.450780       -12.2663
  65   2.0000      -0.446073       -12.1383
  66   2.0000      -0.444103       -12.0847
  67   2.0000      -0.432473       -11.7682
  68   2.0000      -0.424546       -11.5525
  69   2.0000      -0.418398       -11.3852
  70   2.0000      -0.406126       -11.0512
  71   2.0000      -0.399156       -10.8616
  72   2.0000      -0.392576       -10.6825
  73   2.0000      -0.384939       -10.4747
  74   2.0000      -0.380110       -10.3433
  75   2.0000      -0.368168       -10.0184
  76   2.0000      -0.360361        -9.8059
  77   2.0000      -0.354216        -9.6387
  78   2.0000      -0.351342        -9.5605
  79   2.0000      -0.350464        -9.5366
  80   2.0000      -0.343800        -9.3553
  81   2.0000      -0.343335        -9.3426
  82   2.0000      -0.337548        -9.1851
  83   2.0000      -0.336605        -9.1595
  84   2.0000      -0.332998        -9.0613
  85   2.0000      -0.310060        -8.4372
  86   2.0000      -0.307387        -8.3644
  87   2.0000      -0.300481        -8.1765
  88   2.0000      -0.294737        -8.0202
  89   2.0000      -0.291309        -7.9269
  90   2.0000      -0.275003        -7.4832
  91   2.0000      -0.269201        -7.3253
  92   2.0000      -0.263664        -7.1747
  93   2.0000      -0.256929        -6.9914
  94   2.0000      -0.255141        -6.9427
  95   2.0000      -0.234657        -6.3853
  96   2.0000      -0.217300        -5.9130
  97   2.0000      -0.204030        -5.5519
  98   2.0000      -0.199963        -5.4413
  99   2.0000      -0.186221        -5.0673
 100   2.0000      -0.180462        -4.9106
 101   0.0000      -0.036860        -1.0030
 102   0.0000      -0.030793        -0.8379
 103   0.0000      -0.010788        -0.2936
 104   0.0000       0.009065         0.2467
 105   0.0000       0.015374         0.4183

MULLIKEN ATOMIC CHARGES
-----------------------
   0 C :   -0.307511
   1 C :   -0.020388
   2 O :   -0.384253
   3 P :    0.616798
   4 S :   -0.305767
   5 O :   -0.370779
   6 C :   -0.028218
   7 C :   -0.313714
   8 S :   -0.112068
   9 C :   -0.342891
  10 S :   -0.100109
  11 P :    0.626812
  12 S :   -0.313933
  13 O :   -0.348904
  14 C :    0.007859
  15 C :   -0.336060
  16 O :   -0.388932
  17 C :    0.006550
  18 C :   -0.320733
  19 H :    0.124710
  20 H :    0.112928
  21 H :    0.109918
  22 H :    0.100194
  23 H :    0.131008
  24 H :    0.113647
  25 H :    0.123493
  26 H :    0.111480
  27 H :    0.129245
  28 H :    0.125417
  29 H :    0.181370
  30 H :    0.201600
  31 H :    0.112970
  32 H :    0.107686
  33 H :    0.124680
  34 H :    0.142944
  35 H :    0.115075
  36 H :    0.102815
  37 H :    0.110956
  38 H :    0.119684
  39 H :    0.112394
  40 H :    0.122028
Sum of atomic charges:   -0.0000000

LOEWDIN ATOMIC CHARGES
----------------------
   0 C :   -0.364688
   1 C :   -0.129063
   2 O :   -0.250007
   3 P :    0.562284
   4 S :   -0.307537
   5 O :   -0.243731
   6 C :   -0.117108
   7 C :   -0.367733
   8 S :    0.079883
   9 C :   -0.481532
  10 S :    0.080330
  11 P :    0.579615
  12 S :   -0.292463
  13 O :   -0.224382
  14 C :   -0.106879
  15 C :   -0.371551
  16 O :   -0.254361
  17 C :   -0.115516
  18 C :   -0.370886
  19 H :    0.124663
  20 H :    0.119518
  21 H :    0.129984
  22 H :    0.115327
  23 H :    0.109429
  24 H :    0.123641
  25 H :    0.108700
  26 H :    0.130758
  27 H :    0.124099
  28 H :    0.127072
  29 H :    0.135239
  30 H :    0.123486
  31 H :    0.124588
  32 H :    0.113006
  33 H :    0.115558
  34 H :    0.134455
  35 H :    0.132440
  36 H :    0.117840
  37 H :    0.111662
  38 H :    0.124102
  39 H :    0.130444
  40 H :    0.119316

  Mayer bond orders larger than 0.100000
B(  0-C ,  1-C ) :   1.1565 B(  0-C , 19-H ) :   0.9382 B(  0-C , 20-H ) :   0.9406
B(  0-C , 21-H ) :   0.9399 B(  1-C ,  2-O ) :   0.9032 B(  1-C , 22-H ) :   0.9351
B(  1-C , 23-H ) :   0.9018 B(  2-O ,  3-P ) :   1.0712 B(  3-P ,  4-S ) :   1.6634
B(  3-P ,  5-O ) :   1.1082 B(  3-P ,  8-S ) :   0.9600 B(  4-S ,  8-S ) :   0.1077
B(  5-O ,  6-C ) :   0.9084 B(  6-C ,  7-C ) :   1.1632 B(  6-C , 24-H ) :   0.9344
B(  6-C , 25-H ) :   0.9196 B(  7-C , 26-H ) :   0.9359 B(  7-C , 27-H ) :   0.9352
B(  7-C , 28-H ) :   0.9401 B(  8-S ,  9-C ) :   1.0014 B(  9-C , 10-S ) :   1.0054
B(  9-C , 29-H ) :   0.9088 B(  9-C , 30-H ) :   0.8414 B( 10-S , 11-P ) :   0.9451
B( 10-S , 12-S ) :   0.1163 B( 11-P , 12-S ) :   1.6069 B( 11-P , 13-O ) :   1.1493
B( 11-P , 16-O ) :   1.0589 B( 12-S , 30-H ) :   0.1168 B( 13-O , 14-C ) :   0.9002
B( 14-C , 15-C ) :   1.1706 B( 14-C , 31-H ) :   0.9323 B( 14-C , 32-H ) :   0.9267
B( 15-C , 33-H ) :   0.9327 B( 15-C , 34-H ) :   0.9387 B( 15-C , 35-H ) :   0.9355
B( 16-O , 17-C ) :   0.9175 B( 17-C , 18-C ) :   1.1650 B( 17-C , 36-H ) :   0.9347
B( 17-C , 37-H ) :   0.9183 B( 18-C , 38-H ) :   0.9415 B( 18-C , 39-H ) :   0.9364
B( 18-C , 40-H ) :   0.9370

Dispersion correction           -0.068092692
FINAL SINGLE POINT ENERGY     -2929.511320275875

DIPOLE MOMENT
-------------

Method             : SCF
Type of density    : Electron Density
Multiplicity       :   1
Irrep              :   0
Energy             : -2929.6295874667735006 Eh
Relativity type    :
Basis              : AO
                                X                 Y                 Z
Electronic contribution:     -3.083848972       3.278207297       3.783207953
Nuclear contribution   :      2.700429741      -4.153709427      -3.677849457
                        -----------------------------------------
Total Dipole Moment    :     -0.383419231      -0.875502130       0.105358496
                        -----------------------------------------
Magnitude (a.u.)       :      0.961568874
Magnitude (Debye)      :      2.444113840

Rotational constants in cm-1:             0.013253             0.005032             0.004973
Rotational constants in MHz :           397.316504           150.844758           149.093168

                             ****ORCA TERMINATED NORMALLY****
TOTAL RUN TIME: 0 days 0 hours 0 minutes 21 seconds 248 msec
