                         Program Version 6.0.0  -   RELEASE  -
|  1> ! r2scan-3c def2/J RI DEFGRID2 scfconv6 printgap
|  2> %output
|  3>     printlevel normal
|  4> end
|  5> * xyz 0 1
|  6> C 5.6983792586 1.0826287511 -0.7087988351
|  7> C 4.3571540647 0.5249069157 -1.1398085079
|  8> O 3.5428216458 0.3702581499 0.039473488
|  9> P 1.9699219107 0.1952412889 -0.0642110786
| 10> S 1.0810627375 1.5761760362 -1.1342080567
| 11> O 1.5048473396 0.2232407018 1.4368031532
| 12> C 1.7005037869 -0.8170406176 2.430786723
| 13> C 3.1462496514 -1.2365133583 2.5755605125
| 14> S 1.7551884247 -1.7850673653 -0.805368386
| 15> C 0.0001468538 -1.7126390022 -1.2177559858
| 16> S -1.0649381516 -1.7031988047 0.2678974998
| 17> P -2.1220787753 0.093984724 -0.0009205559
| 18> S -2.3897245324 0.735663579 -1.8374207095
| 19> O -1.3431967653 1.0297381613 1.013116832
| 20> C -1.4812999893 2.4629629815 1.0121209529
| 21> C -2.8766485324 2.904911491 1.396991894
| 22> O -3.4686458259 -0.1696372127 0.8043773859
| 23> C -4.6491716488 -0.7094616817 0.1863436843
| 24> C -4.4717000494 -2.1567084649 -0.2258473884
| 25> H 6.1753213183 0.4035996143 -0.0083432744
| 26> H 6.3308274196 1.2019112078 -1.5822616558
| 27> H 5.563873134 2.0480886651 -0.2292035654
| 28> H 4.4635752188 -0.4560121794 -1.6104472517
| 29> H 3.8444387053 1.2005578725 -1.8329212986
| 30> H 1.3188190108 -0.3552480941 3.3425708497
| 31> H 1.0687088491 -1.6679019198 2.1597227725
| 32> H 3.7744134466 -0.3683850144 2.7568664076
| 33> H 3.2286659871 -1.9222886352 3.4132552774
| 34> H 3.4880004017 -1.7386717872 1.6729795622
| 35> H -0.216176685 -2.6153183268 -1.7827722636
| 36> H -0.2099865709 -0.8153727135 -1.8066283195
| 37> H -0.7320027275 2.7932423088 1.7336304741
| 38> H -1.211267691 2.8344236345 0.0175318481
| 39> H -3.1678331981 2.4484217632 2.3394605706
| 40> H -2.8937221197 3.9859633221 1.4944052561
| 41> H -3.5857722608 2.6084077094 0.624956892
| 42> H -5.4177373914 -0.5996061605 0.9525549645
| 43> H -4.8960794689 -0.0916908308 -0.6831829736
| 44> H -4.1077844723 -2.7468189797 0.6114832651
| 45> H -5.4249336137 -2.5527258051 -0.5610478281
| 46> H -3.7550475696 -2.2246422229 -1.0432200194
| 47> *
| 48>
| 49>                          ****END OF INPUT****

CARTESIAN COORDINATES (ANGSTROEM)
---------------------------------
  C      5.698379    1.082629   -0.708799
  C      4.357154    0.524907   -1.139809
  O      3.542822    0.370258    0.039473
  P      1.969922    0.195241   -0.064211
  S      1.081063    1.576176   -1.134208
  O      1.504847    0.223241    1.436803
  C      1.700504   -0.817041    2.430787
  C      3.146250   -1.236513    2.575561
  S      1.755188   -1.785067   -0.805368
  C      0.000147   -1.712639   -1.217756
  S     -1.064938   -1.703199    0.267897
  P     -2.122079    0.093985   -0.000921
  S     -2.389725    0.735664   -1.837421
  O     -1.343197    1.029738    1.013117
  C     -1.481300    2.462963    1.012121
  C     -2.876649    2.904911    1.396992
  O     -3.468646   -0.169637    0.804377
  C     -4.649172   -0.709462    0.186344
  C     -4.471700   -2.156708   -0.225847
  H      6.175321    0.403600   -0.008343
  H      6.330827    1.201911   -1.582262
  H      5.563873    2.048089   -0.229204
  H      4.463575   -0.456012   -1.610447
  H      3.844439    1.200558   -1.832921
  H      1.318819   -0.355248    3.342571
  H      1.068709   -1.667902    2.159723
  H      3.774413   -0.368385    2.756866
  H      3.228666   -1.922289    3.413255
  H      3.488000   -1.738672    1.672980
  H     -0.216177   -2.615318   -1.782772
  H     -0.209987   -0.815373   -1.806628
  H     -0.732003    2.793242    1.733630
  H     -1.211268    2.834424    0.017532
  H     -3.167833    2.448422    2.339461
  H     -2.893722    3.985963    1.494405
  H     -3.585772    2.608408    0.624957
  H     -5.417737   -0.599606    0.952555
  H     -4.896079   -0.091691   -0.683183
  H     -4.107784   -2.746819    0.611483
  H     -5.424934   -2.552726   -0.561048
  H     -3.755048   -2.224642   -1.043220

 Total Charge           Charge          ....    0
 Multiplicity           Mult            ....    1
 Number of Electrons    NEL             ....  202
 Basis Dimension        Dim             ....  539

ORBITAL ENERGIES
----------------

  NO   OCC          E(Eh)            E(eV)
   0   2.0000     -88.577489     -2410.3160
   1   2.0000     -88.572867     -2410.1903
   2   2.0000     -88.514708     -2408.6077
   3   2.0000     -88.509705     -2408.4715
   4   2.0000     -76.910705     -2092.8467
   5   2.0000     -76.908141     -2092.7769
   6   2.0000     -18.991082      -516.7736
   7   2.0000     -18.989282      -516.7246
   8   2.0000     -18.986436      -516.6472
   9   2.0000     -18.978150      -516.4217
  10   2.0000     -10.106634      -275.0155
  11   2.0000     -10.099624      -274.8247
  12   2.0000     -10.097755      -274.7739
  13   2.0000     -10.094172      -274.6764
  14   2.0000     -10.083916      -274.3973
  15   2.0000     -10.032902      -273.0092
  16   2.0000     -10.031666      -272.9755
  17   2.0000     -10.025454      -272.8065
  18   2.0000     -10.019913      -272.6557
  19   2.0000      -7.871965      -214.2071
  20   2.0000      -7.867681      -214.0905
  21   2.0000      -7.809358      -212.5034
  22   2.0000      -7.804617      -212.3744
  23   2.0000      -6.589111      -179.2988
  24   2.0000      -6.586571      -179.2297
  25   2.0000      -5.818791      -158.3374
  26   2.0000      -5.815587      -158.2502
  27   2.0000      -5.814477      -158.2200
  28   2.0000      -5.811552      -158.1404
  29   2.0000      -5.809343      -158.0803
  30   2.0000      -5.804756      -157.9554
  31   2.0000      -5.757008      -156.6562
  32   2.0000      -5.752393      -156.5306
  33   2.0000      -5.749882      -156.4622
  34   2.0000      -5.749140      -156.4421
  35   2.0000      -5.744855      -156.3255
  36   2.0000      -5.744509      -156.3160
  37   2.0000      -4.734824      -128.8411
  38   2.0000      -4.734317      -128.8273
  39   2.0000      -4.732378      -128.7746
  40   2.0000      -4.731859      -128.7604
  41   2.0000      -4.731386      -128.7476
  42   2.0000      -4.730616      -128.7266
  43   2.0000      -1.048696       -28.5365
  44   2.0000      -1.042197       -28.3596
  45   2.0000      -1.009381       -27.4666
  46   2.0000      -1.001812       -27.2607
  47   2.0000      -0.799633       -21.7591
  48   2.0000      -0.757177       -20.6038
  49   2.0000      -0.746115       -20.3028
  50   2.0000      -0.736173       -20.0323
  51   2.0000      -0.725226       -19.7344
  52   2.0000      -0.708991       -19.2926
  53   2.0000      -0.682012       -18.5585
  54   2.0000      -0.661728       -18.0065
  55   2.0000      -0.628884       -17.1128
  56   2.0000      -0.622412       -16.9367
  57   2.0000      -0.601477       -16.3670
  58   2.0000      -0.598769       -16.2933
  59   2.0000      -0.593298       -16.1445
  60   2.0000      -0.527232       -14.3467
  61   2.0000      -0.510710       -13.8971
  62   2.0000      -0.494152       -13.4466
  63   2.0000      -0.484036       -13.1713
  64   2.0000      -0.468427       -12.7465
  65   2.0000      -0.464458       -12.6385
  66   2.0000      -0.452655       -12.3174
  67   2.0000      -0.451789       -12.2938
  68   2.0000      -0.448385       -12.2012
  69   2.0000      -0.431985       -11.7549
  70   2.0000      -0.425897       -11.5892
  71   2.0000      -0.416679       -11.3384
  72   2.0000      -0.401914       -10.9366
  73   2.0000      -0.401441       -10.9238
  74   2.0000      -0.393294       -10.7021
  75   2.0000      -0.391655       -10.6575
  76   2.0000      -0.379135       -10.3168
  77   2.0000      -0.372935       -10.1481
  78   2.0000      -0.365721        -9.9518
  79   2.0000      -0.364510        -9.9188
  80   2.0000      -0.363067        -9.8795
  81   2.0000      -0.356868        -9.7109
  82   2.0000      -0.351148        -9.5552
  83   2.0000      -0.348673        -9.4879
  84   2.0000      -0.346250        -9.4220
  85   2.0000      -0.327336        -8.9073
  86   2.0000      -0.320500        -8.7213
  87   2.0000      -0.313794        -8.5388
  88   2.0000      -0.306456        -8.3391
  89   2.0000      -0.303929        -8.2703
  90   2.0000      -0.289819        -7.8864
  91   2.0000      -0.286714        -7.8019
  92   2.0000      -0.278010        -7.5650
  93   2.0000      -0.275536        -7.4977
  94   2.0000      -0.271118        -7.3775
  95   2.0000      -0.250264        -6.8100
  96   2.0000      -0.231286        -6.2936
  97   2.0000      -0.225488        -6.1358
  98   2.0000      -0.214186        -5.8283
  99   2.0000      -0.204147        -5.5551
 100   2.0000      -0.196586        -5.3494
 101   0.0000      -0.043059        -1.1717
 102   0.0000      -0.031497        -0.8571
 103   0.0000      -0.007061        -0.1921
 104   0.0000       0.017907         0.4873
 105   0.0000       0.021645         0.5890

MULLIKEN ATOMIC CHARGES
-----------------------
   0 C :   -0.439933
   1 C :   -0.168333
   2 O :   -0.278168
   3 P :    0.689665
   4 S :   -0.438134
   5 O :   -0.260561
   6 C :   -0.137132
   7 C :   -0.441411
   8 S :   -0.178893
   9 C :   -0.218198
  10 S :   -0.137794
  11 P :    0.656184
  12 S :   -0.459944
  13 O :   -0.266784
  14 C :   -0.155380
  15 C :   -0.449107
  16 O :   -0.297611
  17 C :   -0.157146
  18 C :   -0.446662
  19 H :    0.150115
  20 H :    0.147146
  21 H :    0.159503
  22 H :    0.148432
  23 H :    0.175648
  24 H :    0.153197
  25 H :    0.167787
  26 H :    0.161266
  27 H :    0.149368
  28 H :    0.159821
  29 H :    0.195324
  30 H :    0.220355
  31 H :    0.155676
  32 H :    0.182047
  33 H :    0.154522
  34 H :    0.145954
  35 H :    0.165005
  36 H :    0.146937
  37 H :    0.173221
  38 H :    0.153881
  39 H :    0.146507
  40 H :    0.173632
Sum of atomic charges:    0.0000000

LOEWDIN ATOMIC CHARGES
----------------------
   0 C :   -0.385616
   1 C :    0.018354
   2 O :   -0.673711
   3 P :    0.378520
   4 S :   -0.078560
   5 O :   -0.645516
   6 C :    0.021794
   7 C :   -0.400960
   8 S :    0.124945
   9 C :   -0.411802
  10 S :    0.165353
  11 P :    0.372540
  12 S :   -0.123819
  13 O :   -0.669955
  14 C :    0.012516
  15 C :   -0.401078
  16 O :   -0.668265
  17 C :    0.017557
  18 C :   -0.408314
  19 H :    0.158037
  20 H :    0.160160
  21 H :    0.162201
  22 H :    0.170448
  23 H :    0.182697
  24 H :    0.183491
  25 H :    0.178640
  26 H :    0.164144
  27 H :    0.159682
  28 H :    0.162725
  29 H :    0.179678
  30 H :    0.203284
  31 H :    0.183232
  32 H :    0.184516
  33 H :    0.160232
  34 H :    0.158547
  35 H :    0.163723
  36 H :    0.178626
  37 H :    0.179836
  38 H :    0.159964
  39 H :    0.158108
  40 H :    0.164043

  Mayer bond orders larger than 0.100000
B(  0-C ,  1-C ) :   0.9568 B(  0-C , 19-H ) :   0.9718 B(  0-C , 20-H ) :   0.9640
B(  0-C , 21-H ) :   0.9715 B(  1-C ,  2-O ) :   0.7820 B(  1-C , 22-H ) :   0.9433
B(  1-C , 23-H ) :   0.9500 B(  2-O ,  3-P ) :   1.0614 B(  3-P ,  4-S ) :   1.8092
B(  3-P ,  5-O ) :   1.1693 B(  3-P ,  8-S ) :   0.9782 B(  5-O ,  6-C ) :   0.8040
B(  6-C ,  7-C ) :   0.9181 B(  6-C , 24-H ) :   0.9590 B(  6-C , 25-H ) :   0.9612
B(  7-C , 26-H ) :   0.9696 B(  7-C , 27-H ) :   0.9574 B(  7-C , 28-H ) :   0.9625
B(  8-S ,  9-C ) :   0.9166 B(  9-C , 10-S ) :   0.8909 B(  9-C , 29-H ) :   0.9129
B(  9-C , 30-H ) :   0.9048 B( 10-S , 11-P ) :   1.1173 B( 11-P , 12-S ) :   1.7609
B( 11-P , 13-O ) :   1.1695 B( 11-P , 16-O ) :   1.0528 B( 13-O , 14-C ) :   0.8082
B( 14-C , 15-C ) :   0.9072 B( 14-C , 31-H ) :   0.9632 B( 14-C , 32-H ) :   0.9639
B( 15-C , 33-H ) :   0.9731 B( 15-C , 34-H ) :   0.9610 B( 15-C , 35-H ) :   0.9630
B( 16-O , 17-C ) :   0.8225 B( 17-C , 18-C ) :   0.9207 B( 17-C , 36-H ) :   0.9590
B( 17-C , 37-H ) :   0.9673 B( 18-C , 38-H ) :   0.9677 B( 18-C , 39-H ) :   0.9595
B( 18-C , 40-H ) :   0.9660

Dispersion correction           -0.022133313
FINAL SINGLE POINT ENERGY     -2932.457935675198

DIPOLE MOMENT
-------------

Method             : SCF
Type of density    : Electron Density
Multiplicity       :   1
Irrep              :   0
Energy             : -2932.4823331770603545 Eh
Relativity type    :
Basis              : AO
                                X                 Y                 Z
Electronic contribution:     -3.081732764      -1.916706661      -8.532354500
Nuclear contribution   :      3.570697094       1.082390307       9.570937570
                        -----------------------------------------
Total Dipole Moment    :      0.488964330      -0.834316354       1.038583070
                        -----------------------------------------
Magnitude (a.u.)       :      1.419092910
Magnitude (Debye)      :      3.607047521

Rotational constants in cm-1:             0.013543             0.005061             0.004784
Rotational constants in MHz :           406.007618           151.716477           143.419502

                             ****ORCA TERMINATED NORMALLY****
TOTAL RUN TIME: 0 days 0 hours 1 minutes 20 seconds 306 msec
