                         Program Version 6.0.0  -   RELEASE  -
|  1> ! r2scan-3c def2/J RI DEFGRID2 scfconv6 printgap
|  2> %output
|  3>     printlevel normal
|  4> end
|  5> %cpcm
|  6>     smd true
|  7>     smdsolvent "water"
|  8> end
|  9> * xyz 0 1
| 10> C 5.6983792586 1.0826287511 -0.7087988351
| 11> C 4.3571540647 0.5249069157 -1.1398085079
| 12> O 3.5428216458 0.3702581499 0.039473488
| 13> P 1.9699219107 0.1952412889 -0.0642110786
| 14> S 1.0810627375 1.5761760362 -1.1342080567
| 15> O 1.5048473396 0.2232407018 1.4368031532
| 16> C 1.7005037869 -0.8170406176 2.430786723
| 17> C 3.1462496514 -1.2365133583 2.5755605125
| 18> S 1.7551884247 -1.7850673653 -0.805368386
| 19> C 0.0001468538 -1.7126390022 -1.2177559858
| 20> S -1.0649381516 -1.7031988047 0.2678974998
| 21> P -2.1220787753 0.093984724 -0.0009205559
| 22> S -2.3897245324 0.735663579 -1.8374207095
| 23> O -1.3431967653 1.0297381613 1.013116832
| 24> C -1.4812999893 2.4629629815 1.0121209529
| 25> C -2.8766485324 2.904911491 1.396991894
| 26> O -3.4686458259 -0.1696372127 0.8043773859
| 27> C -4.6491716488 -0.7094616817 0.1863436843
| 28> C -4.4717000494 -2.1567084649 -0.2258473884
| 29> H 6.1753213183 0.4035996143 -0.0083432744
| 30> H 6.3308274196 1.2019112078 -1.5822616558
| 31> H 5.563873134 2.0480886651 -0.2292035654
| 32> H 4.4635752188 -0.4560121794 -1.6104472517
| 33> H 3.8444387053 1.2005578725 -1.8329212986
| 34> H 1.3188190108 -0.3552480941 3.3425708497
| 35> H 1.0687088491 -1.6679019198 2.1597227725
| 36> H 3.7744134466 -0.3683850144 2.7568664076
| 37> H 3.2286659871 -1.9222886352 3.4132552774
| 38> H 3.4880004017 -1.7386717872 1.6729795622
| 39> H -0.216176685 -2.6153183268 -1.7827722636
| 40> H -0.2099865709 -0.8153727135 -1.8066283195
| 41> H -0.7320027275 2.7932423088 1.7336304741
| 42> H -1.211267691 2.8344236345 0.0175318481
| 43> H -3.1678331981 2.4484217632 2.3394605706
| 44> H -2.8937221197 3.9859633221 1.4944052561
| 45> H -3.5857722608 2.6084077094 0.624956892
| 46> H -5.4177373914 -0.5996061605 0.9525549645
| 47> H -4.8960794689 -0.0916908308 -0.6831829736
| 48> H -4.1077844723 -2.7468189797 0.6114832651
| 49> H -5.4249336137 -2.5527258051 -0.5610478281
| 50> H -3.7550475696 -2.2246422229 -1.0432200194
| 51> *
| 52>
| 53>                          ****END OF INPUT****

CARTESIAN COORDINATES (ANGSTROEM)
---------------------------------
  C      5.698379    1.082629   -0.708799
  C      4.357154    0.524907   -1.139809
  O      3.542822    0.370258    0.039473
  P      1.969922    0.195241   -0.064211
  S      1.081063    1.576176   -1.134208
  O      1.504847    0.223241    1.436803
  C      1.700504   -0.817041    2.430787
  C      3.146250   -1.236513    2.575561
  S      1.755188   -1.785067   -0.805368
  C      0.000147   -1.712639   -1.217756
  S     -1.064938   -1.703199    0.267897
  P     -2.122079    0.093985   -0.000921
  S     -2.389725    0.735664   -1.837421
  O     -1.343197    1.029738    1.013117
  C     -1.481300    2.462963    1.012121
  C     -2.876649    2.904911    1.396992
  O     -3.468646   -0.169637    0.804377
  C     -4.649172   -0.709462    0.186344
  C     -4.471700   -2.156708   -0.225847
  H      6.175321    0.403600   -0.008343
  H      6.330827    1.201911   -1.582262
  H      5.563873    2.048089   -0.229204
  H      4.463575   -0.456012   -1.610447
  H      3.844439    1.200558   -1.832921
  H      1.318819   -0.355248    3.342571
  H      1.068709   -1.667902    2.159723
  H      3.774413   -0.368385    2.756866
  H      3.228666   -1.922289    3.413255
  H      3.488000   -1.738672    1.672980
  H     -0.216177   -2.615318   -1.782772
  H     -0.209987   -0.815373   -1.806628
  H     -0.732003    2.793242    1.733630
  H     -1.211268    2.834424    0.017532
  H     -3.167833    2.448422    2.339461
  H     -2.893722    3.985963    1.494405
  H     -3.585772    2.608408    0.624957
  H     -5.417737   -0.599606    0.952555
  H     -4.896079   -0.091691   -0.683183
  H     -4.107784   -2.746819    0.611483
  H     -5.424934   -2.552726   -0.561048
  H     -3.755048   -2.224642   -1.043220

 Total Charge           Charge          ....    0
 Multiplicity           Mult            ....    1
 Number of Electrons    NEL             ....  202
 Basis Dimension        Dim             ....  539

ORBITAL ENERGIES
----------------

  NO   OCC          E(Eh)            E(eV)
   0   2.0000     -88.581065     -2410.4133
   1   2.0000     -88.577471     -2410.3155
   2   2.0000     -88.525691     -2408.9065
   3   2.0000     -88.521162     -2408.7833
   4   2.0000     -76.918167     -2093.0497
   5   2.0000     -76.917165     -2093.0225
   6   2.0000     -18.995558      -516.8954
   7   2.0000     -18.994205      -516.8586
   8   2.0000     -18.992369      -516.8086
   9   2.0000     -18.988543      -516.7045
  10   2.0000     -10.106045      -274.9995
  11   2.0000     -10.092301      -274.6255
  12   2.0000     -10.089892      -274.5599
  13   2.0000     -10.088030      -274.5093
  14   2.0000     -10.085842      -274.4497
  15   2.0000     -10.020119      -272.6613
  16   2.0000     -10.019566      -272.6463
  17   2.0000     -10.017357      -272.5861
  18   2.0000     -10.017309      -272.5848
  19   2.0000      -7.875439      -214.3016
  20   2.0000      -7.872219      -214.2140
  21   2.0000      -7.820669      -212.8112
  22   2.0000      -7.816421      -212.6956
  23   2.0000      -6.596641      -179.5037
  24   2.0000      -6.595656      -179.4769
  25   2.0000      -5.822286      -158.4324
  26   2.0000      -5.819077      -158.3451
  27   2.0000      -5.819035      -158.3440
  28   2.0000      -5.816101      -158.2642
  29   2.0000      -5.812798      -158.1743
  30   2.0000      -5.809276      -158.0784
  31   2.0000      -5.768252      -156.9621
  32   2.0000      -5.764079      -156.8486
  33   2.0000      -5.761178      -156.7696
  34   2.0000      -5.760470      -156.7504
  35   2.0000      -5.756737      -156.6488
  36   2.0000      -5.756284      -156.6364
  37   2.0000      -4.742324      -129.0452
  38   2.0000      -4.741790      -129.0307
  39   2.0000      -4.740925      -129.0071
  40   2.0000      -4.740467      -128.9947
  41   2.0000      -4.740030      -128.9828
  42   2.0000      -4.739748      -128.9751
  43   2.0000      -1.053224       -28.6597
  44   2.0000      -1.049741       -28.5649
  45   2.0000      -1.013405       -27.5761
  46   2.0000      -1.009421       -27.4677
  47   2.0000      -0.802015       -21.8239
  48   2.0000      -0.756173       -20.5765
  49   2.0000      -0.744793       -20.2668
  50   2.0000      -0.727694       -19.8016
  51   2.0000      -0.722200       -19.6520
  52   2.0000      -0.710517       -19.3342
  53   2.0000      -0.687682       -18.7128
  54   2.0000      -0.669336       -18.2136
  55   2.0000      -0.631664       -17.1884
  56   2.0000      -0.621156       -16.9025
  57   2.0000      -0.597863       -16.2687
  58   2.0000      -0.596463       -16.2306
  59   2.0000      -0.592299       -16.1173
  60   2.0000      -0.525907       -14.3106
  61   2.0000      -0.512113       -13.9353
  62   2.0000      -0.492471       -13.4008
  63   2.0000      -0.486677       -13.2432
  64   2.0000      -0.469300       -12.7703
  65   2.0000      -0.466934       -12.7059
  66   2.0000      -0.452125       -12.3030
  67   2.0000      -0.448712       -12.2101
  68   2.0000      -0.445185       -12.1141
  69   2.0000      -0.433513       -11.7965
  70   2.0000      -0.423942       -11.5360
  71   2.0000      -0.413979       -11.2649
  72   2.0000      -0.404213       -10.9992
  73   2.0000      -0.401905       -10.9364
  74   2.0000      -0.395829       -10.7711
  75   2.0000      -0.387325       -10.5396
  76   2.0000      -0.378614       -10.3026
  77   2.0000      -0.367798       -10.0083
  78   2.0000      -0.363348        -9.8872
  79   2.0000      -0.357462        -9.7270
  80   2.0000      -0.354067        -9.6347
  81   2.0000      -0.353678        -9.6241
  82   2.0000      -0.349472        -9.5096
  83   2.0000      -0.346519        -9.4293
  84   2.0000      -0.343868        -9.3571
  85   2.0000      -0.323987        -8.8161
  86   2.0000      -0.321547        -8.7497
  87   2.0000      -0.312512        -8.5039
  88   2.0000      -0.306045        -8.3279
  89   2.0000      -0.303373        -8.2552
  90   2.0000      -0.294768        -8.0210
  91   2.0000      -0.289017        -7.8646
  92   2.0000      -0.283527        -7.7152
  93   2.0000      -0.278028        -7.5655
  94   2.0000      -0.274019        -7.4564
  95   2.0000      -0.254423        -6.9232
  96   2.0000      -0.238738        -6.4964
  97   2.0000      -0.237293        -6.4571
  98   2.0000      -0.225040        -6.1237
  99   2.0000      -0.214431        -5.8350
 100   2.0000      -0.208754        -5.6805
 101   0.0000      -0.047730        -1.2988
 102   0.0000      -0.038044        -1.0352
 103   0.0000      -0.011527        -0.3137
 104   0.0000       0.011430         0.3110
 105   0.0000       0.016069         0.4373

MULLIKEN ATOMIC CHARGES
-----------------------
   0 C :   -0.480703
   1 C :   -0.158772
   2 O :   -0.298869
   3 P :    0.698364
   4 S :   -0.491604
   5 O :   -0.296623
   6 C :   -0.130479
   7 C :   -0.479798
   8 S :   -0.173363
   9 C :   -0.217625
  10 S :   -0.133726
  11 P :    0.696003
  12 S :   -0.516489
  13 O :   -0.297117
  14 C :   -0.154556
  15 C :   -0.492228
  16 O :   -0.325424
  17 C :   -0.157708
  18 C :   -0.480267
  19 H :    0.165602
  20 H :    0.169505
  21 H :    0.166451
  22 H :    0.169937
  23 H :    0.174675
  24 H :    0.178773
  25 H :    0.175204
  26 H :    0.170907
  27 H :    0.175786
  28 H :    0.165548
  29 H :    0.237967
  30 H :    0.212677
  31 H :    0.176980
  32 H :    0.181192
  33 H :    0.169095
  34 H :    0.170874
  35 H :    0.168748
  36 H :    0.173916
  37 H :    0.177390
  38 H :    0.166339
  39 H :    0.171262
  40 H :    0.172155
Sum of atomic charges:    0.0000000

LOEWDIN ATOMIC CHARGES
----------------------
   0 C :   -0.388891
   1 C :    0.022549
   2 O :   -0.683936
   3 P :    0.378947
   4 S :   -0.118946
   5 O :   -0.668095
   6 C :    0.027107
   7 C :   -0.401533
   8 S :    0.136561
   9 C :   -0.405542
  10 S :    0.171059
  11 P :    0.377565
  12 S :   -0.158165
  13 O :   -0.689887
  14 C :    0.012875
  15 C :   -0.403186
  16 O :   -0.680434
  17 C :    0.023134
  18 C :   -0.410670
  19 H :    0.162875
  20 H :    0.168922
  21 H :    0.163157
  22 H :    0.179278
  23 H :    0.181885
  24 H :    0.193808
  25 H :    0.181825
  26 H :    0.166057
  27 H :    0.170214
  28 H :    0.162919
  29 H :    0.196733
  30 H :    0.200047
  31 H :    0.190497
  32 H :    0.183214
  33 H :    0.164153
  34 H :    0.168038
  35 H :    0.163010
  36 H :    0.190037
  37 H :    0.181217
  38 H :    0.163266
  39 H :    0.167226
  40 H :    0.161109

  Mayer bond orders larger than 0.100000
B(  0-C ,  1-C ) :   0.9549 B(  0-C , 19-H ) :   0.9686 B(  0-C , 20-H ) :   0.9581
B(  0-C , 21-H ) :   0.9695 B(  1-C ,  2-O ) :   0.7739 B(  1-C , 22-H ) :   0.9339
B(  1-C , 23-H ) :   0.9474 B(  2-O ,  3-P ) :   1.0691 B(  3-P ,  4-S ) :   1.7850
B(  3-P ,  5-O ) :   1.1658 B(  3-P ,  8-S ) :   1.0055 B(  5-O ,  6-C ) :   0.7925
B(  6-C ,  7-C ) :   0.9131 B(  6-C , 24-H ) :   0.9468 B(  6-C , 25-H ) :   0.9533
B(  7-C , 26-H ) :   0.9688 B(  7-C , 27-H ) :   0.9505 B(  7-C , 28-H ) :   0.9598
B(  8-S ,  9-C ) :   0.9082 B(  9-C , 10-S ) :   0.8847 B(  9-C , 29-H ) :   0.8966
B(  9-C , 30-H ) :   0.9094 B( 10-S , 11-P ) :   1.1434 B( 11-P , 12-S ) :   1.7042
B( 11-P , 13-O ) :   1.1663 B( 11-P , 16-O ) :   1.0624 B( 13-O , 14-C ) :   0.7927
B( 14-C , 15-C ) :   0.9054 B( 14-C , 31-H ) :   0.9515 B( 14-C , 32-H ) :   0.9605
B( 15-C , 33-H ) :   0.9712 B( 15-C , 34-H ) :   0.9543 B( 15-C , 35-H ) :   0.9620
B( 16-O , 17-C ) :   0.8096 B( 17-C , 18-C ) :   0.9095 B( 17-C , 36-H ) :   0.9491
B( 17-C , 37-H ) :   0.9654 B( 18-C , 38-H ) :   0.9651 B( 18-C , 39-H ) :   0.9543
B( 18-C , 40-H ) :   0.9660

Dispersion correction           -0.022133313
FINAL SINGLE POINT ENERGY     -2932.467493836406

DIPOLE MOMENT
-------------

Method             : SCF
Type of density    : Electron Density
Multiplicity       :   1
Irrep              :   0
Energy             : -2932.4918913382675782 Eh
Relativity type    :
Basis              : AO
                                X                 Y                 Z
Electronic contribution:     -2.991898209      -2.527233146      -8.257570033
Nuclear contribution   :      3.570697094       1.082390307       9.570937570
                        -----------------------------------------
Total Dipole Moment    :      0.578798884      -1.444842839       1.313367537
                        -----------------------------------------
Magnitude (a.u.)       :      2.036544442
Magnitude (Debye)      :      5.176484589

Rotational constants in cm-1:             0.013543             0.005061             0.004784
Rotational constants in MHz :           406.007618           151.716477           143.419502

                             ****ORCA TERMINATED NORMALLY****
TOTAL RUN TIME: 0 days 0 hours 1 minutes 57 seconds 357 msec
