                         Program Version 6.0.0  -   RELEASE  -
|  1> ! pbe def2-sv(p) def2/J RI DEFGRID1 loosescf d4 GCP(DFT/SV(P)) printgap
|  2> %output
|  3>     printlevel normal
|  4> end
|  5> * xyz 0 1
|  6> C 2.546769958 -2.9739379943 1.3199583553
|  7> C 1.215098803 -2.2991143887 1.0585255699
|  8> O 1.3679471363 -0.8780520982 0.9445931632
|  9> P 1.9172109061 -0.18839712 -0.385770893
| 10> S 1.7015025029 -1.2266031831 -2.0294627183
| 11> O 3.4673335455 0.0774198383 -0.1468175384
| 12> C 4.0418030685 1.1146508387 0.678031785
| 13> C 3.5529069195 1.0630220147 2.1103267208
| 14> S 1.0776375417 1.7480192907 -0.3322941295
| 15> C -0.0891987471 1.626273111 -1.7137681082
| 16> S -1.8459259139 1.7543746108 -1.2506130546
| 17> P -2.0463219871 0.1342138616 0.1082064467
| 18> S -3.9011266547 -0.2628691317 0.5870105447
| 19> O -1.0738167022 0.4046518972 1.3269732709
| 20> C -1.5121088145 1.1251944162 2.4931030561
| 21> C -1.6757186963 2.6065235902 2.2151074717
| 22> O -1.1829230587 -1.0271387404 -0.558559117
| 23> C -1.7663753092 -1.8095963268 -1.6242269259
| 24> C -2.3349711865 -3.1071133485 -1.0867418301
| 25> H 3.2223053995 -2.785093365 0.4856591805
| 26> H 2.9948617501 -2.5881453247 2.2316824826
| 27> H 2.3962924874 -4.04442822 1.4187573914
| 28> H 0.5162648285 -2.4328148417 1.8858701906
| 29> H 0.7651827906 -2.6792410929 0.1359499349
| 30> H 5.1140618388 0.9237581494 0.609765162
| 31> H 3.8084534741 2.0808836785 0.2234313947
| 32> H 2.4758385464 1.2198827995 2.1428265603
| 33> H 3.781708262 0.0983533204 2.5559204124
| 34> H 4.0420080964 1.8462676234 2.6809654037
| 35> H 0.0964715039 0.6887890823 -2.2441204349
| 36> H 0.0800617856 2.481017247 -2.364344697
| 37> H -2.4558487614 0.6884368696 2.8363995894
| 38> H -0.7271116083 0.936988205 3.2271402828
| 39> H -1.8986322323 3.1218754176 3.1438129258
| 40> H -0.763622561 3.0145150586 1.7852454324
| 41> H -2.4969893004 2.7661039611 1.5169336664
| 42> H -2.5454615346 -1.2206072666 -2.1201015408
| 43> H -0.9465448099 -1.9931554669 -2.3238557984
| 44> H -1.5601715092 -3.6762728635 -0.5806062245
| 45> H -3.138830622 -2.9008418554 -0.383286651
| 46> H -2.7265729153 -3.6905145136 -1.9137597225
| 47> *
| 48>
| 49>                          ****END OF INPUT****

CARTESIAN COORDINATES (ANGSTROEM)
---------------------------------
  C      2.546770   -2.973938    1.319958
  C      1.215099   -2.299114    1.058526
  O      1.367947   -0.878052    0.944593
  P      1.917211   -0.188397   -0.385771
  S      1.701503   -1.226603   -2.029463
  O      3.467334    0.077420   -0.146818
  C      4.041803    1.114651    0.678032
  C      3.552907    1.063022    2.110327
  S      1.077638    1.748019   -0.332294
  C     -0.089199    1.626273   -1.713768
  S     -1.845926    1.754375   -1.250613
  P     -2.046322    0.134214    0.108206
  S     -3.901127   -0.262869    0.587011
  O     -1.073817    0.404652    1.326973
  C     -1.512109    1.125194    2.493103
  C     -1.675719    2.606524    2.215107
  O     -1.182923   -1.027139   -0.558559
  C     -1.766375   -1.809596   -1.624227
  C     -2.334971   -3.107113   -1.086742
  H      3.222305   -2.785093    0.485659
  H      2.994862   -2.588145    2.231682
  H      2.396292   -4.044428    1.418757
  H      0.516265   -2.432815    1.885870
  H      0.765183   -2.679241    0.135950
  H      5.114062    0.923758    0.609765
  H      3.808453    2.080884    0.223431
  H      2.475839    1.219883    2.142827
  H      3.781708    0.098353    2.555920
  H      4.042008    1.846268    2.680965
  H      0.096472    0.688789   -2.244120
  H      0.080062    2.481017   -2.364345
  H     -2.455849    0.688437    2.836400
  H     -0.727112    0.936988    3.227140
  H     -1.898632    3.121875    3.143813
  H     -0.763623    3.014515    1.785245
  H     -2.496989    2.766104    1.516934
  H     -2.545462   -1.220607   -2.120102
  H     -0.946545   -1.993155   -2.323856
  H     -1.560172   -3.676273   -0.580606
  H     -3.138831   -2.900842   -0.383287
  H     -2.726573   -3.690515   -1.913760

 Total Charge           Charge          ....    0
 Multiplicity           Mult            ....    1
 Number of Electrons    NEL             ....  202
 Basis Dimension        Dim             ....  334

ORBITAL ENERGIES
----------------

  NO   OCC          E(Eh)            E(eV)
   0   2.0000     -88.050246     -2395.9690
   1   2.0000     -88.043890     -2395.7960
   2   2.0000     -87.989375     -2394.3126
   3   2.0000     -87.987638     -2394.2653
   4   2.0000     -76.429297     -2079.7469
   5   2.0000     -76.425810     -2079.6520
   6   2.0000     -18.795898      -511.4624
   7   2.0000     -18.790880      -511.3258
   8   2.0000     -18.788162      -511.2519
   9   2.0000     -18.787761      -511.2410
  10   2.0000      -9.961943      -271.0783
  11   2.0000      -9.959889      -271.0224
  12   2.0000      -9.951065      -270.7822
  13   2.0000      -9.947964      -270.6979
  14   2.0000      -9.946140      -270.6482
  15   2.0000      -9.895555      -269.2717
  16   2.0000      -9.884442      -268.9694
  17   2.0000      -9.882022      -268.9035
  18   2.0000      -9.877476      -268.7798
  19   2.0000      -7.695066      -209.3934
  20   2.0000      -7.688921      -209.2262
  21   2.0000      -7.634484      -207.7449
  22   2.0000      -7.632811      -207.6993
  23   2.0000      -6.426982      -174.8871
  24   2.0000      -6.423364      -174.7886
  25   2.0000      -5.722946      -155.7293
  26   2.0000      -5.719678      -155.6403
  27   2.0000      -5.717098      -155.5701
  28   2.0000      -5.712996      -155.4585
  29   2.0000      -5.711871      -155.4279
  30   2.0000      -5.706086      -155.2705
  31   2.0000      -5.663500      -154.1117
  32   2.0000      -5.661742      -154.0638
  33   2.0000      -5.655497      -153.8939
  34   2.0000      -5.654027      -153.8539
  35   2.0000      -5.653415      -153.8373
  36   2.0000      -5.652968      -153.8251
  37   2.0000      -4.649654      -126.5235
  38   2.0000      -4.648457      -126.4909
  39   2.0000      -4.647659      -126.4692
  40   2.0000      -4.645694      -126.4158
  41   2.0000      -4.645583      -126.4127
  42   2.0000      -4.643611      -126.3591
  43   2.0000      -0.988117       -26.8880
  44   2.0000      -0.983835       -26.7715
  45   2.0000      -0.945265       -25.7220
  46   2.0000      -0.944107       -25.6904
  47   2.0000      -0.764766       -20.8103
  48   2.0000      -0.722417       -19.6580
  49   2.0000      -0.710261       -19.3272
  50   2.0000      -0.694456       -18.8971
  51   2.0000      -0.680996       -18.5308
  52   2.0000      -0.677617       -18.4389
  53   2.0000      -0.655988       -17.8503
  54   2.0000      -0.641131       -17.4461
  55   2.0000      -0.601793       -16.3756
  56   2.0000      -0.595205       -16.1963
  57   2.0000      -0.578451       -15.7405
  58   2.0000      -0.566734       -15.4216
  59   2.0000      -0.560550       -15.2533
  60   2.0000      -0.502001       -13.6601
  61   2.0000      -0.494713       -13.4618
  62   2.0000      -0.478450       -13.0193
  63   2.0000      -0.469638       -12.7795
  64   2.0000      -0.459538       -12.5047
  65   2.0000      -0.447135       -12.1672
  66   2.0000      -0.443334       -12.0637
  67   2.0000      -0.434798       -11.8315
  68   2.0000      -0.422543       -11.4980
  69   2.0000      -0.419268       -11.4088
  70   2.0000      -0.414900       -11.2900
  71   2.0000      -0.403383       -10.9766
  72   2.0000      -0.394273       -10.7287
  73   2.0000      -0.388529       -10.5724
  74   2.0000      -0.386208       -10.5093
  75   2.0000      -0.374617       -10.1939
  76   2.0000      -0.363993        -9.9047
  77   2.0000      -0.359735        -9.7889
  78   2.0000      -0.356687        -9.7059
  79   2.0000      -0.355459        -9.6725
  80   2.0000      -0.348997        -9.4967
  81   2.0000      -0.345168        -9.3925
  82   2.0000      -0.342936        -9.3318
  83   2.0000      -0.333615        -9.0781
  84   2.0000      -0.329034        -8.9535
  85   2.0000      -0.325302        -8.8519
  86   2.0000      -0.314580        -8.5602
  87   2.0000      -0.308357        -8.3908
  88   2.0000      -0.296445        -8.0667
  89   2.0000      -0.292173        -7.9504
  90   2.0000      -0.281840        -7.6692
  91   2.0000      -0.276085        -7.5126
  92   2.0000      -0.270333        -7.3561
  93   2.0000      -0.260643        -7.0925
  94   2.0000      -0.256108        -6.9691
  95   2.0000      -0.231263        -6.2930
  96   2.0000      -0.223622        -6.0851
  97   2.0000      -0.213277        -5.8036
  98   2.0000      -0.206587        -5.6215
  99   2.0000      -0.202161        -5.5011
 100   2.0000      -0.200690        -5.4611
 101   0.0000      -0.044064        -1.1990
 102   0.0000      -0.031251        -0.8504
 103   0.0000      -0.019902        -0.5416
 104   0.0000      -0.003207        -0.0873
 105   0.0000       0.015826         0.4306

MULLIKEN ATOMIC CHARGES
-----------------------
   0 C :   -0.307372
   1 C :   -0.026940
   2 O :   -0.368564
   3 P :    0.638525
   4 S :   -0.317827
   5 O :   -0.373727
   6 C :   -0.012841
   7 C :   -0.327171
   8 S :   -0.110204
   9 C :   -0.340082
  10 S :   -0.089757
  11 P :    0.584721
  12 S :   -0.317590
  13 O :   -0.345722
  14 C :   -0.003449
  15 C :   -0.318642
  16 O :   -0.366753
  17 C :   -0.022278
  18 C :   -0.287600
  19 H :    0.125799
  20 H :    0.114176
  21 H :    0.110966
  22 H :    0.104214
  23 H :    0.129831
  24 H :    0.114206
  25 H :    0.116324
  26 H :    0.133832
  27 H :    0.125334
  28 H :    0.115996
  29 H :    0.201809
  30 H :    0.183617
  31 H :    0.111916
  32 H :    0.104345
  33 H :    0.110295
  34 H :    0.119856
  35 H :    0.126160
  36 H :    0.101737
  37 H :    0.118107
  38 H :    0.112979
  39 H :    0.124186
  40 H :    0.107592
Sum of atomic charges:    0.0000000

LOEWDIN ATOMIC CHARGES
----------------------
   0 C :   -0.363694
   1 C :   -0.122978
   2 O :   -0.235994
   3 P :    0.581610
   4 S :   -0.290899
   5 O :   -0.246853
   6 C :   -0.118556
   7 C :   -0.368258
   8 S :    0.095810
   9 C :   -0.479401
  10 S :    0.074822
  11 P :    0.562512
  12 S :   -0.316105
  13 O :   -0.227436
  14 C :   -0.118936
  15 C :   -0.369934
  16 O :   -0.237928
  17 C :   -0.128162
  18 C :   -0.360613
  19 H :    0.125314
  20 H :    0.121147
  21 H :    0.130184
  22 H :    0.117659
  23 H :    0.108490
  24 H :    0.124205
  25 H :    0.109163
  26 H :    0.120300
  27 H :    0.127898
  28 H :    0.132632
  29 H :    0.124283
  30 H :    0.140307
  31 H :    0.109561
  32 H :    0.117064
  33 H :    0.129351
  34 H :    0.119584
  35 H :    0.121354
  36 H :    0.107102
  37 H :    0.110260
  38 H :    0.122190
  39 H :    0.123222
  40 H :    0.129724

  Mayer bond orders larger than 0.100000
B(  0-C ,  1-C ) :   1.1555 B(  0-C , 19-H ) :   0.9384 B(  0-C , 20-H ) :   0.9437
B(  0-C , 21-H ) :   0.9404 B(  1-C ,  2-O ) :   0.9048 B(  1-C , 22-H ) :   0.9338
B(  1-C , 23-H ) :   0.9026 B(  2-O ,  3-P ) :   1.0988 B(  3-P ,  4-S ) :   1.5944
B(  3-P ,  5-O ) :   1.1098 B(  3-P ,  8-S ) :   0.9658 B(  4-S ,  8-S ) :   0.1048
B(  4-S , 29-H ) :   0.1091 B(  5-O ,  6-C ) :   0.9131 B(  6-C ,  7-C ) :   1.1632
B(  6-C , 24-H ) :   0.9338 B(  6-C , 25-H ) :   0.9190 B(  7-C , 26-H ) :   0.9347
B(  7-C , 27-H ) :   0.9420 B(  7-C , 28-H ) :   0.9351 B(  8-S ,  9-C ) :   1.0155
B(  9-C , 10-S ) :   0.9780 B(  9-C , 29-H ) :   0.8515 B(  9-C , 30-H ) :   0.9102
B( 10-S , 11-P ) :   0.9703 B( 11-P , 12-S ) :   1.6416 B( 11-P , 13-O ) :   1.1146
B( 11-P , 16-O ) :   1.0874 B( 13-O , 14-C ) :   0.9116 B( 14-C , 15-C ) :   1.1636
B( 14-C , 31-H ) :   0.9142 B( 14-C , 32-H ) :   0.9313 B( 15-C , 33-H ) :   0.9384
B( 15-C , 34-H ) :   0.9422 B( 15-C , 35-H ) :   0.9374 B( 16-O , 17-C ) :   0.8920
B( 17-C , 18-C ) :   1.1717 B( 17-C , 36-H ) :   0.9093 B( 17-C , 37-H ) :   0.9101
B( 18-C , 38-H ) :   0.9473 B( 18-C , 39-H ) :   0.9321 B( 18-C , 40-H ) :   0.9395

Dispersion correction           -0.070031636
FINAL SINGLE POINT ENERGY     -2929.516369926970

DIPOLE MOMENT
-------------

Method             : SCF
Type of density    : Electron Density
Multiplicity       :   1
Irrep              :   0
Energy             : -2929.6359214137100935 Eh
Relativity type    :
Basis              : AO
                                X                 Y                 Z
Electronic contribution:     -8.446121343       8.008305444     -13.449800523
Nuclear contribution   :      9.652820614      -7.671631584      14.384712443
                        -----------------------------------------
Total Dipole Moment    :      1.206699271       0.336673860       0.934911920
                        -----------------------------------------
Magnitude (a.u.)       :      1.563180322
Magnitude (Debye)      :      3.973288615

Rotational constants in cm-1:             0.010984             0.006515             0.005738
Rotational constants in MHz :           329.301165           195.327279           172.027716

                             ****ORCA TERMINATED NORMALLY****
TOTAL RUN TIME: 0 days 0 hours 0 minutes 22 seconds 981 msec
