                         Program Version 6.0.0  -   RELEASE  -
|  1> ! pbe def2-sv(p) def2/J RI DEFGRID1 loosescf d4 GCP(DFT/SV(P)) printgap
|  2> %output
|  3>     printlevel normal
|  4> end
|  5> * xyz 0 1
|  6> C 4.614830992 1.0856494425 -1.3991433627
|  7> C 4.7502778669 -0.1580549284 -0.545219746
|  8> O 3.4991863416 -0.8508612012 -0.3773865913
|  9> P 2.2792937774 -0.2250489635 0.4259789121
| 10> S 2.7441939749 0.7742880167 2.0378660446
| 11> O 1.3896251163 -1.4909132096 0.7394771011
| 12> C 1.1085131742 -2.5249436788 -0.2359364013
| 13> C 2.0485191253 -3.6978718565 -0.0573955658
| 14> S 1.204312413 0.8588271249 -1.071014427
| 15> C 0.3032081882 1.9397633819 0.0678383053
| 16> S -0.7969136998 1.0554939189 1.2091811731
| 17> P -2.2492203619 0.3611214119 -0.1668677921
| 18> S -1.815995357 -1.030010583 -1.4835498344
| 19> O -2.6905358952 1.7569814962 -0.7690348164
| 20> C -3.4081646613 1.856985313 -2.0184286679
| 21> C -4.8223981069 1.3312280094 -1.8955528369
| 22> O -3.4655371689 -0.0230775494 0.7830472909
| 23> C -3.6311162458 -1.3516105193 1.3036838082
| 24> C -2.5945563532 -1.6738994931 2.3614047692
| 25> H 4.1161441992 0.8504314648 -2.3362382555
| 26> H 4.0335773822 1.8395355828 -0.870624919
| 27> H 5.6023164569 1.4854196822 -1.6061148292
| 28> H 5.1360588273 0.0966891309 0.4465088992
| 29> H 5.3955526732 -0.9005977226 -1.0168384148
| 30> H 0.0721360234 -2.8135252902 -0.0481592457
| 31> H 1.18002959 -2.1002144633 -1.2409806661
| 32> H 3.071490955 -3.3974359305 -0.2668553159
| 33> H 1.9908797643 -4.0658217866 0.963387884
| 34> H 1.7578428982 -4.4880086353 -0.7425294806
| 35> H -0.2712508938 2.6359695062 -0.537558746
| 36> H 1.0171397818 2.4610929139 0.7059344579
| 37> H -3.3906381996 2.9237437225 -2.2452961866
| 38> H -2.8537080583 1.3022119774 -2.7822620213
| 39> H -5.334612416 1.8204830318 -1.0713024628
| 40> H -5.3584135465 1.5208379194 -2.8202335798
| 41> H -4.8034146573 0.2580354766 -1.7108166169
| 42> H -4.6404426671 -1.3522041683 1.7169497098
| 43> H -3.5671528122 -2.0608219493 0.4711630225
| 44> H -2.7949950602 -2.6549913288 2.7799124153
| 45> H -1.596337561 -1.6733909103 1.9219193618
| 46> H -2.6184779572 -0.9300293487 3.1539414392
| 47> *
| 48>
| 49>                          ****END OF INPUT****

CARTESIAN COORDINATES (ANGSTROEM)
---------------------------------
  C      4.614831    1.085649   -1.399143
  C      4.750278   -0.158055   -0.545220
  O      3.499186   -0.850861   -0.377387
  P      2.279294   -0.225049    0.425979
  S      2.744194    0.774288    2.037866
  O      1.389625   -1.490913    0.739477
  C      1.108513   -2.524944   -0.235936
  C      2.048519   -3.697872   -0.057396
  S      1.204312    0.858827   -1.071014
  C      0.303208    1.939763    0.067838
  S     -0.796914    1.055494    1.209181
  P     -2.249220    0.361121   -0.166868
  S     -1.815995   -1.030011   -1.483550
  O     -2.690536    1.756981   -0.769035
  C     -3.408165    1.856985   -2.018429
  C     -4.822398    1.331228   -1.895553
  O     -3.465537   -0.023078    0.783047
  C     -3.631116   -1.351611    1.303684
  C     -2.594556   -1.673899    2.361405
  H      4.116144    0.850431   -2.336238
  H      4.033577    1.839536   -0.870625
  H      5.602316    1.485420   -1.606115
  H      5.136059    0.096689    0.446509
  H      5.395553   -0.900598   -1.016838
  H      0.072136   -2.813525   -0.048159
  H      1.180030   -2.100214   -1.240981
  H      3.071491   -3.397436   -0.266855
  H      1.990880   -4.065822    0.963388
  H      1.757843   -4.488009   -0.742529
  H     -0.271251    2.635970   -0.537559
  H      1.017140    2.461093    0.705934
  H     -3.390638    2.923744   -2.245296
  H     -2.853708    1.302212   -2.782262
  H     -5.334612    1.820483   -1.071302
  H     -5.358414    1.520838   -2.820234
  H     -4.803415    0.258035   -1.710817
  H     -4.640443   -1.352204    1.716950
  H     -3.567153   -2.060822    0.471163
  H     -2.794995   -2.654991    2.779912
  H     -1.596338   -1.673391    1.921919
  H     -2.618478   -0.930029    3.153941

 Total Charge           Charge          ....    0
 Multiplicity           Mult            ....    1
 Number of Electrons    NEL             ....  202
 Basis Dimension        Dim             ....  334

ORBITAL ENERGIES
----------------

  NO   OCC          E(Eh)            E(eV)
   0   2.0000     -88.038933     -2395.6612
   1   2.0000     -88.036821     -2395.6037
   2   2.0000     -87.987904     -2394.2726
   3   2.0000     -87.984622     -2394.1833
   4   2.0000     -76.426276     -2079.6647
   5   2.0000     -76.424198     -2079.6082
   6   2.0000     -18.795061      -511.4396
   7   2.0000     -18.794782      -511.4320
   8   2.0000     -18.793403      -511.3945
   9   2.0000     -18.785679      -511.1843
  10   2.0000      -9.954325      -270.8710
  11   2.0000      -9.954111      -270.8651
  12   2.0000      -9.953996      -270.8620
  13   2.0000      -9.952508      -270.8215
  14   2.0000      -9.944872      -270.6137
  15   2.0000      -9.885826      -269.0070
  16   2.0000      -9.884503      -268.9710
  17   2.0000      -9.883928      -268.9553
  18   2.0000      -9.879370      -268.8313
  19   2.0000      -7.683930      -209.0904
  20   2.0000      -7.681788      -209.0321
  21   2.0000      -7.632677      -207.6957
  22   2.0000      -7.629920      -207.6207
  23   2.0000      -6.424087      -174.8083
  24   2.0000      -6.421585      -174.7402
  25   2.0000      -5.711947      -155.4300
  26   2.0000      -5.709606      -155.3663
  27   2.0000      -5.708540      -155.3373
  28   2.0000      -5.706427      -155.2798
  29   2.0000      -5.700648      -155.1225
  30   2.0000      -5.698674      -155.0688
  31   2.0000      -5.661391      -154.0543
  32   2.0000      -5.658885      -153.9861
  33   2.0000      -5.653291      -153.8339
  34   2.0000      -5.653063      -153.8277
  35   2.0000      -5.650419      -153.7557
  36   2.0000      -5.650119      -153.7475
  37   2.0000      -4.646714      -126.4435
  38   2.0000      -4.645882      -126.4209
  39   2.0000      -4.644544      -126.3845
  40   2.0000      -4.644427      -126.3813
  41   2.0000      -4.643177      -126.3473
  42   2.0000      -4.641893      -126.3123
  43   2.0000      -0.988973       -26.9113
  44   2.0000      -0.986309       -26.8388
  45   2.0000      -0.949606       -25.8401
  46   2.0000      -0.941966       -25.6322
  47   2.0000      -0.761165       -20.7123
  48   2.0000      -0.719121       -19.5683
  49   2.0000      -0.706712       -19.2306
  50   2.0000      -0.688770       -18.7424
  51   2.0000      -0.687825       -18.7167
  52   2.0000      -0.671092       -18.2613
  53   2.0000      -0.651628       -17.7317
  54   2.0000      -0.638352       -17.3704
  55   2.0000      -0.601396       -16.3648
  56   2.0000      -0.591434       -16.0937
  57   2.0000      -0.574518       -15.6334
  58   2.0000      -0.569203       -15.4888
  59   2.0000      -0.559564       -15.2265
  60   2.0000      -0.499497       -13.5920
  61   2.0000      -0.493092       -13.4177
  62   2.0000      -0.476434       -12.9644
  63   2.0000      -0.471699       -12.8356
  64   2.0000      -0.458254       -12.4697
  65   2.0000      -0.446555       -12.1514
  66   2.0000      -0.440277       -11.9806
  67   2.0000      -0.435345       -11.8464
  68   2.0000      -0.421852       -11.4792
  69   2.0000      -0.415169       -11.2973
  70   2.0000      -0.412270       -11.2184
  71   2.0000      -0.396037       -10.7767
  72   2.0000      -0.390227       -10.6186
  73   2.0000      -0.388578       -10.5737
  74   2.0000      -0.377040       -10.2598
  75   2.0000      -0.375498       -10.2178
  76   2.0000      -0.365812        -9.9543
  77   2.0000      -0.358374        -9.7518
  78   2.0000      -0.355564        -9.6754
  79   2.0000      -0.350750        -9.5444
  80   2.0000      -0.349537        -9.5114
  81   2.0000      -0.346511        -9.4290
  82   2.0000      -0.341183        -9.2841
  83   2.0000      -0.338694        -9.2163
  84   2.0000      -0.332343        -9.0435
  85   2.0000      -0.319576        -8.6961
  86   2.0000      -0.308644        -8.3986
  87   2.0000      -0.296555        -8.0697
  88   2.0000      -0.294695        -8.0191
  89   2.0000      -0.290521        -7.9055
  90   2.0000      -0.286172        -7.7871
  91   2.0000      -0.276302        -7.5185
  92   2.0000      -0.268240        -7.2992
  93   2.0000      -0.263007        -7.1568
  94   2.0000      -0.257870        -7.0170
  95   2.0000      -0.237973        -6.4756
  96   2.0000      -0.216520        -5.8918
  97   2.0000      -0.208136        -5.6637
  98   2.0000      -0.205163        -5.5828
  99   2.0000      -0.199554        -5.4301
 100   2.0000      -0.191420        -5.2088
 101   0.0000      -0.043549        -1.1850
 102   0.0000      -0.022495        -0.6121
 103   0.0000      -0.008577        -0.2334
 104   0.0000       0.001981         0.0539
 105   0.0000       0.016369         0.4454

MULLIKEN ATOMIC CHARGES
-----------------------
   0 C :   -0.315584
   1 C :    0.000032
   2 O :   -0.383089
   3 P :    0.607655
   4 S :   -0.318654
   5 O :   -0.352209
   6 C :   -0.023354
   7 C :   -0.280723
   8 S :   -0.087572
   9 C :   -0.355917
  10 S :   -0.063750
  11 P :    0.609583
  12 S :   -0.328999
  13 O :   -0.372266
  14 C :   -0.006705
  15 C :   -0.305007
  16 O :   -0.370365
  17 C :   -0.005789
  18 C :   -0.339465
  19 H :    0.118475
  20 H :    0.126245
  21 H :    0.113180
  22 H :    0.113472
  23 H :    0.104735
  24 H :    0.117887
  25 H :    0.108249
  26 H :    0.116214
  27 H :    0.115081
  28 H :    0.107935
  29 H :    0.183654
  30 H :    0.192850
  31 H :    0.104802
  32 H :    0.112395
  33 H :    0.119244
  34 H :    0.112757
  35 H :    0.122404
  36 H :    0.106085
  37 H :    0.107776
  38 H :    0.114593
  39 H :    0.149992
  40 H :    0.124154
Sum of atomic charges:    0.0000000

LOEWDIN ATOMIC CHARGES
----------------------
   0 C :   -0.371013
   1 C :   -0.115998
   2 O :   -0.246608
   3 P :    0.574570
   4 S :   -0.312712
   5 O :   -0.234236
   6 C :   -0.118138
   7 C :   -0.359214
   8 S :    0.074819
   9 C :   -0.481010
  10 S :    0.103395
  11 P :    0.568985
  12 S :   -0.313504
  13 O :   -0.241977
  14 C :   -0.118761
  15 C :   -0.364092
  16 O :   -0.242594
  17 C :   -0.122431
  18 C :   -0.371103
  19 H :    0.123836
  20 H :    0.120848
  21 H :    0.131087
  22 H :    0.113191
  23 H :    0.118280
  24 H :    0.113162
  25 H :    0.106314
  26 H :    0.123556
  27 H :    0.126746
  28 H :    0.128828
  29 H :    0.132605
  30 H :    0.130731
  31 H :    0.118212
  32 H :    0.110899
  33 H :    0.127757
  34 H :    0.130878
  35 H :    0.122961
  36 H :    0.119089
  37 H :    0.107002
  38 H :    0.132130
  39 H :    0.125465
  40 H :    0.128042

  Mayer bond orders larger than 0.100000
B(  0-C ,  1-C ) :   1.1673 B(  0-C , 19-H ) :   0.9434 B(  0-C , 20-H ) :   0.9348
B(  0-C , 21-H ) :   0.9366 B(  1-C ,  2-O ) :   0.9058 B(  1-C , 22-H ) :   0.9184
B(  1-C , 23-H ) :   0.9340 B(  2-O ,  3-P ) :   1.0797 B(  3-P ,  4-S ) :   1.6256
B(  3-P ,  5-O ) :   1.1408 B(  3-P ,  8-S ) :   0.9504 B(  4-S ,  8-S ) :   0.1109
B(  5-O ,  6-C ) :   0.8906 B(  6-C ,  7-C ) :   1.1573 B(  6-C , 24-H ) :   0.9214
B(  6-C , 25-H ) :   0.9191 B(  7-C , 26-H ) :   0.9428 B(  7-C , 27-H ) :   0.9466
B(  7-C , 28-H ) :   0.9410 B(  8-S ,  9-C ) :   1.0076 B(  9-C , 10-S ) :   1.0002
B(  9-C , 29-H ) :   0.8985 B(  9-C , 30-H ) :   0.8823 B( 10-S , 11-P ) :   0.9704
B( 10-S , 12-S ) :   0.1131 B( 11-P , 12-S ) :   1.6075 B( 11-P , 13-O ) :   1.1115
B( 11-P , 16-O ) :   1.1028 B( 13-O , 14-C ) :   0.9019 B( 14-C , 15-C ) :   1.1668
B( 14-C , 31-H ) :   0.9339 B( 14-C , 32-H ) :   0.9148 B( 15-C , 33-H ) :   0.9460
B( 15-C , 34-H ) :   0.9388 B( 15-C , 35-H ) :   0.9366 B( 16-O , 17-C ) :   0.9090
B( 17-C , 18-C ) :   1.1627 B( 17-C , 36-H ) :   0.9322 B( 17-C , 37-H ) :   0.9117
B( 18-C , 38-H ) :   0.9385 B( 18-C , 39-H ) :   0.9280 B( 18-C , 40-H ) :   0.9436

Dispersion correction           -0.066286995
FINAL SINGLE POINT ENERGY     -2929.521777025542

DIPOLE MOMENT
-------------

Method             : SCF
Type of density    : Electron Density
Multiplicity       :   1
Irrep              :   0
Energy             : -2929.6404742720510512 Eh
Relativity type    :
Basis              : AO
                                X                 Y                 Z
Electronic contribution:      3.287060616       8.684026313       6.043718644
Nuclear contribution   :     -3.702149684      -8.849734396      -6.940874237
                        -----------------------------------------
Total Dipole Moment    :     -0.415089068      -0.165708083      -0.897155593
                        -----------------------------------------
Magnitude (a.u.)       :      1.002320439
Magnitude (Debye)      :      2.547696087

Rotational constants in cm-1:             0.012838             0.004997             0.004657
Rotational constants in MHz :           384.863320           149.807189           139.605827

                             ****ORCA TERMINATED NORMALLY****
TOTAL RUN TIME: 0 days 0 hours 0 minutes 21 seconds 296 msec
