                         Program Version 6.0.0  -   RELEASE  -
|  1> ! r2scan-3c def2/J RI DEFGRID2 scfconv6 printgap
|  2> %output
|  3>     printlevel normal
|  4> end
|  5> * xyz 0 1
|  6> C 5.5634531741 -0.9198027625 -1.4154310141
|  7> C 4.1590294504 -1.108849603 -1.9555497578
|  8> O 3.2521526426 -1.4896079301 -0.9003415784
|  9> P 2.3528911642 -0.4302808342 -0.1274313969
| 10> S 3.2898163159 1.1200522698 0.6302280196
| 11> O 1.6163524436 -1.3757275877 0.9035159042
| 12> C 2.0636255681 -1.5328564007 2.2741652185
| 13> C 1.1977604394 -0.7154996924 3.2108192208
| 14> S 0.8224479524 -0.0014279264 -1.5223386389
| 15> C 0.1740275202 1.462328126 -0.6654924152
| 16> S -0.8564651961 1.0367382928 0.7531473603
| 17> P -2.5085978297 0.2885315725 -0.3738772778
| 18> S -2.823462921 1.1495001747 -2.1028983992
| 19> O -3.7377173482 0.3466015572 0.6317533471
| 20> C -4.5796030286 1.5057309174 0.7567995454
| 21> C -3.8498117805 2.684722373 1.3676958591
| 22> O -2.2698627163 -1.2597642208 -0.5502404799
| 23> C -1.7278817519 -2.1860157952 0.4213761555
| 24> C -2.446639398 -2.1350245947 1.7520762986
| 25> H 5.5865833432 -0.0966608529 -0.7045967489
| 26> H 5.8955674723 -1.8254142492 -0.9158214942
| 27> H 6.2350568663 -0.6953437352 -2.2377715028
| 28> H 4.1140999516 -1.9335083397 -2.669289706
| 29> H 3.7953116197 -0.1948982874 -2.4338883295
| 30> H 1.9775394551 -2.6019683984 2.4725318273
| 31> H 3.1105466753 -1.226905675 2.3461773735
| 32> H 0.1549331604 -0.999723111 3.1080558339
| 33> H 1.5201289569 -0.88764579 4.2325714138
| 34> H 1.2931201876 0.3437313603 2.9810766498
| 35> H -0.4231690842 2.009359922 -1.3956479236
| 36> H 1.005963716 2.0622509421 -0.2944379896
| 37> H -4.9631498493 1.7633022804 -0.2354244879
| 38> H -5.3969730682 1.1644824347 1.39352985
| 39> H -4.5598762521 3.4815262183 1.5644295544
| 40> H -3.3676210494 2.3931790328 2.2971840845
| 41> H -3.0919573425 3.0527589855 0.6779649238
| 42> H -1.8497453181 -3.1543278405 -0.0667889344
| 43> H -0.66213652 -1.9712242939 0.5400396332
| 44> H -2.0487529373 -2.9112023687 2.3990404859
| 45> H -2.3002266064 -1.1647218101 2.2233569608
| 46> H -3.5120732153 -2.2961854005 1.610093369
| 47> *
| 48>
| 49>                          ****END OF INPUT****

CARTESIAN COORDINATES (ANGSTROEM)
---------------------------------
  C      5.563453   -0.919803   -1.415431
  C      4.159029   -1.108850   -1.955550
  O      3.252153   -1.489608   -0.900342
  P      2.352891   -0.430281   -0.127431
  S      3.289816    1.120052    0.630228
  O      1.616352   -1.375728    0.903516
  C      2.063626   -1.532856    2.274165
  C      1.197760   -0.715500    3.210819
  S      0.822448   -0.001428   -1.522339
  C      0.174028    1.462328   -0.665492
  S     -0.856465    1.036738    0.753147
  P     -2.508598    0.288532   -0.373877
  S     -2.823463    1.149500   -2.102898
  O     -3.737717    0.346602    0.631753
  C     -4.579603    1.505731    0.756800
  C     -3.849812    2.684722    1.367696
  O     -2.269863   -1.259764   -0.550240
  C     -1.727882   -2.186016    0.421376
  C     -2.446639   -2.135025    1.752076
  H      5.586583   -0.096661   -0.704597
  H      5.895567   -1.825414   -0.915821
  H      6.235057   -0.695344   -2.237772
  H      4.114100   -1.933508   -2.669290
  H      3.795312   -0.194898   -2.433888
  H      1.977539   -2.601968    2.472532
  H      3.110547   -1.226906    2.346177
  H      0.154933   -0.999723    3.108056
  H      1.520129   -0.887646    4.232571
  H      1.293120    0.343731    2.981077
  H     -0.423169    2.009360   -1.395648
  H      1.005964    2.062251   -0.294438
  H     -4.963150    1.763302   -0.235424
  H     -5.396973    1.164482    1.393530
  H     -4.559876    3.481526    1.564430
  H     -3.367621    2.393179    2.297184
  H     -3.091957    3.052759    0.677965
  H     -1.849745   -3.154328   -0.066789
  H     -0.662137   -1.971224    0.540040
  H     -2.048753   -2.911202    2.399040
  H     -2.300227   -1.164722    2.223357
  H     -3.512073   -2.296185    1.610093

 Total Charge           Charge          ....    0
 Multiplicity           Mult            ....    1
 Number of Electrons    NEL             ....  202
 Basis Dimension        Dim             ....  539

ORBITAL ENERGIES
----------------

  NO   OCC          E(Eh)            E(eV)
   0   2.0000     -88.577802     -2410.3245
   1   2.0000     -88.575358     -2410.2580
   2   2.0000     -88.525116     -2408.8909
   3   2.0000     -88.517622     -2408.6870
   4   2.0000     -76.918150     -2093.0493
   5   2.0000     -76.913789     -2092.9306
   6   2.0000     -18.995983      -516.9070
   7   2.0000     -18.995065      -516.8820
   8   2.0000     -18.993360      -516.8356
   9   2.0000     -18.987735      -516.6825
  10   2.0000     -10.104839      -274.9666
  11   2.0000     -10.103099      -274.9193
  12   2.0000     -10.102632      -274.9066
  13   2.0000     -10.099097      -274.8104
  14   2.0000     -10.097433      -274.7651
  15   2.0000     -10.033556      -273.0269
  16   2.0000     -10.031553      -272.9724
  17   2.0000     -10.028895      -272.9001
  18   2.0000     -10.027943      -272.8742
  19   2.0000      -7.871774      -214.2019
  20   2.0000      -7.869853      -214.1496
  21   2.0000      -7.820032      -212.7939
  22   2.0000      -7.812467      -212.5880
  23   2.0000      -6.596620      -179.5032
  24   2.0000      -6.592092      -179.3800
  25   2.0000      -5.818641      -158.3333
  26   2.0000      -5.816624      -158.2784
  27   2.0000      -5.815615      -158.2509
  28   2.0000      -5.813699      -158.1988
  29   2.0000      -5.808986      -158.0705
  30   2.0000      -5.807052      -158.0179
  31   2.0000      -5.767594      -156.9442
  32   2.0000      -5.760348      -156.7470
  33   2.0000      -5.760163      -156.7420
  34   2.0000      -5.760065      -156.7393
  35   2.0000      -5.752697      -156.5388
  36   2.0000      -5.752452      -156.5322
  37   2.0000      -4.742102      -129.0392
  38   2.0000      -4.741541      -129.0239
  39   2.0000      -4.740373      -128.9921
  40   2.0000      -4.737787      -128.9217
  41   2.0000      -4.737110      -128.9033
  42   2.0000      -4.735594      -128.8621
  43   2.0000      -1.053820       -28.6759
  44   2.0000      -1.048928       -28.5428
  45   2.0000      -1.014254       -27.5993
  46   2.0000      -1.009462       -27.4689
  47   2.0000      -0.802876       -21.8474
  48   2.0000      -0.760699       -20.6997
  49   2.0000      -0.751698       -20.4547
  50   2.0000      -0.734754       -19.9937
  51   2.0000      -0.733330       -19.9549
  52   2.0000      -0.713959       -19.4278
  53   2.0000      -0.687707       -18.7135
  54   2.0000      -0.669939       -18.2300
  55   2.0000      -0.632079       -17.1997
  56   2.0000      -0.626159       -17.0386
  57   2.0000      -0.609656       -16.5896
  58   2.0000      -0.608112       -16.5476
  59   2.0000      -0.591765       -16.1027
  60   2.0000      -0.534086       -14.5332
  61   2.0000      -0.516187       -14.0462
  62   2.0000      -0.500079       -13.6078
  63   2.0000      -0.489919       -13.3314
  64   2.0000      -0.476756       -12.9732
  65   2.0000      -0.463947       -12.6246
  66   2.0000      -0.462185       -12.5767
  67   2.0000      -0.456032       -12.4093
  68   2.0000      -0.449447       -12.2301
  69   2.0000      -0.437518       -11.9055
  70   2.0000      -0.423285       -11.5182
  71   2.0000      -0.419478       -11.4146
  72   2.0000      -0.415269       -11.3000
  73   2.0000      -0.404037       -10.9944
  74   2.0000      -0.395131       -10.7521
  75   2.0000      -0.389092       -10.5877
  76   2.0000      -0.385059       -10.4780
  77   2.0000      -0.382095       -10.3973
  78   2.0000      -0.370772       -10.0892
  79   2.0000      -0.367810       -10.0086
  80   2.0000      -0.365199        -9.9376
  81   2.0000      -0.361254        -9.8302
  82   2.0000      -0.358977        -9.7683
  83   2.0000      -0.354447        -9.6450
  84   2.0000      -0.349513        -9.5107
  85   2.0000      -0.334891        -9.1129
  86   2.0000      -0.322504        -8.7758
  87   2.0000      -0.315695        -8.5905
  88   2.0000      -0.309215        -8.4142
  89   2.0000      -0.308844        -8.4041
  90   2.0000      -0.306378        -8.3370
  91   2.0000      -0.296968        -8.0809
  92   2.0000      -0.284858        -7.7514
  93   2.0000      -0.279301        -7.6002
  94   2.0000      -0.275900        -7.5076
  95   2.0000      -0.248843        -6.7714
  96   2.0000      -0.232797        -6.3347
  97   2.0000      -0.226458        -6.1622
  98   2.0000      -0.218723        -5.9517
  99   2.0000      -0.215418        -5.8618
 100   2.0000      -0.214465        -5.8359
 101   0.0000      -0.047275        -1.2864
 102   0.0000      -0.027933        -0.7601
 103   0.0000      -0.004285        -0.1166
 104   0.0000      -0.001716        -0.0467
 105   0.0000       0.012740         0.3467

MULLIKEN ATOMIC CHARGES
-----------------------
   0 C :   -0.452336
   1 C :   -0.127714
   2 O :   -0.302315
   3 P :    0.655505
   4 S :   -0.481083
   5 O :   -0.264937
   6 C :   -0.123050
   7 C :   -0.459507
   8 S :   -0.112353
   9 C :   -0.247444
  10 S :   -0.156657
  11 P :    0.656596
  12 S :   -0.460020
  13 O :   -0.266016
  14 C :   -0.170036
  15 C :   -0.441257
  16 O :   -0.257729
  17 C :   -0.160654
  18 C :   -0.454542
  19 H :    0.179797
  20 H :    0.151227
  21 H :    0.145826
  22 H :    0.151766
  23 H :    0.154002
  24 H :    0.150921
  25 H :    0.162811
  26 H :    0.153099
  27 H :    0.146658
  28 H :    0.177950
  29 H :    0.223459
  30 H :    0.214395
  31 H :    0.176323
  32 H :    0.148295
  33 H :    0.147703
  34 H :    0.152003
  35 H :    0.176986
  36 H :    0.152345
  37 H :    0.189457
  38 H :    0.151355
  39 H :    0.157364
  40 H :    0.161806
Sum of atomic charges:    0.0000000

LOEWDIN ATOMIC CHARGES
----------------------
   0 C :   -0.400360
   1 C :    0.023201
   2 O :   -0.658738
   3 P :    0.374836
   4 S :   -0.135996
   5 O :   -0.683382
   6 C :    0.023489
   7 C :   -0.402103
   8 S :    0.177936
   9 C :   -0.425491
  10 S :    0.142975
  11 P :    0.385738
  12 S :   -0.108246
  13 O :   -0.671542
  14 C :    0.021354
  15 C :   -0.407997
  16 O :   -0.651133
  17 C :    0.021281
  18 C :   -0.405004
  19 H :    0.168245
  20 H :    0.158161
  21 H :    0.158703
  22 H :    0.179244
  23 H :    0.176505
  24 H :    0.177597
  25 H :    0.179979
  26 H :    0.158598
  27 H :    0.158865
  28 H :    0.167247
  29 H :    0.193500
  30 H :    0.193334
  31 H :    0.181317
  32 H :    0.179206
  33 H :    0.159280
  34 H :    0.159083
  35 H :    0.165673
  36 H :    0.183076
  37 H :    0.195589
  38 H :    0.159457
  39 H :    0.161595
  40 H :    0.164929

  Mayer bond orders larger than 0.100000
B(  0-C ,  1-C ) :   0.9572 B(  0-C , 19-H ) :   0.9576 B(  0-C , 20-H ) :   0.9750
B(  0-C , 21-H ) :   0.9644 B(  1-C ,  2-O ) :   0.7733 B(  1-C , 22-H ) :   0.9630
B(  1-C , 23-H ) :   0.9615 B(  2-O ,  3-P ) :   1.0834 B(  3-P ,  4-S ) :   1.7453
B(  3-P ,  5-O ) :   1.1484 B(  3-P ,  8-S ) :   1.1124 B(  5-O ,  6-C ) :   0.7565
B(  6-C ,  7-C ) :   0.9484 B(  6-C , 24-H ) :   0.9602 B(  6-C , 25-H ) :   0.9640
B(  7-C , 26-H ) :   0.9644 B(  7-C , 27-H ) :   0.9633 B(  7-C , 28-H ) :   0.9634
B(  8-S ,  9-C ) :   0.9058 B(  9-C , 10-S ) :   0.9083 B(  9-C , 29-H ) :   0.9033
B(  9-C , 30-H ) :   0.9000 B( 10-S , 11-P ) :   0.9904 B( 11-P , 12-S ) :   1.8061
B( 11-P , 13-O ) :   1.0420 B( 11-P , 16-O ) :   1.1856 B( 13-O , 14-C ) :   0.8092
B( 14-C , 15-C ) :   0.9137 B( 14-C , 31-H ) :   0.9676 B( 14-C , 32-H ) :   0.9618
B( 15-C , 33-H ) :   0.9573 B( 15-C , 34-H ) :   0.9689 B( 15-C , 35-H ) :   0.9641
B( 16-O , 17-C ) :   0.8111 B( 17-C , 18-C ) :   0.8999 B( 17-C , 36-H ) :   0.9610
B( 17-C , 37-H ) :   0.9511 B( 18-C , 38-H ) :   0.9611 B( 18-C , 39-H ) :   0.9655
B( 18-C , 40-H ) :   0.9648

Dispersion correction           -0.021839546
FINAL SINGLE POINT ENERGY     -2932.462517472807

DIPOLE MOMENT
-------------

Method             : SCF
Type of density    : Electron Density
Multiplicity       :   1
Irrep              :   0
Energy             : -2932.4872638597339574 Eh
Relativity type    :
Basis              : AO
                                X                 Y                 Z
Electronic contribution:     -2.239845247       4.516206883     -15.093658007
Nuclear contribution   :      2.467525257      -5.362363018      16.362030957
                        -----------------------------------------
Total Dipole Moment    :      0.227680010      -0.846156135       1.268372949
                        -----------------------------------------
Magnitude (a.u.)       :      1.541618737
Magnitude (Debye)      :      3.918483422

Rotational constants in cm-1:             0.013693             0.004705             0.004395
Rotational constants in MHz :           410.496145           141.045793           131.767554

                             ****ORCA TERMINATED NORMALLY****
TOTAL RUN TIME: 0 days 0 hours 1 minutes 20 seconds 649 msec
