                         Program Version 6.0.0  -   RELEASE  -
|  1> ! r2scan-3c def2/J RI DEFGRID2 scfconv6 printgap
|  2> %output
|  3>     printlevel normal
|  4> end
|  5> %cpcm
|  6>     smd true
|  7>     smdsolvent "water"
|  8> end
|  9> * xyz 0 1
| 10> C 5.5634531741 -0.9198027625 -1.4154310141
| 11> C 4.1590294504 -1.108849603 -1.9555497578
| 12> O 3.2521526426 -1.4896079301 -0.9003415784
| 13> P 2.3528911642 -0.4302808342 -0.1274313969
| 14> S 3.2898163159 1.1200522698 0.6302280196
| 15> O 1.6163524436 -1.3757275877 0.9035159042
| 16> C 2.0636255681 -1.5328564007 2.2741652185
| 17> C 1.1977604394 -0.7154996924 3.2108192208
| 18> S 0.8224479524 -0.0014279264 -1.5223386389
| 19> C 0.1740275202 1.462328126 -0.6654924152
| 20> S -0.8564651961 1.0367382928 0.7531473603
| 21> P -2.5085978297 0.2885315725 -0.3738772778
| 22> S -2.823462921 1.1495001747 -2.1028983992
| 23> O -3.7377173482 0.3466015572 0.6317533471
| 24> C -4.5796030286 1.5057309174 0.7567995454
| 25> C -3.8498117805 2.684722373 1.3676958591
| 26> O -2.2698627163 -1.2597642208 -0.5502404799
| 27> C -1.7278817519 -2.1860157952 0.4213761555
| 28> C -2.446639398 -2.1350245947 1.7520762986
| 29> H 5.5865833432 -0.0966608529 -0.7045967489
| 30> H 5.8955674723 -1.8254142492 -0.9158214942
| 31> H 6.2350568663 -0.6953437352 -2.2377715028
| 32> H 4.1140999516 -1.9335083397 -2.669289706
| 33> H 3.7953116197 -0.1948982874 -2.4338883295
| 34> H 1.9775394551 -2.6019683984 2.4725318273
| 35> H 3.1105466753 -1.226905675 2.3461773735
| 36> H 0.1549331604 -0.999723111 3.1080558339
| 37> H 1.5201289569 -0.88764579 4.2325714138
| 38> H 1.2931201876 0.3437313603 2.9810766498
| 39> H -0.4231690842 2.009359922 -1.3956479236
| 40> H 1.005963716 2.0622509421 -0.2944379896
| 41> H -4.9631498493 1.7633022804 -0.2354244879
| 42> H -5.3969730682 1.1644824347 1.39352985
| 43> H -4.5598762521 3.4815262183 1.5644295544
| 44> H -3.3676210494 2.3931790328 2.2971840845
| 45> H -3.0919573425 3.0527589855 0.6779649238
| 46> H -1.8497453181 -3.1543278405 -0.0667889344
| 47> H -0.66213652 -1.9712242939 0.5400396332
| 48> H -2.0487529373 -2.9112023687 2.3990404859
| 49> H -2.3002266064 -1.1647218101 2.2233569608
| 50> H -3.5120732153 -2.2961854005 1.610093369
| 51> *
| 52>
| 53>                          ****END OF INPUT****

CARTESIAN COORDINATES (ANGSTROEM)
---------------------------------
  C      5.563453   -0.919803   -1.415431
  C      4.159029   -1.108850   -1.955550
  O      3.252153   -1.489608   -0.900342
  P      2.352891   -0.430281   -0.127431
  S      3.289816    1.120052    0.630228
  O      1.616352   -1.375728    0.903516
  C      2.063626   -1.532856    2.274165
  C      1.197760   -0.715500    3.210819
  S      0.822448   -0.001428   -1.522339
  C      0.174028    1.462328   -0.665492
  S     -0.856465    1.036738    0.753147
  P     -2.508598    0.288532   -0.373877
  S     -2.823463    1.149500   -2.102898
  O     -3.737717    0.346602    0.631753
  C     -4.579603    1.505731    0.756800
  C     -3.849812    2.684722    1.367696
  O     -2.269863   -1.259764   -0.550240
  C     -1.727882   -2.186016    0.421376
  C     -2.446639   -2.135025    1.752076
  H      5.586583   -0.096661   -0.704597
  H      5.895567   -1.825414   -0.915821
  H      6.235057   -0.695344   -2.237772
  H      4.114100   -1.933508   -2.669290
  H      3.795312   -0.194898   -2.433888
  H      1.977539   -2.601968    2.472532
  H      3.110547   -1.226906    2.346177
  H      0.154933   -0.999723    3.108056
  H      1.520129   -0.887646    4.232571
  H      1.293120    0.343731    2.981077
  H     -0.423169    2.009360   -1.395648
  H      1.005964    2.062251   -0.294438
  H     -4.963150    1.763302   -0.235424
  H     -5.396973    1.164482    1.393530
  H     -4.559876    3.481526    1.564430
  H     -3.367621    2.393179    2.297184
  H     -3.091957    3.052759    0.677965
  H     -1.849745   -3.154328   -0.066789
  H     -0.662137   -1.971224    0.540040
  H     -2.048753   -2.911202    2.399040
  H     -2.300227   -1.164722    2.223357
  H     -3.512073   -2.296185    1.610093

 Total Charge           Charge          ....    0
 Multiplicity           Mult            ....    1
 Number of Electrons    NEL             ....  202
 Basis Dimension        Dim             ....  539

ORBITAL ENERGIES
----------------

  NO   OCC          E(Eh)            E(eV)
   0   2.0000     -88.581617     -2410.4283
   1   2.0000     -88.578010     -2410.3302
   2   2.0000     -88.529164     -2409.0010
   3   2.0000     -88.528661     -2408.9873
   4   2.0000     -76.920655     -2093.1174
   5   2.0000     -76.920608     -2093.1162
   6   2.0000     -18.995719      -516.8998
   7   2.0000     -18.995653      -516.8980
   8   2.0000     -18.993743      -516.8460
   9   2.0000     -18.993740      -516.8459
  10   2.0000     -10.103654      -274.9344
  11   2.0000     -10.091657      -274.6079
  12   2.0000     -10.090856      -274.5862
  13   2.0000     -10.090034      -274.5638
  14   2.0000     -10.090013      -274.5632
  15   2.0000     -10.020100      -272.6608
  16   2.0000     -10.018204      -272.6092
  17   2.0000     -10.016942      -272.5748
  18   2.0000     -10.016914      -272.5741
  19   2.0000      -7.875732      -214.3096
  20   2.0000      -7.872406      -214.2191
  21   2.0000      -7.824332      -212.9109
  22   2.0000      -7.823874      -212.8984
  23   2.0000      -6.599079      -179.5701
  24   2.0000      -6.599035      -179.5689
  25   2.0000      -5.822550      -158.4396
  26   2.0000      -5.819553      -158.3581
  27   2.0000      -5.819233      -158.3494
  28   2.0000      -5.816281      -158.2691
  29   2.0000      -5.813007      -158.1800
  30   2.0000      -5.809532      -158.0854
  31   2.0000      -5.771858      -157.0603
  32   2.0000      -5.771445      -157.0490
  33   2.0000      -5.764660      -156.8644
  34   2.0000      -5.764343      -156.8558
  35   2.0000      -5.764125      -156.8498
  36   2.0000      -5.763892      -156.8435
  37   2.0000      -4.744699      -129.1098
  38   2.0000      -4.744490      -129.1041
  39   2.0000      -4.744001      -129.0908
  40   2.0000      -4.743985      -129.0904
  41   2.0000      -4.742934      -129.0618
  42   2.0000      -4.742662      -129.0544
  43   2.0000      -1.052824       -28.6488
  44   2.0000      -1.052521       -28.6406
  45   2.0000      -1.012949       -27.5637
  46   2.0000      -1.012300       -27.5461
  47   2.0000      -0.804981       -21.9046
  48   2.0000      -0.756454       -20.5842
  49   2.0000      -0.745546       -20.2873
  50   2.0000      -0.726094       -19.7580
  51   2.0000      -0.722197       -19.6520
  52   2.0000      -0.712141       -19.3783
  53   2.0000      -0.689864       -18.7722
  54   2.0000      -0.675031       -18.3685
  55   2.0000      -0.630974       -17.1697
  56   2.0000      -0.621003       -16.8983
  57   2.0000      -0.603737       -16.4285
  58   2.0000      -0.599723       -16.3193
  59   2.0000      -0.588936       -16.0258
  60   2.0000      -0.527902       -14.3649
  61   2.0000      -0.513015       -13.9598
  62   2.0000      -0.493595       -13.4314
  63   2.0000      -0.487397       -13.2627
  64   2.0000      -0.476713       -12.9720
  65   2.0000      -0.458879       -12.4867
  66   2.0000      -0.456698       -12.4274
  67   2.0000      -0.451883       -12.2963
  68   2.0000      -0.441653       -12.0180
  69   2.0000      -0.433865       -11.8061
  70   2.0000      -0.419623       -11.4185
  71   2.0000      -0.414708       -11.2848
  72   2.0000      -0.410311       -11.1651
  73   2.0000      -0.398030       -10.8309
  74   2.0000      -0.394867       -10.7449
  75   2.0000      -0.384549       -10.4641
  76   2.0000      -0.382149       -10.3988
  77   2.0000      -0.376500       -10.2451
  78   2.0000      -0.363122        -9.8811
  79   2.0000      -0.359808        -9.7909
  80   2.0000      -0.356462        -9.6998
  81   2.0000      -0.352397        -9.5892
  82   2.0000      -0.351330        -9.5602
  83   2.0000      -0.347429        -9.4540
  84   2.0000      -0.343580        -9.3493
  85   2.0000      -0.331592        -9.0231
  86   2.0000      -0.316561        -8.6141
  87   2.0000      -0.308571        -8.3966
  88   2.0000      -0.306908        -8.3514
  89   2.0000      -0.304580        -8.2881
  90   2.0000      -0.302282        -8.2255
  91   2.0000      -0.291846        -7.9415
  92   2.0000      -0.284699        -7.7470
  93   2.0000      -0.279549        -7.6069
  94   2.0000      -0.277690        -7.5563
  95   2.0000      -0.251456        -6.8425
  96   2.0000      -0.238117        -6.4795
  97   2.0000      -0.233795        -6.3619
  98   2.0000      -0.226084        -6.1520
  99   2.0000      -0.224411        -6.1065
 100   2.0000      -0.221452        -6.0260
 101   0.0000      -0.051808        -1.4098
 102   0.0000      -0.033306        -0.9063
 103   0.0000      -0.006690        -0.1821
 104   0.0000      -0.005841        -0.1589
 105   0.0000       0.013046         0.3550

MULLIKEN ATOMIC CHARGES
-----------------------
   0 C :   -0.490776
   1 C :   -0.123797
   2 O :   -0.329353
   3 P :    0.687174
   4 S :   -0.519195
   5 O :   -0.284102
   6 C :   -0.116450
   7 C :   -0.497377
   8 S :   -0.141000
   9 C :   -0.253243
  10 S :   -0.142940
  11 P :    0.668113
  12 S :   -0.517224
  13 O :   -0.285663
  14 C :   -0.162359
  15 C :   -0.479592
  16 O :   -0.295066
  17 C :   -0.154014
  18 C :   -0.482178
  19 H :    0.170959
  20 H :    0.166875
  21 H :    0.169722
  22 H :    0.176979
  23 H :    0.164178
  24 H :    0.176748
  25 H :    0.171100
  26 H :    0.170023
  27 H :    0.169956
  28 H :    0.169023
  29 H :    0.237508
  30 H :    0.231929
  31 H :    0.178867
  32 H :    0.175901
  33 H :    0.171971
  34 H :    0.168681
  35 H :    0.172239
  36 H :    0.176526
  37 H :    0.187021
  38 H :    0.177451
  39 H :    0.164894
  40 H :    0.170490
Sum of atomic charges:    0.0000000

LOEWDIN ATOMIC CHARGES
----------------------
   0 C :   -0.404674
   1 C :    0.027628
   2 O :   -0.671944
   3 P :    0.380093
   4 S :   -0.159546
   5 O :   -0.688849
   6 C :    0.030407
   7 C :   -0.405142
   8 S :    0.159608
   9 C :   -0.420783
  10 S :    0.155486
  11 P :    0.387614
  12 S :   -0.152058
  13 O :   -0.678652
  14 C :    0.026834
  15 C :   -0.410596
  16 O :   -0.675348
  17 C :    0.026496
  18 C :   -0.403846
  19 H :    0.162678
  20 H :    0.162494
  21 H :    0.167590
  22 H :    0.189864
  23 H :    0.180211
  24 H :    0.189195
  25 H :    0.182473
  26 H :    0.163553
  27 H :    0.167184
  28 H :    0.161728
  29 H :    0.197472
  30 H :    0.198486
  31 H :    0.181747
  32 H :    0.191073
  33 H :    0.168115
  34 H :    0.163626
  35 H :    0.161421
  36 H :    0.192728
  37 H :    0.195809
  38 H :    0.170667
  39 H :    0.163350
  40 H :    0.165808

  Mayer bond orders larger than 0.100000
B(  0-C ,  1-C ) :   0.9473 B(  0-C , 19-H ) :   0.9616 B(  0-C , 20-H ) :   0.9720
B(  0-C , 21-H ) :   0.9594 B(  1-C ,  2-O ) :   0.7610 B(  1-C , 22-H ) :   0.9530
B(  1-C , 23-H ) :   0.9553 B(  2-O ,  3-P ) :   1.0872 B(  3-P ,  4-S ) :   1.7189
B(  3-P ,  5-O ) :   1.1618 B(  3-P ,  8-S ) :   1.1141 B(  5-O ,  6-C ) :   0.7443
B(  6-C ,  7-C ) :   0.9360 B(  6-C , 24-H ) :   0.9489 B(  6-C , 25-H ) :   0.9621
B(  7-C , 26-H ) :   0.9623 B(  7-C , 27-H ) :   0.9590 B(  7-C , 28-H ) :   0.9660
B(  8-S ,  9-C ) :   0.8946 B(  9-C , 10-S ) :   0.9004 B(  9-C , 29-H ) :   0.8994
B(  9-C , 30-H ) :   0.8976 B( 10-S , 11-P ) :   1.0094 B( 11-P , 12-S ) :   1.7837
B( 11-P , 13-O ) :   1.0523 B( 11-P , 16-O ) :   1.1862 B( 13-O , 14-C ) :   0.7977
B( 14-C , 15-C ) :   0.9038 B( 14-C , 31-H ) :   0.9659 B( 14-C , 32-H ) :   0.9507
B( 15-C , 33-H ) :   0.9521 B( 15-C , 34-H ) :   0.9659 B( 15-C , 35-H ) :   0.9652
B( 16-O , 17-C ) :   0.8020 B( 17-C , 18-C ) :   0.8982 B( 17-C , 36-H ) :   0.9504
B( 17-C , 37-H ) :   0.9447 B( 18-C , 38-H ) :   0.9524 B( 18-C , 39-H ) :   0.9594
B( 18-C , 40-H ) :   0.9666

Dispersion correction           -0.021839546
FINAL SINGLE POINT ENERGY     -2932.471008502705

DIPOLE MOMENT
-------------

Method             : SCF
Type of density    : Electron Density
Multiplicity       :   1
Irrep              :   0
Energy             : -2932.4957548896327353 Eh
Relativity type    :
Basis              : AO
                                X                 Y                 Z
Electronic contribution:     -2.139615104       4.293071595     -14.466285132
Nuclear contribution   :      2.467525257      -5.362363018      16.362030957
                        -----------------------------------------
Total Dipole Moment    :      0.327910153      -1.069291423       1.895745825
                        -----------------------------------------
Magnitude (a.u.)       :      2.201081881
Magnitude (Debye)      :      5.594705523

Rotational constants in cm-1:             0.013693             0.004705             0.004395
Rotational constants in MHz :           410.496145           141.045793           131.767554

                             ****ORCA TERMINATED NORMALLY****
TOTAL RUN TIME: 0 days 0 hours 1 minutes 50 seconds 820 msec
