                         Program Version 6.0.0  -   RELEASE  -
|  1> ! wb97x-v def2-tzvp def2/J RIJCOSX DEFGRID2 scfconv7 GCP(DFT/TZ) printgap
|  2> %output
|  3>     printlevel normal
|  4> end
|  5> * xyz 0 1
|  6> C -0.6868569751310802 -0.6284295140976247 -0.2983450448854324
|  7> C 0.6845833450312427 -0.5681883405486905 0.3266390740634257
|  8> O 1.4603115368000419 0.5401574063085944 -0.1589120983631242
|  9> O -1.421882817883566 0.5343407915478354 0.12707337344205485
| 10> H -1.18960458602216 -1.5493020976620544 0.03157822098426173
| 11> H -0.6001767012858555 -0.647592511621579 -1.3932938260389403
| 12> H 1.2358375425432608 -1.4761838683428117 0.06458176566859532
| 13> H 0.595486288262205 -0.5221695473985396 1.4217677423905566
| 14> H 0.991100569789226 1.3453011701329436 0.09512526280021079
| 15> H -2.240101591861248 0.5651188373236585 -0.383530218875875
| 16> *
| 17>
| 18>                          ****END OF INPUT****

CARTESIAN COORDINATES (ANGSTROEM)
---------------------------------
  C     -0.686857   -0.628430   -0.298345
  C      0.684583   -0.568188    0.326639
  O      1.460312    0.540157   -0.158912
  O     -1.421883    0.534341    0.127073
  H     -1.189605   -1.549302    0.031578
  H     -0.600177   -0.647593   -1.393294
  H      1.235838   -1.476184    0.064582
  H      0.595486   -0.522170    1.421768
  H      0.991101    1.345301    0.095125
  H     -2.240102    0.565119   -0.383530

 Total Charge           Charge          ....    0
 Multiplicity           Mult            ....    1
 Number of Electrons    NEL             ....   34
 Basis Dimension        Dim             ....  160

ORBITAL ENERGIES
----------------

  NO   OCC          E(Eh)            E(eV)
   0   2.0000     -21.681322      -589.9788
   1   2.0000     -21.665501      -589.5483
   2   2.0000     -12.098243      -329.2099
   3   2.0000     -12.092907      -329.0647
   4   2.0000      -1.680846       -45.7381
   5   2.0000      -1.663852       -45.2757
   6   2.0000      -1.278017       -34.7766
   7   2.0000      -1.151138       -31.3241
   8   2.0000      -1.048150       -28.5216
   9   2.0000      -1.025078       -27.8938
  10   2.0000      -0.962868       -26.2010
  11   2.0000      -0.959139       -26.0995
  12   2.0000      -0.926781       -25.2190
  13   2.0000      -0.901581       -24.5333
  14   2.0000      -0.834928       -22.7195
  15   2.0000      -0.810907       -22.0659
  16   2.0000      -0.786211       -21.3939
  17   0.0000      -0.166830        -4.5397
  18   0.0000      -0.116674        -3.1749
  19   0.0000      -0.050420        -1.3720
  20   0.0000      -0.025642        -0.6978
  21   0.0000       0.007780         0.2117

MULLIKEN ATOMIC CHARGES
-----------------------
   0 C :   -0.054825
   1 C :    0.002022
   2 O :   -0.465562
   3 O :   -0.467964
   4 H :    0.082053
   5 H :    0.096725
   6 H :    0.097267
   7 H :    0.092856
   8 H :    0.310801
   9 H :    0.306626
Sum of atomic charges:   -0.0000000

LOEWDIN ATOMIC CHARGES
----------------------
   0 C :   -0.350151
   1 C :   -0.340601
   2 O :   -0.060249
   3 O :   -0.066785
   4 H :    0.115670
   5 H :    0.116169
   6 H :    0.128005
   7 H :    0.118079
   8 H :    0.170752
   9 H :    0.169112

  Mayer bond orders larger than 0.100000
B(  0-C ,  1-C ) :   0.9995 B(  0-C ,  3-O ) :   1.0362 B(  0-C ,  4-H ) :   0.9622
B(  0-C ,  5-H ) :   0.9678 B(  1-C ,  2-O ) :   1.0112 B(  1-C ,  6-H ) :   0.9623
B(  1-C ,  7-H ) :   0.9723 B(  2-O ,  8-H ) :   0.8934 B(  3-O ,  9-H ) :   0.9050

FINAL SINGLE POINT ENERGY      -230.269739700599

DIPOLE MOMENT
-------------

Method             : SCF
Type of density    : Electron Density
Multiplicity       :   1
Irrep              :   0
Energy             :  -230.2766545334989985 Eh
Relativity type    :
Basis              : AO
                                X                 Y                 Z
Electronic contribution:      0.251091972       1.789680641      -0.023098187
Nuclear contribution   :     -1.074840627      -2.174651804      -0.123609402
                        -----------------------------------------
Total Dipole Moment    :     -0.823748656      -0.384971163      -0.146707589
                        -----------------------------------------
Magnitude (a.u.)       :      0.921025385
Magnitude (Debye)      :      2.341060483

Rotational constants in cm-1:             0.519644             0.178067             0.149412
Rotational constants in MHz :         15578.535457          5338.315557          4479.255192

                             ****ORCA TERMINATED NORMALLY****
TOTAL RUN TIME: 0 days 0 hours 0 minutes 33 seconds 737 msec
