                         Program Version 6.0.0  -   RELEASE  -
|  1> ! wb97x-v def2-tzvp def2/J RIJCOSX DEFGRID2 scfconv7 GCP(DFT/TZ) printgap
|  2> %output
|  3>     printlevel normal
|  4> end
|  5> %cpcm
|  6>     smd true
|  7>     smdsolvent "water"
|  8> end
|  9> * xyz 0 1
| 10> C -0.6868569751310802 -0.6284295140976247 -0.2983450448854324
| 11> C 0.6845833450312427 -0.5681883405486905 0.3266390740634257
| 12> O 1.4603115368000419 0.5401574063085944 -0.1589120983631242
| 13> O -1.421882817883566 0.5343407915478354 0.12707337344205485
| 14> H -1.18960458602216 -1.5493020976620544 0.03157822098426173
| 15> H -0.6001767012858555 -0.647592511621579 -1.3932938260389403
| 16> H 1.2358375425432608 -1.4761838683428117 0.06458176566859532
| 17> H 0.595486288262205 -0.5221695473985396 1.4217677423905566
| 18> H 0.991100569789226 1.3453011701329436 0.09512526280021079
| 19> H -2.240101591861248 0.5651188373236585 -0.383530218875875
| 20> *
| 21>
| 22>                          ****END OF INPUT****

CARTESIAN COORDINATES (ANGSTROEM)
---------------------------------
  C     -0.686857   -0.628430   -0.298345
  C      0.684583   -0.568188    0.326639
  O      1.460312    0.540157   -0.158912
  O     -1.421883    0.534341    0.127073
  H     -1.189605   -1.549302    0.031578
  H     -0.600177   -0.647593   -1.393294
  H      1.235838   -1.476184    0.064582
  H      0.595486   -0.522170    1.421768
  H      0.991101    1.345301    0.095125
  H     -2.240102    0.565119   -0.383530

 Total Charge           Charge          ....    0
 Multiplicity           Mult            ....    1
 Number of Electrons    NEL             ....   34
 Basis Dimension        Dim             ....  160

ORBITAL ENERGIES
----------------

  NO   OCC          E(Eh)            E(eV)
   0   2.0000     -21.675084      -589.8090
   1   2.0000     -21.674043      -589.7807
   2   2.0000     -12.087562      -328.9193
   3   2.0000     -12.086219      -328.8827
   4   2.0000      -1.677482       -45.6466
   5   2.0000      -1.669871       -45.4395
   6   2.0000      -1.271575       -34.6013
   7   2.0000      -1.149211       -31.2716
   8   2.0000      -1.042134       -28.3579
   9   2.0000      -1.028048       -27.9746
  10   2.0000      -0.967810       -26.3354
  11   2.0000      -0.957924       -26.0664
  12   2.0000      -0.926285       -25.2055
  13   2.0000      -0.903467       -24.5846
  14   2.0000      -0.829452       -22.5705
  15   2.0000      -0.805725       -21.9249
  16   2.0000      -0.778978       -21.1971
  17   0.0000      -0.159652        -4.3444
  18   0.0000      -0.110268        -3.0006
  19   0.0000      -0.029230        -0.7954
  20   0.0000      -0.008930        -0.2430
  21   0.0000       0.022292         0.6066

MULLIKEN ATOMIC CHARGES
-----------------------
   0 C :   -0.061496
   1 C :   -0.003714
   2 O :   -0.563136
   3 O :   -0.559457
   4 H :    0.112365
   5 H :    0.115158
   6 H :    0.127332
   7 H :    0.110919
   8 H :    0.356650
   9 H :    0.365380
Sum of atomic charges:   -0.0000000

LOEWDIN ATOMIC CHARGES
----------------------
   0 C :   -0.341227
   1 C :   -0.340528
   2 O :   -0.101423
   3 O :   -0.098963
   4 H :    0.126248
   5 H :    0.122625
   6 H :    0.135052
   7 H :    0.123101
   8 H :    0.185186
   9 H :    0.189929

  Mayer bond orders larger than 0.100000
B(  0-C ,  1-C ) :   0.9999 B(  0-C ,  3-O ) :   1.0049 B(  0-C ,  4-H ) :   0.9675
B(  0-C ,  5-H ) :   0.9702 B(  1-C ,  2-O ) :   0.9612 B(  1-C ,  6-H ) :   0.9613
B(  1-C ,  7-H ) :   0.9707 B(  2-O ,  8-H ) :   0.8649 B(  3-O ,  9-H ) :   0.8678

FINAL SINGLE POINT ENERGY      -230.284650720946

DIPOLE MOMENT
-------------

Method             : SCF
Type of density    : Electron Density
Multiplicity       :   1
Irrep              :   0
Energy             :  -230.2915655538456861 Eh
Relativity type    :
Basis              : AO
                                X                 Y                 Z
Electronic contribution:      0.007165081       1.609726753      -0.062374964
Nuclear contribution   :     -1.074840627      -2.174651804      -0.123609402
                        -----------------------------------------
Total Dipole Moment    :     -1.067675546      -0.564925051      -0.185984366
                        -----------------------------------------
Magnitude (a.u.)       :      1.222154478
Magnitude (Debye)      :      3.106469809

Rotational constants in cm-1:             0.519644             0.178067             0.149412
Rotational constants in MHz :         15578.535457          5338.315557          4479.255192

                             ****ORCA TERMINATED NORMALLY****
TOTAL RUN TIME: 0 days 0 hours 0 minutes 41 seconds 961 msec
