                         Program Version 6.0.0  -   RELEASE  -
|  1> ! pbe def2-sv(p) def2/J RI DEFGRID1 loosescf d4 GCP(DFT/SV(P)) printgap
|  2> %output
|  3>     printlevel normal
|  4> end
|  5> * xyz 0 1
|  6> C 5.8944726066 -0.1744565112 -1.3628146992
|  7> C 4.4794046936 -0.1728356245 -1.9075688211
|  8> O 3.6447308191 -1.0470069004 -1.1213201067
|  9> P 2.630626943 -0.480188377 -0.049286885
| 10> S 3.2517563114 1.090227277 0.9545687695
| 11> O 2.4490024365 -1.8476776588 0.7241142074
| 12> C 1.3295015642 -2.1572826251 1.5706265055
| 13> C 1.3015932244 -1.307917894 2.8269819597
| 14> S 0.822534431 -0.1848974886 -1.1554077338
| 15> C 0.2039107112 1.3149912562 -0.3384092445
| 16> S -1.0376007741 0.9686422349 0.9255698267
| 17> P -2.5599224068 0.2444531046 -0.3897400475
| 18> S -2.437269617 0.8979730912 -2.2337931449
| 19> O -3.933776707 0.5538294254 0.3466421952
| 20> C -4.6363672463 1.7971511045 0.1724164995
| 21> C -3.8776358671 2.9739095053 0.7505330414
| 22> O -2.4809921241 -1.3317593289 -0.3067739268
| 23> C -3.1405066334 -2.1538662308 0.6891989052
| 24> C -2.6947237858 -1.8384808205 2.1014384755
| 25> H 6.5281406406 0.4266488944 -2.0068435339
| 26> H 5.9067630534 0.244904264 -0.3590031842
| 27> H 6.2762371904 -1.1905426496 -1.3237916257
| 28> H 4.4397713037 -0.5748541958 -2.9215781068
| 29> H 4.0632059996 0.8394199282 -1.8995015075
| 30> H 0.4101442586 -2.0336728505 0.9872981009
| 31> H 1.4718736602 -3.2136369879 1.8065748081
| 32> H 2.2718452374 -1.3393774437 3.3164037097
| 33> H 1.067531982 -0.2717939427 2.5861880022
| 34> H 0.5470765456 -1.688514378 3.5082953539
| 35> H -0.2399165539 1.9324154333 -1.1180830179
| 36> H 1.0347439846 1.8239411854 0.1564140564
| 37> H -4.8168309969 1.944623052 -0.8968412375
| 38> H -5.5822321745 1.6340897446 0.6909086319
| 39> H -2.97636724 3.1586283227 0.1679451733
| 40> H -4.5057019483 3.8580900263 0.7111189016
| 41> H -3.5954915634 2.7768667535 1.7816026527
| 42> H -4.2179466504 -2.0154907761 0.5819442051
| 43> H -2.8655567234 -3.1679548366 0.3947630442
| 44> H -1.6208296225 -1.9661787743 2.2030216038
| 45> H -2.9503852151 -0.8122720287 2.3569435021
| 46> H -3.2001703774 -2.5113492934 2.7871654208
| 47> *
| 48>
| 49>                          ****END OF INPUT****

CARTESIAN COORDINATES (ANGSTROEM)
---------------------------------
  C      5.894473   -0.174457   -1.362815
  C      4.479405   -0.172836   -1.907569
  O      3.644731   -1.047007   -1.121320
  P      2.630627   -0.480188   -0.049287
  S      3.251756    1.090227    0.954569
  O      2.449002   -1.847678    0.724114
  C      1.329502   -2.157283    1.570627
  C      1.301593   -1.307918    2.826982
  S      0.822534   -0.184897   -1.155408
  C      0.203911    1.314991   -0.338409
  S     -1.037601    0.968642    0.925570
  P     -2.559922    0.244453   -0.389740
  S     -2.437270    0.897973   -2.233793
  O     -3.933777    0.553829    0.346642
  C     -4.636367    1.797151    0.172416
  C     -3.877636    2.973910    0.750533
  O     -2.480992   -1.331759   -0.306774
  C     -3.140507   -2.153866    0.689199
  C     -2.694724   -1.838481    2.101438
  H      6.528141    0.426649   -2.006844
  H      5.906763    0.244904   -0.359003
  H      6.276237   -1.190543   -1.323792
  H      4.439771   -0.574854   -2.921578
  H      4.063206    0.839420   -1.899502
  H      0.410144   -2.033673    0.987298
  H      1.471874   -3.213637    1.806575
  H      2.271845   -1.339377    3.316404
  H      1.067532   -0.271794    2.586188
  H      0.547077   -1.688514    3.508295
  H     -0.239917    1.932415   -1.118083
  H      1.034744    1.823941    0.156414
  H     -4.816831    1.944623   -0.896841
  H     -5.582232    1.634090    0.690909
  H     -2.976367    3.158628    0.167945
  H     -4.505702    3.858090    0.711119
  H     -3.595492    2.776867    1.781603
  H     -4.217947   -2.015491    0.581944
  H     -2.865557   -3.167955    0.394763
  H     -1.620830   -1.966179    2.203022
  H     -2.950385   -0.812272    2.356944
  H     -3.200170   -2.511349    2.787165

 Total Charge           Charge          ....    0
 Multiplicity           Mult            ....    1
 Number of Electrons    NEL             ....  202
 Basis Dimension        Dim             ....  334

ORBITAL ENERGIES
----------------

  NO   OCC          E(Eh)            E(eV)
   0   2.0000     -88.044668     -2395.8172
   1   2.0000     -88.040441     -2395.7022
   2   2.0000     -87.991200     -2394.3623
   3   2.0000     -87.989506     -2394.3162
   4   2.0000     -76.432115     -2079.8236
   5   2.0000     -76.425264     -2079.6372
   6   2.0000     -18.803185      -511.6607
   7   2.0000     -18.794457      -511.4232
   8   2.0000     -18.789379      -511.2850
   9   2.0000     -18.787988      -511.2472
  10   2.0000      -9.962820      -271.1021
  11   2.0000      -9.959971      -271.0246
  12   2.0000      -9.953727      -270.8547
  13   2.0000      -9.950385      -270.7637
  14   2.0000      -9.949120      -270.7293
  15   2.0000      -9.896020      -269.2844
  16   2.0000      -9.888879      -269.0901
  17   2.0000      -9.881194      -268.8809
  18   2.0000      -9.878962      -268.8202
  19   2.0000      -7.689231      -209.2346
  20   2.0000      -7.684843      -209.1152
  21   2.0000      -7.636316      -207.7947
  22   2.0000      -7.634440      -207.7437
  23   2.0000      -6.429471      -174.9548
  24   2.0000      -6.422781      -174.7727
  25   2.0000      -5.717019      -155.5680
  26   2.0000      -5.713855      -155.4819
  27   2.0000      -5.712669      -155.4496
  28   2.0000      -5.709300      -155.3580
  29   2.0000      -5.706273      -155.2756
  30   2.0000      -5.702073      -155.1613
  31   2.0000      -5.665343      -154.1618
  32   2.0000      -5.663170      -154.1027
  33   2.0000      -5.656865      -153.9311
  34   2.0000      -5.656433      -153.9194
  35   2.0000      -5.655037      -153.8814
  36   2.0000      -5.654809      -153.8752
  37   2.0000      -4.652604      -126.6038
  38   2.0000      -4.650921      -126.5580
  39   2.0000      -4.649728      -126.5255
  40   2.0000      -4.645061      -126.3985
  41   2.0000      -4.644830      -126.3923
  42   2.0000      -4.643197      -126.3478
  43   2.0000      -0.995027       -27.0761
  44   2.0000      -0.987785       -26.8790
  45   2.0000      -0.950075       -25.8529
  46   2.0000      -0.943390       -25.6709
  47   2.0000      -0.761733       -20.7278
  48   2.0000      -0.722481       -19.6597
  49   2.0000      -0.713012       -19.4020
  50   2.0000      -0.697782       -18.9876
  51   2.0000      -0.681543       -18.5457
  52   2.0000      -0.678161       -18.4537
  53   2.0000      -0.653777       -17.7902
  54   2.0000      -0.639636       -17.4054
  55   2.0000      -0.603232       -16.4148
  56   2.0000      -0.594744       -16.1838
  57   2.0000      -0.586272       -15.9533
  58   2.0000      -0.564938       -15.3727
  59   2.0000      -0.560234       -15.2448
  60   2.0000      -0.503618       -13.7041
  61   2.0000      -0.498169       -13.5559
  62   2.0000      -0.476995       -12.9797
  63   2.0000      -0.470814       -12.8115
  64   2.0000      -0.461322       -12.5532
  65   2.0000      -0.454125       -12.3574
  66   2.0000      -0.439085       -11.9481
  67   2.0000      -0.433024       -11.7832
  68   2.0000      -0.431295       -11.7361
  69   2.0000      -0.421508       -11.4698
  70   2.0000      -0.410631       -11.1738
  71   2.0000      -0.407150       -11.0791
  72   2.0000      -0.401853       -10.9350
  73   2.0000      -0.381507       -10.3813
  74   2.0000      -0.379388       -10.3237
  75   2.0000      -0.375325       -10.2131
  76   2.0000      -0.369302       -10.0492
  77   2.0000      -0.366221        -9.9654
  78   2.0000      -0.358405        -9.7527
  79   2.0000      -0.352508        -9.5922
  80   2.0000      -0.348428        -9.4812
  81   2.0000      -0.346662        -9.4332
  82   2.0000      -0.343365        -9.3434
  83   2.0000      -0.339238        -9.2311
  84   2.0000      -0.332556        -9.0493
  85   2.0000      -0.322347        -8.7715
  86   2.0000      -0.311455        -8.4751
  87   2.0000      -0.302431        -8.2296
  88   2.0000      -0.300961        -8.1896
  89   2.0000      -0.295596        -8.0436
  90   2.0000      -0.290641        -7.9087
  91   2.0000      -0.280488        -7.6325
  92   2.0000      -0.269483        -7.3330
  93   2.0000      -0.263722        -7.1762
  94   2.0000      -0.257547        -7.0082
  95   2.0000      -0.235396        -6.4055
  96   2.0000      -0.219008        -5.9595
  97   2.0000      -0.215872        -5.8742
  98   2.0000      -0.205604        -5.5948
  99   2.0000      -0.203575        -5.5396
 100   2.0000      -0.201069        -5.4714
 101   0.0000      -0.048838        -1.3290
 102   0.0000      -0.030509        -0.8302
 103   0.0000      -0.007948        -0.2163
 104   0.0000      -0.002992        -0.0814
 105   0.0000       0.012232         0.3329

MULLIKEN ATOMIC CHARGES
-----------------------
   0 C :   -0.287201
   1 C :   -0.003298
   2 O :   -0.358422
   3 P :    0.595209
   4 S :   -0.330048
   5 O :   -0.351595
   6 C :   -0.031366
   7 C :   -0.314358
   8 S :   -0.080167
   9 C :   -0.360570
  10 S :   -0.107957
  11 P :    0.615325
  12 S :   -0.306630
  13 O :   -0.386218
  14 C :   -0.002201
  15 C :   -0.314563
  16 O :   -0.364137
  17 C :    0.015371
  18 C :   -0.352422
  19 H :    0.107630
  20 H :    0.122978
  21 H :    0.114831
  22 H :    0.108199
  23 H :    0.100440
  24 H :    0.124209
  25 H :    0.106367
  26 H :    0.121691
  27 H :    0.127303
  28 H :    0.113966
  29 H :    0.194986
  30 H :    0.190903
  31 H :    0.116058
  32 H :    0.105662
  33 H :    0.127785
  34 H :    0.115652
  35 H :    0.118100
  36 H :    0.111047
  37 H :    0.112180
  38 H :    0.141848
  39 H :    0.127488
  40 H :    0.115925
Sum of atomic charges:   -0.0000000

LOEWDIN ATOMIC CHARGES
----------------------
   0 C :   -0.358912
   1 C :   -0.116509
   2 O :   -0.236748
   3 P :    0.567751
   4 S :   -0.310317
   5 O :   -0.230731
   6 C :   -0.121071
   7 C :   -0.369794
   8 S :    0.082233
   9 C :   -0.491787
  10 S :    0.079880
  11 P :    0.574757
  12 S :   -0.300347
  13 O :   -0.245490
  14 C :   -0.116731
  15 C :   -0.369439
  16 O :   -0.241252
  17 C :   -0.105913
  18 C :   -0.371090
  19 H :    0.128642
  20 H :    0.125674
  21 H :    0.126265
  22 H :    0.118829
  23 H :    0.107136
  24 H :    0.102164
  25 H :    0.120055
  26 H :    0.129522
  27 H :    0.114738
  28 H :    0.126427
  29 H :    0.128072
  30 H :    0.123930
  31 H :    0.113799
  32 H :    0.118926
  33 H :    0.121796
  34 H :    0.132483
  35 H :    0.124153
  36 H :    0.115753
  37 H :    0.123739
  38 H :    0.125894
  39 H :    0.120129
  40 H :    0.133382

  Mayer bond orders larger than 0.100000
B(  0-C ,  1-C ) :   1.1657 B(  0-C , 19-H ) :   0.9407 B(  0-C , 20-H ) :   0.9398
B(  0-C , 21-H ) :   0.9479 B(  1-C ,  2-O ) :   0.9016 B(  1-C , 22-H ) :   0.9349
B(  1-C , 23-H ) :   0.9102 B(  2-O ,  3-P ) :   1.1352 B(  3-P ,  4-S ) :   1.5862
B(  3-P ,  5-O ) :   1.1302 B(  3-P ,  8-S ) :   0.9451 B(  4-S ,  8-S ) :   0.1234
B(  4-S , 30-H ) :   0.1162 B(  5-O ,  6-C ) :   0.9222 B(  6-C ,  7-C ) :   1.1579
B(  6-C , 24-H ) :   0.9023 B(  6-C , 25-H ) :   0.9344 B(  7-C , 26-H ) :   0.9419
B(  7-C , 27-H ) :   0.9303 B(  7-C , 28-H ) :   0.9323 B(  8-S ,  9-C ) :   1.0097
B(  9-C , 10-S ) :   1.0051 B(  9-C , 29-H ) :   0.8766 B(  9-C , 30-H ) :   0.8504
B( 10-S , 11-P ) :   0.9363 B( 10-S , 12-S ) :   0.1143 B( 11-P , 12-S ) :   1.6319
B( 11-P , 13-O ) :   1.0747 B( 11-P , 16-O ) :   1.1286 B( 13-O , 14-C ) :   0.9013
B( 14-C , 15-C ) :   1.1664 B( 14-C , 31-H ) :   0.9169 B( 14-C , 32-H ) :   0.9340
B( 15-C , 33-H ) :   0.9347 B( 15-C , 34-H ) :   0.9366 B( 15-C , 35-H ) :   0.9445
B( 16-O , 17-C ) :   0.8975 B( 17-C , 18-C ) :   1.1671 B( 17-C , 36-H ) :   0.9291
B( 17-C , 37-H ) :   0.9337 B( 18-C , 38-H ) :   0.9327 B( 18-C , 39-H ) :   0.9350
B( 18-C , 40-H ) :   0.9346

Dispersion correction           -0.064990749
FINAL SINGLE POINT ENERGY     -2929.520563776784

DIPOLE MOMENT
-------------

Method             : SCF
Type of density    : Electron Density
Multiplicity       :   1
Irrep              :   0
Energy             : -2929.6404134239687664 Eh
Relativity type    :
Basis              : AO
                                X                 Y                 Z
Electronic contribution:      1.428975768       1.512426243     -12.256990038
Nuclear contribution   :     -2.481461249      -1.937328196      13.106251362
                        -----------------------------------------
Total Dipole Moment    :     -1.052485482      -0.424901953       0.849261324
                        -----------------------------------------
Magnitude (a.u.)       :      1.417572628
Magnitude (Debye)      :      3.603183270

Rotational constants in cm-1:             0.013830             0.004409             0.004079
Rotational constants in MHz :           414.622959           132.185090           122.288892

                             ****ORCA TERMINATED NORMALLY****
TOTAL RUN TIME: 0 days 0 hours 0 minutes 21 seconds 70 msec
