                         Program Version 6.0.0  -   RELEASE  -
|  1> ! pbe def2-sv(p) def2/J RI DEFGRID1 loosescf d4 GCP(DFT/SV(P)) printgap
|  2> %output
|  3>     printlevel normal
|  4> end
|  5> * xyz 0 1
|  6> C 0.3266478566 0.8238798576 3.2681863706
|  7> C 1.5861771102 0.861829408 2.4277995202
|  8> O 1.7453559575 -0.4322963001 1.7903748758
|  9> P 2.4160737367 -0.6041749329 0.3742674114
| 10> S 2.6765496646 -2.4826878647 -0.0969522343
| 11> O 3.73462733 0.2711618973 0.533821367
| 12> C 4.8722067356 0.1351724788 -0.3381702851
| 13> C 4.5613399528 0.5460272769 -1.7625908104
| 14> S 1.2079118209 0.5374430305 -0.9675513962
| 15> C 0.0725531673 -0.8056148025 -1.3787021098
| 16> S -0.9966290297 -1.2695612656 0.0073011332
| 17> P -2.4099293425 0.284966794 -0.2536588692
| 18> S -2.8513826519 0.7624852125 -2.1085509623
| 19> O -1.8144309282 1.4816734741 0.5940582253
| 20> C -1.9583100025 2.8778782432 0.2503675725
| 21> C -0.6120594299 3.5655955663 0.3520859307
| 22> O -3.6057197784 -0.1448823773 0.6998138564
| 23> C -4.2570414454 -1.4279118776 0.7045905294
| 24> C -4.7314255862 -1.8548246265 -0.6691286769
| 25> H -0.5500661433 0.7082418341 2.6352263315
| 26> H 0.3694351897 -0.0126860793 3.9598545446
| 27> H 0.2431720204 1.7497946203 3.8285258411
| 28> H 2.4742446691 1.0285857461 3.0401282996
| 29> H 1.5316846742 1.6316556139 1.6525040735
| 30> H 5.622280296 0.7851682737 0.1145365602
| 31> H 5.2093197202 -0.9051428048 -0.3029487504
| 32> H 3.8642629714 -0.1603697298 -2.210954965
| 33> H 4.1188654394 1.5388013794 -1.7841717519
| 34> H 5.4788749857 0.5471809748 -2.3421702478
| 35> H 0.6484262515 -1.693502625 -1.6405443991
| 36> H -0.5430359578 -0.4648066019 -2.2128348193
| 37> H -2.3639083814 2.95149056 -0.7643558642
| 38> H -2.6752685281 3.2983200435 0.9582662664
| 39> H -0.738356132 4.6176666981 0.1178158321
| 40> H -0.2172411484 3.4676876676 1.3591641833
| 41> H 0.0893206334 3.1259956962 -0.3531828386
| 42> H -3.5597480448 -2.1617936118 1.1188003269
| 43> H -5.094930635 -1.2871369962 1.3898638138
| 44> H -3.8795299677 -2.0201837831 -1.3276217123
| 45> H -5.2954397544 -2.7781904267 -0.5844824882
| 46> H -5.3630818426 -1.0861716386 -1.1084296389
| 47> *
| 48>
| 49>                          ****END OF INPUT****

CARTESIAN COORDINATES (ANGSTROEM)
---------------------------------
  C      0.326648    0.823880    3.268186
  C      1.586177    0.861829    2.427800
  O      1.745356   -0.432296    1.790375
  P      2.416074   -0.604175    0.374267
  S      2.676550   -2.482688   -0.096952
  O      3.734627    0.271162    0.533821
  C      4.872207    0.135172   -0.338170
  C      4.561340    0.546027   -1.762591
  S      1.207912    0.537443   -0.967551
  C      0.072553   -0.805615   -1.378702
  S     -0.996629   -1.269561    0.007301
  P     -2.409929    0.284967   -0.253659
  S     -2.851383    0.762485   -2.108551
  O     -1.814431    1.481673    0.594058
  C     -1.958310    2.877878    0.250368
  C     -0.612059    3.565596    0.352086
  O     -3.605720   -0.144882    0.699814
  C     -4.257041   -1.427912    0.704591
  C     -4.731426   -1.854825   -0.669129
  H     -0.550066    0.708242    2.635226
  H      0.369435   -0.012686    3.959855
  H      0.243172    1.749795    3.828526
  H      2.474245    1.028586    3.040128
  H      1.531685    1.631656    1.652504
  H      5.622280    0.785168    0.114537
  H      5.209320   -0.905143   -0.302949
  H      3.864263   -0.160370   -2.210955
  H      4.118865    1.538801   -1.784172
  H      5.478875    0.547181   -2.342170
  H      0.648426   -1.693503   -1.640544
  H     -0.543036   -0.464807   -2.212835
  H     -2.363908    2.951491   -0.764356
  H     -2.675269    3.298320    0.958266
  H     -0.738356    4.617667    0.117816
  H     -0.217241    3.467688    1.359164
  H      0.089321    3.125996   -0.353183
  H     -3.559748   -2.161794    1.118800
  H     -5.094931   -1.287137    1.389864
  H     -3.879530   -2.020184   -1.327622
  H     -5.295440   -2.778190   -0.584482
  H     -5.363082   -1.086172   -1.108430

 Total Charge           Charge          ....    0
 Multiplicity           Mult            ....    1
 Number of Electrons    NEL             ....  202
 Basis Dimension        Dim             ....  334

ORBITAL ENERGIES
----------------

  NO   OCC          E(Eh)            E(eV)
   0   2.0000     -88.045124     -2395.8296
   1   2.0000     -88.043712     -2395.7912
   2   2.0000     -87.989347     -2394.3119
   3   2.0000     -87.989069     -2394.3043
   4   2.0000     -76.429517     -2079.7529
   5   2.0000     -76.427511     -2079.6983
   6   2.0000     -18.796940      -511.4907
   7   2.0000     -18.793848      -511.4066
   8   2.0000     -18.792254      -511.3632
   9   2.0000     -18.790127      -511.3053
  10   2.0000      -9.958556      -270.9861
  11   2.0000      -9.956167      -270.9211
  12   2.0000      -9.953583      -270.8508
  13   2.0000      -9.952831      -270.8303
  14   2.0000      -9.952125      -270.8111
  15   2.0000      -9.886729      -269.0316
  16   2.0000      -9.886231      -269.0180
  17   2.0000      -9.883446      -268.9422
  18   2.0000      -9.881176      -268.8805
  19   2.0000      -7.690154      -209.2597
  20   2.0000      -7.688416      -209.2124
  21   2.0000      -7.634334      -207.7408
  22   2.0000      -7.634283      -207.7394
  23   2.0000      -6.426818      -174.8826
  24   2.0000      -6.425072      -174.8351
  25   2.0000      -5.717894      -155.5918
  26   2.0000      -5.716111      -155.5433
  27   2.0000      -5.714708      -155.5051
  28   2.0000      -5.713018      -155.4591
  29   2.0000      -5.707219      -155.3013
  30   2.0000      -5.705519      -155.2551
  31   2.0000      -5.663274      -154.1055
  32   2.0000      -5.663079      -154.1002
  33   2.0000      -5.654988      -153.8800
  34   2.0000      -5.654833      -153.8758
  35   2.0000      -5.654558      -153.8684
  36   2.0000      -5.654472      -153.8660
  37   2.0000      -4.649304      -126.5140
  38   2.0000      -4.648760      -126.4992
  39   2.0000      -4.647959      -126.4774
  40   2.0000      -4.647193      -126.4566
  41   2.0000      -4.646713      -126.4435
  42   2.0000      -4.645381      -126.4072
  43   2.0000      -0.989603       -26.9285
  44   2.0000      -0.988052       -26.8863
  45   2.0000      -0.946368       -25.7520
  46   2.0000      -0.945271       -25.7221
  47   2.0000      -0.766377       -20.8542
  48   2.0000      -0.723638       -19.6912
  49   2.0000      -0.712366       -19.3845
  50   2.0000      -0.690061       -18.7775
  51   2.0000      -0.688289       -18.7293
  52   2.0000      -0.677944       -18.4478
  53   2.0000      -0.651984       -17.7414
  54   2.0000      -0.640391       -17.4259
  55   2.0000      -0.600918       -16.3518
  56   2.0000      -0.593099       -16.1390
  57   2.0000      -0.575567       -15.6620
  58   2.0000      -0.570469       -15.5233
  59   2.0000      -0.559640       -15.2286
  60   2.0000      -0.508023       -13.8240
  61   2.0000      -0.501753       -13.6534
  62   2.0000      -0.475482       -12.9385
  63   2.0000      -0.472993       -12.8708
  64   2.0000      -0.462830       -12.5942
  65   2.0000      -0.443388       -12.0652
  66   2.0000      -0.440111       -11.9760
  67   2.0000      -0.438376       -11.9288
  68   2.0000      -0.433229       -11.7888
  69   2.0000      -0.421295       -11.4640
  70   2.0000      -0.414431       -11.2772
  71   2.0000      -0.399925       -10.8825
  72   2.0000      -0.391060       -10.6413
  73   2.0000      -0.385951       -10.5023
  74   2.0000      -0.378050       -10.2873
  75   2.0000      -0.377638       -10.2761
  76   2.0000      -0.365978        -9.9588
  77   2.0000      -0.361482        -9.8364
  78   2.0000      -0.353596        -9.6218
  79   2.0000      -0.352100        -9.5811
  80   2.0000      -0.347692        -9.4612
  81   2.0000      -0.344271        -9.3681
  82   2.0000      -0.341178        -9.2839
  83   2.0000      -0.340590        -9.2679
  84   2.0000      -0.336329        -9.1520
  85   2.0000      -0.320438        -8.7195
  86   2.0000      -0.310151        -8.4396
  87   2.0000      -0.302305        -8.2261
  88   2.0000      -0.299030        -8.1370
  89   2.0000      -0.296994        -8.0816
  90   2.0000      -0.289838        -7.8869
  91   2.0000      -0.279025        -7.5927
  92   2.0000      -0.271413        -7.3855
  93   2.0000      -0.265548        -7.2259
  94   2.0000      -0.256870        -6.9898
  95   2.0000      -0.235864        -6.4182
  96   2.0000      -0.221235        -6.0201
  97   2.0000      -0.212861        -5.7923
  98   2.0000      -0.205121        -5.5816
  99   2.0000      -0.203476        -5.5369
 100   2.0000      -0.203456        -5.5363
 101   0.0000      -0.046188        -1.2568
 102   0.0000      -0.027683        -0.7533
 103   0.0000      -0.008108        -0.2206
 104   0.0000      -0.001545        -0.0421
 105   0.0000       0.010666         0.2902

MULLIKEN ATOMIC CHARGES
-----------------------
   0 C :   -0.296956
   1 C :   -0.015192
   2 O :   -0.352504
   3 P :    0.600047
   4 S :   -0.310452
   5 O :   -0.384807
   6 C :    0.000488
   7 C :   -0.317787
   8 S :   -0.092788
   9 C :   -0.376207
  10 S :   -0.072154
  11 P :    0.614843
  12 S :   -0.332474
  13 O :   -0.363053
  14 C :   -0.010816
  15 C :   -0.304687
  16 O :   -0.373346
  17 C :   -0.010787
  18 C :   -0.311381
  19 H :    0.137632
  20 H :    0.117263
  21 H :    0.103890
  22 H :    0.106596
  23 H :    0.104148
  24 H :    0.105411
  25 H :    0.113879
  26 H :    0.129078
  27 H :    0.117101
  28 H :    0.114746
  29 H :    0.195841
  30 H :    0.193334
  31 H :    0.113666
  32 H :    0.103326
  33 H :    0.109642
  34 H :    0.120748
  35 H :    0.132706
  36 H :    0.116472
  37 H :    0.109544
  38 H :    0.125927
  39 H :    0.112466
  40 H :    0.126599
Sum of atomic charges:    0.0000000

LOEWDIN ATOMIC CHARGES
----------------------
   0 C :   -0.358968
   1 C :   -0.111923
   2 O :   -0.235376
   3 P :    0.571060
   4 S :   -0.306204
   5 O :   -0.249915
   6 C :   -0.115155
   7 C :   -0.370696
   8 S :    0.082580
   9 C :   -0.490485
  10 S :    0.093951
  11 P :    0.572326
  12 S :   -0.314356
  13 O :   -0.237625
  14 C :   -0.117146
  15 C :   -0.358827
  16 O :   -0.245088
  17 C :   -0.113826
  18 C :   -0.369682
  19 H :    0.125594
  20 H :    0.128875
  21 H :    0.126202
  22 H :    0.115582
  23 H :    0.103250
  24 H :    0.119027
  25 H :    0.113843
  26 H :    0.122020
  27 H :    0.123192
  28 H :    0.131932
  29 H :    0.129014
  30 H :    0.127192
  31 H :    0.106880
  32 H :    0.115108
  33 H :    0.130183
  34 H :    0.122648
  35 H :    0.120867
  36 H :    0.110735
  37 H :    0.121708
  38 H :    0.121366
  39 H :    0.130555
  40 H :    0.129581

  Mayer bond orders larger than 0.100000
B(  0-C ,  1-C ) :   1.1686 B(  0-C , 19-H ) :   0.9304 B(  0-C , 20-H ) :   0.9457
B(  0-C , 21-H ) :   0.9380 B(  1-C ,  2-O ) :   0.8854 B(  1-C , 22-H ) :   0.9328
B(  1-C , 23-H ) :   0.9081 B(  2-O ,  3-P ) :   1.1452 B(  3-P ,  4-S ) :   1.6357
B(  3-P ,  5-O ) :   1.0875 B(  3-P ,  8-S ) :   0.9416 B(  4-S ,  8-S ) :   0.1084
B(  5-O ,  6-C ) :   0.9064 B(  6-C ,  7-C ) :   1.1660 B(  6-C , 24-H ) :   0.9345
B(  6-C , 25-H ) :   0.9197 B(  7-C , 26-H ) :   0.9349 B(  7-C , 27-H ) :   0.9437
B(  7-C , 28-H ) :   0.9368 B(  8-S ,  9-C ) :   1.0046 B(  9-C , 10-S ) :   1.0083
B(  9-C , 29-H ) :   0.8715 B(  9-C , 30-H ) :   0.8629 B( 10-S , 11-P ) :   0.9614
B( 10-S , 12-S ) :   0.1076 B( 11-P , 12-S ) :   1.5958 B( 11-P , 13-O ) :   1.1142
B( 11-P , 16-O ) :   1.1226 B( 13-O , 14-C ) :   0.8981 B( 14-C , 15-C ) :   1.1672
B( 14-C , 31-H ) :   0.8978 B( 14-C , 32-H ) :   0.9329 B( 15-C , 33-H ) :   0.9377
B( 15-C , 34-H ) :   0.9421 B( 15-C , 35-H ) :   0.9379 B( 16-O , 17-C ) :   0.9132
B( 17-C , 18-C ) :   1.1641 B( 17-C , 36-H ) :   0.9278 B( 17-C , 37-H ) :   0.9341
B( 18-C , 38-H ) :   0.9334 B( 18-C , 39-H ) :   0.9351 B( 18-C , 40-H ) :   0.9427

Dispersion correction           -0.065528642
FINAL SINGLE POINT ENERGY     -2929.522288452978

DIPOLE MOMENT
-------------

Method             : SCF
Type of density    : Electron Density
Multiplicity       :   1
Irrep              :   0
Energy             : -2929.6419397642025615 Eh
Relativity type    :
Basis              : AO
                                X                 Y                 Z
Electronic contribution:      0.696204513     -11.388036663      -4.558072790
Nuclear contribution   :     -0.597382443      12.457833957       5.237735349
                        -----------------------------------------
Total Dipole Moment    :      0.098822069       1.069797294       0.679662559
                        -----------------------------------------
Magnitude (a.u.)       :      1.271288027
Magnitude (Debye)      :      3.231357364

Rotational constants in cm-1:             0.012388             0.004925             0.004660
Rotational constants in MHz :           371.387623           147.645808           139.708085

                             ****ORCA TERMINATED NORMALLY****
TOTAL RUN TIME: 0 days 0 hours 0 minutes 21 seconds 274 msec
