                         Program Version 6.0.0  -   RELEASE  -
|  1> ! r2scan-3c def2/J RI DEFGRID2 scfconv6 printgap
|  2> %output
|  3>     printlevel normal
|  4> end
|  5> * xyz 0 1
|  6> C 3.520541538 1.6292016205 -1.654655207
|  7> C 2.1086510998 1.7631815962 -1.1260839452
|  8> O 1.5402750262 0.4858313117 -0.7792465237
|  9> P 2.0967391013 -0.4181406661 0.3924793824
| 10> S 2.8378262485 0.5238012993 1.9469295184
| 11> O 3.1138151729 -1.3665830656 -0.3732321822
| 12> C 4.0931600622 -2.1634261766 0.3171116518
| 13> C 3.4571871022 -3.278688704 1.1216217001
| 14> S 0.4014240811 -1.6305265321 0.7242589449
| 15> C -0.3840623117 -0.5499998574 1.9494917777
| 16> S -0.922915522 1.048536079 1.2762049388
| 17> P -2.1133152177 0.3916199464 -0.3592258938
| 18> S -1.3174471903 0.1218382245 -2.1344959178
| 19> O -3.3085664982 1.4437292765 -0.3706091865
| 20> C -3.246127499 2.6587512452 -1.1319145737
| 21> C -2.2410707204 3.6308547135 -0.5476831695
| 22> O -2.7851043856 -0.8706251726 0.3167881252
| 23> C -3.3422543543 -1.9454665334 -0.4690210496
| 24> C -4.6209599266 -1.5228178271 -1.1603883354
| 25> H 4.1787346451 1.2707871655 -0.8636095157
| 26> H 3.5440998608 0.9231378893 -2.4808788926
| 27> H 3.870837954 2.5986881133 -1.9946287626
| 28> H 1.4257129309 2.148727996 -1.8856231967
| 29> H 2.0814790919 2.403746298 -0.2381211167
| 30> H 4.7249103265 -2.5515821462 -0.4828697545
| 31> H 4.6764165429 -1.5045792874 0.968490232
| 32> H 4.2346864222 -3.9220312611 1.5209106873
| 33> H 2.8839930284 -2.8614335188 1.9486734
| 34> H 2.7896725884 -3.8638406418 0.4937754978
| 35> H 0.3341107329 -0.3075062815 2.733958392
| 36> H -1.2398519574 -1.0888041734 2.3464441077
| 37> H -2.9836181614 2.4070916422 -2.1653173327
| 38> H -4.2622798829 3.0526547837 -1.0906140912
| 39> H -2.2590168174 4.557898701 -1.1114464989
| 40> H -2.4719209369 3.8340060212 0.4948537602
| 41> H -1.2400406187 3.2006104391 -0.6020631112
| 42> H -2.5924345745 -2.2670108646 -1.1991551545
| 43> H -3.5143301025 -2.7399556464 0.2581032329
| 44> H -5.0618384 -2.3806616713 -1.658223881
| 45> H -5.3241259208 -1.120890713 -0.4358736423
| 46> H -4.4024601172 -0.7556997378 -1.9021915238
| 47> *
| 48>
| 49>                          ****END OF INPUT****

CARTESIAN COORDINATES (ANGSTROEM)
---------------------------------
  C      3.520542    1.629202   -1.654655
  C      2.108651    1.763182   -1.126084
  O      1.540275    0.485831   -0.779247
  P      2.096739   -0.418141    0.392479
  S      2.837826    0.523801    1.946930
  O      3.113815   -1.366583   -0.373232
  C      4.093160   -2.163426    0.317112
  C      3.457187   -3.278689    1.121622
  S      0.401424   -1.630527    0.724259
  C     -0.384062   -0.550000    1.949492
  S     -0.922916    1.048536    1.276205
  P     -2.113315    0.391620   -0.359226
  S     -1.317447    0.121838   -2.134496
  O     -3.308566    1.443729   -0.370609
  C     -3.246127    2.658751   -1.131915
  C     -2.241071    3.630855   -0.547683
  O     -2.785104   -0.870625    0.316788
  C     -3.342254   -1.945467   -0.469021
  C     -4.620960   -1.522818   -1.160388
  H      4.178735    1.270787   -0.863610
  H      3.544100    0.923138   -2.480879
  H      3.870838    2.598688   -1.994629
  H      1.425713    2.148728   -1.885623
  H      2.081479    2.403746   -0.238121
  H      4.724910   -2.551582   -0.482870
  H      4.676417   -1.504579    0.968490
  H      4.234686   -3.922031    1.520911
  H      2.883993   -2.861434    1.948673
  H      2.789673   -3.863841    0.493775
  H      0.334111   -0.307506    2.733958
  H     -1.239852   -1.088804    2.346444
  H     -2.983618    2.407092   -2.165317
  H     -4.262280    3.052655   -1.090614
  H     -2.259017    4.557899   -1.111446
  H     -2.471921    3.834006    0.494854
  H     -1.240041    3.200610   -0.602063
  H     -2.592435   -2.267011   -1.199155
  H     -3.514330   -2.739956    0.258103
  H     -5.061838   -2.380662   -1.658224
  H     -5.324126   -1.120891   -0.435874
  H     -4.402460   -0.755700   -1.902192

 Total Charge           Charge          ....    0
 Multiplicity           Mult            ....    1
 Number of Electrons    NEL             ....  202
 Basis Dimension        Dim             ....  539

ORBITAL ENERGIES
----------------

  NO   OCC          E(Eh)            E(eV)
   0   2.0000     -88.573167     -2410.1984
   1   2.0000     -88.569779     -2410.1062
   2   2.0000     -88.518903     -2408.7218
   3   2.0000     -88.513357     -2408.5709
   4   2.0000     -76.910976     -2092.8541
   5   2.0000     -76.910689     -2092.8462
   6   2.0000     -18.992381      -516.8090
   7   2.0000     -18.991320      -516.7801
   8   2.0000     -18.987555      -516.6777
   9   2.0000     -18.980091      -516.4745
  10   2.0000     -10.105822      -274.9934
  11   2.0000     -10.098023      -274.7812
  12   2.0000     -10.097655      -274.7712
  13   2.0000     -10.096463      -274.7387
  14   2.0000     -10.089477      -274.5486
  15   2.0000     -10.030965      -272.9564
  16   2.0000     -10.027967      -272.8749
  17   2.0000     -10.027882      -272.8726
  18   2.0000     -10.022800      -272.7343
  19   2.0000      -7.867668      -214.0901
  20   2.0000      -7.864103      -213.9931
  21   2.0000      -7.813743      -212.6228
  22   2.0000      -7.808058      -212.4681
  23   2.0000      -6.589370      -179.3059
  24   2.0000      -6.589262      -179.3029
  25   2.0000      -5.814555      -158.2221
  26   2.0000      -5.811604      -158.1418
  27   2.0000      -5.811361      -158.1352
  28   2.0000      -5.807842      -158.0394
  29   2.0000      -5.804656      -157.9527
  30   2.0000      -5.800940      -157.8516
  31   2.0000      -5.761276      -156.7723
  32   2.0000      -5.755755      -156.6220
  33   2.0000      -5.754133      -156.5779
  34   2.0000      -5.753736      -156.5671
  35   2.0000      -5.748557      -156.4262
  36   2.0000      -5.747826      -156.4063
  37   2.0000      -4.734993      -128.8457
  38   2.0000      -4.734599      -128.8350
  39   2.0000      -4.734390      -128.8293
  40   2.0000      -4.734118      -128.8219
  41   2.0000      -4.733219      -128.7974
  42   2.0000      -4.732871      -128.7880
  43   2.0000      -1.049184       -28.5497
  44   2.0000      -1.045714       -28.4553
  45   2.0000      -1.011333       -27.5198
  46   2.0000      -1.006113       -27.3777
  47   2.0000      -0.799290       -21.7498
  48   2.0000      -0.755211       -20.5503
  49   2.0000      -0.745302       -20.2807
  50   2.0000      -0.731358       -19.9013
  51   2.0000      -0.727530       -19.7971
  52   2.0000      -0.707207       -19.2441
  53   2.0000      -0.685107       -18.6427
  54   2.0000      -0.666825       -18.1452
  55   2.0000      -0.632111       -17.2006
  56   2.0000      -0.624484       -16.9931
  57   2.0000      -0.605507       -16.4767
  58   2.0000      -0.601841       -16.3769
  59   2.0000      -0.589526       -16.0418
  60   2.0000      -0.519318       -14.1314
  61   2.0000      -0.512792       -13.9538
  62   2.0000      -0.493021       -13.4158
  63   2.0000      -0.488067       -13.2810
  64   2.0000      -0.475065       -12.9272
  65   2.0000      -0.458778       -12.4840
  66   2.0000      -0.456609       -12.4250
  67   2.0000      -0.454374       -12.3641
  68   2.0000      -0.439612       -11.9625
  69   2.0000      -0.431650       -11.7458
  70   2.0000      -0.425854       -11.5881
  71   2.0000      -0.409962       -11.1556
  72   2.0000      -0.406746       -11.0681
  73   2.0000      -0.405502       -11.0343
  74   2.0000      -0.399444       -10.8694
  75   2.0000      -0.389702       -10.6043
  76   2.0000      -0.384230       -10.4554
  77   2.0000      -0.372832       -10.1453
  78   2.0000      -0.370429       -10.0799
  79   2.0000      -0.365049        -9.9335
  80   2.0000      -0.361526        -9.8376
  81   2.0000      -0.359123        -9.7722
  82   2.0000      -0.356553        -9.7023
  83   2.0000      -0.351053        -9.5526
  84   2.0000      -0.343598        -9.3498
  85   2.0000      -0.331836        -9.0297
  86   2.0000      -0.318516        -8.6673
  87   2.0000      -0.308344        -8.3905
  88   2.0000      -0.307826        -8.3764
  89   2.0000      -0.300018        -8.1639
  90   2.0000      -0.293808        -7.9949
  91   2.0000      -0.287535        -7.8242
  92   2.0000      -0.282926        -7.6988
  93   2.0000      -0.276627        -7.5274
  94   2.0000      -0.274311        -7.4644
  95   2.0000      -0.245246        -6.6735
  96   2.0000      -0.228019        -6.2047
  97   2.0000      -0.221131        -6.0173
  98   2.0000      -0.217118        -5.9081
  99   2.0000      -0.208150        -5.6641
 100   2.0000      -0.202792        -5.5182
 101   0.0000      -0.047309        -1.2873
 102   0.0000      -0.021808        -0.5934
 103   0.0000      -0.016603        -0.4518
 104   0.0000       0.008078         0.2198
 105   0.0000       0.019345         0.5264

MULLIKEN ATOMIC CHARGES
-----------------------
   0 C :   -0.449760
   1 C :   -0.170939
   2 O :   -0.244917
   3 P :    0.708987
   4 S :   -0.493195
   5 O :   -0.304268
   6 C :   -0.149273
   7 C :   -0.454938
   8 S :   -0.135656
   9 C :   -0.194156
  10 S :   -0.150114
  11 P :    0.733770
  12 S :   -0.463916
  13 O :   -0.290022
  14 C :   -0.146937
  15 C :   -0.468234
  16 O :   -0.338781
  17 C :   -0.150770
  18 C :   -0.446251
  19 H :    0.166258
  20 H :    0.159654
  21 H :    0.145445
  22 H :    0.162972
  23 H :    0.171616
  24 H :    0.148966
  25 H :    0.171857
  26 H :    0.147689
  27 H :    0.176753
  28 H :    0.156404
  29 H :    0.209522
  30 H :    0.187301
  31 H :    0.175569
  32 H :    0.147863
  33 H :    0.150817
  34 H :    0.164785
  35 H :    0.166437
  36 H :    0.178095
  37 H :    0.147251
  38 H :    0.146788
  39 H :    0.155525
  40 H :    0.171801
Sum of atomic charges:   -0.0000000

LOEWDIN ATOMIC CHARGES
----------------------
   0 C :   -0.400192
   1 C :    0.015798
   2 O :   -0.682845
   3 P :    0.380651
   4 S :   -0.135552
   5 O :   -0.657594
   6 C :    0.019899
   7 C :   -0.407485
   8 S :    0.178067
   9 C :   -0.412578
  10 S :    0.167529
  11 P :    0.390617
  12 S :   -0.098205
  13 O :   -0.667018
  14 C :    0.016095
  15 C :   -0.404718
  16 O :   -0.684867
  17 C :    0.020231
  18 C :   -0.399012
  19 H :    0.163668
  20 H :    0.161948
  21 H :    0.158550
  22 H :    0.184754
  23 H :    0.179195
  24 H :    0.179747
  25 H :    0.179512
  26 H :    0.159123
  27 H :    0.165308
  28 H :    0.160481
  29 H :    0.192021
  30 H :    0.184157
  31 H :    0.179934
  32 H :    0.179478
  33 H :    0.160193
  34 H :    0.161827
  35 H :    0.163469
  36 H :    0.182612
  37 H :    0.178205
  38 H :    0.159615
  39 H :    0.160780
  40 H :    0.166601

  Mayer bond orders larger than 0.100000
B(  0-C ,  1-C ) :   0.9179 B(  0-C , 19-H ) :   0.9616 B(  0-C , 20-H ) :   0.9724
B(  0-C , 21-H ) :   0.9616 B(  1-C ,  2-O ) :   0.7872 B(  1-C , 22-H ) :   0.9586
B(  1-C , 23-H ) :   0.9669 B(  2-O ,  3-P ) :   1.1675 B(  3-P ,  4-S ) :   1.7320
B(  3-P ,  5-O ) :   1.0657 B(  3-P ,  8-S ) :   1.0812 B(  5-O ,  6-C ) :   0.8120
B(  6-C ,  7-C ) :   0.9219 B(  6-C , 24-H ) :   0.9580 B(  6-C , 25-H ) :   0.9676
B(  7-C , 26-H ) :   0.9586 B(  7-C , 27-H ) :   0.9632 B(  7-C , 28-H ) :   0.9686
B(  8-S ,  9-C ) :   0.9106 B(  9-C , 10-S ) :   0.8924 B(  9-C , 29-H ) :   0.9110
B(  9-C , 30-H ) :   0.9166 B( 10-S , 11-P ) :   1.0486 B( 11-P , 12-S ) :   1.7596
B( 11-P , 13-O ) :   1.0693 B( 11-P , 16-O ) :   1.1585 B( 13-O , 14-C ) :   0.8179
B( 14-C , 15-C ) :   0.9117 B( 14-C , 31-H ) :   0.9656 B( 14-C , 32-H ) :   0.9555
B( 15-C , 33-H ) :   0.9592 B( 15-C , 34-H ) :   0.9680 B( 15-C , 35-H ) :   0.9646
B( 16-O , 17-C ) :   0.7976 B( 17-C , 18-C ) :   0.9319 B( 17-C , 36-H ) :   0.9608
B( 17-C , 37-H ) :   0.9599 B( 18-C , 38-H ) :   0.9626 B( 18-C , 39-H ) :   0.9711
B( 18-C , 40-H ) :   0.9592

Dispersion correction           -0.022013496
FINAL SINGLE POINT ENERGY     -2932.457883841516

DIPOLE MOMENT
-------------

Method             : SCF
Type of density    : Electron Density
Multiplicity       :   1
Irrep              :   0
Energy             : -2932.4823709890015380 Eh
Relativity type    :
Basis              : AO
                                X                 Y                 Z
Electronic contribution:      0.192877559      -1.281171200       6.788183098
Nuclear contribution   :     -0.605141948       0.986760370      -6.991310001
                        -----------------------------------------
Total Dipole Moment    :     -0.412264389      -0.294410830      -0.203126903
                        -----------------------------------------
Magnitude (a.u.)       :      0.545802346
Magnitude (Debye)      :      1.387319313

Rotational constants in cm-1:             0.012501             0.005399             0.004751
Rotational constants in MHz :           374.764722           161.866102           142.434917

                             ****ORCA TERMINATED NORMALLY****
TOTAL RUN TIME: 0 days 0 hours 1 minutes 24 seconds 512 msec
