                         Program Version 6.0.0  -   RELEASE  -
|  1> ! r2scan-3c def2/J RI DEFGRID2 scfconv6 printgap
|  2> %output
|  3>     printlevel normal
|  4> end
|  5> %cpcm
|  6>     smd true
|  7>     smdsolvent "water"
|  8> end
|  9> * xyz 0 1
| 10> C 3.520541538 1.6292016205 -1.654655207
| 11> C 2.1086510998 1.7631815962 -1.1260839452
| 12> O 1.5402750262 0.4858313117 -0.7792465237
| 13> P 2.0967391013 -0.4181406661 0.3924793824
| 14> S 2.8378262485 0.5238012993 1.9469295184
| 15> O 3.1138151729 -1.3665830656 -0.3732321822
| 16> C 4.0931600622 -2.1634261766 0.3171116518
| 17> C 3.4571871022 -3.278688704 1.1216217001
| 18> S 0.4014240811 -1.6305265321 0.7242589449
| 19> C -0.3840623117 -0.5499998574 1.9494917777
| 20> S -0.922915522 1.048536079 1.2762049388
| 21> P -2.1133152177 0.3916199464 -0.3592258938
| 22> S -1.3174471903 0.1218382245 -2.1344959178
| 23> O -3.3085664982 1.4437292765 -0.3706091865
| 24> C -3.246127499 2.6587512452 -1.1319145737
| 25> C -2.2410707204 3.6308547135 -0.5476831695
| 26> O -2.7851043856 -0.8706251726 0.3167881252
| 27> C -3.3422543543 -1.9454665334 -0.4690210496
| 28> C -4.6209599266 -1.5228178271 -1.1603883354
| 29> H 4.1787346451 1.2707871655 -0.8636095157
| 30> H 3.5440998608 0.9231378893 -2.4808788926
| 31> H 3.870837954 2.5986881133 -1.9946287626
| 32> H 1.4257129309 2.148727996 -1.8856231967
| 33> H 2.0814790919 2.403746298 -0.2381211167
| 34> H 4.7249103265 -2.5515821462 -0.4828697545
| 35> H 4.6764165429 -1.5045792874 0.968490232
| 36> H 4.2346864222 -3.9220312611 1.5209106873
| 37> H 2.8839930284 -2.8614335188 1.9486734
| 38> H 2.7896725884 -3.8638406418 0.4937754978
| 39> H 0.3341107329 -0.3075062815 2.733958392
| 40> H -1.2398519574 -1.0888041734 2.3464441077
| 41> H -2.9836181614 2.4070916422 -2.1653173327
| 42> H -4.2622798829 3.0526547837 -1.0906140912
| 43> H -2.2590168174 4.557898701 -1.1114464989
| 44> H -2.4719209369 3.8340060212 0.4948537602
| 45> H -1.2400406187 3.2006104391 -0.6020631112
| 46> H -2.5924345745 -2.2670108646 -1.1991551545
| 47> H -3.5143301025 -2.7399556464 0.2581032329
| 48> H -5.0618384 -2.3806616713 -1.658223881
| 49> H -5.3241259208 -1.120890713 -0.4358736423
| 50> H -4.4024601172 -0.7556997378 -1.9021915238
| 51> *
| 52>
| 53>                          ****END OF INPUT****

CARTESIAN COORDINATES (ANGSTROEM)
---------------------------------
  C      3.520542    1.629202   -1.654655
  C      2.108651    1.763182   -1.126084
  O      1.540275    0.485831   -0.779247
  P      2.096739   -0.418141    0.392479
  S      2.837826    0.523801    1.946930
  O      3.113815   -1.366583   -0.373232
  C      4.093160   -2.163426    0.317112
  C      3.457187   -3.278689    1.121622
  S      0.401424   -1.630527    0.724259
  C     -0.384062   -0.550000    1.949492
  S     -0.922916    1.048536    1.276205
  P     -2.113315    0.391620   -0.359226
  S     -1.317447    0.121838   -2.134496
  O     -3.308566    1.443729   -0.370609
  C     -3.246127    2.658751   -1.131915
  C     -2.241071    3.630855   -0.547683
  O     -2.785104   -0.870625    0.316788
  C     -3.342254   -1.945467   -0.469021
  C     -4.620960   -1.522818   -1.160388
  H      4.178735    1.270787   -0.863610
  H      3.544100    0.923138   -2.480879
  H      3.870838    2.598688   -1.994629
  H      1.425713    2.148728   -1.885623
  H      2.081479    2.403746   -0.238121
  H      4.724910   -2.551582   -0.482870
  H      4.676417   -1.504579    0.968490
  H      4.234686   -3.922031    1.520911
  H      2.883993   -2.861434    1.948673
  H      2.789673   -3.863841    0.493775
  H      0.334111   -0.307506    2.733958
  H     -1.239852   -1.088804    2.346444
  H     -2.983618    2.407092   -2.165317
  H     -4.262280    3.052655   -1.090614
  H     -2.259017    4.557899   -1.111446
  H     -2.471921    3.834006    0.494854
  H     -1.240041    3.200610   -0.602063
  H     -2.592435   -2.267011   -1.199155
  H     -3.514330   -2.739956    0.258103
  H     -5.061838   -2.380662   -1.658224
  H     -5.324126   -1.120891   -0.435874
  H     -4.402460   -0.755700   -1.902192

 Total Charge           Charge          ....    0
 Multiplicity           Mult            ....    1
 Number of Electrons    NEL             ....  202
 Basis Dimension        Dim             ....  539

ORBITAL ENERGIES
----------------

  NO   OCC          E(Eh)            E(eV)
   0   2.0000     -88.577237     -2410.3092
   1   2.0000     -88.574532     -2410.2356
   2   2.0000     -88.526775     -2408.9360
   3   2.0000     -88.521198     -2408.7842
   4   2.0000     -76.916758     -2093.0114
   5   2.0000     -76.916738     -2093.0108
   6   2.0000     -18.995304      -516.8885
   7   2.0000     -18.994573      -516.8686
   8   2.0000     -18.991821      -516.7937
   9   2.0000     -18.986040      -516.6364
  10   2.0000     -10.104203      -274.9493
  11   2.0000     -10.089609      -274.5522
  12   2.0000     -10.089396      -274.5464
  13   2.0000     -10.088536      -274.5230
  14   2.0000     -10.087078      -274.4834
  15   2.0000     -10.020749      -272.6784
  16   2.0000     -10.018495      -272.6171
  17   2.0000     -10.018364      -272.6135
  18   2.0000     -10.017775      -272.5975
  19   2.0000      -7.871712      -214.2002
  20   2.0000      -7.868879      -214.1231
  21   2.0000      -7.821885      -212.8443
  22   2.0000      -7.816200      -212.6896
  23   2.0000      -6.595403      -179.4700
  24   2.0000      -6.595201      -179.4645
  25   2.0000      -5.818588      -158.3318
  26   2.0000      -5.816092      -158.2639
  27   2.0000      -5.815641      -158.2516
  28   2.0000      -5.812565      -158.1679
  29   2.0000      -5.808733      -158.0637
  30   2.0000      -5.805821      -157.9844
  31   2.0000      -5.769367      -156.9925
  32   2.0000      -5.763842      -156.8421
  33   2.0000      -5.762241      -156.7986
  34   2.0000      -5.761912      -156.7896
  35   2.0000      -5.756655      -156.6465
  36   2.0000      -5.756013      -156.6291
  37   2.0000      -4.740769      -129.0029
  38   2.0000      -4.740723      -129.0016
  39   2.0000      -4.740265      -128.9892
  40   2.0000      -4.740213      -128.9877
  41   2.0000      -4.739388      -128.9653
  42   2.0000      -4.738795      -128.9492
  43   2.0000      -1.052052       -28.6278
  44   2.0000      -1.050287       -28.5798
  45   2.0000      -1.013609       -27.5817
  46   2.0000      -1.010510       -27.4974
  47   2.0000      -0.801269       -21.8036
  48   2.0000      -0.753486       -20.5034
  49   2.0000      -0.741188       -20.1688
  50   2.0000      -0.723797       -19.6955
  51   2.0000      -0.722439       -19.6586
  52   2.0000      -0.707654       -19.2562
  53   2.0000      -0.688951       -18.7473
  54   2.0000      -0.673257       -18.3202
  55   2.0000      -0.632623       -17.2145
  56   2.0000      -0.622436       -16.9374
  57   2.0000      -0.599449       -16.3118
  58   2.0000      -0.598551       -16.2874
  59   2.0000      -0.588861       -16.0237
  60   2.0000      -0.517070       -14.0702
  61   2.0000      -0.510833       -13.9005
  62   2.0000      -0.491056       -13.3623
  63   2.0000      -0.487331       -13.2610
  64   2.0000      -0.474805       -12.9201
  65   2.0000      -0.456657       -12.4263
  66   2.0000      -0.453985       -12.3536
  67   2.0000      -0.452423       -12.3111
  68   2.0000      -0.437266       -11.8986
  69   2.0000      -0.428901       -11.6710
  70   2.0000      -0.422670       -11.5014
  71   2.0000      -0.406631       -11.0650
  72   2.0000      -0.406183       -11.0528
  73   2.0000      -0.404824       -11.0158
  74   2.0000      -0.400201       -10.8900
  75   2.0000      -0.387828       -10.5533
  76   2.0000      -0.383224       -10.4281
  77   2.0000      -0.368770       -10.0347
  78   2.0000      -0.366033        -9.9603
  79   2.0000      -0.361981        -9.8500
  80   2.0000      -0.354092        -9.6353
  81   2.0000      -0.352649        -9.5961
  82   2.0000      -0.350754        -9.5445
  83   2.0000      -0.346622        -9.4321
  84   2.0000      -0.341632        -9.2963
  85   2.0000      -0.330059        -8.9814
  86   2.0000      -0.317186        -8.6311
  87   2.0000      -0.304506        -8.2860
  88   2.0000      -0.304079        -8.2744
  89   2.0000      -0.299572        -8.1518
  90   2.0000      -0.296048        -8.0559
  91   2.0000      -0.287049        -7.8110
  92   2.0000      -0.284939        -7.7536
  93   2.0000      -0.278632        -7.5820
  94   2.0000      -0.276990        -7.5373
  95   2.0000      -0.250245        -6.8095
  96   2.0000      -0.234280        -6.3751
  97   2.0000      -0.229367        -6.2414
  98   2.0000      -0.225966        -6.1489
  99   2.0000      -0.214914        -5.8481
 100   2.0000      -0.211316        -5.7502
 101   0.0000      -0.052050        -1.4164
 102   0.0000      -0.028084        -0.7642
 103   0.0000      -0.020561        -0.5595
 104   0.0000       0.003419         0.0930
 105   0.0000       0.016264         0.4426

MULLIKEN ATOMIC CHARGES
-----------------------
   0 C :   -0.485706
   1 C :   -0.168706
   2 O :   -0.268990
   3 P :    0.736866
   4 S :   -0.540469
   5 O :   -0.330126
   6 C :   -0.151132
   7 C :   -0.488480
   8 S :   -0.141722
   9 C :   -0.202170
  10 S :   -0.173838
  11 P :    0.770852
  12 S :   -0.517050
  13 O :   -0.321506
  14 C :   -0.147518
  15 C :   -0.497705
  16 O :   -0.359196
  17 C :   -0.142744
  18 C :   -0.488198
  19 H :    0.168743
  20 H :    0.169594
  21 H :    0.171429
  22 H :    0.178257
  23 H :    0.176839
  24 H :    0.175483
  25 H :    0.177883
  26 H :    0.172799
  27 H :    0.173042
  28 H :    0.169236
  29 H :    0.226058
  30 H :    0.222286
  31 H :    0.178112
  32 H :    0.174678
  33 H :    0.176622
  34 H :    0.175498
  35 H :    0.166064
  36 H :    0.177538
  37 H :    0.176908
  38 H :    0.172401
  39 H :    0.169386
  40 H :    0.168682
Sum of atomic charges:   -0.0000000

LOEWDIN ATOMIC CHARGES
----------------------
   0 C :   -0.403533
   1 C :    0.018889
   2 O :   -0.698012
   3 P :    0.384017
   4 S :   -0.163901
   5 O :   -0.672018
   6 C :    0.025347
   7 C :   -0.410082
   8 S :    0.176326
   9 C :   -0.404058
  10 S :    0.156555
  11 P :    0.395290
  12 S :   -0.131076
  13 O :   -0.682694
  14 C :    0.021219
  15 C :   -0.406245
  16 O :   -0.692039
  17 C :    0.025820
  18 C :   -0.402991
  19 H :    0.162610
  20 H :    0.163967
  21 H :    0.168072
  22 H :    0.190635
  23 H :    0.181171
  24 H :    0.190908
  25 H :    0.181537
  26 H :    0.168389
  27 H :    0.161617
  28 H :    0.163653
  29 H :    0.197606
  30 H :    0.196875
  31 H :    0.181040
  32 H :    0.190666
  33 H :    0.170042
  34 H :    0.164184
  35 H :    0.161367
  36 H :    0.182546
  37 H :    0.190449
  38 H :    0.169065
  39 H :    0.164043
  40 H :    0.162745

  Mayer bond orders larger than 0.100000
B(  0-C ,  1-C ) :   0.9078 B(  0-C , 19-H ) :   0.9604 B(  0-C , 20-H ) :   0.9711
B(  0-C , 21-H ) :   0.9558 B(  1-C ,  2-O ) :   0.7798 B(  1-C , 22-H ) :   0.9524
B(  1-C , 23-H ) :   0.9624 B(  2-O ,  3-P ) :   1.1725 B(  3-P ,  4-S ) :   1.6886
B(  3-P ,  5-O ) :   1.0720 B(  3-P ,  8-S ) :   1.0985 B(  5-O ,  6-C ) :   0.7999
B(  6-C ,  7-C ) :   0.9094 B(  6-C , 24-H ) :   0.9484 B(  6-C , 25-H ) :   0.9658
B(  7-C , 26-H ) :   0.9532 B(  7-C , 27-H ) :   0.9639 B(  7-C , 28-H ) :   0.9657
B(  8-S ,  9-C ) :   0.9088 B(  9-C , 10-S ) :   0.8815 B(  9-C , 29-H ) :   0.9075
B(  9-C , 30-H ) :   0.9069 B( 10-S , 11-P ) :   1.0653 B( 11-P , 12-S ) :   1.7115
B( 11-P , 13-O ) :   1.0741 B( 11-P , 16-O ) :   1.1686 B( 13-O , 14-C ) :   0.8068
B( 14-C , 15-C ) :   0.9024 B( 14-C , 31-H ) :   0.9632 B( 14-C , 32-H ) :   0.9463
B( 15-C , 33-H ) :   0.9528 B( 15-C , 34-H ) :   0.9659 B( 15-C , 35-H ) :   0.9616
B( 16-O , 17-C ) :   0.7862 B( 17-C , 18-C ) :   0.9186 B( 17-C , 36-H ) :   0.9582
B( 17-C , 37-H ) :   0.9502 B( 18-C , 38-H ) :   0.9566 B( 18-C , 39-H ) :   0.9703
B( 18-C , 40-H ) :   0.9599

Dispersion correction           -0.022013496
FINAL SINGLE POINT ENERGY     -2932.465884348714

DIPOLE MOMENT
-------------

Method             : SCF
Type of density    : Electron Density
Multiplicity       :   1
Irrep              :   0
Energy             : -2932.4903714961988044 Eh
Relativity type    :
Basis              : AO
                                X                 Y                 Z
Electronic contribution:      0.058197917      -1.408657591       6.864825529
Nuclear contribution   :     -0.605141948       0.986760370      -6.991310001
                        -----------------------------------------
Total Dipole Moment    :     -0.546944032      -0.421897221      -0.126484472
                        -----------------------------------------
Magnitude (a.u.)       :      0.702241668
Magnitude (Debye)      :      1.784956467

Rotational constants in cm-1:             0.012501             0.005399             0.004751
Rotational constants in MHz :           374.764722           161.866102           142.434917

                             ****ORCA TERMINATED NORMALLY****
TOTAL RUN TIME: 0 days 0 hours 1 minutes 56 seconds 534 msec
