                         Program Version 6.0.0  -   RELEASE  -
|  1> ! pbe def2-sv(p) def2/J RI DEFGRID1 loosescf d4 GCP(DFT/SV(P)) printgap
|  2> %output
|  3>     printlevel normal
|  4> end
|  5> * xyz 0 1
|  6> C 4.041554586 0.3175417216 -2.5513998164
|  7> C 2.6444802186 -0.2650670933 -2.5644858972
|  8> O 2.3421346735 -0.9109044276 -1.3118436681
|  9> P 2.0230363271 -0.0989833158 0.009298054
| 10> S 1.2753547815 1.6910896673 -0.3196157817
| 11> O 3.4362635563 -0.0735138953 0.7398042773
| 12> C 3.6440463987 0.0394426314 2.1576101616
| 13> C 2.8456427437 1.1622838793 2.7881024103
| 14> S 1.0101760355 -1.5976790556 1.1109431761
| 15> C -0.2694468361 -2.1121224651 -0.087429185
| 16> S -0.9576259906 -0.7872214901 -1.1042543038
| 17> P -2.1360452942 0.1804142981 0.3951615149
| 18> S -1.29232092 0.7252101661 2.0719924476
| 19> O -3.3104911821 -0.8277696665 0.6862953044
| 20> C -4.2705108008 -1.2824340168 -0.3054436523
| 21> C -3.9984164149 -2.7226417115 -0.6928958316
| 22> O -2.8749492434 1.3281618752 -0.4141981224
| 23> C -2.2612219895 2.5702680757 -0.8083559034
| 24> C -1.7990114911 2.5066721269 -2.2500976867
| 25> H 4.1035265103 1.0942176695 -1.7896582212
| 26> H 4.7697097652 -0.4553565542 -2.3211169973
| 27> H 4.2635833459 0.7511999622 -3.521197967
| 28> H 2.5367353785 -1.0582829716 -3.3048605861
| 29> H 1.900173133 0.5177990448 -2.74300674
| 30> H 3.3853451307 -0.919826438 2.6157946122
| 31> H 4.7176276711 0.2156556353 2.247758535
| 32> H 1.7755191583 0.9656908819 2.7009875766
| 33> H 3.0986450205 1.2397047403 3.8405842394
| 34> H 3.0619892022 2.107654799 2.2951960722
| 35> H -1.0570739465 -2.5717062184 0.5083606527
| 36> H 0.1726777826 -2.8254463871 -0.7793089311
| 37> H -5.2374690879 -1.1822414481 0.1897758181
| 38> H -4.2316353733 -0.619812453 -1.1710412313
| 39> H -4.8128081307 -3.0758434822 -1.3176091121
| 40> H -3.0679041103 -2.8039316148 -1.2489833915
| 41> H -3.9400727769 -3.3432587904 0.1972660495
| 42> H -3.0444058062 3.3184135224 -0.673745726
| 43> H -1.4258283502 2.791430717 -0.1368540779
| 44> H -2.6253601189 2.2306380598 -2.8986899884
| 45> H -1.4176025323 3.4801394959 -2.5399031343
| 46> H -1.0004009007 1.7758350998 -2.3574825789
| 47> *
| 48>
| 49>                          ****END OF INPUT****

CARTESIAN COORDINATES (ANGSTROEM)
---------------------------------
  C      4.041555    0.317542   -2.551400
  C      2.644480   -0.265067   -2.564486
  O      2.342135   -0.910904   -1.311844
  P      2.023036   -0.098983    0.009298
  S      1.275355    1.691090   -0.319616
  O      3.436264   -0.073514    0.739804
  C      3.644046    0.039443    2.157610
  C      2.845643    1.162284    2.788102
  S      1.010176   -1.597679    1.110943
  C     -0.269447   -2.112122   -0.087429
  S     -0.957626   -0.787221   -1.104254
  P     -2.136045    0.180414    0.395162
  S     -1.292321    0.725210    2.071992
  O     -3.310491   -0.827770    0.686295
  C     -4.270511   -1.282434   -0.305444
  C     -3.998416   -2.722642   -0.692896
  O     -2.874949    1.328162   -0.414198
  C     -2.261222    2.570268   -0.808356
  C     -1.799011    2.506672   -2.250098
  H      4.103527    1.094218   -1.789658
  H      4.769710   -0.455357   -2.321117
  H      4.263583    0.751200   -3.521198
  H      2.536735   -1.058283   -3.304861
  H      1.900173    0.517799   -2.743007
  H      3.385345   -0.919826    2.615795
  H      4.717628    0.215656    2.247759
  H      1.775519    0.965691    2.700988
  H      3.098645    1.239705    3.840584
  H      3.061989    2.107655    2.295196
  H     -1.057074   -2.571706    0.508361
  H      0.172678   -2.825446   -0.779309
  H     -5.237469   -1.182241    0.189776
  H     -4.231635   -0.619812   -1.171041
  H     -4.812808   -3.075843   -1.317609
  H     -3.067904   -2.803932   -1.248983
  H     -3.940073   -3.343259    0.197266
  H     -3.044406    3.318414   -0.673746
  H     -1.425828    2.791431   -0.136854
  H     -2.625360    2.230638   -2.898690
  H     -1.417603    3.480139   -2.539903
  H     -1.000401    1.775835   -2.357483

 Total Charge           Charge          ....    0
 Multiplicity           Mult            ....    1
 Number of Electrons    NEL             ....  202
 Basis Dimension        Dim             ....  334

ORBITAL ENERGIES
----------------

  NO   OCC          E(Eh)            E(eV)
   0   2.0000     -88.043413     -2395.7831
   1   2.0000     -88.033846     -2395.5227
   2   2.0000     -87.976757     -2393.9693
   3   2.0000     -87.974481     -2393.9073
   4   2.0000     -76.422602     -2079.5647
   5   2.0000     -76.422438     -2079.5603
   6   2.0000     -18.793246      -511.3902
   7   2.0000     -18.790827      -511.3244
   8   2.0000     -18.790112      -511.3049
   9   2.0000     -18.786597      -511.2093
  10   2.0000      -9.960977      -271.0520
  11   2.0000      -9.956604      -270.9330
  12   2.0000      -9.951852      -270.8037
  13   2.0000      -9.947643      -270.6891
  14   2.0000      -9.947303      -270.6799
  15   2.0000      -9.891293      -269.1558
  16   2.0000      -9.881163      -268.8801
  17   2.0000      -9.880445      -268.8606
  18   2.0000      -9.875323      -268.7212
  19   2.0000      -7.687704      -209.1931
  20   2.0000      -7.679304      -208.9645
  21   2.0000      -7.621574      -207.3936
  22   2.0000      -7.619503      -207.3372
  23   2.0000      -6.419634      -174.6871
  24   2.0000      -6.419494      -174.6833
  25   2.0000      -5.715504      -155.5268
  26   2.0000      -5.712227      -155.4376
  27   2.0000      -5.707478      -155.3084
  28   2.0000      -5.704761      -155.2344
  29   2.0000      -5.703861      -155.2099
  30   2.0000      -5.695814      -154.9910
  31   2.0000      -5.650468      -153.7570
  32   2.0000      -5.648680      -153.7084
  33   2.0000      -5.642305      -153.5349
  34   2.0000      -5.641648      -153.5171
  35   2.0000      -5.640088      -153.4746
  36   2.0000      -5.639432      -153.4567
  37   2.0000      -4.642654      -126.3330
  38   2.0000      -4.642191      -126.3205
  39   2.0000      -4.641642      -126.3055
  40   2.0000      -4.641514      -126.3020
  41   2.0000      -4.639608      -126.2501
  42   2.0000      -4.639595      -126.2498
  43   2.0000      -0.986455       -26.8428
  44   2.0000      -0.981932       -26.7197
  45   2.0000      -0.942880       -25.6571
  46   2.0000      -0.942175       -25.6379
  47   2.0000      -0.761520       -20.7220
  48   2.0000      -0.717841       -19.5335
  49   2.0000      -0.707924       -19.2636
  50   2.0000      -0.688714       -18.7409
  51   2.0000      -0.682666       -18.5763
  52   2.0000      -0.669152       -18.2086
  53   2.0000      -0.649369       -17.6702
  54   2.0000      -0.633198       -17.2302
  55   2.0000      -0.591057       -16.0835
  56   2.0000      -0.584523       -15.9057
  57   2.0000      -0.577029       -15.7017
  58   2.0000      -0.569997       -15.5104
  59   2.0000      -0.563113       -15.3231
  60   2.0000      -0.502923       -13.6852
  61   2.0000      -0.490539       -13.3482
  62   2.0000      -0.476525       -12.9669
  63   2.0000      -0.466915       -12.7054
  64   2.0000      -0.460249       -12.5240
  65   2.0000      -0.443290       -12.0625
  66   2.0000      -0.439535       -11.9604
  67   2.0000      -0.432957       -11.7814
  68   2.0000      -0.427386       -11.6298
  69   2.0000      -0.412878       -11.2350
  70   2.0000      -0.404912       -11.0182
  71   2.0000      -0.396156       -10.7800
  72   2.0000      -0.390581       -10.6282
  73   2.0000      -0.385230       -10.4826
  74   2.0000      -0.377059       -10.2603
  75   2.0000      -0.374903       -10.2016
  76   2.0000      -0.362671        -9.8688
  77   2.0000      -0.359907        -9.7936
  78   2.0000      -0.356760        -9.7079
  79   2.0000      -0.348646        -9.4871
  80   2.0000      -0.344597        -9.3770
  81   2.0000      -0.339780        -9.2459
  82   2.0000      -0.337172        -9.1749
  83   2.0000      -0.335909        -9.1406
  84   2.0000      -0.327152        -8.9023
  85   2.0000      -0.318962        -8.6794
  86   2.0000      -0.309646        -8.4259
  87   2.0000      -0.300465        -8.1761
  88   2.0000      -0.292437        -7.9576
  89   2.0000      -0.287513        -7.8236
  90   2.0000      -0.284321        -7.7368
  91   2.0000      -0.271569        -7.3898
  92   2.0000      -0.270176        -7.3519
  93   2.0000      -0.258666        -7.0387
  94   2.0000      -0.252873        -6.8810
  95   2.0000      -0.245166        -6.6713
  96   2.0000      -0.219622        -5.9762
  97   2.0000      -0.206228        -5.6118
  98   2.0000      -0.184658        -5.0248
  99   2.0000      -0.179013        -4.8712
 100   2.0000      -0.178367        -4.8536
 101   0.0000      -0.050328        -1.3695
 102   0.0000      -0.027232        -0.7410
 103   0.0000      -0.017286        -0.4704
 104   0.0000       0.002403         0.0654
 105   0.0000       0.019851         0.5402

MULLIKEN ATOMIC CHARGES
-----------------------
   0 C :   -0.298728
   1 C :   -0.012338
   2 O :   -0.371785
   3 P :    0.620976
   4 S :   -0.323507
   5 O :   -0.375380
   6 C :   -0.011726
   7 C :   -0.327351
   8 S :   -0.104611
   9 C :   -0.311373
  10 S :   -0.127607
  11 P :    0.603783
  12 S :   -0.281500
  13 O :   -0.364457
  14 C :   -0.008761
  15 C :   -0.298935
  16 O :   -0.383066
  17 C :   -0.008980
  18 C :   -0.313771
  19 H :    0.124331
  20 H :    0.113953
  21 H :    0.108009
  22 H :    0.098430
  23 H :    0.115714
  24 H :    0.113475
  25 H :    0.107084
  26 H :    0.151352
  27 H :    0.108796
  28 H :    0.124570
  29 H :    0.184272
  30 H :    0.186856
  31 H :    0.111654
  32 H :    0.108067
  33 H :    0.111619
  34 H :    0.119714
  35 H :    0.120534
  36 H :    0.104380
  37 H :    0.125631
  38 H :    0.107117
  39 H :    0.111191
  40 H :    0.142369
Sum of atomic charges:   -0.0000000

LOEWDIN ATOMIC CHARGES
----------------------
   0 C :   -0.362484
   1 C :   -0.122017
   2 O :   -0.245175
   3 P :    0.571655
   4 S :   -0.308660
   5 O :   -0.248894
   6 C :   -0.114964
   7 C :   -0.373249
   8 S :    0.076929
   9 C :   -0.467351
  10 S :    0.076502
  11 P :    0.561340
  12 S :   -0.294241
  13 O :   -0.242521
  14 C :   -0.112060
  15 C :   -0.362377
  16 O :   -0.246012
  17 C :   -0.115055
  18 C :   -0.365288
  19 H :    0.124653
  20 H :    0.125353
  21 H :    0.128542
  22 H :    0.115172
  23 H :    0.107747
  24 H :    0.108669
  25 H :    0.120463
  26 H :    0.125598
  27 H :    0.129114
  28 H :    0.128329
  29 H :    0.132392
  30 H :    0.135800
  31 H :    0.122491
  32 H :    0.110781
  33 H :    0.130929
  34 H :    0.118327
  35 H :    0.127446
  36 H :    0.118236
  37 H :    0.112525
  38 H :    0.121180
  39 H :    0.131824
  40 H :    0.118353

  Mayer bond orders larger than 0.100000
B(  0-C ,  1-C ) :   1.1662 B(  0-C , 19-H ) :   0.9355 B(  0-C , 20-H ) :   0.9469
B(  0-C , 21-H ) :   0.9400 B(  1-C ,  2-O ) :   0.9032 B(  1-C , 22-H ) :   0.9336
B(  1-C , 23-H ) :   0.9085 B(  2-O ,  3-P ) :   1.1090 B(  3-P ,  4-S ) :   1.5983
B(  3-P ,  5-O ) :   1.1041 B(  3-P ,  8-S ) :   0.9639 B(  4-S ,  8-S ) :   0.1187
B(  5-O ,  6-C ) :   0.9183 B(  6-C ,  7-C ) :   1.1647 B(  6-C , 24-H ) :   0.9255
B(  6-C , 25-H ) :   0.9338 B(  7-C , 26-H ) :   0.9268 B(  7-C , 27-H ) :   0.9338
B(  7-C , 28-H ) :   0.9406 B(  8-S ,  9-C ) :   0.9911 B(  9-C , 10-S ) :   1.0060
B(  9-C , 29-H ) :   0.8993 B(  9-C , 30-H ) :   0.9089 B( 10-S , 11-P ) :   0.9137
B( 10-S , 12-S ) :   0.1163 B( 11-P , 12-S ) :   1.7094 B( 11-P , 13-O ) :   1.1177
B( 11-P , 16-O ) :   1.0970 B( 13-O , 14-C ) :   0.8956 B( 14-C , 15-C ) :   1.1657
B( 14-C , 31-H ) :   0.9351 B( 14-C , 32-H ) :   0.9174 B( 15-C , 33-H ) :   0.9395
B( 15-C , 34-H ) :   0.9344 B( 15-C , 35-H ) :   0.9445 B( 16-O , 17-C ) :   0.8970
B( 17-C , 18-C ) :   1.1713 B( 17-C , 36-H ) :   0.9343 B( 17-C , 37-H ) :   0.9040
B( 18-C , 38-H ) :   0.9465 B( 18-C , 39-H ) :   0.9401 B( 18-C , 40-H ) :   0.9279

Dispersion correction           -0.068843840
FINAL SINGLE POINT ENERGY     -2929.506359194049

DIPOLE MOMENT
-------------

Method             : SCF
Type of density    : Electron Density
Multiplicity       :   1
Irrep              :   0
Energy             : -2929.6217353016450033 Eh
Relativity type    :
Basis              : AO
                                X                 Y                 Z
Electronic contribution:     -2.095659247      -2.200887871      10.688424281
Nuclear contribution   :      1.899869137       1.450891679     -11.869701849
                        -----------------------------------------
Total Dipole Moment    :     -0.195790109      -0.749996191      -1.181277568
                        -----------------------------------------
Magnitude (a.u.)       :      1.412885256
Magnitude (Debye)      :      3.591268917

Rotational constants in cm-1:             0.011652             0.005624             0.005462
Rotational constants in MHz :           349.304281           168.611284           163.751604

                             ****ORCA TERMINATED NORMALLY****
TOTAL RUN TIME: 0 days 0 hours 0 minutes 23 seconds 252 msec
