                         Program Version 6.0.1  -  RELEASE   -
|  1> ! pbe def2-sv(p) def2/J RI DEFGRID1 loosescf d4 GCP(DFT/SV(P)) printgap
|  2> %output
|  3>     printlevel normal
|  4> end
|  5> * xyz 0 1
|  6> C 3.3568319957 -1.5896690012 1.5875926159
|  7> C 3.02174665 -2.2935309389 0.283088407
|  8> O 2.7167470896 -1.3212948326 -0.7354064375
|  9> C 1.473473061 -1.115286449 -1.0895633044
| 10> O 0.5143397389 -1.7274779152 -0.6496597345
| 11> C 1.3471046694 -0.0291871957 -2.1328373622
| 12> C 0.2475331515 0.9563758512 -1.751815083
| 13> H 0.1269100982 1.7019764618 -2.544302646
| 14> C 0.4912086776 1.7047973926 -0.4495126446
| 15> O -0.405402239 2.2521000281 0.1561894925
| 16> O 1.7537434576 1.6960485163 -0.1048872594
| 17> C 2.1352580132 2.3760186662 1.1085182215
| 18> C 2.2455615921 3.8755191925 0.8899718335
| 19> S -1.4134621415 0.1969412576 -1.6523068789
| 20> P -1.5609221758 -0.5563118748 0.3412349562
| 21> S -0.2751835337 -0.3375844161 1.8035189719
| 22> O -2.9976843812 0.0634495227 0.7446436489
| 23> C -3.1970580075 1.4290779467 1.1019774445
| 24> O -2.0062167169 -2.0665989934 0.210176145
| 25> C -3.004589597 -2.5178669278 -0.7215050478
| 26> H 2.4852005418 -1.0520003163 1.9577587513
| 27> H 3.6518908783 -2.3268442708 2.3267158733
| 28> H 4.1708390975 -0.8875921615 1.4333056508
| 29> H 2.1617294909 -2.9574783425 0.4068122327
| 30> H 3.8796786479 -2.8474448884 -0.1010710006
| 31> H 1.0812127961 -0.4971144993 -3.0826108024
| 32> H 2.3018770919 0.4868029327 -2.2252720929
| 33> H 1.3981594479 2.137780597 1.8811016816
| 34> H 3.0985667915 1.9350762718 1.3635951733
| 35> H 1.272028408 4.2914752876 0.6413554106
| 36> H 2.6025926334 4.3398533807 1.803016493
| 37> H 2.942065533 4.0865405986 0.083211592
| 38> H -4.2061879584 1.4818764466 1.5025921609
| 39> H -3.0919437705 2.0666210967 0.2241805703
| 40> H -2.4674192944 1.7334209764 1.8537756269
| 41> H -3.9439729269 -1.9955321764 -0.546259721
| 42> H -3.1097564122 -3.5818012958 -0.5250361825
| 43> H -2.6630324741 -2.3471216983 -1.7424574372
| 44> *
| 45>
| 46>                          ****END OF INPUT****

CARTESIAN COORDINATES (ANGSTROEM)
---------------------------------
  C      3.356832   -1.589669    1.587593
  C      3.021747   -2.293531    0.283088
  O      2.716747   -1.321295   -0.735406
  C      1.473473   -1.115286   -1.089563
  O      0.514340   -1.727478   -0.649660
  C      1.347105   -0.029187   -2.132837
  C      0.247533    0.956376   -1.751815
  H      0.126910    1.701976   -2.544303
  C      0.491209    1.704797   -0.449513
  O     -0.405402    2.252100    0.156189
  O      1.753743    1.696049   -0.104887
  C      2.135258    2.376019    1.108518
  C      2.245562    3.875519    0.889972
  S     -1.413462    0.196941   -1.652307
  P     -1.560922   -0.556312    0.341235
  S     -0.275184   -0.337584    1.803519
  O     -2.997684    0.063450    0.744644
  C     -3.197058    1.429078    1.101977
  O     -2.006217   -2.066599    0.210176
  C     -3.004590   -2.517867   -0.721505
  H      2.485201   -1.052000    1.957759
  H      3.651891   -2.326844    2.326716
  H      4.170839   -0.887592    1.433306
  H      2.161729   -2.957478    0.406812
  H      3.879679   -2.847445   -0.101071
  H      1.081213   -0.497114   -3.082611
  H      2.301877    0.486803   -2.225272
  H      1.398159    2.137781    1.881102
  H      3.098567    1.935076    1.363595
  H      1.272028    4.291475    0.641355
  H      2.602593    4.339853    1.803016
  H      2.942066    4.086541    0.083212
  H     -4.206188    1.481876    1.502592
  H     -3.091944    2.066621    0.224181
  H     -2.467419    1.733421    1.853776
  H     -3.943973   -1.995532   -0.546260
  H     -3.109756   -3.581801   -0.525036
  H     -2.663032   -2.347122   -1.742457

 Total Charge           Charge          ....    0
 Multiplicity           Mult            ....    1
 Number of Electrons    NEL             ....  174
 Basis Dimension        Dim             ....  316

ORBITAL ENERGIES
----------------

  NO   OCC          E(Eh)            E(eV)
   0   2.0000     -88.030908     -2395.4428
   1   2.0000     -87.967896     -2393.7282
   2   2.0000     -76.415246     -2079.3646
   3   2.0000     -18.812871      -511.9242
   4   2.0000     -18.805636      -511.7274
   5   2.0000     -18.773987      -510.8662
   6   2.0000     -18.768080      -510.7054
   7   2.0000     -18.740422      -509.9528
   8   2.0000     -18.740026      -509.9420
   9   2.0000     -10.018546      -272.6185
  10   2.0000     -10.012069      -272.4423
  11   2.0000      -9.952802      -270.8295
  12   2.0000      -9.948771      -270.7198
  13   2.0000      -9.944188      -270.5951
  14   2.0000      -9.936364      -270.3822
  15   2.0000      -9.920136      -269.9406
  16   2.0000      -9.912762      -269.7400
  17   2.0000      -9.888189      -269.0713
  18   2.0000      -9.880383      -268.8589
  19   2.0000      -7.675696      -208.8663
  20   2.0000      -7.613088      -207.1627
  21   2.0000      -6.410506      -174.4387
  22   2.0000      -5.704014      -155.2141
  23   2.0000      -5.700409      -155.1160
  24   2.0000      -5.692019      -154.8877
  25   2.0000      -5.642418      -153.5380
  26   2.0000      -5.633606      -153.2982
  27   2.0000      -5.632773      -153.2755
  28   2.0000      -4.633291      -126.0783
  29   2.0000      -4.632686      -126.0618
  30   2.0000      -4.630889      -126.0129
  31   2.0000      -1.020315       -27.7642
  32   2.0000      -1.012626       -27.5549
  33   2.0000      -0.966768       -26.3071
  34   2.0000      -0.922304       -25.0972
  35   2.0000      -0.920045       -25.0357
  36   2.0000      -0.916462       -24.9382
  37   2.0000      -0.763748       -20.7827
  38   2.0000      -0.709907       -19.3175
  39   2.0000      -0.704897       -19.1812
  40   2.0000      -0.684089       -18.6150
  41   2.0000      -0.654174       -17.8010
  42   2.0000      -0.622846       -16.9485
  43   2.0000      -0.614771       -16.7288
  44   2.0000      -0.606570       -16.5056
  45   2.0000      -0.592993       -16.1362
  46   2.0000      -0.569127       -15.4867
  47   2.0000      -0.507461       -13.8087
  48   2.0000      -0.501308       -13.6413
  49   2.0000      -0.496207       -13.5025
  50   2.0000      -0.480954       -13.0874
  51   2.0000      -0.458810       -12.4849
  52   2.0000      -0.453916       -12.3517
  53   2.0000      -0.447651       -12.1812
  54   2.0000      -0.428809       -11.6685
  55   2.0000      -0.425734       -11.5848
  56   2.0000      -0.420288       -11.4366
  57   2.0000      -0.415093       -11.2952
  58   2.0000      -0.411178       -11.1887
  59   2.0000      -0.398519       -10.8443
  60   2.0000      -0.396065       -10.7775
  61   2.0000      -0.391673       -10.6580
  62   2.0000      -0.388526       -10.5723
  63   2.0000      -0.382881       -10.4187
  64   2.0000      -0.371796       -10.1171
  65   2.0000      -0.368687       -10.0325
  66   2.0000      -0.360177        -9.8009
  67   2.0000      -0.352570        -9.5939
  68   2.0000      -0.346874        -9.4389
  69   2.0000      -0.337282        -9.1779
  70   2.0000      -0.330943        -9.0054
  71   2.0000      -0.328457        -8.9378
  72   2.0000      -0.319645        -8.6980
  73   2.0000      -0.303818        -8.2673
  74   2.0000      -0.300062        -8.1651
  75   2.0000      -0.293091        -7.9754
  76   2.0000      -0.281794        -7.6680
  77   2.0000      -0.280885        -7.6433
  78   2.0000      -0.267628        -7.2825
  79   2.0000      -0.259670        -7.0660
  80   2.0000      -0.251763        -6.8508
  81   2.0000      -0.247579        -6.7370
  82   2.0000      -0.232558        -6.3282
  83   2.0000      -0.228276        -6.2117
  84   2.0000      -0.197411        -5.3718
  85   2.0000      -0.187923        -5.1137
  86   2.0000      -0.177892        -4.8407
  87   0.0000      -0.045026        -1.2252
  88   0.0000      -0.035841        -0.9753
  89   0.0000      -0.027926        -0.7599
  90   0.0000       0.006018         0.1638
  91   0.0000       0.034359         0.9349

MULLIKEN ATOMIC CHARGES
-----------------------
   0 C :   -0.312969
   1 C :   -0.022149
   2 O :   -0.216548
   3 C :    0.105631
   4 O :   -0.201808
   5 C :    0.002142
   6 C :   -0.325004
   7 H :    0.153956
   8 C :    0.183126
   9 O :   -0.180786
  10 O :   -0.220893
  11 C :   -0.018403
  12 C :   -0.306715
  13 S :   -0.098136
  14 P :    0.634061
  15 S :   -0.324541
  16 O :   -0.396154
  17 C :   -0.090842
  18 O :   -0.357404
  19 C :   -0.106632
  20 H :    0.144342
  21 H :    0.109758
  22 H :    0.108375
  23 H :    0.121585
  24 H :    0.101394
  25 H :    0.117410
  26 H :    0.107348
  27 H :    0.127219
  28 H :    0.104561
  29 H :    0.130579
  30 H :    0.115634
  31 H :    0.109685
  32 H :    0.110004
  33 H :    0.111202
  34 H :    0.114923
  35 H :    0.119502
  36 H :    0.126824
  37 H :    0.119721
Sum of atomic charges:   -0.0000000

LOEWDIN ATOMIC CHARGES
----------------------
   0 C :   -0.359063
   1 C :   -0.109631
   2 O :   -0.042446
   3 C :    0.032354
   4 O :   -0.171885
   5 C :   -0.253156
   6 C :   -0.259134
   7 H :    0.153349
   8 C :   -0.002047
   9 O :   -0.159723
  10 O :   -0.038303
  11 C :   -0.109569
  12 C :   -0.357911
  13 S :    0.101840
  14 P :    0.596897
  15 S :   -0.296836
  16 O :   -0.267815
  17 C :   -0.216763
  18 O :   -0.233889
  19 C :   -0.212029
  20 H :    0.125722
  21 H :    0.130158
  22 H :    0.120007
  23 H :    0.125361
  24 H :    0.116443
  25 H :    0.146183
  26 H :    0.138559
  27 H :    0.123540
  28 H :    0.118275
  29 H :    0.131286
  30 H :    0.132641
  31 H :    0.122862
  32 H :    0.113636
  33 H :    0.106814
  34 H :    0.109056
  35 H :    0.112644
  36 H :    0.124303
  37 H :    0.108270

  Mayer bond orders larger than 0.100000
B(  0-C ,  1-C ) :   1.1796 B(  0-C , 20-H ) :   0.9275 B(  0-C , 21-H ) :   0.9413
B(  0-C , 22-H ) :   0.9460 B(  1-C ,  2-O ) :   0.9039 B(  1-C , 23-H ) :   0.9054
B(  1-C , 24-H ) :   0.9361 B(  2-O ,  3-C ) :   1.2662 B(  3-C ,  4-O ) :   1.9492
B(  3-C ,  5-C ) :   1.0052 B(  5-C ,  6-C ) :   1.0279 B(  5-C , 25-H ) :   0.8777
B(  5-C , 26-H ) :   0.8827 B(  6-C ,  7-H ) :   0.8717 B(  6-C ,  8-C ) :   0.8901
B(  6-C , 13-S ) :   1.0401 B(  8-C ,  9-O ) :   2.0297 B(  8-C , 10-O ) :   1.2673
B( 10-O , 11-C ) :   0.9013 B( 11-C , 12-C ) :   1.1692 B( 11-C , 27-H ) :   0.9096
B( 11-C , 28-H ) :   0.9351 B( 12-C , 29-H ) :   0.9432 B( 12-C , 30-H ) :   0.9440
B( 12-C , 31-H ) :   0.9473 B( 13-S , 14-P ) :   0.9195 B( 13-S , 15-S ) :   0.1210
B( 14-P , 15-S ) :   1.5700 B( 14-P , 16-O ) :   1.0572 B( 14-P , 18-O ) :   1.1292
B( 16-O , 17-C ) :   0.9408 B( 17-C , 32-H ) :   0.9568 B( 17-C , 33-H ) :   0.9456
B( 17-C , 34-H ) :   0.9385 B( 18-O , 19-C ) :   0.9288 B( 19-C , 35-H ) :   0.9447
B( 19-C , 36-H ) :   0.9602 B( 19-C , 37-H ) :   0.9390

Dispersion correction           -0.056612956
FINAL SINGLE POINT ENERGY     -1979.003513533324

DIPOLE MOMENT
-------------

Method             : SCF
Type of density    : Electron Density
Multiplicity       :   1
Irrep              :   0
Energy             : -1979.1315086586364487 Eh
Relativity type    :
Basis              : AO
                                X                 Y                 Z
Electronic contribution:    -11.447036341      -5.549091131      -5.020868061
Nuclear contribution   :     12.404926066       5.896628691       4.104287516
                        -----------------------------------------
Total Dipole Moment    :      0.957889725       0.347537560      -0.916580545
                        -----------------------------------------
Magnitude (a.u.)       :      1.370567392
Magnitude (Debye)      :      3.483705456

Rotational constants in cm-1:             0.012581             0.009369             0.007495
Rotational constants in MHz :           377.158796           280.861676           224.701882

                             ****ORCA TERMINATED NORMALLY****
TOTAL RUN TIME: 0 days 0 hours 1 minutes 32 seconds 329 msec
