                         Program Version 6.0.0  -   RELEASE  -
|  1> ! pbe def2-sv(p) def2/J RI DEFGRID1 loosescf d4 GCP(DFT/SV(P)) printgap
|  2> %output
|  3>     printlevel normal
|  4> end
|  5> * xyz 0 1
|  6> C 1.9098301287 -1.0611789995 -2.7032119713
|  7> C 3.2613789685 -0.7293460171 -2.1045204749
|  8> O 3.3087768158 -0.9928478863 -0.691529594
|  9> P 2.5461226131 -0.1006123296 0.3802894164
| 10> S 2.6073156467 1.8340626846 0.0997173452
| 11> O 3.2488634163 -0.4878551035 1.7393597751
| 12> C 3.3783109384 -1.8433132416 2.23846699
| 13> C 4.6793974791 -2.4731737238 1.7858839744
| 14> S 0.6238894876 -0.9948842138 0.528543788
| 15> C -0.153453043 0.3866233351 1.436021509
| 16> S -1.9424089923 0.2312901914 1.4660430604
| 17> P -2.3610752872 0.7245901875 -0.5783379959
| 18> S -0.8788869925 1.4528655791 -1.6252024329
| 19> O -3.5744141328 1.7197101002 -0.5002060003
| 20> C -4.7836954527 1.4424119996 0.2588917414
| 21> C -4.8753696135 2.3825256699 1.4435798671
| 22> O -3.0618763627 -0.5652048031 -1.1953213525
| 23> C -2.3516532293 -1.7292606859 -1.6584022835
| 24> C -2.3009886911 -2.8027260618 -0.588619388
| 25> H 1.5999602413 -2.0594085229 -2.403621531
| 26> H 1.1641836155 -0.3388987721 -2.3722575256
| 27> H 1.9759423136 -1.0126556071 -3.7853270605
| 28> H 3.509480503 0.323485873 -2.2714555538
| 29> H 4.0481616284 -1.3654105778 -2.5131911346
| 30> H 3.3498192726 -1.7301983506 3.3236858435
| 31> H 2.5171554644 -2.4273965613 1.9010541552
| 32> H 4.7802891961 -3.4483933922 2.2520192322
| 33> H 4.6891826446 -2.5887327587 0.705763514
| 34> H 5.5177711605 -1.8470459065 2.0788048236
| 35> H 0.1331198114 1.3173539653 0.9398287303
| 36> H 0.1768096066 0.37294823 2.4723028072
| 37> H -5.6007054287 1.6069670356 -0.4450313255
| 38> H -4.7756369497 0.398687386 0.5778119701
| 39> H -4.0664479577 2.1910414592 2.1441909007
| 40> H -4.8122261938 3.4132125097 1.105665958
| 41> H -5.8247749409 2.2274250185 1.9459665269
| 42> H -2.9207270436 -2.0639051616 -2.5277320398
| 43> H -1.347247177 -1.4312937189 -1.9744770892
| 44> H -3.303622602 -3.0185183861 -0.2308486064
| 45> H -1.8702783902 -3.7030555386 -1.0138571016
| 46> H -1.6849581764 -2.4827567944 0.2488593684
| 47> *
| 48>
| 49>                          ****END OF INPUT****

CARTESIAN COORDINATES (ANGSTROEM)
---------------------------------
  C      1.909830   -1.061179   -2.703212
  C      3.261379   -0.729346   -2.104520
  O      3.308777   -0.992848   -0.691530
  P      2.546123   -0.100612    0.380289
  S      2.607316    1.834063    0.099717
  O      3.248863   -0.487855    1.739360
  C      3.378311   -1.843313    2.238467
  C      4.679397   -2.473174    1.785884
  S      0.623889   -0.994884    0.528544
  C     -0.153453    0.386623    1.436022
  S     -1.942409    0.231290    1.466043
  P     -2.361075    0.724590   -0.578338
  S     -0.878887    1.452866   -1.625202
  O     -3.574414    1.719710   -0.500206
  C     -4.783695    1.442412    0.258892
  C     -4.875370    2.382526    1.443580
  O     -3.061876   -0.565205   -1.195321
  C     -2.351653   -1.729261   -1.658402
  C     -2.300989   -2.802726   -0.588619
  H      1.599960   -2.059409   -2.403622
  H      1.164184   -0.338899   -2.372258
  H      1.975942   -1.012656   -3.785327
  H      3.509481    0.323486   -2.271456
  H      4.048162   -1.365411   -2.513191
  H      3.349819   -1.730198    3.323686
  H      2.517155   -2.427397    1.901054
  H      4.780289   -3.448393    2.252019
  H      4.689183   -2.588733    0.705764
  H      5.517771   -1.847046    2.078805
  H      0.133120    1.317354    0.939829
  H      0.176810    0.372948    2.472303
  H     -5.600705    1.606967   -0.445031
  H     -4.775637    0.398687    0.577812
  H     -4.066448    2.191041    2.144191
  H     -4.812226    3.413213    1.105666
  H     -5.824775    2.227425    1.945967
  H     -2.920727   -2.063905   -2.527732
  H     -1.347247   -1.431294   -1.974477
  H     -3.303623   -3.018518   -0.230849
  H     -1.870278   -3.703056   -1.013857
  H     -1.684958   -2.482757    0.248859

 Total Charge           Charge          ....    0
 Multiplicity           Mult            ....    1
 Number of Electrons    NEL             ....  202
 Basis Dimension        Dim             ....  334

ORBITAL ENERGIES
----------------

  NO   OCC          E(Eh)            E(eV)
   0   2.0000     -88.048685     -2395.9265
   1   2.0000     -88.041415     -2395.7287
   2   2.0000     -87.984485     -2394.1795
   3   2.0000     -87.981046     -2394.0860
   4   2.0000     -76.425849     -2079.6531
   5   2.0000     -76.423751     -2079.5960
   6   2.0000     -18.794367      -511.4207
   7   2.0000     -18.792632      -511.3735
   8   2.0000     -18.789687      -511.2934
   9   2.0000     -18.789401      -511.2856
  10   2.0000      -9.961209      -271.0583
  11   2.0000      -9.955066      -270.8911
  12   2.0000      -9.953834      -270.8576
  13   2.0000      -9.952476      -270.8206
  14   2.0000      -9.951486      -270.7937
  15   2.0000      -9.888874      -269.0899
  16   2.0000      -9.885825      -269.0070
  17   2.0000      -9.884595      -268.9735
  18   2.0000      -9.879337      -268.8304
  19   2.0000      -7.693420      -209.3486
  20   2.0000      -7.685798      -209.1412
  21   2.0000      -7.629254      -207.6026
  22   2.0000      -7.626274      -207.5215
  23   2.0000      -6.423532      -174.7932
  24   2.0000      -6.421299      -174.7324
  25   2.0000      -5.721286      -155.6841
  26   2.0000      -5.717854      -155.5907
  27   2.0000      -5.713563      -155.4740
  28   2.0000      -5.710525      -155.3913
  29   2.0000      -5.710511      -155.3909
  30   2.0000      -5.702797      -155.1810
  31   2.0000      -5.658401      -153.9729
  32   2.0000      -5.655318      -153.8890
  33   2.0000      -5.649627      -153.7342
  34   2.0000      -5.649421      -153.7286
  35   2.0000      -5.646817      -153.6577
  36   2.0000      -5.646362      -153.6453
  37   2.0000      -4.646200      -126.4295
  38   2.0000      -4.645295      -126.4049
  39   2.0000      -4.644243      -126.3763
  40   2.0000      -4.643873      -126.3662
  41   2.0000      -4.643016      -126.3429
  42   2.0000      -4.641445      -126.3001
  43   2.0000      -0.988251       -26.8917
  44   2.0000      -0.986944       -26.8561
  45   2.0000      -0.945002       -25.7148
  46   2.0000      -0.943724       -25.6800
  47   2.0000      -0.763596       -20.7785
  48   2.0000      -0.722039       -19.6477
  49   2.0000      -0.712967       -19.4008
  50   2.0000      -0.690879       -18.7998
  51   2.0000      -0.688736       -18.7414
  52   2.0000      -0.677123       -18.4254
  53   2.0000      -0.648823       -17.6554
  54   2.0000      -0.634975       -17.2785
  55   2.0000      -0.595354       -16.2004
  56   2.0000      -0.589171       -16.0322
  57   2.0000      -0.577082       -15.7032
  58   2.0000      -0.574469       -15.6321
  59   2.0000      -0.559343       -15.2205
  60   2.0000      -0.505960       -13.7679
  61   2.0000      -0.499392       -13.5891
  62   2.0000      -0.478464       -13.0197
  63   2.0000      -0.474671       -12.9165
  64   2.0000      -0.453809       -12.3488
  65   2.0000      -0.447980       -12.1902
  66   2.0000      -0.443178       -12.0595
  67   2.0000      -0.439116       -11.9490
  68   2.0000      -0.431019       -11.7286
  69   2.0000      -0.425083       -11.5671
  70   2.0000      -0.406447       -11.0600
  71   2.0000      -0.398839       -10.8530
  72   2.0000      -0.392887       -10.6910
  73   2.0000      -0.387708       -10.5501
  74   2.0000      -0.375955       -10.2303
  75   2.0000      -0.369878       -10.0649
  76   2.0000      -0.363992        -9.9047
  77   2.0000      -0.359009        -9.7691
  78   2.0000      -0.356063        -9.6890
  79   2.0000      -0.353597        -9.6219
  80   2.0000      -0.350362        -9.5338
  81   2.0000      -0.346291        -9.4230
  82   2.0000      -0.346035        -9.4161
  83   2.0000      -0.340993        -9.2789
  84   2.0000      -0.331250        -9.0138
  85   2.0000      -0.317118        -8.6292
  86   2.0000      -0.311559        -8.4779
  87   2.0000      -0.303871        -8.2688
  88   2.0000      -0.295694        -8.0462
  89   2.0000      -0.293752        -7.9934
  90   2.0000      -0.288908        -7.8616
  91   2.0000      -0.276614        -7.5271
  92   2.0000      -0.270339        -7.3563
  93   2.0000      -0.262083        -7.1316
  94   2.0000      -0.260934        -7.1004
  95   2.0000      -0.234061        -6.3691
  96   2.0000      -0.220587        -6.0025
  97   2.0000      -0.207224        -5.6389
  98   2.0000      -0.200825        -5.4647
  99   2.0000      -0.197039        -5.3617
 100   2.0000      -0.191217        -5.2033
 101   0.0000      -0.048622        -1.3231
 102   0.0000      -0.033602        -0.9144
 103   0.0000      -0.012653        -0.3443
 104   0.0000       0.007713         0.2099
 105   0.0000       0.011121         0.3026

MULLIKEN ATOMIC CHARGES
-----------------------
   0 C :   -0.361562
   1 C :    0.006116
   2 O :   -0.380995
   3 P :    0.612552
   4 S :   -0.298199
   5 O :   -0.359956
   6 C :   -0.012515
   7 C :   -0.292326
   8 S :   -0.132595
   9 C :   -0.331710
  10 S :   -0.130047
  11 P :    0.592889
  12 S :   -0.277252
  13 O :   -0.354527
  14 C :   -0.022242
  15 C :   -0.285428
  16 O :   -0.378143
  17 C :   -0.013409
  18 C :   -0.304479
  19 H :    0.109152
  20 H :    0.176915
  21 H :    0.112746
  22 H :    0.113981
  23 H :    0.102312
  24 H :    0.107059
  25 H :    0.099198
  26 H :    0.108054
  27 H :    0.123469
  28 H :    0.120183
  29 H :    0.213311
  30 H :    0.179628
  31 H :    0.116106
  32 H :    0.109340
  33 H :    0.122829
  34 H :    0.124786
  35 H :    0.110321
  36 H :    0.105578
  37 H :    0.119223
  38 H :    0.110168
  39 H :    0.107327
  40 H :    0.132141
Sum of atomic charges:   -0.0000000

LOEWDIN ATOMIC CHARGES
----------------------
   0 C :   -0.378310
   1 C :   -0.115680
   2 O :   -0.245134
   3 P :    0.569302
   4 S :   -0.293346
   5 O :   -0.241053
   6 C :   -0.117498
   7 C :   -0.360768
   8 S :    0.066159
   9 C :   -0.478991
  10 S :    0.070244
  11 P :    0.562175
  12 S :   -0.273808
  13 O :   -0.235949
  14 C :   -0.112104
  15 C :   -0.358472
  16 O :   -0.251034
  17 C :   -0.117050
  18 C :   -0.364971
  19 H :    0.119291
  20 H :    0.122618
  21 H :    0.131652
  22 H :    0.114294
  23 H :    0.116794
  24 H :    0.119899
  25 H :    0.100770
  26 H :    0.128691
  27 H :    0.125981
  28 H :    0.128983
  29 H :    0.124662
  30 H :    0.133673
  31 H :    0.124044
  32 H :    0.107966
  33 H :    0.122451
  34 H :    0.131732
  35 H :    0.129985
  36 H :    0.119116
  37 H :    0.110278
  38 H :    0.124044
  39 H :    0.129181
  40 H :    0.110184

  Mayer bond orders larger than 0.100000
B(  0-C ,  1-C ) :   1.1640 B(  0-C , 19-H ) :   0.9436 B(  0-C , 20-H ) :   0.9139
B(  0-C , 21-H ) :   0.9363 B(  1-C ,  2-O ) :   0.9040 B(  1-C , 22-H ) :   0.9159
B(  1-C , 23-H ) :   0.9337 B(  2-O ,  3-P ) :   1.0884 B(  3-P ,  4-S ) :   1.6593
B(  3-P ,  5-O ) :   1.1297 B(  3-P ,  8-S ) :   0.9472 B(  4-S ,  8-S ) :   0.1111
B(  5-O ,  6-C ) :   0.9009 B(  6-C ,  7-C ) :   1.1640 B(  6-C , 24-H ) :   0.9367
B(  6-C , 25-H ) :   0.9077 B(  7-C , 26-H ) :   0.9394 B(  7-C , 27-H ) :   0.9410
B(  7-C , 28-H ) :   0.9472 B(  8-S ,  9-C ) :   0.9719 B(  9-C , 10-S ) :   1.0304
B(  9-C , 29-H ) :   0.8522 B(  9-C , 30-H ) :   0.9052 B( 10-S , 11-P ) :   0.9084
B( 10-S , 12-S ) :   0.1137 B( 11-P , 12-S ) :   1.6760 B( 11-P , 13-O ) :   1.1499
B( 11-P , 16-O ) :   1.0874 B( 13-O , 14-C ) :   0.8864 B( 14-C , 15-C ) :   1.1635
B( 14-C , 31-H ) :   0.9340 B( 14-C , 32-H ) :   0.9188 B( 15-C , 33-H ) :   0.9408
B( 15-C , 34-H ) :   0.9457 B( 15-C , 35-H ) :   0.9395 B( 16-O , 17-C ) :   0.9076
B( 17-C , 18-C ) :   1.1696 B( 17-C , 36-H ) :   0.9351 B( 17-C , 37-H ) :   0.9054
B( 18-C , 38-H ) :   0.9459 B( 18-C , 39-H ) :   0.9398 B( 18-C , 40-H ) :   0.9276

Dispersion correction           -0.064550670
FINAL SINGLE POINT ENERGY     -2929.514759433532

DIPOLE MOMENT
-------------

Method             : SCF
Type of density    : Electron Density
Multiplicity       :   1
Irrep              :   0
Energy             : -2929.6347094588559230 Eh
Relativity type    :
Basis              : AO
                                X                 Y                 Z
Electronic contribution:      1.996571128      15.302074108       0.137907855
Nuclear contribution   :     -2.753417847     -17.209659843       0.302162098
                        -----------------------------------------
Total Dipole Moment    :     -0.756846719      -1.907585735       0.440069953
                        -----------------------------------------
Magnitude (a.u.)       :      2.098895390
Magnitude (Debye)      :      5.334968104

Rotational constants in cm-1:             0.013150             0.004482             0.004408
Rotational constants in MHz :           394.239214           134.381516           132.136550

                             ****ORCA TERMINATED NORMALLY****
TOTAL RUN TIME: 0 days 0 hours 0 minutes 20 seconds 891 msec
