                         Program Version 6.0.0  -   RELEASE  -
|  1> ! pbe def2-sv(p) def2/J RI DEFGRID1 loosescf d4 GCP(DFT/SV(P)) printgap
|  2> %output
|  3>     printlevel normal
|  4> end
|  5> * xyz 0 1
|  6> C 1.9562865368 2.0110051628 -1.0281954283
|  7> C 2.2674890497 0.6802667776 -1.6807187524
|  8> O 2.8735688091 -0.2621160659 -0.7812300263
|  9> P 2.3231749755 -0.7090213959 0.6412367584
| 10> S 2.4895570374 0.5576747536 2.133526812
| 11> O 3.1342123991 -2.0530386376 0.854215812
| 12> C 4.3800854323 -2.0920627377 1.5775535951
| 13> C 5.4986018972 -1.4422771158 0.790630406
| 14> S 0.40432829 -1.5291211304 0.2596221029
| 15> C -0.5156887439 -0.7643510292 1.6247923581
| 16> S -1.17034246 0.8863879607 1.2400282823
| 17> P -2.2748631495 0.4421392477 -0.5176843166
| 18> S -1.363854061 0.4436676417 -2.2579065262
| 19> O -3.501341784 1.4521378192 -0.450872706
| 20> C -3.4383771909 2.7698053346 -1.019282909
| 21> C -2.5119696755 3.6740852878 -0.2320865585
| 22> O -2.9357611961 -0.9233586709 -0.0679825988
| 23> C -3.4271021354 -1.8798489183 -1.0307169491
| 24> C -4.6657191323 -1.3733023678 -1.7387831088
| 25> H 2.8477471154 2.4336752279 -0.571208704
| 26> H 1.575338223 2.6928242188 -1.7821859084
| 27> H 1.1982756926 1.8865480268 -0.2547341559
| 28> H 3.0082645625 0.7908800733 -2.4744686457
| 29> H 1.3572930047 0.2341277748 -2.0933660521
| 30> H 4.2404571954 -1.587132609 2.5390411766
| 31> H 4.5581999984 -3.1560413001 1.7375321414
| 32> H 6.4339437257 -1.5542424932 1.3299032096
| 33> H 5.5852220785 -1.9031573832 -0.1896893746
| 34> H 5.2862379926 -0.3816828002 0.6611621564
| 35> H 0.1473224831 -0.6189707082 2.4781301587
| 36> H -1.3392564868 -1.4301758108 1.8654798609
| 37> H -3.1027130423 2.6840439137 -2.0583520626
| 38> H -4.4701526123 3.1220905504 -0.9888211338
| 39> H -2.5456340638 4.6773205975 -0.6443667759
| 40> H -2.8072207606 3.7011587293 0.8135952065
| 41> H -1.4898831365 3.2995975226 -0.2928413881
| 42> H -2.6272525569 -2.0919987546 -1.7474999477
| 43> H -3.6343928428 -2.7693205203 -0.4345524356
| 44> H -5.0607415295 -2.1562761823 -2.3784077013
| 45> H -5.4199842357 -1.0808023733 -1.0131188068
| 46> H -4.4131448172 -0.5090966734 -2.3518346119
| 47> *
| 48>
| 49>                          ****END OF INPUT****

CARTESIAN COORDINATES (ANGSTROEM)
---------------------------------
  C      1.956287    2.011005   -1.028195
  C      2.267489    0.680267   -1.680719
  O      2.873569   -0.262116   -0.781230
  P      2.323175   -0.709021    0.641237
  S      2.489557    0.557675    2.133527
  O      3.134212   -2.053039    0.854216
  C      4.380085   -2.092063    1.577554
  C      5.498602   -1.442277    0.790630
  S      0.404328   -1.529121    0.259622
  C     -0.515689   -0.764351    1.624792
  S     -1.170342    0.886388    1.240028
  P     -2.274863    0.442139   -0.517684
  S     -1.363854    0.443668   -2.257907
  O     -3.501342    1.452138   -0.450873
  C     -3.438377    2.769805   -1.019283
  C     -2.511970    3.674085   -0.232087
  O     -2.935761   -0.923359   -0.067983
  C     -3.427102   -1.879849   -1.030717
  C     -4.665719   -1.373302   -1.738783
  H      2.847747    2.433675   -0.571209
  H      1.575338    2.692824   -1.782186
  H      1.198276    1.886548   -0.254734
  H      3.008265    0.790880   -2.474469
  H      1.357293    0.234128   -2.093366
  H      4.240457   -1.587133    2.539041
  H      4.558200   -3.156041    1.737532
  H      6.433944   -1.554242    1.329903
  H      5.585222   -1.903157   -0.189689
  H      5.286238   -0.381683    0.661162
  H      0.147322   -0.618971    2.478130
  H     -1.339256   -1.430176    1.865480
  H     -3.102713    2.684044   -2.058352
  H     -4.470153    3.122091   -0.988821
  H     -2.545634    4.677321   -0.644367
  H     -2.807221    3.701159    0.813595
  H     -1.489883    3.299598   -0.292841
  H     -2.627253   -2.091999   -1.747500
  H     -3.634393   -2.769321   -0.434552
  H     -5.060742   -2.156276   -2.378408
  H     -5.419984   -1.080802   -1.013119
  H     -4.413145   -0.509097   -2.351835

 Total Charge           Charge          ....    0
 Multiplicity           Mult            ....    1
 Number of Electrons    NEL             ....  202
 Basis Dimension        Dim             ....  334

ORBITAL ENERGIES
----------------

  NO   OCC          E(Eh)            E(eV)
   0   2.0000     -88.041634     -2395.7347
   1   2.0000     -88.041217     -2395.7233
   2   2.0000     -87.990437     -2394.3415
   3   2.0000     -87.987487     -2394.2612
   4   2.0000     -76.430190     -2079.7712
   5   2.0000     -76.424536     -2079.6173
   6   2.0000     -18.799307      -511.5551
   7   2.0000     -18.795373      -511.4481
   8   2.0000     -18.787252      -511.2271
   9   2.0000     -18.783295      -511.1194
  10   2.0000      -9.956417      -270.9279
  11   2.0000      -9.955811      -270.9114
  12   2.0000      -9.955124      -270.8927
  13   2.0000      -9.946943      -270.6701
  14   2.0000      -9.942192      -270.5408
  15   2.0000      -9.888543      -269.0809
  16   2.0000      -9.886978      -269.0384
  17   2.0000      -9.879350      -268.8308
  18   2.0000      -9.870382      -268.5868
  19   2.0000      -7.686445      -209.1588
  20   2.0000      -7.686304      -209.1550
  21   2.0000      -7.635213      -207.7647
  22   2.0000      -7.632388      -207.6878
  23   2.0000      -6.427791      -174.9091
  24   2.0000      -6.421923      -174.7494
  25   2.0000      -5.714523      -155.5001
  26   2.0000      -5.714164      -155.4903
  27   2.0000      -5.710963      -155.4032
  28   2.0000      -5.710887      -155.4011
  29   2.0000      -5.703226      -155.1927
  30   2.0000      -5.703179      -155.1914
  31   2.0000      -5.663916      -154.1230
  32   2.0000      -5.661263      -154.0508
  33   2.0000      -5.655935      -153.9058
  34   2.0000      -5.655501      -153.8940
  35   2.0000      -5.653171      -153.8306
  36   2.0000      -5.652443      -153.8108
  37   2.0000      -4.650444      -126.5450
  38   2.0000      -4.649577      -126.5214
  39   2.0000      -4.648145      -126.4824
  40   2.0000      -4.644210      -126.3754
  41   2.0000      -4.643824      -126.3649
  42   2.0000      -4.642575      -126.3309
  43   2.0000      -0.992545       -27.0085
  44   2.0000      -0.981016       -26.6948
  45   2.0000      -0.952554       -25.9203
  46   2.0000      -0.938920       -25.5493
  47   2.0000      -0.762157       -20.7394
  48   2.0000      -0.721229       -19.6256
  49   2.0000      -0.705932       -19.2094
  50   2.0000      -0.690957       -18.8019
  51   2.0000      -0.679102       -18.4793
  52   2.0000      -0.672123       -18.2894
  53   2.0000      -0.654768       -17.8171
  54   2.0000      -0.640334       -17.4244
  55   2.0000      -0.603412       -16.4197
  56   2.0000      -0.592686       -16.1278
  57   2.0000      -0.576833       -15.6964
  58   2.0000      -0.566440       -15.4136
  59   2.0000      -0.561073       -15.2676
  60   2.0000      -0.499112       -13.5815
  61   2.0000      -0.488764       -13.3000
  62   2.0000      -0.478308       -13.0154
  63   2.0000      -0.462020       -12.5722
  64   2.0000      -0.460480       -12.5303
  65   2.0000      -0.444960       -12.1080
  66   2.0000      -0.442859       -12.0508
  67   2.0000      -0.429404       -11.6847
  68   2.0000      -0.424204       -11.5432
  69   2.0000      -0.418280       -11.3820
  70   2.0000      -0.407220       -11.0810
  71   2.0000      -0.398017       -10.8306
  72   2.0000      -0.393565       -10.7094
  73   2.0000      -0.387007       -10.5310
  74   2.0000      -0.385508       -10.4902
  75   2.0000      -0.375715       -10.2237
  76   2.0000      -0.371063       -10.0971
  77   2.0000      -0.359633        -9.7861
  78   2.0000      -0.354202        -9.6383
  79   2.0000      -0.350766        -9.5448
  80   2.0000      -0.346046        -9.4164
  81   2.0000      -0.341145        -9.2830
  82   2.0000      -0.336120        -9.1463
  83   2.0000      -0.334965        -9.1149
  84   2.0000      -0.331062        -9.0087
  85   2.0000      -0.317348        -8.6355
  86   2.0000      -0.307886        -8.3780
  87   2.0000      -0.299629        -8.1533
  88   2.0000      -0.290894        -7.9156
  89   2.0000      -0.289329        -7.8731
  90   2.0000      -0.282021        -7.6742
  91   2.0000      -0.277908        -7.5623
  92   2.0000      -0.269829        -7.3424
  93   2.0000      -0.266123        -7.2416
  94   2.0000      -0.255451        -6.9512
  95   2.0000      -0.241063        -6.5597
  96   2.0000      -0.220757        -6.0071
  97   2.0000      -0.207359        -5.6425
  98   2.0000      -0.203682        -5.5425
  99   2.0000      -0.202317        -5.5053
 100   2.0000      -0.196231        -5.3397
 101   0.0000      -0.049009        -1.3336
 102   0.0000      -0.026068        -0.7093
 103   0.0000      -0.019679        -0.5355
 104   0.0000       0.003532         0.0961
 105   0.0000       0.015822         0.4305

MULLIKEN ATOMIC CHARGES
-----------------------
   0 C :   -0.337511
   1 C :   -0.013998
   2 O :   -0.373410
   3 P :    0.620888
   4 S :   -0.332994
   5 O :   -0.366089
   6 C :   -0.006062
   7 C :   -0.303242
   8 S :   -0.088271
   9 C :   -0.339003
  10 S :   -0.085833
  11 P :    0.614267
  12 S :   -0.323922
  13 O :   -0.366155
  14 C :   -0.005567
  15 C :   -0.332267
  16 O :   -0.374258
  17 C :   -0.008147
  18 C :   -0.305051
  19 H :    0.114882
  20 H :    0.109073
  21 H :    0.148925
  22 H :    0.099775
  23 H :    0.133099
  24 H :    0.110210
  25 H :    0.103825
  26 H :    0.109356
  27 H :    0.116244
  28 H :    0.123718
  29 H :    0.190428
  30 H :    0.189738
  31 H :    0.110019
  32 H :    0.107479
  33 H :    0.117630
  34 H :    0.125223
  35 H :    0.137886
  36 H :    0.117075
  37 H :    0.106107
  38 H :    0.114131
  39 H :    0.118611
  40 H :    0.123193
Sum of atomic charges:   -0.0000000

LOEWDIN ATOMIC CHARGES
----------------------
   0 C :   -0.374372
   1 C :   -0.119496
   2 O :   -0.240564
   3 P :    0.574846
   4 S :   -0.310798
   5 O :   -0.245661
   6 C :   -0.118385
   7 C :   -0.363670
   8 S :    0.087193
   9 C :   -0.477137
  10 S :    0.094843
  11 P :    0.572122
  12 S :   -0.310353
  13 O :   -0.241602
  14 C :   -0.121682
  15 C :   -0.369930
  16 O :   -0.239932
  17 C :   -0.117866
  18 C :   -0.364367
  19 H :    0.123779
  20 H :    0.128730
  21 H :    0.114651
  22 H :    0.117450
  23 H :    0.106550
  24 H :    0.108273
  25 H :    0.118158
  26 H :    0.128968
  27 H :    0.126333
  28 H :    0.123486
  29 H :    0.129673
  30 H :    0.134399
  31 H :    0.108733
  32 H :    0.119954
  33 H :    0.133605
  34 H :    0.127843
  35 H :    0.122340
  36 H :    0.112787
  37 H :    0.118939
  38 H :    0.131657
  39 H :    0.127542
  40 H :    0.122963

  Mayer bond orders larger than 0.100000
B(  0-C ,  1-C ) :   1.1684 B(  0-C , 19-H ) :   0.9421 B(  0-C , 20-H ) :   0.9341
B(  0-C , 21-H ) :   0.9189 B(  1-C ,  2-O ) :   0.9007 B(  1-C , 22-H ) :   0.9335
B(  1-C , 23-H ) :   0.9105 B(  2-O ,  3-P ) :   1.1242 B(  3-P ,  4-S ) :   1.5961
B(  3-P ,  5-O ) :   1.1313 B(  3-P ,  8-S ) :   0.9441 B(  4-S ,  8-S ) :   0.1148
B(  5-O ,  6-C ) :   0.9121 B(  6-C ,  7-C ) :   1.1630 B(  6-C , 24-H ) :   0.9132
B(  6-C , 25-H ) :   0.9346 B(  7-C , 26-H ) :   0.9391 B(  7-C , 27-H ) :   0.9468
B(  7-C , 28-H ) :   0.9370 B(  8-S ,  9-C ) :   1.0150 B(  9-C , 10-S ) :   0.9979
B(  9-C , 29-H ) :   0.8731 B(  9-C , 30-H ) :   0.8996 B( 10-S , 11-P ) :   0.9665
B( 10-S , 12-S ) :   0.1044 B( 11-P , 12-S ) :   1.6013 B( 11-P , 13-O ) :   1.1053
B( 11-P , 16-O ) :   1.1143 B( 13-O , 14-C ) :   0.9107 B( 14-C , 15-C ) :   1.1631
B( 14-C , 31-H ) :   0.9124 B( 14-C , 32-H ) :   0.9322 B( 15-C , 33-H ) :   0.9381
B( 15-C , 34-H ) :   0.9436 B( 15-C , 35-H ) :   0.9318 B( 16-O , 17-C ) :   0.8987
B( 17-C , 18-C ) :   1.1652 B( 17-C , 36-H ) :   0.9158 B( 17-C , 37-H ) :   0.9338
B( 18-C , 38-H ) :   0.9387 B( 18-C , 39-H ) :   0.9457 B( 18-C , 40-H ) :   0.9355

Dispersion correction           -0.066152860
FINAL SINGLE POINT ENERGY     -2929.521794935499

DIPOLE MOMENT
-------------

Method             : SCF
Type of density    : Electron Density
Multiplicity       :   1
Irrep              :   0
Energy             : -2929.6404640723144439 Eh
Relativity type    :
Basis              : AO
                                X                 Y                 Z
Electronic contribution:      0.035122559      -6.297625838       7.211718238
Nuclear contribution   :     -0.690458079       6.096502960      -7.522023640
                        -----------------------------------------
Total Dipole Moment    :     -0.655335520      -0.201122878      -0.310305402
                        -----------------------------------------
Magnitude (a.u.)       :      0.752465613
Magnitude (Debye)      :      1.912615589

Rotational constants in cm-1:             0.014248             0.004616             0.004327
Rotational constants in MHz :           427.152463           138.385175           129.712393

                             ****ORCA TERMINATED NORMALLY****
TOTAL RUN TIME: 0 days 0 hours 0 minutes 21 seconds 109 msec
