                         Program Version 6.0.0  -   RELEASE  -
|  1> ! pbe def2-sv(p) def2/J RI DEFGRID1 loosescf d4 GCP(DFT/SV(P)) printgap
|  2> %output
|  3>     printlevel normal
|  4> end
|  5> * xyz 0 1
|  6> C 0.9135269934 -1.1072278318 2.5767775272
|  7> C 2.4087625073 -0.8769184707 2.6418420384
|  8> O 2.8895321449 -0.0315906828 1.5820985235
|  9> P 2.6787645571 -0.3369505652 0.0322801678
| 10> S 2.8223909977 -2.2022156452 -0.5299435104
| 11> O 3.8090495177 0.5541825045 -0.6096531196
| 12> C 3.956376413 1.9663113492 -0.3123057003
| 13> C 4.6916815134 2.6098547825 -1.4691119553
| 14> S 0.8755155788 0.7049875462 -0.4886722345
| 15> C 0.0272927789 -0.5933374997 -1.4145769363
| 16> S -1.183774094 -1.5179832444 -0.4235264475
| 17> P -2.5160041321 0.087431465 -0.1446411584
| 18> S -2.7715872398 1.327571685 -1.6481091148
| 19> O -1.9166046571 0.7132434168 1.1790703623
| 20> C -2.2489364035 2.0472410671 1.6277973371
| 21> C -1.0621263371 2.6015259359 2.3893662288
| 22> O -3.8596584435 -0.5660205064 0.4019087734
| 23> C -4.9194503248 -0.9989690965 -0.4682806359
| 24> C -4.5174747128 -2.1999096209 -1.2999911383
| 25> H 0.3785015298 -0.1626120081 2.512098479
| 26> H 0.6674896318 -1.7117117428 1.7039657212
| 27> H 0.5919237871 -1.640063022 3.4658923316
| 28> H 2.942537254 -1.830114694 2.5882382872
| 29> H 2.695339585 -0.3400041123 3.5476173189
| 30> H 2.9609137945 2.4005321024 -0.1796013399
| 31> H 4.5160846128 2.0509758005 0.620815709
| 32> H 4.8457632723 3.6620601441 -1.2529942494
| 33> H 5.6535086318 2.1259487275 -1.6123739874
| 34> H 4.1119558586 2.5119772269 -2.3827442376
| 35> H 0.7564001481 -1.3230719804 -1.7688961769
| 36> H -0.4913799901 -0.1069509889 -2.2397475222
| 37> H -2.480929585 2.6626330135 0.7516532891
| 38> H -3.1355974743 1.9735211828 2.261477469
| 39> H -0.1851258552 2.6174249739 1.7468263401
| 40> H -1.2883227326 3.6128676018 2.7111740654
| 41> H -0.8558132164 1.9863463914 3.2605410815
| 42> H -5.7379703971 -1.2353079922 0.2128422486
| 43> H -5.200416189 -0.1602265088 -1.1134428183
| 44> H -4.1343284834 -2.9913488085 -0.6606342565
| 45> H -5.3806107043 -2.5637613614 -1.848098016
| 46> H -3.7415037228 -1.9182619893 -2.0108377189
| 47> *
| 48>
| 49>                          ****END OF INPUT****

CARTESIAN COORDINATES (ANGSTROEM)
---------------------------------
  C      0.913527   -1.107228    2.576778
  C      2.408763   -0.876918    2.641842
  O      2.889532   -0.031591    1.582099
  P      2.678765   -0.336951    0.032280
  S      2.822391   -2.202216   -0.529944
  O      3.809050    0.554183   -0.609653
  C      3.956376    1.966311   -0.312306
  C      4.691682    2.609855   -1.469112
  S      0.875516    0.704988   -0.488672
  C      0.027293   -0.593337   -1.414577
  S     -1.183774   -1.517983   -0.423526
  P     -2.516004    0.087431   -0.144641
  S     -2.771587    1.327572   -1.648109
  O     -1.916605    0.713243    1.179070
  C     -2.248936    2.047241    1.627797
  C     -1.062126    2.601526    2.389366
  O     -3.859658   -0.566021    0.401909
  C     -4.919450   -0.998969   -0.468281
  C     -4.517475   -2.199910   -1.299991
  H      0.378502   -0.162612    2.512098
  H      0.667490   -1.711712    1.703966
  H      0.591924   -1.640063    3.465892
  H      2.942537   -1.830115    2.588238
  H      2.695340   -0.340004    3.547617
  H      2.960914    2.400532   -0.179601
  H      4.516085    2.050976    0.620816
  H      4.845763    3.662060   -1.252994
  H      5.653509    2.125949   -1.612374
  H      4.111956    2.511977   -2.382744
  H      0.756400   -1.323072   -1.768896
  H     -0.491380   -0.106951   -2.239748
  H     -2.480930    2.662633    0.751653
  H     -3.135597    1.973521    2.261477
  H     -0.185126    2.617425    1.746826
  H     -1.288323    3.612868    2.711174
  H     -0.855813    1.986346    3.260541
  H     -5.737970   -1.235308    0.212842
  H     -5.200416   -0.160227   -1.113443
  H     -4.134328   -2.991349   -0.660634
  H     -5.380611   -2.563761   -1.848098
  H     -3.741504   -1.918262   -2.010838

 Total Charge           Charge          ....    0
 Multiplicity           Mult            ....    1
 Number of Electrons    NEL             ....  202
 Basis Dimension        Dim             ....  334

ORBITAL ENERGIES
----------------

  NO   OCC          E(Eh)            E(eV)
   0   2.0000     -88.044242     -2395.8056
   1   2.0000     -88.040963     -2395.7164
   2   2.0000     -87.990822     -2394.3520
   3   2.0000     -87.990039     -2394.3307
   4   2.0000     -76.427850     -2079.7075
   5   2.0000     -76.426726     -2079.6769
   6   2.0000     -18.794112      -511.4138
   7   2.0000     -18.791526      -511.3434
   8   2.0000     -18.791498      -511.3427
   9   2.0000     -18.791065      -511.3309
  10   2.0000      -9.958368      -270.9810
  11   2.0000      -9.953534      -270.8494
  12   2.0000      -9.952954      -270.8336
  13   2.0000      -9.952173      -270.8124
  14   2.0000      -9.951737      -270.8005
  15   2.0000      -9.889575      -269.1090
  16   2.0000      -9.888290      -269.0741
  17   2.0000      -9.884950      -268.9832
  18   2.0000      -9.875972      -268.7389
  19   2.0000      -7.689249      -209.2351
  20   2.0000      -7.685606      -209.1360
  21   2.0000      -7.635744      -207.7792
  22   2.0000      -7.635204      -207.7645
  23   2.0000      -6.425637      -174.8505
  24   2.0000      -6.424282      -174.8136
  25   2.0000      -5.717062      -155.5692
  26   2.0000      -5.713828      -155.4812
  27   2.0000      -5.713481      -155.4717
  28   2.0000      -5.710119      -155.3802
  29   2.0000      -5.706178      -155.2730
  30   2.0000      -5.702619      -155.1762
  31   2.0000      -5.664437      -154.1372
  32   2.0000      -5.664183      -154.1303
  33   2.0000      -5.656408      -153.9187
  34   2.0000      -5.656111      -153.9106
  35   2.0000      -5.655743      -153.9006
  36   2.0000      -5.655357      -153.8901
  37   2.0000      -4.648095      -126.4811
  38   2.0000      -4.647344      -126.4607
  39   2.0000      -4.647009      -126.4515
  40   2.0000      -4.646195      -126.4294
  41   2.0000      -4.645823      -126.4193
  42   2.0000      -4.644837      -126.3924
  43   2.0000      -0.988048       -26.8861
  44   2.0000      -0.987732       -26.8776
  45   2.0000      -0.946671       -25.7602
  46   2.0000      -0.943482       -25.6734
  47   2.0000      -0.763467       -20.7750
  48   2.0000      -0.723867       -19.6974
  49   2.0000      -0.712418       -19.3859
  50   2.0000      -0.688422       -18.7329
  51   2.0000      -0.687197       -18.6996
  52   2.0000      -0.676579       -18.4107
  53   2.0000      -0.651772       -17.7356
  54   2.0000      -0.640262       -17.4224
  55   2.0000      -0.602034       -16.3822
  56   2.0000      -0.589324       -16.0363
  57   2.0000      -0.574265       -15.6265
  58   2.0000      -0.573204       -15.5977
  59   2.0000      -0.556282       -15.1372
  60   2.0000      -0.507164       -13.8006
  61   2.0000      -0.504050       -13.7159
  62   2.0000      -0.475211       -12.9311
  63   2.0000      -0.470535       -12.8039
  64   2.0000      -0.461034       -12.5454
  65   2.0000      -0.444237       -12.0883
  66   2.0000      -0.440866       -11.9966
  67   2.0000      -0.437092       -11.8939
  68   2.0000      -0.432244       -11.7620
  69   2.0000      -0.422855       -11.5065
  70   2.0000      -0.410165       -11.1611
  71   2.0000      -0.395090       -10.7509
  72   2.0000      -0.392899       -10.6913
  73   2.0000      -0.386997       -10.5307
  74   2.0000      -0.385556       -10.4915
  75   2.0000      -0.369305       -10.0493
  76   2.0000      -0.363455        -9.8901
  77   2.0000      -0.358558        -9.7568
  78   2.0000      -0.356300        -9.6954
  79   2.0000      -0.354824        -9.6553
  80   2.0000      -0.346008        -9.4154
  81   2.0000      -0.341811        -9.3012
  82   2.0000      -0.340155        -9.2561
  83   2.0000      -0.339444        -9.2367
  84   2.0000      -0.337852        -9.1934
  85   2.0000      -0.321252        -8.7417
  86   2.0000      -0.312527        -8.5043
  87   2.0000      -0.301111        -8.1936
  88   2.0000      -0.297836        -8.1045
  89   2.0000      -0.295199        -8.0328
  90   2.0000      -0.288732        -7.8568
  91   2.0000      -0.277163        -7.5420
  92   2.0000      -0.270083        -7.3493
  93   2.0000      -0.265409        -7.2221
  94   2.0000      -0.257254        -7.0002
  95   2.0000      -0.229942        -6.2571
  96   2.0000      -0.218697        -5.9510
  97   2.0000      -0.214390        -5.8338
  98   2.0000      -0.207178        -5.6376
  99   2.0000      -0.206184        -5.6105
 100   2.0000      -0.204230        -5.5574
 101   0.0000      -0.045266        -1.2318
 102   0.0000      -0.029342        -0.7984
 103   0.0000      -0.013656        -0.3716
 104   0.0000       0.003546         0.0965
 105   0.0000       0.012715         0.3460

MULLIKEN ATOMIC CHARGES
-----------------------
   0 C :   -0.360497
   1 C :    0.011991
   2 O :   -0.388623
   3 P :    0.601676
   4 S :   -0.303573
   5 O :   -0.358792
   6 C :   -0.018117
   7 C :   -0.276856
   8 S :   -0.106399
   9 C :   -0.355844
  10 S :   -0.065527
  11 P :    0.608563
  12 S :   -0.339168
  13 O :   -0.358345
  14 C :   -0.011863
  15 C :   -0.293224
  16 O :   -0.373773
  17 C :   -0.003400
  18 C :   -0.318117
  19 H :    0.141912
  20 H :    0.138812
  21 H :    0.108707
  22 H :    0.109585
  23 H :    0.100386
  24 H :    0.106825
  25 H :    0.110015
  26 H :    0.110561
  27 H :    0.123523
  28 H :    0.121481
  29 H :    0.191523
  30 H :    0.195077
  31 H :    0.107995
  32 H :    0.103695
  33 H :    0.126143
  34 H :    0.111451
  35 H :    0.123620
  36 H :    0.105565
  37 H :    0.111600
  38 H :    0.119579
  39 H :    0.114264
  40 H :    0.127567
Sum of atomic charges:   -0.0000000

LOEWDIN ATOMIC CHARGES
----------------------
   0 C :   -0.380787
   1 C :   -0.112108
   2 O :   -0.252749
   3 P :    0.571342
   4 S :   -0.299941
   5 O :   -0.241128
   6 C :   -0.114309
   7 C :   -0.349558
   8 S :    0.074328
   9 C :   -0.484201
  10 S :    0.112126
  11 P :    0.568259
  12 S :   -0.324443
  13 O :   -0.239410
  14 C :   -0.116136
  15 C :   -0.354091
  16 O :   -0.246326
  17 C :   -0.119067
  18 C :   -0.369389
  19 H :    0.124875
  20 H :    0.114339
  21 H :    0.130274
  22 H :    0.113401
  23 H :    0.116841
  24 H :    0.102809
  25 H :    0.116372
  26 H :    0.130269
  27 H :    0.130901
  28 H :    0.130248
  29 H :    0.128110
  30 H :    0.129856
  31 H :    0.107559
  32 H :    0.113805
  33 H :    0.124811
  34 H :    0.129945
  35 H :    0.125217
  36 H :    0.118889
  37 H :    0.110661
  38 H :    0.125285
  39 H :    0.131669
  40 H :    0.121453

  Mayer bond orders larger than 0.100000
B(  0-C ,  1-C ) :   1.1598 B(  0-C , 19-H ) :   0.9293 B(  0-C , 20-H ) :   0.9208
B(  0-C , 21-H ) :   0.9351 B(  1-C ,  2-O ) :   0.9065 B(  1-C , 22-H ) :   0.9253
B(  1-C , 23-H ) :   0.9346 B(  2-O ,  3-P ) :   1.0869 B(  3-P ,  4-S ) :   1.6347
B(  3-P ,  5-O ) :   1.1383 B(  3-P ,  8-S ) :   0.9405 B(  4-S ,  8-S ) :   0.1126
B(  5-O ,  6-C ) :   0.8942 B(  6-C ,  7-C ) :   1.1640 B(  6-C , 24-H ) :   0.9128
B(  6-C , 25-H ) :   0.9303 B(  7-C , 26-H ) :   0.9407 B(  7-C , 27-H ) :   0.9496
B(  7-C , 28-H ) :   0.9495 B(  8-S ,  9-C ) :   1.0164 B(  9-C , 10-S ) :   1.0008
B(  9-C , 29-H ) :   0.8620 B(  9-C , 30-H ) :   0.8784 B( 10-S , 11-P ) :   0.9739
B( 10-S , 12-S ) :   0.1090 B( 11-P , 12-S ) :   1.5962 B( 11-P , 13-O ) :   1.1293
B( 11-P , 16-O ) :   1.1139 B( 13-O , 14-C ) :   0.9035 B( 14-C , 15-C ) :   1.1661
B( 14-C , 31-H ) :   0.9065 B( 14-C , 32-H ) :   0.9321 B( 15-C , 33-H ) :   0.9451
B( 15-C , 34-H ) :   0.9403 B( 15-C , 35-H ) :   0.9425 B( 16-O , 17-C ) :   0.9095
B( 17-C , 18-C ) :   1.1642 B( 17-C , 36-H ) :   0.9339 B( 17-C , 37-H ) :   0.9158
B( 18-C , 38-H ) :   0.9450 B( 18-C , 39-H ) :   0.9379 B( 18-C , 40-H ) :   0.9356

Dispersion correction           -0.063840902
FINAL SINGLE POINT ENERGY     -2929.522155429027

DIPOLE MOMENT
-------------

Method             : SCF
Type of density    : Electron Density
Multiplicity       :   1
Irrep              :   0
Energy             : -2929.6425763998877301 Eh
Relativity type    :
Basis              : AO
                                X                 Y                 Z
Electronic contribution:      2.024624496      -8.430404015      -8.775396328
Nuclear contribution   :     -2.480608817       9.307731199       9.903756211
                        -----------------------------------------
Total Dipole Moment    :     -0.455984322       0.877327184       1.128359883
                        -----------------------------------------
Magnitude (a.u.)       :      1.500273547
Magnitude (Debye)      :      3.813392301

Rotational constants in cm-1:             0.012186             0.004593             0.004377
Rotational constants in MHz :           365.319719           137.705442           131.232935

                             ****ORCA TERMINATED NORMALLY****
TOTAL RUN TIME: 0 days 0 hours 0 minutes 20 seconds 995 msec
