                         Program Version 6.0.0  -   RELEASE  -
|  1> ! pbe def2-sv(p) def2/J RI DEFGRID1 loosescf d4 GCP(DFT/SV(P)) printgap
|  2> %output
|  3>     printlevel normal
|  4> end
|  5> * xyz 0 1
|  6> C 5.797962587 -0.2158883602 -0.4001551384
|  7> C 4.3819762985 -0.6188560312 -0.7578632476
|  8> O 3.484622745 0.3390085575 -0.1602071219
|  9> P 1.9613691248 0.4367128305 -0.6158290398
| 10> S 1.7024424158 0.6234754795 -2.5446615465
| 11> O 1.4780651216 1.6638838942 0.2400853732
| 12> C 1.7479724269 1.7600554317 1.6645258932
| 13> C 0.7764828261 2.7603250862 2.2529446774
| 14> S 1.1627418888 -1.3352404549 0.2532812068
| 15> C -0.0582052613 -1.8203326186 -1.0065497334
| 16> S -1.7207841473 -2.0247517909 -0.3341461969
| 17> P -2.0622952887 0.0009940359 0.2226789356
| 18> S -1.4693906868 1.3704011517 -1.0457746488
| 19> O -1.3975808361 0.1618966795 1.6441579026
| 20> C -1.7833484175 -0.6747075696 2.7713000774
| 21> C -0.5564305804 -0.9420319876 3.6176935207
| 22> O -3.6084153973 0.0258434433 0.5932560834
| 23> C -4.6447722635 0.2706437065 -0.3738332728
| 24> C -4.7403713436 -0.8310404572 -1.409098999
| 25> H 6.0122140994 0.7760619259 -0.7879888544
| 26> H 5.9208602329 -0.2074404805 0.6788152263
| 27> H 6.490338949 -0.9281222021 -0.8364726329
| 28> H 4.1352494066 -1.6080064443 -0.3624839738
| 29> H 4.2222224681 -0.6142643681 -1.8411460409
| 30> H 1.6220166352 0.7677595123 2.1079135516
| 31> H 2.7840285836 2.082683913 1.7818494938
| 32> H 0.9763659532 2.8715411382 3.313879179
| 33> H 0.8890145328 3.7217163111 1.7595996585
| 34> H -0.2444045736 2.4154824315 2.1078528264
| 35> H 0.2287455993 -2.7914658304 -1.4016493494
| 36> H -0.0580449344 -1.0597488255 -1.7927172552
| 37> H -2.5463622766 -0.1257840339 3.3251514566
| 38> H -2.2126124161 -1.6043529875 2.3874862655
| 39> H -0.1299425945 -0.0058943576 3.966364901
| 40> H -0.8453311581 -1.5443601339 4.4729135822
| 41> H 0.1902559921 -1.4803530042 3.038713943
| 42> H -5.5503195032 0.3354479673 0.2310837731
| 43> H -4.4464335903 1.2337557301 -0.853960072
| 44> H -4.812479299 -1.8017838924 -0.9250703391
| 45> H -5.6191220432 -0.6676803341 -2.024677373
| 46> H -3.8582911747 -0.8200029065 -2.0477561891
| 47> *
| 48>
| 49>                          ****END OF INPUT****

CARTESIAN COORDINATES (ANGSTROEM)
---------------------------------
  C      5.797963   -0.215888   -0.400155
  C      4.381976   -0.618856   -0.757863
  O      3.484623    0.339009   -0.160207
  P      1.961369    0.436713   -0.615829
  S      1.702442    0.623475   -2.544662
  O      1.478065    1.663884    0.240085
  C      1.747972    1.760055    1.664526
  C      0.776483    2.760325    2.252945
  S      1.162742   -1.335240    0.253281
  C     -0.058205   -1.820333   -1.006550
  S     -1.720784   -2.024752   -0.334146
  P     -2.062295    0.000994    0.222679
  S     -1.469391    1.370401   -1.045775
  O     -1.397581    0.161897    1.644158
  C     -1.783348   -0.674708    2.771300
  C     -0.556431   -0.942032    3.617694
  O     -3.608415    0.025843    0.593256
  C     -4.644772    0.270644   -0.373833
  C     -4.740371   -0.831040   -1.409099
  H      6.012214    0.776062   -0.787989
  H      5.920860   -0.207440    0.678815
  H      6.490339   -0.928122   -0.836473
  H      4.135249   -1.608006   -0.362484
  H      4.222222   -0.614264   -1.841146
  H      1.622017    0.767760    2.107914
  H      2.784029    2.082684    1.781849
  H      0.976366    2.871541    3.313879
  H      0.889015    3.721716    1.759600
  H     -0.244405    2.415482    2.107853
  H      0.228746   -2.791466   -1.401649
  H     -0.058045   -1.059749   -1.792717
  H     -2.546362   -0.125784    3.325151
  H     -2.212612   -1.604353    2.387486
  H     -0.129943   -0.005894    3.966365
  H     -0.845331   -1.544360    4.472914
  H      0.190256   -1.480353    3.038714
  H     -5.550320    0.335448    0.231084
  H     -4.446434    1.233756   -0.853960
  H     -4.812479   -1.801784   -0.925070
  H     -5.619122   -0.667680   -2.024677
  H     -3.858291   -0.820003   -2.047756

 Total Charge           Charge          ....    0
 Multiplicity           Mult            ....    1
 Number of Electrons    NEL             ....  202
 Basis Dimension        Dim             ....  334

ORBITAL ENERGIES
----------------

  NO   OCC          E(Eh)            E(eV)
   0   2.0000     -88.043736     -2395.7919
   1   2.0000     -88.039392     -2395.6736
   2   2.0000     -87.981300     -2394.0929
   3   2.0000     -87.978038     -2394.0041
   4   2.0000     -76.423721     -2079.5952
   5   2.0000     -76.419251     -2079.4735
   6   2.0000     -18.792705      -511.3755
   7   2.0000     -18.791877      -511.3530
   8   2.0000     -18.787039      -511.2213
   9   2.0000     -18.783768      -511.1323
  10   2.0000      -9.957250      -270.9505
  11   2.0000      -9.953455      -270.8473
  12   2.0000      -9.952703      -270.8268
  13   2.0000      -9.949318      -270.7347
  14   2.0000      -9.947941      -270.6972
  15   2.0000      -9.890302      -269.1288
  16   2.0000      -9.885975      -269.0110
  17   2.0000      -9.884159      -268.9616
  18   2.0000      -9.877376      -268.7771
  19   2.0000      -7.688699      -209.2201
  20   2.0000      -7.684036      -209.0933
  21   2.0000      -7.626135      -207.5177
  22   2.0000      -7.623258      -207.4394
  23   2.0000      -6.421177      -174.7291
  24   2.0000      -6.416761      -174.6090
  25   2.0000      -5.716542      -155.5550
  26   2.0000      -5.713035      -155.4596
  27   2.0000      -5.711831      -155.4268
  28   2.0000      -5.708436      -155.3344
  29   2.0000      -5.705899      -155.2654
  30   2.0000      -5.701234      -155.1385
  31   2.0000      -5.655223      -153.8864
  32   2.0000      -5.652378      -153.8090
  33   2.0000      -5.646595      -153.6517
  34   2.0000      -5.646324      -153.6443
  35   2.0000      -5.643722      -153.5735
  36   2.0000      -5.643329      -153.5628
  37   2.0000      -4.644050      -126.3710
  38   2.0000      -4.642918      -126.3402
  39   2.0000      -4.641365      -126.2980
  40   2.0000      -4.639518      -126.2477
  41   2.0000      -4.638502      -126.2200
  42   2.0000      -4.637081      -126.1814
  43   2.0000      -0.988610       -26.9014
  44   2.0000      -0.982636       -26.7389
  45   2.0000      -0.944568       -25.7030
  46   2.0000      -0.937172       -25.5018
  47   2.0000      -0.760570       -20.6962
  48   2.0000      -0.719132       -19.5686
  49   2.0000      -0.710739       -19.3402
  50   2.0000      -0.690384       -18.7863
  51   2.0000      -0.686156       -18.6713
  52   2.0000      -0.674798       -18.3622
  53   2.0000      -0.647242       -17.6123
  54   2.0000      -0.630043       -17.1443
  55   2.0000      -0.593672       -16.1546
  56   2.0000      -0.578750       -15.7486
  57   2.0000      -0.574104       -15.6222
  58   2.0000      -0.563341       -15.3293
  59   2.0000      -0.562537       -15.3074
  60   2.0000      -0.509313       -13.8591
  61   2.0000      -0.503064       -13.6891
  62   2.0000      -0.476854       -12.9758
  63   2.0000      -0.473845       -12.8940
  64   2.0000      -0.451392       -12.2830
  65   2.0000      -0.448241       -12.1973
  66   2.0000      -0.438831       -11.9412
  67   2.0000      -0.435029       -11.8378
  68   2.0000      -0.432344       -11.7647
  69   2.0000      -0.418186       -11.3794
  70   2.0000      -0.410234       -11.1630
  71   2.0000      -0.394521       -10.7355
  72   2.0000      -0.390721       -10.6321
  73   2.0000      -0.379919       -10.3381
  74   2.0000      -0.372395       -10.1334
  75   2.0000      -0.364449        -9.9172
  76   2.0000      -0.363058        -9.8793
  77   2.0000      -0.361036        -9.8243
  78   2.0000      -0.354494        -9.6463
  79   2.0000      -0.348929        -9.4949
  80   2.0000      -0.347275        -9.4498
  81   2.0000      -0.344826        -9.3832
  82   2.0000      -0.339048        -9.2260
  83   2.0000      -0.333855        -9.0847
  84   2.0000      -0.330370        -8.9898
  85   2.0000      -0.315702        -8.5907
  86   2.0000      -0.308429        -8.3928
  87   2.0000      -0.304954        -8.2982
  88   2.0000      -0.297326        -8.0906
  89   2.0000      -0.293143        -7.9768
  90   2.0000      -0.292351        -7.9553
  91   2.0000      -0.271428        -7.3859
  92   2.0000      -0.264882        -7.2078
  93   2.0000      -0.262004        -7.1295
  94   2.0000      -0.254226        -6.9178
  95   2.0000      -0.234784        -6.3888
  96   2.0000      -0.220709        -6.0058
  97   2.0000      -0.211801        -5.7634
  98   2.0000      -0.199715        -5.4345
  99   2.0000      -0.190265        -5.1774
 100   2.0000      -0.182584        -4.9684
 101   0.0000      -0.038881        -1.0580
 102   0.0000      -0.030240        -0.8229
 103   0.0000      -0.006966        -0.1896
 104   0.0000       0.010189         0.2772
 105   0.0000       0.021336         0.5806

MULLIKEN ATOMIC CHARGES
-----------------------
   0 C :   -0.279862
   1 C :   -0.006611
   2 O :   -0.391396
   3 P :    0.608943
   4 S :   -0.290819
   5 O :   -0.346047
   6 C :   -0.019875
   7 C :   -0.287749
   8 S :   -0.132869
   9 C :   -0.343995
  10 S :   -0.107670
  11 P :    0.582341
  12 S :   -0.271119
  13 O :   -0.356740
  14 C :   -0.009983
  15 C :   -0.296375
  16 O :   -0.384626
  17 C :    0.002132
  18 C :   -0.321752
  19 H :    0.121168
  20 H :    0.112096
  21 H :    0.110831
  22 H :    0.096977
  23 H :    0.102764
  24 H :    0.103086
  25 H :    0.106153
  26 H :    0.100655
  27 H :    0.119685
  28 H :    0.135970
  29 H :    0.179417
  30 H :    0.207053
  31 H :    0.109660
  32 H :    0.103572
  33 H :    0.122207
  34 H :    0.110362
  35 H :    0.132047
  36 H :    0.103614
  37 H :    0.112574
  38 H :    0.116399
  39 H :    0.114782
  40 H :    0.133002
Sum of atomic charges:   -0.0000000

LOEWDIN ATOMIC CHARGES
----------------------
   0 C :   -0.350681
   1 C :   -0.123096
   2 O :   -0.254691
   3 P :    0.569013
   4 S :   -0.294964
   5 O :   -0.226506
   6 C :   -0.111570
   7 C :   -0.355995
   8 S :    0.057238
   9 C :   -0.481151
  10 S :    0.071735
  11 P :    0.558434
  12 S :   -0.280331
  13 O :   -0.236368
  14 C :   -0.114329
  15 C :   -0.356695
  16 O :   -0.251645
  17 C :   -0.116041
  18 C :   -0.371762
  19 H :    0.129130
  20 H :    0.124639
  21 H :    0.130252
  22 H :    0.104985
  23 H :    0.107662
  24 H :    0.103202
  25 H :    0.113484
  26 H :    0.124751
  27 H :    0.130180
  28 H :    0.129235
  29 H :    0.136197
  30 H :    0.125557
  31 H :    0.117121
  32 H :    0.103976
  33 H :    0.126304
  34 H :    0.130256
  35 H :    0.122917
  36 H :    0.118132
  37 H :    0.113454
  38 H :    0.122439
  39 H :    0.131947
  40 H :    0.123586

  Mayer bond orders larger than 0.100000
B(  0-C ,  1-C ) :   1.1593 B(  0-C , 19-H ) :   0.9509 B(  0-C , 20-H ) :   0.9513
B(  0-C , 21-H ) :   0.9424 B(  1-C ,  2-O ) :   0.9096 B(  1-C , 22-H ) :   0.9250
B(  1-C , 23-H ) :   0.9093 B(  2-O ,  3-P ) :   1.0667 B(  3-P ,  4-S ) :   1.6487
B(  3-P ,  5-O ) :   1.1476 B(  3-P ,  8-S ) :   0.9432 B(  4-S ,  8-S ) :   0.1150
B(  5-O ,  6-C ) :   0.8906 B(  6-C ,  7-C ) :   1.1678 B(  6-C , 24-H ) :   0.9117
B(  6-C , 25-H ) :   0.9303 B(  7-C , 26-H ) :   0.9383 B(  7-C , 27-H ) :   0.9468
B(  7-C , 28-H ) :   0.9343 B(  8-S ,  9-C ) :   0.9955 B(  9-C , 10-S ) :   0.9984
B(  9-C , 29-H ) :   0.9113 B(  9-C , 30-H ) :   0.8447 B( 10-S , 11-P ) :   0.9361
B( 10-S , 12-S ) :   0.1073 B( 11-P , 12-S ) :   1.6751 B( 11-P , 13-O ) :   1.1127
B( 11-P , 16-O ) :   1.0806 B( 13-O , 14-C ) :   0.8831 B( 14-C , 15-C ) :   1.1681
B( 14-C , 31-H ) :   0.9337 B( 14-C , 32-H ) :   0.9092 B( 15-C , 33-H ) :   0.9434
B( 15-C , 34-H ) :   0.9383 B( 15-C , 35-H ) :   0.9365 B( 16-O , 17-C ) :   0.9075
B( 17-C , 18-C ) :   1.1665 B( 17-C , 36-H ) :   0.9345 B( 17-C , 37-H ) :   0.9178
B( 18-C , 38-H ) :   0.9436 B( 18-C , 39-H ) :   0.9371 B( 18-C , 40-H ) :   0.9344

Dispersion correction           -0.066851913
FINAL SINGLE POINT ENERGY     -2929.519350701789

DIPOLE MOMENT
-------------

Method             : SCF
Type of density    : Electron Density
Multiplicity       :   1
Irrep              :   0
Energy             : -2929.6382390629123620 Eh
Relativity type    :
Basis              : AO
                                X                 Y                 Z
Electronic contribution:     -3.249060619       0.277885136     -14.150782525
Nuclear contribution   :      3.052279761      -1.308698259      15.781919493
                        -----------------------------------------
Total Dipole Moment    :     -0.196780858      -1.030813123       1.631136968
                        -----------------------------------------
Magnitude (a.u.)       :      1.939563407
Magnitude (Debye)      :      4.929978390

Rotational constants in cm-1:             0.012501             0.005358             0.004956
Rotational constants in MHz :           374.765043           160.618262           148.566300

                             ****ORCA TERMINATED NORMALLY****
TOTAL RUN TIME: 0 days 0 hours 0 minutes 21 seconds 480 msec
