                         Program Version 6.0.1  -  RELEASE   -
|  1> ! pbe def2-sv(p) def2/J RI DEFGRID1 loosescf d4 GCP(DFT/SV(P)) printgap
|  2> %output
|  3>     printlevel normal
|  4> end
|  5> * xyz 0 1
|  6> C 4.9612442949 0.4664989621 -1.1538897721
|  7> C 4.5476639369 -0.9395396469 -1.5561456205
|  8> O 3.1144700262 -1.09103073 -1.540007722
|  9> C 2.5226154792 -1.3463525127 -0.3895399131
| 10> O 3.0963152759 -1.4841144595 0.6657536334
| 11> C 1.0190775084 -1.489355428 -0.5633496385
| 12> C 0.4200603459 -0.2333662345 -1.2001198283
| 13> H 0.9037779101 -0.0372403332 -2.1601617798
| 14> C 0.584601373 0.9600693233 -0.2814979955
| 15> O -0.3707988769 1.5436577181 0.1952553163
| 16> O 1.8336583507 1.2604672749 -0.0732891112
| 17> C 2.1415191613 2.2662161423 0.9193995536
| 18> C 2.1835556857 1.636012089 2.3014721164
| 19> S -1.3542622154 -0.4252059895 -1.5594055837
| 20> P -2.2224976778 -0.0920182886 0.3398113992
| 21> S -1.4038381355 -0.5108181421 2.0707589889
| 22> O -3.0154188233 1.2941652765 0.3885152852
| 23> C -3.6588853022 1.8341511463 -0.7777416684
| 24> O -3.3937582276 -1.1632607258 -0.014384948
| 25> C -4.4011218468 -1.4767571409 0.9471580255
| 26> H 6.0363210326 0.5672326286 -1.2602732794
| 27> H 4.4660760863 1.1981835612 -1.7860801633
| 28> H 4.6887686791 0.6496824082 -0.1178496536
| 29> H 4.9831927947 -1.6775519374 -0.8765880404
| 30> H 4.8276081235 -1.1588265141 -2.5865050284
| 31> H 0.5736063355 -1.6807984094 0.4158602418
| 32> H 0.8246014932 -2.3384845373 -1.2202642727
| 33> H 3.116976207 2.6503035177 0.6218726644
| 34> H 1.384098899 3.052398228 0.8689603953
| 35> H 2.514786959 2.3714606774 3.0264877586
| 36> H 1.1946786456 1.2791412026 2.5859847744
| 37> H 2.8651109002 0.788207631 2.3068134194
| 38> H -4.1067929148 1.0375905511 -1.3737670719
| 39> H -2.9247785529 2.3762891534 -1.3727813429
| 40> H -4.4212383833 2.5124554832 -0.4021403529
| 41> H -5.0002816698 -0.5947549851 1.1786396375
| 42> H -3.9393359025 -1.8497411754 1.8633651298
| 43> H -5.0140734276 -2.2482571696 0.4882688542
| 44> *
| 45>
| 46>                          ****END OF INPUT****

CARTESIAN COORDINATES (ANGSTROEM)
---------------------------------
  C      4.961244    0.466499   -1.153890
  C      4.547664   -0.939540   -1.556146
  O      3.114470   -1.091031   -1.540008
  C      2.522615   -1.346353   -0.389540
  O      3.096315   -1.484114    0.665754
  C      1.019078   -1.489355   -0.563350
  C      0.420060   -0.233366   -1.200120
  H      0.903778   -0.037240   -2.160162
  C      0.584601    0.960069   -0.281498
  O     -0.370799    1.543658    0.195255
  O      1.833658    1.260467   -0.073289
  C      2.141519    2.266216    0.919400
  C      2.183556    1.636012    2.301472
  S     -1.354262   -0.425206   -1.559406
  P     -2.222498   -0.092018    0.339811
  S     -1.403838   -0.510818    2.070759
  O     -3.015419    1.294165    0.388515
  C     -3.658885    1.834151   -0.777742
  O     -3.393758   -1.163261   -0.014385
  C     -4.401122   -1.476757    0.947158
  H      6.036321    0.567233   -1.260273
  H      4.466076    1.198184   -1.786080
  H      4.688769    0.649682   -0.117850
  H      4.983193   -1.677552   -0.876588
  H      4.827608   -1.158827   -2.586505
  H      0.573606   -1.680798    0.415860
  H      0.824601   -2.338485   -1.220264
  H      3.116976    2.650304    0.621873
  H      1.384099    3.052398    0.868960
  H      2.514787    2.371461    3.026488
  H      1.194679    1.279141    2.585985
  H      2.865111    0.788208    2.306813
  H     -4.106793    1.037591   -1.373767
  H     -2.924779    2.376289   -1.372781
  H     -4.421238    2.512455   -0.402140
  H     -5.000282   -0.594755    1.178640
  H     -3.939336   -1.849741    1.863365
  H     -5.014073   -2.248257    0.488269

 Total Charge           Charge          ....    0
 Multiplicity           Mult            ....    1
 Number of Electrons    NEL             ....  174
 Basis Dimension        Dim             ....  316

ORBITAL ENERGIES
----------------

  NO   OCC          E(Eh)            E(eV)
   0   2.0000     -88.037978     -2395.6352
   1   2.0000     -87.972189     -2393.8450
   2   2.0000     -76.418041     -2079.4406
   3   2.0000     -18.826286      -512.2893
   4   2.0000     -18.805441      -511.7221
   5   2.0000     -18.780377      -511.0400
   6   2.0000     -18.772909      -510.8368
   7   2.0000     -18.760534      -510.5001
   8   2.0000     -18.741234      -509.9749
   9   2.0000     -10.030273      -272.9376
  10   2.0000     -10.012025      -272.4411
  11   2.0000      -9.956531      -270.9310
  12   2.0000      -9.954581      -270.8779
  13   2.0000      -9.953150      -270.8390
  14   2.0000      -9.942818      -270.5578
  15   2.0000      -9.931640      -270.2537
  16   2.0000      -9.907983      -269.6099
  17   2.0000      -9.891742      -269.1680
  18   2.0000      -9.880719      -268.8680
  19   2.0000      -7.683155      -209.0693
  20   2.0000      -7.617359      -207.2789
  21   2.0000      -6.414172      -174.5385
  22   2.0000      -5.711293      -155.4122
  23   2.0000      -5.707790      -155.3169
  24   2.0000      -5.699656      -155.0955
  25   2.0000      -5.646690      -153.6542
  26   2.0000      -5.638231      -153.4241
  27   2.0000      -5.636765      -153.3842
  28   2.0000      -4.637161      -126.1836
  29   2.0000      -4.636144      -126.1559
  30   2.0000      -4.634491      -126.1109
  31   2.0000      -1.036034       -28.1919
  32   2.0000      -1.013281       -27.5728
  33   2.0000      -0.969865       -26.3914
  34   2.0000      -0.940218       -25.5846
  35   2.0000      -0.925000       -25.1705
  36   2.0000      -0.917806       -24.9748
  37   2.0000      -0.770175       -20.9575
  38   2.0000      -0.713810       -19.4238
  39   2.0000      -0.712058       -19.3761
  40   2.0000      -0.687316       -18.7028
  41   2.0000      -0.657559       -17.8931
  42   2.0000      -0.630635       -17.1605
  43   2.0000      -0.618090       -16.8191
  44   2.0000      -0.610163       -16.6034
  45   2.0000      -0.596898       -16.2424
  46   2.0000      -0.569675       -15.5016
  47   2.0000      -0.512364       -13.9421
  48   2.0000      -0.505504       -13.7555
  49   2.0000      -0.501822       -13.6553
  50   2.0000      -0.486737       -13.2448
  51   2.0000      -0.467575       -12.7234
  52   2.0000      -0.464664       -12.6441
  53   2.0000      -0.449994       -12.2450
  54   2.0000      -0.446588       -12.1523
  55   2.0000      -0.430690       -11.7197
  56   2.0000      -0.423069       -11.5123
  57   2.0000      -0.420998       -11.4559
  58   2.0000      -0.411231       -11.1902
  59   2.0000      -0.406529       -11.0622
  60   2.0000      -0.403429       -10.9779
  61   2.0000      -0.395441       -10.7605
  62   2.0000      -0.392222       -10.6729
  63   2.0000      -0.385015       -10.4768
  64   2.0000      -0.372804       -10.1445
  65   2.0000      -0.364864        -9.9284
  66   2.0000      -0.360495        -9.8096
  67   2.0000      -0.353768        -9.6265
  68   2.0000      -0.346057        -9.4167
  69   2.0000      -0.343167        -9.3381
  70   2.0000      -0.339083        -9.2269
  71   2.0000      -0.329512        -8.9665
  72   2.0000      -0.325778        -8.8649
  73   2.0000      -0.315818        -8.5938
  74   2.0000      -0.308685        -8.3997
  75   2.0000      -0.302953        -8.2438
  76   2.0000      -0.297282        -8.0894
  77   2.0000      -0.280771        -7.6402
  78   2.0000      -0.272952        -7.4274
  79   2.0000      -0.263540        -7.1713
  80   2.0000      -0.260870        -7.0986
  81   2.0000      -0.256850        -6.9892
  82   2.0000      -0.241733        -6.5779
  83   2.0000      -0.228659        -6.2221
  84   2.0000      -0.212957        -5.7949
  85   2.0000      -0.193201        -5.2573
  86   2.0000      -0.183882        -5.0037
  87   0.0000      -0.047534        -1.2935
  88   0.0000      -0.041240        -1.1222
  89   0.0000      -0.023615        -0.6426
  90   0.0000       0.007318         0.1991
  91   0.0000       0.032006         0.8709

MULLIKEN ATOMIC CHARGES
-----------------------
   0 C :   -0.315234
   1 C :   -0.011797
   2 O :   -0.241572
   3 C :    0.108617
   4 O :   -0.192340
   5 C :   -0.045172
   6 C :   -0.333264
   7 H :    0.155865
   8 C :    0.224829
   9 O :   -0.187239
  10 O :   -0.218069
  11 C :   -0.014581
  12 C :   -0.331332
  13 S :   -0.060512
  14 P :    0.624091
  15 S :   -0.322787
  16 O :   -0.374906
  17 C :   -0.104614
  18 O :   -0.403549
  19 C :   -0.102635
  20 H :    0.112986
  21 H :    0.112925
  22 H :    0.136474
  23 H :    0.109727
  24 H :    0.103306
  25 H :    0.124351
  26 H :    0.123797
  27 H :    0.108001
  28 H :    0.116472
  29 H :    0.111535
  30 H :    0.145200
  31 H :    0.138426
  32 H :    0.114183
  33 H :    0.120240
  34 H :    0.126420
  35 H :    0.103685
  36 H :    0.119364
  37 H :    0.119113
Sum of atomic charges:    0.0000000

LOEWDIN ATOMIC CHARGES
----------------------
   0 C :   -0.357644
   1 C :   -0.108451
   2 O :   -0.064129
   3 C :    0.024935
   4 O :   -0.159069
   5 C :   -0.248459
   6 C :   -0.268711
   7 H :    0.149013
   8 C :    0.026130
   9 O :   -0.149420
  10 O :   -0.027076
  11 C :   -0.105027
  12 C :   -0.362367
  13 S :    0.121116
  14 P :    0.590929
  15 S :   -0.316094
  16 O :   -0.250055
  17 C :   -0.213394
  18 O :   -0.284241
  19 C :   -0.219436
  20 H :    0.130665
  21 H :    0.123641
  22 H :    0.129340
  23 H :    0.121016
  24 H :    0.118001
  25 H :    0.136580
  26 H :    0.145407
  27 H :    0.117758
  28 H :    0.123633
  29 H :    0.130601
  30 H :    0.133970
  31 H :    0.132737
  32 H :    0.107074
  33 H :    0.113953
  34 H :    0.122812
  35 H :    0.105658
  36 H :    0.110064
  37 H :    0.118542

  Mayer bond orders larger than 0.100000
B(  0-C ,  1-C ) :   1.1756 B(  0-C , 20-H ) :   0.9411 B(  0-C , 21-H ) :   0.9472
B(  0-C , 22-H ) :   0.9371 B(  1-C ,  2-O ) :   0.9199 B(  1-C , 23-H ) :   0.9168
B(  1-C , 24-H ) :   0.9379 B(  2-O ,  3-C ) :   1.1983 B(  3-C ,  4-O ) :   2.0471
B(  3-C ,  5-C ) :   1.0163 B(  5-C ,  6-C ) :   1.0225 B(  5-C , 25-H ) :   0.8783
B(  5-C , 26-H ) :   0.8856 B(  6-C ,  7-H ) :   0.8662 B(  6-C ,  8-C ) :   0.8995
B(  6-C , 13-S ) :   1.0418 B(  8-C ,  9-O ) :   1.9454 B(  8-C , 10-O ) :   1.2741
B(  9-O , 14-P ) :   0.1317 B( 10-O , 11-C ) :   0.8846 B( 11-C , 12-C ) :   1.1806
B( 11-C , 27-H ) :   0.9302 B( 11-C , 28-H ) :   0.9150 B( 12-C , 29-H ) :   0.9399
B( 12-C , 30-H ) :   0.9295 B( 12-C , 31-H ) :   0.9398 B( 13-S , 14-P ) :   0.9350
B( 13-S , 15-S ) :   0.1072 B( 14-P , 15-S ) :   1.5978 B( 14-P , 16-O ) :   1.0860
B( 14-P , 18-O ) :   1.0298 B( 16-O , 17-C ) :   0.9307 B( 17-C , 32-H ) :   0.9396
B( 17-C , 33-H ) :   0.9498 B( 17-C , 34-H ) :   0.9575 B( 18-O , 19-C ) :   0.9448
B( 19-C , 35-H ) :   0.9481 B( 19-C , 36-H ) :   0.9377 B( 19-C , 37-H ) :   0.9591

Dispersion correction           -0.053506287
FINAL SINGLE POINT ENERGY     -1979.011130634990

DIPOLE MOMENT
-------------

Method             : SCF
Type of density    : Electron Density
Multiplicity       :   1
Irrep              :   0
Energy             : -1979.1422440150818147 Eh
Relativity type    :
Basis              : AO
                                X                 Y                 Z
Electronic contribution:    -13.727260697      -5.717887159      -1.262063101
Nuclear contribution   :     14.255379816       6.585485328      -0.136541419
                        -----------------------------------------
Total Dipole Moment    :      0.528119119       0.867598169      -1.398604520
                        -----------------------------------------
Magnitude (a.u.)       :      1.728505421
Magnitude (Debye)      :      4.393511621

Rotational constants in cm-1:             0.018276             0.006033             0.005701
Rotational constants in MHz :           547.886691           180.862954           170.903255

                             ****ORCA TERMINATED NORMALLY****
TOTAL RUN TIME: 0 days 0 hours 0 minutes 39 seconds 17 msec
