                         Program Version 6.0.1  -  RELEASE   -
|  1> ! r2scan-3c def2/J RI DEFGRID2 scfconv6 printgap
|  2> %output
|  3>     printlevel normal
|  4> end
|  5> * xyz 0 1
|  6> C 5.487602309 -1.6991022693 -1.2901965099
|  7> C 4.7251935714 -1.2855175031 -0.041549613
|  8> O 3.3262222437 -1.6110006409 -0.1600026894
|  9> C 2.5245949213 -0.7440118834 -0.7413168482
| 10> O 2.871926805 0.3348108371 -1.1764289713
| 11> C 1.0987622463 -1.2512958024 -0.7840890193
| 12> C 0.2078495885 -0.1993460589 -1.4217088249
| 13> H 0.4469098919 -0.0586144677 -2.4790518056
| 14> C 0.2917198358 1.1587375936 -0.7511708519
| 15> O 0.0019540876 2.1864073582 -1.3241824965
| 16> O 0.6437629843 1.0661813232 0.5117116124
| 17> C 0.829025745 2.2688000061 1.2812966757
| 18> C 2.3031405697 2.4337301237 1.6078540004
| 19> S -1.5523305191 -0.6828600392 -1.4231103151
| 20> P -2.1484659494 -0.1744843883 0.5610172361
| 21> S -1.1784619507 -0.9357048378 2.0773966496
| 22> O -2.266715752 1.402100053 0.6478574348
| 23> C -3.0521825489 2.1981538502 -0.2645970267
| 24> O -3.6875346656 -0.593109518 0.4949706386
| 25> C -4.07940933 -1.9727160216 0.4989894725
| 26> H 5.3371521164 -2.7568958686 -1.4867732134
| 27> H 5.1416308632 -1.1252180541 -2.1470043433
| 28> H 6.5455779839 -1.5086894242 -1.1434148576
| 29> H 4.8202168109 -0.2098615468 0.1322497647
| 30> H 5.059600467 -1.8434883169 0.8329849276
| 31> H 0.7866890989 -1.4688701179 0.2410292325
| 32> H 1.0601558466 -2.1811681721 -1.3525338606
| 33> H 0.4486931863 3.1133899704 0.7004199493
| 34> H 0.2297654718 2.1326935641 2.1844301368
| 35> H 2.881124256 2.4775292757 0.6869028784
| 36> H 2.4463947372 3.3522328332 2.1667695276
| 37> H 2.6486362111 1.5917565512 2.2014091663
| 38> H -2.4075854105 2.538568313 -1.0758373898
| 39> H -3.4073124678 3.0438028283 0.3187483608
| 40> H -3.8883186982 1.6217090261 -0.6534934755
| 41> H -5.1436861316 -1.9731737263 0.7201697488
| 42> H -3.5289502099 -2.5153299137 1.268848711
| 43> H -3.8871557512 -2.412829365 -0.4786982807
| 44> *
| 45>
| 46>                          ****END OF INPUT****

CARTESIAN COORDINATES (ANGSTROEM)
---------------------------------
  C      5.487602   -1.699102   -1.290197
  C      4.725194   -1.285518   -0.041550
  O      3.326222   -1.611001   -0.160003
  C      2.524595   -0.744012   -0.741317
  O      2.871927    0.334811   -1.176429
  C      1.098762   -1.251296   -0.784089
  C      0.207850   -0.199346   -1.421709
  H      0.446910   -0.058614   -2.479052
  C      0.291720    1.158738   -0.751171
  O      0.001954    2.186407   -1.324182
  O      0.643763    1.066181    0.511712
  C      0.829026    2.268800    1.281297
  C      2.303141    2.433730    1.607854
  S     -1.552331   -0.682860   -1.423110
  P     -2.148466   -0.174484    0.561017
  S     -1.178462   -0.935705    2.077397
  O     -2.266716    1.402100    0.647857
  C     -3.052183    2.198154   -0.264597
  O     -3.687535   -0.593110    0.494971
  C     -4.079409   -1.972716    0.498989
  H      5.337152   -2.756896   -1.486773
  H      5.141631   -1.125218   -2.147004
  H      6.545578   -1.508689   -1.143415
  H      4.820217   -0.209862    0.132250
  H      5.059600   -1.843488    0.832985
  H      0.786689   -1.468870    0.241029
  H      1.060156   -2.181168   -1.352534
  H      0.448693    3.113390    0.700420
  H      0.229765    2.132694    2.184430
  H      2.881124    2.477529    0.686903
  H      2.446395    3.352233    2.166770
  H      2.648636    1.591757    2.201409
  H     -2.407585    2.538568   -1.075837
  H     -3.407312    3.043803    0.318748
  H     -3.888319    1.621709   -0.653493
  H     -5.143686   -1.973174    0.720170
  H     -3.528950   -2.515330    1.268849
  H     -3.887156   -2.412829   -0.478698

 Total Charge           Charge          ....    0
 Multiplicity           Mult            ....    1
 Number of Electrons    NEL             ....  174
 Basis Dimension        Dim             ....  510

ORBITAL ENERGIES
----------------

  NO   OCC          E(Eh)            E(eV)
   0   2.0000     -88.580398     -2410.3952
   1   2.0000     -88.518222     -2408.7033
   2   2.0000     -76.917345     -2093.0274
   3   2.0000     -19.005076      -517.1544
   4   2.0000     -18.996763      -516.9282
   5   2.0000     -18.995830      -516.9028
   6   2.0000     -18.995527      -516.8946
   7   2.0000     -18.939037      -515.3574
   8   2.0000     -18.927500      -515.0435
   9   2.0000     -10.163149      -276.5533
  10   2.0000     -10.159076      -276.4425
  11   2.0000     -10.097693      -274.7722
  12   2.0000     -10.096497      -274.7396
  13   2.0000     -10.096314      -274.7347
  14   2.0000     -10.089697      -274.5546
  15   2.0000     -10.083319      -274.3811
  16   2.0000     -10.053309      -273.5644
  17   2.0000     -10.033744      -273.0320
  18   2.0000     -10.022602      -272.7289
  19   2.0000      -7.874399      -214.2733
  20   2.0000      -7.813097      -212.6052
  21   2.0000      -6.595383      -179.4695
  22   2.0000      -5.821305      -158.4058
  23   2.0000      -5.818370      -158.3259
  24   2.0000      -5.811441      -158.1373
  25   2.0000      -5.760995      -156.7646
  26   2.0000      -5.753124      -156.5505
  27   2.0000      -5.753092      -156.5496
  28   2.0000      -4.741360      -129.0190
  29   2.0000      -4.740472      -128.9948
  30   2.0000      -4.738600      -128.9438
  31   2.0000      -1.082947       -29.4685
  32   2.0000      -1.074859       -29.2484
  33   2.0000      -1.052732       -28.6463
  34   2.0000      -1.011594       -27.5269
  35   2.0000      -0.987529       -26.8720
  36   2.0000      -0.978471       -26.6256
  37   2.0000      -0.811061       -22.0701
  38   2.0000      -0.756504       -20.5855
  39   2.0000      -0.739751       -20.1296
  40   2.0000      -0.731233       -19.8979
  41   2.0000      -0.699908       -19.0455
  42   2.0000      -0.679304       -18.4848
  43   2.0000      -0.659744       -17.9525
  44   2.0000      -0.647243       -17.6124
  45   2.0000      -0.627432       -17.0733
  46   2.0000      -0.597683       -16.2638
  47   2.0000      -0.541479       -14.7344
  48   2.0000      -0.531930       -14.4746
  49   2.0000      -0.524347       -14.2682
  50   2.0000      -0.497558       -13.5393
  51   2.0000      -0.494604       -13.4589
  52   2.0000      -0.481716       -13.1082
  53   2.0000      -0.464263       -12.6332
  54   2.0000      -0.456464       -12.4210
  55   2.0000      -0.452692       -12.3184
  56   2.0000      -0.451417       -12.2837
  57   2.0000      -0.441203       -12.0057
  58   2.0000      -0.435051       -11.8383
  59   2.0000      -0.428495       -11.6599
  60   2.0000      -0.419872       -11.4253
  61   2.0000      -0.418475       -11.3873
  62   2.0000      -0.409906       -11.1541
  63   2.0000      -0.403165       -10.9707
  64   2.0000      -0.390837       -10.6352
  65   2.0000      -0.385043       -10.4775
  66   2.0000      -0.372032       -10.1235
  67   2.0000      -0.367599       -10.0029
  68   2.0000      -0.360906        -9.8208
  69   2.0000      -0.351513        -9.5651
  70   2.0000      -0.349366        -9.5067
  71   2.0000      -0.343332        -9.3426
  72   2.0000      -0.337812        -9.1923
  73   2.0000      -0.328274        -8.9328
  74   2.0000      -0.325861        -8.8671
  75   2.0000      -0.317735        -8.6460
  76   2.0000      -0.312530        -8.5044
  77   2.0000      -0.303423        -8.2566
  78   2.0000      -0.288325        -7.8457
  79   2.0000      -0.281642        -7.6639
  80   2.0000      -0.279351        -7.6015
  81   2.0000      -0.267000        -7.2655
  82   2.0000      -0.256396        -6.9769
  83   2.0000      -0.244751        -6.6600
  84   2.0000      -0.234592        -6.3836
  85   2.0000      -0.215706        -5.8697
  86   2.0000      -0.210543        -5.7292
  87   0.0000      -0.046140        -1.2555
  88   0.0000      -0.030345        -0.8257
  89   0.0000      -0.020023        -0.5449
  90   0.0000      -0.000089        -0.0024
  91   0.0000       0.020686         0.5629

MULLIKEN ATOMIC CHARGES
-----------------------
   0 C :   -0.471859
   1 C :   -0.132312
   2 O :   -0.171272
   3 C :    0.413274
   4 O :   -0.436068
   5 C :   -0.386344
   6 C :    0.011005
   7 H :    0.193888
   8 C :    0.251996
   9 O :   -0.395875
  10 O :   -0.114957
  11 C :   -0.174593
  12 C :   -0.485284
  13 S :   -0.185883
  14 P :    0.740052
  15 S :   -0.440863
  16 O :   -0.301192
  17 C :   -0.282811
  18 O :   -0.355579
  19 C :   -0.290212
  20 H :    0.153820
  21 H :    0.172511
  22 H :    0.149174
  23 H :    0.166034
  24 H :    0.152541
  25 H :    0.220814
  26 H :    0.176189
  27 H :    0.183352
  28 H :    0.170537
  29 H :    0.177532
  30 H :    0.145248
  31 H :    0.155591
  32 H :    0.192227
  33 H :    0.152500
  34 H :    0.159719
  35 H :    0.153834
  36 H :    0.178732
  37 H :    0.154533
Sum of atomic charges:   -0.0000000

LOEWDIN ATOMIC CHARGES
----------------------
   0 C :   -0.388913
   1 C :    0.030430
   2 O :   -0.574724
   3 C :    0.371060
   4 O :   -0.433408
   5 C :   -0.216865
   6 C :   -0.189158
   7 H :    0.207302
   8 C :    0.338105
   9 O :   -0.434456
  10 O :   -0.603151
  11 C :    0.030638
  12 C :   -0.387049
  13 S :    0.197177
  14 P :    0.389336
  15 S :   -0.081574
  16 O :   -0.650713
  17 C :   -0.045916
  18 O :   -0.685158
  19 C :   -0.056202
  20 H :    0.158062
  21 H :    0.164892
  22 H :    0.160260
  23 H :    0.187879
  24 H :    0.179807
  25 H :    0.211853
  26 H :    0.186796
  27 H :    0.195674
  28 H :    0.186077
  29 H :    0.168322
  30 H :    0.157915
  31 H :    0.158009
  32 H :    0.189736
  33 H :    0.178583
  34 H :    0.174556
  35 H :    0.178252
  36 H :    0.178697
  37 H :    0.167868

  Mayer bond orders larger than 0.100000
B(  0-C ,  1-C ) :   0.9380 B(  0-C , 20-H ) :   0.9729 B(  0-C , 21-H ) :   0.9714
B(  0-C , 22-H ) :   0.9639 B(  1-C ,  2-O ) :   0.8002 B(  1-C , 23-H ) :   0.9701
B(  1-C , 24-H ) :   0.9609 B(  2-O ,  3-C ) :   1.1215 B(  3-C ,  4-O ) :   1.7730
B(  3-C ,  5-C ) :   0.9804 B(  5-C ,  6-C ) :   1.0083 B(  5-C , 10-O ) :   0.1010
B(  5-C , 25-H ) :   0.9149 B(  5-C , 26-H ) :   0.9206 B(  6-C ,  7-H ) :   0.9402
B(  6-C ,  8-C ) :   0.9369 B(  6-C , 13-S ) :   0.7678 B(  8-C ,  9-O ) :   1.8496
B(  8-C , 10-O ) :   1.0696 B( 10-O , 11-C ) :   0.7835 B( 11-C , 12-C ) :   0.9179
B( 11-C , 27-H ) :   0.9726 B( 11-C , 28-H ) :   0.9494 B( 12-C , 29-H ) :   0.9710
B( 12-C , 30-H ) :   0.9646 B( 12-C , 31-H ) :   0.9765 B( 13-S , 14-P ) :   1.0202
B( 14-P , 15-S ) :   1.8582 B( 14-P , 16-O ) :   1.1098 B( 14-P , 18-O ) :   1.0402
B( 16-O , 17-C ) :   0.7935 B( 17-C , 32-H ) :   0.9476 B( 17-C , 33-H ) :   0.9668
B( 17-C , 34-H ) :   0.9639 B( 18-O , 19-C ) :   0.8289 B( 19-C , 35-H ) :   0.9665
B( 19-C , 36-H ) :   0.9579 B( 19-C , 37-H ) :   0.9571

Dispersion correction           -0.018018423
FINAL SINGLE POINT ENERGY     -1981.455785110690

DIPOLE MOMENT
-------------

Method             : SCF
Type of density    : Electron Density
Multiplicity       :   1
Irrep              :   0
Energy             : -1981.4750118539654977 Eh
Relativity type    :
Basis              : AO
                                X                 Y                 Z
Electronic contribution:    -16.548500577      -2.557262100      -0.228508833
Nuclear contribution   :     16.637554199       1.949177314       0.062647415
                        -----------------------------------------
Total Dipole Moment    :      0.089053622      -0.608084786      -0.165861418
                        -----------------------------------------
Magnitude (a.u.)       :      0.636559239
Magnitude (Debye)      :      1.618005000

Rotational constants in cm-1:             0.016308             0.006283             0.005752
Rotational constants in MHz :           488.892154           188.368955           172.437305

                             ****ORCA TERMINATED NORMALLY****
TOTAL RUN TIME: 0 days 0 hours 1 minutes 23 seconds 950 msec
