                         Program Version 6.0.1  -  RELEASE   -
|  1> ! r2scan-3c def2/J RI DEFGRID2 scfconv6 printgap
|  2> %output
|  3>     printlevel normal
|  4> end
|  5> %cpcm
|  6>     smd true
|  7>     smdsolvent "water"
|  8> end
|  9> * xyz 0 1
| 10> C 5.487602309 -1.6991022693 -1.2901965099
| 11> C 4.7251935714 -1.2855175031 -0.041549613
| 12> O 3.3262222437 -1.6110006409 -0.1600026894
| 13> C 2.5245949213 -0.7440118834 -0.7413168482
| 14> O 2.871926805 0.3348108371 -1.1764289713
| 15> C 1.0987622463 -1.2512958024 -0.7840890193
| 16> C 0.2078495885 -0.1993460589 -1.4217088249
| 17> H 0.4469098919 -0.0586144677 -2.4790518056
| 18> C 0.2917198358 1.1587375936 -0.7511708519
| 19> O 0.0019540876 2.1864073582 -1.3241824965
| 20> O 0.6437629843 1.0661813232 0.5117116124
| 21> C 0.829025745 2.2688000061 1.2812966757
| 22> C 2.3031405697 2.4337301237 1.6078540004
| 23> S -1.5523305191 -0.6828600392 -1.4231103151
| 24> P -2.1484659494 -0.1744843883 0.5610172361
| 25> S -1.1784619507 -0.9357048378 2.0773966496
| 26> O -2.266715752 1.402100053 0.6478574348
| 27> C -3.0521825489 2.1981538502 -0.2645970267
| 28> O -3.6875346656 -0.593109518 0.4949706386
| 29> C -4.07940933 -1.9727160216 0.4989894725
| 30> H 5.3371521164 -2.7568958686 -1.4867732134
| 31> H 5.1416308632 -1.1252180541 -2.1470043433
| 32> H 6.5455779839 -1.5086894242 -1.1434148576
| 33> H 4.8202168109 -0.2098615468 0.1322497647
| 34> H 5.059600467 -1.8434883169 0.8329849276
| 35> H 0.7866890989 -1.4688701179 0.2410292325
| 36> H 1.0601558466 -2.1811681721 -1.3525338606
| 37> H 0.4486931863 3.1133899704 0.7004199493
| 38> H 0.2297654718 2.1326935641 2.1844301368
| 39> H 2.881124256 2.4775292757 0.6869028784
| 40> H 2.4463947372 3.3522328332 2.1667695276
| 41> H 2.6486362111 1.5917565512 2.2014091663
| 42> H -2.4075854105 2.538568313 -1.0758373898
| 43> H -3.4073124678 3.0438028283 0.3187483608
| 44> H -3.8883186982 1.6217090261 -0.6534934755
| 45> H -5.1436861316 -1.9731737263 0.7201697488
| 46> H -3.5289502099 -2.5153299137 1.268848711
| 47> H -3.8871557512 -2.412829365 -0.4786982807
| 48> *
| 49>
| 50>                          ****END OF INPUT****

CARTESIAN COORDINATES (ANGSTROEM)
---------------------------------
  C      5.487602   -1.699102   -1.290197
  C      4.725194   -1.285518   -0.041550
  O      3.326222   -1.611001   -0.160003
  C      2.524595   -0.744012   -0.741317
  O      2.871927    0.334811   -1.176429
  C      1.098762   -1.251296   -0.784089
  C      0.207850   -0.199346   -1.421709
  H      0.446910   -0.058614   -2.479052
  C      0.291720    1.158738   -0.751171
  O      0.001954    2.186407   -1.324182
  O      0.643763    1.066181    0.511712
  C      0.829026    2.268800    1.281297
  C      2.303141    2.433730    1.607854
  S     -1.552331   -0.682860   -1.423110
  P     -2.148466   -0.174484    0.561017
  S     -1.178462   -0.935705    2.077397
  O     -2.266716    1.402100    0.647857
  C     -3.052183    2.198154   -0.264597
  O     -3.687535   -0.593110    0.494971
  C     -4.079409   -1.972716    0.498989
  H      5.337152   -2.756896   -1.486773
  H      5.141631   -1.125218   -2.147004
  H      6.545578   -1.508689   -1.143415
  H      4.820217   -0.209862    0.132250
  H      5.059600   -1.843488    0.832985
  H      0.786689   -1.468870    0.241029
  H      1.060156   -2.181168   -1.352534
  H      0.448693    3.113390    0.700420
  H      0.229765    2.132694    2.184430
  H      2.881124    2.477529    0.686903
  H      2.446395    3.352233    2.166770
  H      2.648636    1.591757    2.201409
  H     -2.407585    2.538568   -1.075837
  H     -3.407312    3.043803    0.318748
  H     -3.888319    1.621709   -0.653493
  H     -5.143686   -1.973174    0.720170
  H     -3.528950   -2.515330    1.268849
  H     -3.887156   -2.412829   -0.478698

 Total Charge           Charge          ....    0
 Multiplicity           Mult            ....    1
 Number of Electrons    NEL             ....  174
 Basis Dimension        Dim             ....  510

ORBITAL ENERGIES
----------------

  NO   OCC          E(Eh)            E(eV)
   0   2.0000     -88.586240     -2410.5541
   1   2.0000     -88.528965     -2408.9956
   2   2.0000     -76.924423     -2093.2200
   3   2.0000     -19.008089      -517.2364
   4   2.0000     -19.007780      -517.2280
   5   2.0000     -19.001365      -517.0534
   6   2.0000     -18.998543      -516.9766
   7   2.0000     -18.950213      -515.6615
   8   2.0000     -18.948224      -515.6074
   9   2.0000     -10.175192      -276.8811
  10   2.0000     -10.171147      -276.7710
  11   2.0000     -10.098938      -274.8061
  12   2.0000     -10.086227      -274.4602
  13   2.0000     -10.085266      -274.4340
  14   2.0000     -10.084302      -274.4078
  15   2.0000     -10.084126      -274.4030
  16   2.0000     -10.052603      -273.5452
  17   2.0000     -10.019374      -272.6410
  18   2.0000     -10.019269      -272.6382
  19   2.0000      -7.880116      -214.4289
  20   2.0000      -7.824140      -212.9057
  21   2.0000      -6.602536      -179.6641
  22   2.0000      -5.827033      -158.5616
  23   2.0000      -5.824111      -158.4821
  24   2.0000      -5.817142      -158.2925
  25   2.0000      -5.771935      -157.0623
  26   2.0000      -5.764260      -156.8535
  27   2.0000      -5.764085      -156.8487
  28   2.0000      -4.748463      -129.2122
  29   2.0000      -4.747592      -129.1886
  30   2.0000      -4.745862      -129.1415
  31   2.0000      -1.090555       -29.6755
  32   2.0000      -1.085144       -29.5283
  33   2.0000      -1.056365       -28.7451
  34   2.0000      -1.014592       -27.6085
  35   2.0000      -0.997839       -27.1526
  36   2.0000      -0.996326       -27.1114
  37   2.0000      -0.815016       -22.1777
  38   2.0000      -0.751662       -20.4538
  39   2.0000      -0.742410       -20.2020
  40   2.0000      -0.731121       -19.8948
  41   2.0000      -0.699195       -19.0261
  42   2.0000      -0.673578       -18.3290
  43   2.0000      -0.662531       -18.0284
  44   2.0000      -0.650196       -17.6927
  45   2.0000      -0.624551       -16.9949
  46   2.0000      -0.598488       -16.2857
  47   2.0000      -0.541996       -14.7485
  48   2.0000      -0.530425       -14.4336
  49   2.0000      -0.525338       -14.2952
  50   2.0000      -0.498991       -13.5782
  51   2.0000      -0.497592       -13.5402
  52   2.0000      -0.484792       -13.1919
  53   2.0000      -0.469446       -12.7743
  54   2.0000      -0.462215       -12.5775
  55   2.0000      -0.457659       -12.4535
  56   2.0000      -0.454110       -12.3570
  57   2.0000      -0.447867       -12.1871
  58   2.0000      -0.438212       -11.9243
  59   2.0000      -0.430603       -11.7173
  60   2.0000      -0.418139       -11.3781
  61   2.0000      -0.413516       -11.2523
  62   2.0000      -0.409068       -11.1313
  63   2.0000      -0.404211       -10.9991
  64   2.0000      -0.391766       -10.6605
  65   2.0000      -0.380309       -10.3487
  66   2.0000      -0.371581       -10.1112
  67   2.0000      -0.367773       -10.0076
  68   2.0000      -0.359587        -9.7849
  69   2.0000      -0.352339        -9.5876
  70   2.0000      -0.350494        -9.5374
  71   2.0000      -0.341518        -9.2932
  72   2.0000      -0.339850        -9.2478
  73   2.0000      -0.331738        -9.0270
  74   2.0000      -0.326238        -8.8774
  75   2.0000      -0.317307        -8.6344
  76   2.0000      -0.308252        -8.3880
  77   2.0000      -0.307111        -8.3569
  78   2.0000      -0.292087        -7.9481
  79   2.0000      -0.285588        -7.7712
  80   2.0000      -0.281755        -7.6669
  81   2.0000      -0.276782        -7.5316
  82   2.0000      -0.268832        -7.3153
  83   2.0000      -0.259074        -7.0498
  84   2.0000      -0.247721        -6.7408
  85   2.0000      -0.227227        -6.1831
  86   2.0000      -0.221669        -6.0319
  87   0.0000      -0.053626        -1.4593
  88   0.0000      -0.041455        -1.1280
  89   0.0000      -0.026355        -0.7172
  90   0.0000      -0.006245        -0.1699
  91   0.0000       0.016909         0.4601

MULLIKEN ATOMIC CHARGES
-----------------------
   0 C :   -0.497814
   1 C :   -0.137073
   2 O :   -0.188406
   3 C :    0.438346
   4 O :   -0.495878
   5 C :   -0.390280
   6 C :    0.006037
   7 H :    0.235447
   8 C :    0.239027
   9 O :   -0.454873
  10 O :   -0.123156
  11 C :   -0.165871
  12 C :   -0.514452
  13 S :   -0.185335
  14 P :    0.755677
  15 S :   -0.485255
  16 O :   -0.328467
  17 C :   -0.296647
  18 O :   -0.377721
  19 C :   -0.301396
  20 H :    0.166775
  21 H :    0.170579
  22 H :    0.171821
  23 H :    0.173227
  24 H :    0.177108
  25 H :    0.219515
  26 H :    0.212710
  27 H :    0.188533
  28 H :    0.182427
  29 H :    0.172027
  30 H :    0.171555
  31 H :    0.173015
  32 H :    0.186436
  33 H :    0.182585
  34 H :    0.182448
  35 H :    0.181931
  36 H :    0.179486
  37 H :    0.175913
Sum of atomic charges:    0.0000000

LOEWDIN ATOMIC CHARGES
----------------------
   0 C :   -0.391412
   1 C :    0.035917
   2 O :   -0.577830
   3 C :    0.380806
   4 O :   -0.476122
   5 C :   -0.211319
   6 C :   -0.186214
   7 H :    0.220039
   8 C :    0.336604
   9 O :   -0.481649
  10 O :   -0.606991
  11 C :    0.034411
  12 C :   -0.387107
  13 S :    0.208158
  14 P :    0.390248
  15 S :   -0.116376
  16 O :   -0.667846
  17 C :   -0.040325
  18 O :   -0.693083
  19 C :   -0.050629
  20 H :    0.162628
  21 H :    0.162863
  22 H :    0.168586
  23 H :    0.190455
  24 H :    0.190567
  25 H :    0.209644
  26 H :    0.203215
  27 H :    0.197428
  28 H :    0.190866
  29 H :    0.165355
  30 H :    0.168136
  31 H :    0.163301
  32 H :    0.187329
  33 H :    0.190916
  34 H :    0.183302
  35 H :    0.190257
  36 H :    0.179128
  37 H :    0.176745

  Mayer bond orders larger than 0.100000
B(  0-C ,  1-C ) :   0.9366 B(  0-C , 20-H ) :   0.9688 B(  0-C , 21-H ) :   0.9690
B(  0-C , 22-H ) :   0.9590 B(  1-C ,  2-O ) :   0.7829 B(  1-C , 23-H ) :   0.9647
B(  1-C , 24-H ) :   0.9514 B(  2-O ,  3-C ) :   1.1359 B(  3-C ,  4-O ) :   1.7283
B(  3-C ,  5-C ) :   0.9979 B(  5-C ,  6-C ) :   0.9991 B(  5-C , 25-H ) :   0.9255
B(  5-C , 26-H ) :   0.8962 B(  6-C ,  7-H ) :   0.9292 B(  6-C ,  8-C ) :   0.9301
B(  6-C , 13-S ) :   0.7465 B(  8-C ,  9-O ) :   1.7933 B(  8-C , 10-O ) :   1.0833
B( 10-O , 11-C ) :   0.7698 B( 11-C , 12-C ) :   0.9140 B( 11-C , 27-H ) :   0.9617
B( 11-C , 28-H ) :   0.9438 B( 12-C , 29-H ) :   0.9704 B( 12-C , 30-H ) :   0.9586
B( 12-C , 31-H ) :   0.9722 B( 13-S , 14-P ) :   1.0278 B( 14-P , 15-S ) :   1.8348
B( 14-P , 16-O ) :   1.1106 B( 14-P , 18-O ) :   1.0511 B( 16-O , 17-C ) :   0.7837
B( 17-C , 32-H ) :   0.9456 B( 17-C , 33-H ) :   0.9554 B( 17-C , 34-H ) :   0.9554
B( 18-O , 19-C ) :   0.8196 B( 19-C , 35-H ) :   0.9563 B( 19-C , 36-H ) :   0.9540
B( 19-C , 37-H ) :   0.9492

Dispersion correction           -0.018018423
FINAL SINGLE POINT ENERGY     -1981.469100420700

DIPOLE MOMENT
-------------

Method             : SCF
Type of density    : Electron Density
Multiplicity       :   1
Irrep              :   0
Energy             : -1981.4883271639757822 Eh
Relativity type    :
Basis              : AO
                                X                 Y                 Z
Electronic contribution:    -16.625628034      -3.005874439      -0.305313619
Nuclear contribution   :     16.637554199       1.949177314       0.062647415
                        -----------------------------------------
Total Dipole Moment    :      0.011926165      -1.056697124      -0.242666204
                        -----------------------------------------
Magnitude (a.u.)       :      1.084268386
Magnitude (Debye)      :      2.755991214

Rotational constants in cm-1:             0.016308             0.006283             0.005752
Rotational constants in MHz :           488.892154           188.368955           172.437305

                             ****ORCA TERMINATED NORMALLY****
TOTAL RUN TIME: 0 days 0 hours 1 minutes 48 seconds 540 msec
