                         Program Version 6.0.0  -   RELEASE  -
|  1> ! pbe def2-sv(p) def2/J RI DEFGRID1 loosescf d4 GCP(DFT/SV(P)) printgap
|  2> %output
|  3>     printlevel normal
|  4> end
|  5> * xyz 0 1
|  6> C 3.4450318572 -0.3421503546 -2.6126095228
|  7> C 1.9654117679 -0.1042206719 -2.4064842296
|  8> O 1.4688620319 -0.7725157523 -1.2264007561
|  9> P 1.9648699303 -0.3751571129 0.2235036182
| 10> S 2.440588463 1.4987261048 0.5666585458
| 11> O 3.1705747916 -1.396198698 0.4027059639
| 12> C 3.9983020821 -1.379042955 1.5814991886
| 13> C 5.2502569089 -2.1792148652 1.2835602839
| 14> S 0.4859398369 -1.2232178442 1.4708823498
| 15> C -0.2863845814 0.285792131 2.1524556608
| 16> S -2.083762439 0.3233683272 1.9478709874
| 17> P -2.164413973 0.3725812294 -0.1535071423
| 18> S -0.8364286937 1.4799845281 -1.0922730678
| 19> O -3.6738156428 0.7407216214 -0.479457013
| 20> C -4.129746885 2.0960919888 -0.6309277401
| 21> C -4.0900358675 2.8617811157 0.6757433217
| 22> O -2.1396573313 -1.1825999524 -0.4450831575
| 23> C -1.8252615196 -1.757338979 -1.7288050103
| 24> C -2.7920228407 -1.3145583843 -2.8063317032
| 25> H 3.7491631607 0.0946546186 -3.5586553373
| 26> H 4.0098380907 0.127370464 -1.8080394481
| 27> H 3.6555747561 -1.4084495499 -2.616843557
| 28> H 1.3690886197 -0.5272033239 -3.2164810216
| 29> H 1.7447591314 0.9645536989 -2.3136329624
| 30> H 4.2336046188 -0.3375554813 1.8261736652
| 31> H 3.4294087164 -1.8194488715 2.4052230809
| 32> H 5.8028631166 -1.7214580365 0.468056901
| 33> H 5.8753390271 -2.2045959956 2.1699822705
| 34> H 4.9818051022 -3.1931599587 1.0018954395
| 35> H 0.1687475879 1.1544935613 1.6680550973
| 36> H -0.1116961959 0.3027068218 3.2251210126
| 37> H -3.5060316787 2.5886696571 -1.3840006992
| 38> H -5.14889909 1.9881878919 -1.0043714935
| 39> H -4.6125229432 2.3097804809 1.452890207
| 40> H -3.0576089481 3.0132741603 0.9884958647
| 41> H -4.5612572023 3.8299106025 0.5393761278
| 42> H -0.797639874 -1.4818102438 -1.9849730272
| 43> H -1.8812876315 -2.8317477714 -1.5471732198
| 44> H -2.5733128912 -1.8455934813 -3.7275690334
| 45> H -3.8139898374 -1.5230215752 -2.5003533529
| 46> H -2.6876337256 -0.2438113365 -2.9804541142
| 47> *
| 48>
| 49>                          ****END OF INPUT****

CARTESIAN COORDINATES (ANGSTROEM)
---------------------------------
  C      3.445032   -0.342150   -2.612610
  C      1.965412   -0.104221   -2.406484
  O      1.468862   -0.772516   -1.226401
  P      1.964870   -0.375157    0.223504
  S      2.440588    1.498726    0.566659
  O      3.170575   -1.396199    0.402706
  C      3.998302   -1.379043    1.581499
  C      5.250257   -2.179215    1.283560
  S      0.485940   -1.223218    1.470882
  C     -0.286385    0.285792    2.152456
  S     -2.083762    0.323368    1.947871
  P     -2.164414    0.372581   -0.153507
  S     -0.836429    1.479985   -1.092273
  O     -3.673816    0.740722   -0.479457
  C     -4.129747    2.096092   -0.630928
  C     -4.090036    2.861781    0.675743
  O     -2.139657   -1.182600   -0.445083
  C     -1.825262   -1.757339   -1.728805
  C     -2.792023   -1.314558   -2.806332
  H      3.749163    0.094655   -3.558655
  H      4.009838    0.127370   -1.808039
  H      3.655575   -1.408450   -2.616844
  H      1.369089   -0.527203   -3.216481
  H      1.744759    0.964554   -2.313633
  H      4.233605   -0.337555    1.826174
  H      3.429409   -1.819449    2.405223
  H      5.802863   -1.721458    0.468057
  H      5.875339   -2.204596    2.169982
  H      4.981805   -3.193160    1.001895
  H      0.168748    1.154494    1.668055
  H     -0.111696    0.302707    3.225121
  H     -3.506032    2.588670   -1.384001
  H     -5.148899    1.988188   -1.004371
  H     -4.612523    2.309780    1.452890
  H     -3.057609    3.013274    0.988496
  H     -4.561257    3.829911    0.539376
  H     -0.797640   -1.481810   -1.984973
  H     -1.881288   -2.831748   -1.547173
  H     -2.573313   -1.845593   -3.727569
  H     -3.813990   -1.523022   -2.500353
  H     -2.687634   -0.243811   -2.980454

 Total Charge           Charge          ....    0
 Multiplicity           Mult            ....    1
 Number of Electrons    NEL             ....  202
 Basis Dimension        Dim             ....  334

ORBITAL ENERGIES
----------------

  NO   OCC          E(Eh)            E(eV)
   0   2.0000     -88.041401     -2395.7283
   1   2.0000     -88.039964     -2395.6892
   2   2.0000     -87.984333     -2394.1754
   3   2.0000     -87.984211     -2394.1721
   4   2.0000     -76.424132     -2079.6064
   5   2.0000     -76.423301     -2079.5838
   6   2.0000     -18.792461      -511.3689
   7   2.0000     -18.789515      -511.2887
   8   2.0000     -18.788067      -511.2493
   9   2.0000     -18.784295      -511.1466
  10   2.0000      -9.952765      -270.8285
  11   2.0000      -9.951613      -270.7972
  12   2.0000      -9.949273      -270.7335
  13   2.0000      -9.947591      -270.6877
  14   2.0000      -9.946321      -270.6532
  15   2.0000      -9.886970      -269.0381
  16   2.0000      -9.883075      -268.9321
  17   2.0000      -9.880901      -268.8730
  18   2.0000      -9.880435      -268.8603
  19   2.0000      -7.687017      -209.1744
  20   2.0000      -7.684981      -209.1190
  21   2.0000      -7.629273      -207.6031
  22   2.0000      -7.628796      -207.5901
  23   2.0000      -6.421508      -174.7381
  24   2.0000      -6.420879      -174.7210
  25   2.0000      -5.714957      -155.5119
  26   2.0000      -5.712839      -155.4542
  27   2.0000      -5.711481      -155.4173
  28   2.0000      -5.709558      -155.3650
  29   2.0000      -5.703867      -155.2101
  30   2.0000      -5.701892      -155.1564
  31   2.0000      -5.658113      -153.9651
  32   2.0000      -5.657560      -153.9500
  33   2.0000      -5.650066      -153.7461
  34   2.0000      -5.649525      -153.7314
  35   2.0000      -5.649329      -153.7261
  36   2.0000      -5.649045      -153.7183
  37   2.0000      -4.643924      -126.3676
  38   2.0000      -4.643269      -126.3498
  39   2.0000      -4.643158      -126.3468
  40   2.0000      -4.642548      -126.3302
  41   2.0000      -4.642149      -126.3193
  42   2.0000      -4.641664      -126.3061
  43   2.0000      -0.984644       -26.7935
  44   2.0000      -0.984033       -26.7769
  45   2.0000      -0.942723       -25.6528
  46   2.0000      -0.942056       -25.6346
  47   2.0000      -0.760612       -20.6973
  48   2.0000      -0.719991       -19.5920
  49   2.0000      -0.706231       -19.2175
  50   2.0000      -0.686327       -18.6759
  51   2.0000      -0.684976       -18.6392
  52   2.0000      -0.672519       -18.3002
  53   2.0000      -0.650172       -17.6921
  54   2.0000      -0.633071       -17.2267
  55   2.0000      -0.601886       -16.3781
  56   2.0000      -0.592732       -16.1291
  57   2.0000      -0.571067       -15.5395
  58   2.0000      -0.563140       -15.3238
  59   2.0000      -0.559145       -15.2151
  60   2.0000      -0.501691       -13.6517
  61   2.0000      -0.488992       -13.3061
  62   2.0000      -0.472563       -12.8591
  63   2.0000      -0.469132       -12.7657
  64   2.0000      -0.449186       -12.2230
  65   2.0000      -0.445209       -12.1148
  66   2.0000      -0.437913       -11.9162
  67   2.0000      -0.432927       -11.7806
  68   2.0000      -0.426659       -11.6100
  69   2.0000      -0.415729       -11.3126
  70   2.0000      -0.409053       -11.1309
  71   2.0000      -0.397534       -10.8174
  72   2.0000      -0.390872       -10.6362
  73   2.0000      -0.385482       -10.4895
  74   2.0000      -0.379877       -10.3370
  75   2.0000      -0.373109       -10.1528
  76   2.0000      -0.370636       -10.0855
  77   2.0000      -0.355832        -9.6827
  78   2.0000      -0.353132        -9.6092
  79   2.0000      -0.347060        -9.4440
  80   2.0000      -0.344657        -9.3786
  81   2.0000      -0.341227        -9.2853
  82   2.0000      -0.340870        -9.2755
  83   2.0000      -0.333609        -9.0780
  84   2.0000      -0.332828        -9.0567
  85   2.0000      -0.313986        -8.5440
  86   2.0000      -0.310172        -8.4402
  87   2.0000      -0.297427        -8.0934
  88   2.0000      -0.293933        -7.9983
  89   2.0000      -0.283720        -7.7204
  90   2.0000      -0.279405        -7.6030
  91   2.0000      -0.272289        -7.4094
  92   2.0000      -0.269423        -7.3314
  93   2.0000      -0.262749        -7.1498
  94   2.0000      -0.258307        -7.0289
  95   2.0000      -0.231182        -6.2908
  96   2.0000      -0.221471        -6.0265
  97   2.0000      -0.214587        -5.8392
  98   2.0000      -0.202796        -5.5183
  99   2.0000      -0.196094        -5.3360
 100   2.0000      -0.188764        -5.1365
 101   0.0000      -0.038317        -1.0427
 102   0.0000      -0.030524        -0.8306
 103   0.0000      -0.006925        -0.1884
 104   0.0000       0.014848         0.4040
 105   0.0000       0.025753         0.7008

MULLIKEN ATOMIC CHARGES
-----------------------
   0 C :   -0.299671
   1 C :   -0.007424
   2 O :   -0.361311
   3 P :    0.616269
   4 S :   -0.319450
   5 O :   -0.377062
   6 C :   -0.009584
   7 C :   -0.279758
   8 S :   -0.092283
   9 C :   -0.359050
  10 S :   -0.082055
  11 P :    0.609788
  12 S :   -0.327664
  13 O :   -0.371460
  14 C :   -0.002401
  15 C :   -0.318516
  16 O :   -0.359540
  17 C :   -0.016890
  18 C :   -0.312508
  19 H :    0.110454
  20 H :    0.123622
  21 H :    0.114346
  22 H :    0.100876
  23 H :    0.123672
  24 H :    0.102993
  25 H :    0.098318
  26 H :    0.118474
  27 H :    0.111028
  28 H :    0.116079
  29 H :    0.209534
  30 H :    0.180468
  31 H :    0.109877
  32 H :    0.104927
  33 H :    0.118495
  34 H :    0.130013
  35 H :    0.113551
  36 H :    0.134279
  37 H :    0.103859
  38 H :    0.108711
  39 H :    0.116529
  40 H :    0.120460
Sum of atomic charges:   -0.0000000

LOEWDIN ATOMIC CHARGES
----------------------
   0 C :   -0.366526
   1 C :   -0.117180
   2 O :   -0.235570
   3 P :    0.572620
   4 S :   -0.308397
   5 O :   -0.248640
   6 C :   -0.123652
   7 C :   -0.350041
   8 S :    0.079874
   9 C :   -0.479168
  10 S :    0.093278
  11 P :    0.567455
  12 S :   -0.309887
  13 O :   -0.243076
  14 C :   -0.119191
  15 C :   -0.369841
  16 O :   -0.237279
  17 C :   -0.115740
  18 C :   -0.367942
  19 H :    0.130194
  20 H :    0.121373
  21 H :    0.125122
  22 H :    0.114600
  23 H :    0.111230
  24 H :    0.106480
  25 H :    0.107176
  26 H :    0.127344
  27 H :    0.130352
  28 H :    0.126724
  29 H :    0.124859
  30 H :    0.136067
  31 H :    0.110136
  32 H :    0.118606
  33 H :    0.124368
  34 H :    0.122477
  35 H :    0.131363
  36 H :    0.115826
  37 H :    0.119845
  38 H :    0.128580
  39 H :    0.125856
  40 H :    0.120323

  Mayer bond orders larger than 0.100000
B(  0-C ,  1-C ) :   1.1650 B(  0-C , 19-H ) :   0.9377 B(  0-C , 20-H ) :   0.9330
B(  0-C , 21-H ) :   0.9444 B(  1-C ,  2-O ) :   0.8964 B(  1-C , 22-H ) :   0.9315
B(  1-C , 23-H ) :   0.9154 B(  2-O ,  3-P ) :   1.1304 B(  3-P ,  4-S ) :   1.5997
B(  3-P ,  5-O ) :   1.0950 B(  3-P ,  8-S ) :   0.9693 B(  4-S ,  8-S ) :   0.1199
B(  5-O ,  6-C ) :   0.9082 B(  6-C ,  7-C ) :   1.1600 B(  6-C , 24-H ) :   0.9090
B(  6-C , 25-H ) :   0.9252 B(  7-C , 26-H ) :   0.9519 B(  7-C , 27-H ) :   0.9422
B(  7-C , 28-H ) :   0.9505 B(  8-S ,  9-C ) :   0.9934 B(  9-C , 10-S ) :   1.0034
B(  9-C , 29-H ) :   0.8495 B(  9-C , 30-H ) :   0.9123 B( 10-S , 11-P ) :   0.9591
B( 10-S , 12-S ) :   0.1095 B( 11-P , 12-S ) :   1.5999 B( 11-P , 13-O ) :   1.1047
B( 11-P , 16-O ) :   1.1361 B( 13-O , 14-C ) :   0.9082 B( 14-C , 15-C ) :   1.1668
B( 14-C , 31-H ) :   0.9146 B( 14-C , 32-H ) :   0.9338 B( 15-C , 33-H ) :   0.9445
B( 15-C , 34-H ) :   0.9353 B( 15-C , 35-H ) :   0.9379 B( 16-O , 17-C ) :   0.9023
B( 17-C , 18-C ) :   1.1617 B( 17-C , 36-H ) :   0.9114 B( 17-C , 37-H ) :   0.9348
B( 18-C , 38-H ) :   0.9387 B( 18-C , 39-H ) :   0.9443 B( 18-C , 40-H ) :   0.9339

Dispersion correction           -0.066967821
FINAL SINGLE POINT ENERGY     -2929.523332413014

DIPOLE MOMENT
-------------

Method             : SCF
Type of density    : Electron Density
Multiplicity       :   1
Irrep              :   0
Energy             : -2929.6417481645889893 Eh
Relativity type    :
Basis              : AO
                                X                 Y                 Z
Electronic contribution:     -6.141750065       2.107800767      11.935509537
Nuclear contribution   :      6.041475890      -2.689883906     -12.272044462
                        -----------------------------------------
Total Dipole Moment    :     -0.100274176      -0.582083138      -0.336534925
                        -----------------------------------------
Magnitude (a.u.)       :      0.679802505
Magnitude (Debye)      :      1.727920647

Rotational constants in cm-1:             0.013330             0.005092             0.004680
Rotational constants in MHz :           399.624553           152.656069           140.316200

                             ****ORCA TERMINATED NORMALLY****
TOTAL RUN TIME: 0 days 0 hours 0 minutes 21 seconds 336 msec
