                         Program Version 6.0.0  -   RELEASE  -
|  1> ! pbe def2-sv(p) def2/J RI DEFGRID1 loosescf d4 GCP(DFT/SV(P)) printgap
|  2> %output
|  3>     printlevel normal
|  4> end
|  5> * xyz 0 1
|  6> C 0.8598458212 1.3901051221 -0.6182527316
|  7> C 1.5938498132 0.1754776863 -0.0362422925
|  8> H 2.5710993972 0.0876244415 -0.5348459286
|  9> C 0.7742714241 -1.1021439185 -0.3272153592
| 10> H 1.2068601156 -1.9291051908 0.2513415615
| 11> C -0.6785527164 -0.9200815058 0.1578742746
| 12> H -1.2879650797 -1.7501269047 -0.2125020494
| 13> C -1.2460890623 0.3810242765 -0.4474684424
| 14> H -1.2377857018 0.2631293669 -1.553646259
| 15> O -0.4533885577 1.4963816556 -0.1070693194
| 16> O -2.5266248187 0.5909786321 0.0232507514
| 17> O -0.7734930095 -0.9561231451 1.5517718488
| 18> O 0.7446493281 -1.3848374139 -1.7038272194
| 19> O 1.7578974416 0.2632490909 1.3590323257
| 20> H 0.8265432609 1.2898945493 -1.7116394774
| 21> H 1.351412178 2.3237570125 -0.3431862194
| 22> H -2.7631208302 1.5229941665 -0.1073258007
| 23> H -0.170159953 -0.287482626 1.9208893445
| 24> H 1.5628705867 -1.8295620452 -1.9692039744
| 25> H 2.266432501 1.0568448337 1.5810620153
| 26> *
| 27>
| 28>                          ****END OF INPUT****

CARTESIAN COORDINATES (ANGSTROEM)
---------------------------------
  C      0.859846    1.390105   -0.618253
  C      1.593850    0.175478   -0.036242
  H      2.571099    0.087624   -0.534846
  C      0.774271   -1.102144   -0.327215
  H      1.206860   -1.929105    0.251342
  C     -0.678553   -0.920082    0.157874
  H     -1.287965   -1.750127   -0.212502
  C     -1.246089    0.381024   -0.447468
  H     -1.237786    0.263129   -1.553646
  O     -0.453389    1.496382   -0.107069
  O     -2.526625    0.590979    0.023251
  O     -0.773493   -0.956123    1.551772
  O      0.744649   -1.384837   -1.703827
  O      1.757897    0.263249    1.359032
  H      0.826543    1.289895   -1.711639
  H      1.351412    2.323757   -0.343186
  H     -2.763121    1.522994   -0.107326
  H     -0.170160   -0.287483    1.920889
  H      1.562871   -1.829562   -1.969204
  H      2.266433    1.056845    1.581062

 Total Charge           Charge          ....    0
 Multiplicity           Mult            ....    1
 Number of Electrons    NEL             ....   80
 Basis Dimension        Dim             ....  160

ORBITAL ENERGIES
----------------

  NO   OCC          E(Eh)            E(eV)
   0   2.0000     -18.775184      -510.8987
   1   2.0000     -18.765337      -510.6308
   2   2.0000     -18.764037      -510.5954
   3   2.0000     -18.744996      -510.0773
   4   2.0000     -18.726173      -509.5651
   5   2.0000      -9.971685      -271.3433
   6   2.0000      -9.953051      -270.8363
   7   2.0000      -9.945336      -270.6263
   8   2.0000      -9.941630      -270.5255
   9   2.0000      -9.927282      -270.1351
  10   2.0000      -0.977349       -26.5950
  11   2.0000      -0.950590       -25.8669
  12   2.0000      -0.938692       -25.5431
  13   2.0000      -0.907205       -24.6863
  14   2.0000      -0.901673       -24.5358
  15   2.0000      -0.699092       -19.0233
  16   2.0000      -0.669807       -18.2264
  17   2.0000      -0.594453       -16.1759
  18   2.0000      -0.576509       -15.6876
  19   2.0000      -0.524118       -14.2620
  20   2.0000      -0.491350       -13.3703
  21   2.0000      -0.482554       -13.1310
  22   2.0000      -0.465668       -12.6715
  23   2.0000      -0.454158       -12.3583
  24   2.0000      -0.435970       -11.8633
  25   2.0000      -0.420276       -11.4363
  26   2.0000      -0.397104       -10.8057
  27   2.0000      -0.374558       -10.1922
  28   2.0000      -0.372590       -10.1387
  29   2.0000      -0.357477        -9.7274
  30   2.0000      -0.317234        -8.6324
  31   2.0000      -0.308360        -8.3909
  32   2.0000      -0.294081        -8.0024
  33   2.0000      -0.289909        -7.8888
  34   2.0000      -0.264975        -7.2103
  35   2.0000      -0.251471        -6.8429
  36   2.0000      -0.240563        -6.5461
  37   2.0000      -0.227825        -6.1994
  38   2.0000      -0.211349        -5.7511
  39   2.0000      -0.189920        -5.1680
  40   0.0000       0.007514         0.2045
  41   0.0000       0.010613         0.2888
  42   0.0000       0.047756         1.2995
  43   0.0000       0.073647         2.0040
  44   0.0000       0.077202         2.1008

MULLIKEN ATOMIC CHARGES
-----------------------
   0 C :    0.056694
   1 C :    0.015393
   2 H :    0.053095
   3 C :   -0.006039
   4 H :    0.083056
   5 C :    0.095683
   6 H :    0.078312
   7 C :    0.160513
   8 H :    0.045773
   9 O :   -0.327150
  10 O :   -0.373738
  11 O :   -0.423984
  12 O :   -0.406752
  13 O :   -0.420001
  14 H :    0.073091
  15 H :    0.083149
  16 H :    0.301384
  17 H :    0.298320
  18 H :    0.305533
  19 H :    0.307669
Sum of atomic charges:    0.0000000

LOEWDIN ATOMIC CHARGES
----------------------
   0 C :   -0.126456
   1 C :   -0.090957
   2 H :    0.097224
   3 C :   -0.073255
   4 H :    0.109275
   5 C :   -0.074211
   6 H :    0.123034
   7 C :   -0.005638
   8 H :    0.080305
   9 O :   -0.169259
  10 O :   -0.294206
  11 O :   -0.310309
  12 O :   -0.314207
  13 O :   -0.309686
  14 H :    0.107832
  15 H :    0.110365
  16 H :    0.286904
  17 H :    0.271328
  18 H :    0.290981
  19 H :    0.290936

  Mayer bond orders larger than 0.100000
B(  0-C ,  1-C ) :   1.0514 B(  0-C ,  9-O ) :   1.0364 B(  0-C , 14-H ) :   0.8860
B(  0-C , 15-H ) :   0.9240 B(  1-C ,  2-H ) :   0.8929 B(  1-C ,  3-C ) :   0.9761
B(  1-C , 13-O ) :   1.0235 B(  3-C ,  4-H ) :   0.9078 B(  3-C ,  5-C ) :   0.9777
B(  3-C , 12-O ) :   1.0660 B(  5-C ,  6-H ) :   0.8867 B(  5-C ,  7-C ) :   0.9678
B(  5-C , 11-O ) :   1.0753 B(  7-C ,  8-H ) :   0.8875 B(  7-C ,  9-O ) :   0.9906
B(  7-C , 10-O ) :   1.2004 B( 10-O , 16-H ) :   0.8418 B( 11-O , 17-H ) :   0.8175
B( 12-O , 18-H ) :   0.8458 B( 13-O , 19-H ) :   0.8420

Dispersion correction           -0.019779878
FINAL SINGLE POINT ENERGY      -571.411483389957

DIPOLE MOMENT
-------------

Method             : SCF
Type of density    : Electron Density
Multiplicity       :   1
Irrep              :   0
Energy             :  -571.5198137701930818 Eh
Relativity type    :
Basis              : AO
                                X                 Y                 Z
Electronic contribution:     -2.396144651       0.042893537       1.824600570
Nuclear contribution   :      4.040166545       0.701863798      -2.496772002
                        -----------------------------------------
Total Dipole Moment    :      1.644021894       0.744757334      -0.672171432
                        -----------------------------------------
Magnitude (a.u.)       :      1.925950651
Magnitude (Debye)      :      4.895377512

Rotational constants in cm-1:             0.057494             0.040671             0.038715
Rotational constants in MHz :          1723.627914          1219.294249          1160.631857

                             ****ORCA TERMINATED NORMALLY****
TOTAL RUN TIME: 0 days 0 hours 0 minutes 11 seconds 227 msec
