                         Program Version 6.0.1  -  RELEASE   -
|  1> ! pbe def2-sv(p) def2/J RI DEFGRID1 loosescf d4 GCP(DFT/SV(P)) printgap
|  2> %output
|  3>     printlevel normal
|  4> end
|  5> * xyz 0 1
|  6> C 4.1383496129 -2.2601681555 1.1595886962
|  7> C 2.674872864 -2.1814449138 0.7720861607
|  8> O 2.5295556043 -1.1489791638 -0.2221958614
|  9> C 1.4630064014 -1.153600268 -0.9890307721
| 10> O 0.5596764619 -1.9635920262 -0.9119193152
| 11> C 1.4832283803 -0.0205127752 -1.9941415965
| 12> C 0.3279461584 0.9503669694 -1.7323552977
| 13> H 0.3029402031 1.7035148952 -2.5251876487
| 14> C 0.4514660997 1.6622547037 -0.3986269966
| 15> O -0.491180609 1.7700431434 0.3666282785
| 16> O 1.6467744152 2.1251450477 -0.1928116623
| 17> C 1.9419944274 2.8341033443 1.0324651362
| 18> C 2.7583905329 4.0665300731 0.6911312675
| 19> S -1.3135920938 0.1492221605 -1.8025734959
| 20> P -1.7730783313 -0.3564385131 0.2113305397
| 21> S -0.558610784 -0.7825848682 1.7051768792
| 22> O -2.9821509661 0.6076974384 0.5852890554
| 23> C -2.9909079553 1.5527340772 1.6541180058
| 24> O -2.7433245714 -1.5948679141 -0.1049142148
| 25> C -2.2802018817 -2.8951643537 -0.4644187443
| 26> H 4.2636462139 -3.0253075526 1.9182017435
| 27> H 4.7421963404 -2.511227601 0.2925079914
| 28> H 4.4694201106 -1.3056974977 1.5565785641
| 29> H 2.0381439842 -1.9208954927 1.6240264157
| 30> H 2.3100859984 -3.1216806247 0.3467189411
| 31> H 1.3542950871 -0.4467780032 -2.9891759308
| 32> H 2.4315216144 0.5101428693 -1.9194631975
| 33> H 1.0022346602 3.0857715887 1.5301674001
| 34> H 2.5069221998 2.1416240448 1.6613714097
| 35> H 3.6603864078 3.7786275522 0.1603160615
| 36> H 2.1818663187 4.7439958661 0.0677124983
| 37> H 3.0308945867 4.5754077154 1.6096406495
| 38> H -3.991993098 1.5198960948 2.0783643868
| 39> H -2.767626136 2.541989247 1.2581466942
| 40> H -2.2485449651 1.2820316323 2.4075034616
| 41> H -1.5098210592 -3.2268961363 0.2333868983
| 42> H -1.8672839582 -2.8860027433 -1.4728797215
| 43> H -3.1536064247 -3.5400222249 -0.4081356505
| 44> *
| 45>
| 46>                          ****END OF INPUT****

CARTESIAN COORDINATES (ANGSTROEM)
---------------------------------
  C      4.138350   -2.260168    1.159589
  C      2.674873   -2.181445    0.772086
  O      2.529556   -1.148979   -0.222196
  C      1.463006   -1.153600   -0.989031
  O      0.559676   -1.963592   -0.911919
  C      1.483228   -0.020513   -1.994142
  C      0.327946    0.950367   -1.732355
  H      0.302940    1.703515   -2.525188
  C      0.451466    1.662255   -0.398627
  O     -0.491181    1.770043    0.366628
  O      1.646774    2.125145   -0.192812
  C      1.941994    2.834103    1.032465
  C      2.758391    4.066530    0.691131
  S     -1.313592    0.149222   -1.802573
  P     -1.773078   -0.356439    0.211331
  S     -0.558611   -0.782585    1.705177
  O     -2.982151    0.607697    0.585289
  C     -2.990908    1.552734    1.654118
  O     -2.743325   -1.594868   -0.104914
  C     -2.280202   -2.895164   -0.464419
  H      4.263646   -3.025308    1.918202
  H      4.742196   -2.511228    0.292508
  H      4.469420   -1.305697    1.556579
  H      2.038144   -1.920895    1.624026
  H      2.310086   -3.121681    0.346719
  H      1.354295   -0.446778   -2.989176
  H      2.431522    0.510143   -1.919463
  H      1.002235    3.085772    1.530167
  H      2.506922    2.141624    1.661371
  H      3.660386    3.778628    0.160316
  H      2.181866    4.743996    0.067712
  H      3.030895    4.575408    1.609641
  H     -3.991993    1.519896    2.078364
  H     -2.767626    2.541989    1.258147
  H     -2.248545    1.282032    2.407503
  H     -1.509821   -3.226896    0.233387
  H     -1.867284   -2.886003   -1.472880
  H     -3.153606   -3.540022   -0.408136

 Total Charge           Charge          ....    0
 Multiplicity           Mult            ....    1
 Number of Electrons    NEL             ....  174
 Basis Dimension        Dim             ....  316

ORBITAL ENERGIES
----------------

  NO   OCC          E(Eh)            E(eV)
   0   2.0000     -88.025716     -2395.3015
   1   2.0000     -87.963307     -2393.6033
   2   2.0000     -76.411360     -2079.2588
   3   2.0000     -18.828383      -512.3463
   4   2.0000     -18.803427      -511.6673
   5   2.0000     -18.764619      -510.6112
   6   2.0000     -18.762062      -510.5417
   7   2.0000     -18.761692      -510.5316
   8   2.0000     -18.734165      -509.7826
   9   2.0000     -10.032439      -272.9965
  10   2.0000     -10.008389      -272.3421
  11   2.0000      -9.962433      -271.0916
  12   2.0000      -9.955931      -270.9147
  13   2.0000      -9.940983      -270.5079
  14   2.0000      -9.922227      -269.9975
  15   2.0000      -9.915520      -269.8150
  16   2.0000      -9.914450      -269.7859
  17   2.0000      -9.901791      -269.4414
  18   2.0000      -9.887560      -269.0542
  19   2.0000      -7.670960      -208.7374
  20   2.0000      -7.608413      -207.0355
  21   2.0000      -6.406254      -174.3230
  22   2.0000      -5.699381      -155.0880
  23   2.0000      -5.695636      -154.9861
  24   2.0000      -5.687126      -154.7546
  25   2.0000      -5.637564      -153.4059
  26   2.0000      -5.629104      -153.1757
  27   2.0000      -5.628180      -153.1506
  28   2.0000      -4.628838      -125.9571
  29   2.0000      -4.628467      -125.9470
  30   2.0000      -4.626819      -125.9021
  31   2.0000      -1.037615       -28.2349
  32   2.0000      -1.009219       -27.4623
  33   2.0000      -0.959647       -26.1133
  34   2.0000      -0.940496       -25.5922
  35   2.0000      -0.913706       -24.8632
  36   2.0000      -0.911695       -24.8085
  37   2.0000      -0.767471       -20.8840
  38   2.0000      -0.721624       -19.6364
  39   2.0000      -0.709483       -19.3060
  40   2.0000      -0.682028       -18.5589
  41   2.0000      -0.650459       -17.6999
  42   2.0000      -0.626615       -17.0511
  43   2.0000      -0.612341       -16.6626
  44   2.0000      -0.598200       -16.2779
  45   2.0000      -0.590497       -16.0682
  46   2.0000      -0.564621       -15.3641
  47   2.0000      -0.523725       -14.2513
  48   2.0000      -0.508097       -13.8260
  49   2.0000      -0.497307       -13.5324
  50   2.0000      -0.486788       -13.2462
  51   2.0000      -0.460463       -12.5298
  52   2.0000      -0.451852       -12.2955
  53   2.0000      -0.451044       -12.2735
  54   2.0000      -0.445152       -12.1132
  55   2.0000      -0.428854       -11.6697
  56   2.0000      -0.424279       -11.5452
  57   2.0000      -0.410970       -11.1831
  58   2.0000      -0.402593       -10.9551
  59   2.0000      -0.400527       -10.8989
  60   2.0000      -0.393977       -10.7207
  61   2.0000      -0.387632       -10.5480
  62   2.0000      -0.383065       -10.4237
  63   2.0000      -0.375483       -10.2174
  64   2.0000      -0.373696       -10.1688
  65   2.0000      -0.368867       -10.0374
  66   2.0000      -0.363006        -9.8779
  67   2.0000      -0.359429        -9.7806
  68   2.0000      -0.354747        -9.6532
  69   2.0000      -0.344224        -9.3668
  70   2.0000      -0.339878        -9.2486
  71   2.0000      -0.335864        -9.1393
  72   2.0000      -0.315844        -8.5946
  73   2.0000      -0.314397        -8.5552
  74   2.0000      -0.298688        -8.1277
  75   2.0000      -0.294800        -8.0219
  76   2.0000      -0.287802        -7.8315
  77   2.0000      -0.277846        -7.5606
  78   2.0000      -0.265541        -7.2257
  79   2.0000      -0.262173        -7.1341
  80   2.0000      -0.253127        -6.8879
  81   2.0000      -0.240120        -6.5340
  82   2.0000      -0.235599        -6.4110
  83   2.0000      -0.227152        -6.1811
  84   2.0000      -0.196148        -5.3375
  85   2.0000      -0.179511        -4.8848
  86   2.0000      -0.174989        -4.7617
  87   0.0000      -0.049363        -1.3432
  88   0.0000      -0.036967        -1.0059
  89   0.0000      -0.026937        -0.7330
  90   0.0000       0.008451         0.2300
  91   0.0000       0.026379         0.7178

MULLIKEN ATOMIC CHARGES
-----------------------
   0 C :   -0.274270
   1 C :   -0.038933
   2 O :   -0.226498
   3 C :    0.083813
   4 O :   -0.191853
   5 C :   -0.018610
   6 C :   -0.325287
   7 H :    0.155924
   8 C :    0.214723
   9 O :   -0.189301
  10 O :   -0.216945
  11 C :   -0.025191
  12 C :   -0.288935
  13 S :   -0.080396
  14 P :    0.643156
  15 S :   -0.363001
  16 O :   -0.372846
  17 C :   -0.083794
  18 O :   -0.379101
  19 C :   -0.090317
  20 H :    0.112849
  21 H :    0.110313
  22 H :    0.109370
  23 H :    0.127180
  24 H :    0.106993
  25 H :    0.120489
  26 H :    0.111194
  27 H :    0.126227
  28 H :    0.119089
  29 H :    0.120021
  30 H :    0.116951
  31 H :    0.119622
  32 H :    0.113764
  33 H :    0.105783
  34 H :    0.111563
  35 H :    0.112698
  36 H :    0.112765
  37 H :    0.110790
Sum of atomic charges:    0.0000000

LOEWDIN ATOMIC CHARGES
----------------------
   0 C :   -0.350954
   1 C :   -0.112349
   2 O :   -0.052290
   3 C :    0.018623
   4 O :   -0.163962
   5 C :   -0.248435
   6 C :   -0.262242
   7 H :    0.152506
   8 C :    0.020212
   9 O :   -0.149685
  10 O :   -0.032754
  11 C :   -0.103274
  12 C :   -0.350962
  13 S :    0.110268
  14 P :    0.594506
  15 S :   -0.332554
  16 O :   -0.246223
  17 C :   -0.211070
  18 O :   -0.256585
  19 C :   -0.215546
  20 H :    0.131243
  21 H :    0.123969
  22 H :    0.123751
  23 H :    0.116643
  24 H :    0.117591
  25 H :    0.145626
  26 H :    0.136348
  27 H :    0.125479
  28 H :    0.125172
  29 H :    0.128241
  30 H :    0.127768
  31 H :    0.134486
  32 H :    0.114794
  33 H :    0.107804
  34 H :    0.104773
  35 H :    0.107813
  36 H :    0.107389
  37 H :    0.113883

  Mayer bond orders larger than 0.100000
B(  0-C ,  1-C ) :   1.1515 B(  0-C , 20-H ) :   0.9448 B(  0-C , 21-H ) :   0.9514
B(  0-C , 22-H ) :   0.9491 B(  1-C ,  2-O ) :   0.8974 B(  1-C , 23-H ) :   0.9208
B(  1-C , 24-H ) :   0.9228 B(  2-O ,  3-C ) :   1.2466 B(  3-C ,  4-O ) :   1.9976
B(  3-C ,  5-C ) :   1.0056 B(  5-C ,  6-C ) :   1.0250 B(  5-C , 25-H ) :   0.8895
B(  5-C , 26-H ) :   0.8849 B(  6-C ,  7-H ) :   0.8725 B(  6-C ,  8-C ) :   0.8983
B(  6-C , 13-S ) :   1.0505 B(  8-C ,  9-O ) :   1.9386 B(  8-C , 10-O ) :   1.2779
B(  9-O , 14-P ) :   0.1157 B( 10-O , 11-C ) :   0.8847 B( 11-C , 12-C ) :   1.1647
B( 11-C , 27-H ) :   0.9129 B( 11-C , 28-H ) :   0.9328 B( 12-C , 29-H ) :   0.9484
B( 12-C , 30-H ) :   0.9510 B( 12-C , 31-H ) :   0.9432 B( 13-S , 14-P ) :   0.9220
B( 13-S , 15-S ) :   0.1229 B( 14-P , 15-S ) :   1.5210 B( 14-P , 16-O ) :   1.1219
B( 14-P , 18-O ) :   1.0953 B( 16-O , 17-C ) :   0.9388 B( 17-C , 32-H ) :   0.9560
B( 17-C , 33-H ) :   0.9542 B( 17-C , 34-H ) :   0.9292 B( 18-O , 19-C ) :   0.9427
B( 19-C , 35-H ) :   0.9381 B( 19-C , 36-H ) :   0.9468 B( 19-C , 37-H ) :   0.9573

Dispersion correction           -0.054458281
FINAL SINGLE POINT ENERGY     -1979.000235341108

DIPOLE MOMENT
-------------

Method             : SCF
Type of density    : Electron Density
Multiplicity       :   1
Irrep              :   0
Energy             : -1979.1294947527958357 Eh
Relativity type    :
Basis              : AO
                                X                 Y                 Z
Electronic contribution:    -17.384946087      -2.895143951      -6.993318167
Nuclear contribution   :     19.212565707       3.991240759       6.777312720
                        -----------------------------------------
Total Dipole Moment    :      1.827619620       1.096096809      -0.216005447
                        -----------------------------------------
Magnitude (a.u.)       :      2.142027087
Magnitude (Debye)      :      5.444600165

Rotational constants in cm-1:             0.011613             0.009084             0.006949
Rotational constants in MHz :           348.157742           272.336444           208.338928

                             ****ORCA TERMINATED NORMALLY****
TOTAL RUN TIME: 0 days 0 hours 0 minutes 37 seconds 722 msec
