                         Program Version 6.0.1  -  RELEASE   -
|  1> ! r2scan-3c def2/J RI DEFGRID2 scfconv6 printgap
|  2> %output
|  3>     printlevel normal
|  4> end
|  5> * xyz 0 1
|  6> C 3.0840794627 -4.4355216328 -0.9886434893
|  7> C 3.8295683027 -3.194057976 -1.4520126534
|  8> O 3.4897992991 -2.0592997348 -0.6315779578
|  9> C 2.4270080046 -1.3487365567 -0.9530352258
| 10> O 1.7222779151 -1.5550877698 -1.9151683588
| 11> C 2.2149260067 -0.2140838686 0.0330635383
| 12> C 0.7861371989 0.2969643975 -0.0512567143
| 13> H 0.5158309351 0.454508013 -1.1042556611
| 14> C 0.5387849185 1.5998281755 0.681348954
| 15> O -0.4737450547 1.8001530109 1.3226949172
| 16> O 1.5008632469 2.4647116343 0.5187082846
| 17> C 1.333158402 3.7727015609 1.111644398
| 18> C 2.603609171 4.5611771292 0.8679050719
| 19> S -0.3831279604 -0.936891626 0.616199266
| 20> P -2.1839362893 0.0894678223 0.1533144293
| 21> S -2.1315447134 1.4234568192 -1.2782011724
| 22> O -3.1370480299 -1.1568522236 -0.2103416493
| 23> C -2.9447759374 -1.9076326335 -1.4107281761
| 24> O -2.9048372289 0.5721586225 1.4706827545
| 25> C -3.0751063939 -0.2823137759 2.6185044821
| 26> H 3.2983916099 -4.6319848314 0.0580751701
| 27> H 2.0124920942 -4.2931775732 -1.1089220051
| 28> H 3.39649206 -5.2862712444 -1.5850933952
| 29> H 3.584178841 -2.960046335 -2.4917583353
| 30> H 4.9068359478 -3.3068701969 -1.3302679241
| 31> H 2.8993376333 0.596608643 -0.2262786692
| 32> H 2.4545356738 -0.5684283251 1.0353111474
| 33> H 0.4613062064 4.2439340846 0.6477259011
| 34> H 1.127587199 3.6410066959 2.1779741069
| 35> H 2.4917361631 5.5540711534 1.2902212056
| 36> H 3.4482662226 4.0659005127 1.3367470577
| 37> H 2.7900239915 4.6457230034 -0.1983462033
| 38> H -2.0085458056 -2.4646365804 -1.3593733059
| 39> H -2.9260692794 -1.237763513 -2.2721368933
| 40> H -3.7922452033 -2.5851415475 -1.4722832063
| 41> H -3.5219815669 0.3542637823 3.3775940002
| 42> H -2.1059311632 -0.6550339678 2.9502702451
| 43> H -3.7322718004 -1.1130071653 2.3671819412
| 44> *
| 45>
| 46>                          ****END OF INPUT****

CARTESIAN COORDINATES (ANGSTROEM)
---------------------------------
  C      3.084079   -4.435522   -0.988643
  C      3.829568   -3.194058   -1.452013
  O      3.489799   -2.059300   -0.631578
  C      2.427008   -1.348737   -0.953035
  O      1.722278   -1.555088   -1.915168
  C      2.214926   -0.214084    0.033064
  C      0.786137    0.296964   -0.051257
  H      0.515831    0.454508   -1.104256
  C      0.538785    1.599828    0.681349
  O     -0.473745    1.800153    1.322695
  O      1.500863    2.464712    0.518708
  C      1.333158    3.772702    1.111644
  C      2.603609    4.561177    0.867905
  S     -0.383128   -0.936892    0.616199
  P     -2.183936    0.089468    0.153314
  S     -2.131545    1.423457   -1.278201
  O     -3.137048   -1.156852   -0.210342
  C     -2.944776   -1.907633   -1.410728
  O     -2.904837    0.572159    1.470683
  C     -3.075106   -0.282314    2.618504
  H      3.298392   -4.631985    0.058075
  H      2.012492   -4.293178   -1.108922
  H      3.396492   -5.286271   -1.585093
  H      3.584179   -2.960046   -2.491758
  H      4.906836   -3.306870   -1.330268
  H      2.899338    0.596609   -0.226279
  H      2.454536   -0.568428    1.035311
  H      0.461306    4.243934    0.647726
  H      1.127587    3.641007    2.177974
  H      2.491736    5.554071    1.290221
  H      3.448266    4.065901    1.336747
  H      2.790024    4.645723   -0.198346
  H     -2.008546   -2.464637   -1.359373
  H     -2.926069   -1.237764   -2.272137
  H     -3.792245   -2.585142   -1.472283
  H     -3.521982    0.354264    3.377594
  H     -2.105931   -0.655034    2.950270
  H     -3.732272   -1.113007    2.367182

 Total Charge           Charge          ....    0
 Multiplicity           Mult            ....    1
 Number of Electrons    NEL             ....  174
 Basis Dimension        Dim             ....  510

ORBITAL ENERGIES
----------------

  NO   OCC          E(Eh)            E(eV)
   0   2.0000     -88.567278     -2410.0382
   1   2.0000     -88.503710     -2408.3084
   2   2.0000     -76.902455     -2092.6222
   3   2.0000     -19.014140      -517.4011
   4   2.0000     -19.008765      -517.2548
   5   2.0000     -18.979011      -516.4451
   6   2.0000     -18.974714      -516.3282
   7   2.0000     -18.940636      -515.4009
   8   2.0000     -18.937967      -515.3283
   9   2.0000     -10.166219      -276.6369
  10   2.0000     -10.164995      -276.6036
  11   2.0000     -10.101329      -274.8711
  12   2.0000     -10.099847      -274.8308
  13   2.0000     -10.091751      -274.6105
  14   2.0000     -10.086894      -274.4783
  15   2.0000     -10.076192      -274.1871
  16   2.0000     -10.066917      -273.9347
  17   2.0000     -10.039038      -273.1761
  18   2.0000     -10.035087      -273.0686
  19   2.0000      -7.861641      -213.9261
  20   2.0000      -7.798636      -212.2117
  21   2.0000      -6.580257      -179.0579
  22   2.0000      -5.808477      -158.0567
  23   2.0000      -5.805668      -157.9803
  24   2.0000      -5.798622      -157.7885
  25   2.0000      -5.746566      -156.3720
  26   2.0000      -5.739018      -156.1666
  27   2.0000      -5.738219      -156.1449
  28   2.0000      -4.725952      -128.5997
  29   2.0000      -4.725458      -128.5863
  30   2.0000      -4.723700      -128.5384
  31   2.0000      -1.091776       -29.7087
  32   2.0000      -1.085441       -29.5363
  33   2.0000      -1.036000       -28.1910
  34   2.0000      -0.993573       -27.0365
  35   2.0000      -0.990255       -26.9462
  36   2.0000      -0.989351       -26.9216
  37   2.0000      -0.810234       -22.0476
  38   2.0000      -0.760054       -20.6821
  39   2.0000      -0.753339       -20.4994
  40   2.0000      -0.725070       -19.7301
  41   2.0000      -0.694840       -18.9076
  42   2.0000      -0.663139       -18.0449
  43   2.0000      -0.657765       -17.8987
  44   2.0000      -0.643080       -17.4991
  45   2.0000      -0.631008       -17.1706
  46   2.0000      -0.595243       -16.1974
  47   2.0000      -0.545500       -14.8438
  48   2.0000      -0.532542       -14.4912
  49   2.0000      -0.524483       -14.2719
  50   2.0000      -0.500937       -13.6312
  51   2.0000      -0.484399       -13.1812
  52   2.0000      -0.480614       -13.0782
  53   2.0000      -0.472124       -12.8471
  54   2.0000      -0.468090       -12.7374
  55   2.0000      -0.452838       -12.3224
  56   2.0000      -0.446992       -12.1633
  57   2.0000      -0.439321       -11.9545
  58   2.0000      -0.436452       -11.8765
  59   2.0000      -0.426630       -11.6092
  60   2.0000      -0.417962       -11.3733
  61   2.0000      -0.410179       -11.1615
  62   2.0000      -0.406536       -11.0624
  63   2.0000      -0.402185       -10.9440
  64   2.0000      -0.392189       -10.6720
  65   2.0000      -0.383891       -10.4462
  66   2.0000      -0.379855       -10.3364
  67   2.0000      -0.375486       -10.2175
  68   2.0000      -0.366237        -9.9658
  69   2.0000      -0.357645        -9.7320
  70   2.0000      -0.348492        -9.4829
  71   2.0000      -0.344543        -9.3755
  72   2.0000      -0.336268        -9.1503
  73   2.0000      -0.328524        -8.9396
  74   2.0000      -0.324845        -8.8395
  75   2.0000      -0.316467        -8.6115
  76   2.0000      -0.307324        -8.3627
  77   2.0000      -0.301449        -8.2028
  78   2.0000      -0.286331        -7.7915
  79   2.0000      -0.283140        -7.7046
  80   2.0000      -0.276396        -7.5211
  81   2.0000      -0.263579        -7.1723
  82   2.0000      -0.251344        -6.8394
  83   2.0000      -0.246873        -6.7178
  84   2.0000      -0.227236        -6.1834
  85   2.0000      -0.205966        -5.6046
  86   2.0000      -0.198131        -5.3914
  87   0.0000      -0.041826        -1.1381
  88   0.0000      -0.028146        -0.7659
  89   0.0000      -0.017504        -0.4763
  90   0.0000       0.011535         0.3139
  91   0.0000       0.030293         0.8243

MULLIKEN ATOMIC CHARGES
-----------------------
   0 C :   -0.465007
   1 C :   -0.139300
   2 O :   -0.172122
   3 C :    0.381662
   4 O :   -0.416096
   5 C :   -0.428541
   6 C :   -0.020551
   7 H :    0.258113
   8 C :    0.339793
   9 O :   -0.398503
  10 O :   -0.149321
  11 C :   -0.150493
  12 C :   -0.447742
  13 S :   -0.224081
  14 P :    0.810056
  15 S :   -0.464729
  16 O :   -0.360539
  17 C :   -0.294899
  18 O :   -0.304223
  19 C :   -0.297395
  20 H :    0.153427
  21 H :    0.173129
  22 H :    0.149186
  23 H :    0.169547
  24 H :    0.150237
  25 H :    0.202925
  26 H :    0.189626
  27 H :    0.169157
  28 H :    0.160869
  29 H :    0.152001
  30 H :    0.151773
  31 H :    0.156978
  32 H :    0.157874
  33 H :    0.174292
  34 H :    0.146233
  35 H :    0.155068
  36 H :    0.164597
  37 H :    0.167001
Sum of atomic charges:   -0.0000000

LOEWDIN ATOMIC CHARGES
----------------------
   0 C :   -0.387683
   1 C :    0.030507
   2 O :   -0.584504
   3 C :    0.354876
   4 O :   -0.433214
   5 C :   -0.203419
   6 C :   -0.198647
   7 H :    0.224646
   8 C :    0.346533
   9 O :   -0.443505
  10 O :   -0.582963
  11 C :    0.041679
  12 C :   -0.384929
  13 S :    0.206043
  14 P :    0.407870
  15 S :   -0.087562
  16 O :   -0.693966
  17 C :   -0.064788
  18 O :   -0.638808
  19 C :   -0.050983
  20 H :    0.157931
  21 H :    0.166154
  22 H :    0.160353
  23 H :    0.188804
  24 H :    0.178942
  25 H :    0.205305
  26 H :    0.191073
  27 H :    0.185619
  28 H :    0.182516
  29 H :    0.162164
  30 H :    0.158784
  31 H :    0.161572
  32 H :    0.169156
  33 H :    0.176340
  34 H :    0.173953
  35 H :    0.180130
  36 H :    0.172193
  37 H :    0.171830

  Mayer bond orders larger than 0.100000
B(  0-C ,  1-C ) :   0.9414 B(  0-C , 20-H ) :   0.9733 B(  0-C , 21-H ) :   0.9697
B(  0-C , 22-H ) :   0.9642 B(  1-C ,  2-O ) :   0.8039 B(  1-C , 23-H ) :   0.9663
B(  1-C , 24-H ) :   0.9612 B(  2-O ,  3-C ) :   1.0990 B(  3-C ,  4-O ) :   1.8411
B(  3-C ,  5-C ) :   0.9545 B(  5-C ,  6-C ) :   0.9011 B(  5-C , 25-H ) :   0.9216
B(  5-C , 26-H ) :   0.9676 B(  6-C ,  7-H ) :   0.9096 B(  6-C ,  8-C ) :   0.8858
B(  6-C , 13-S ) :   0.8785 B(  8-C ,  9-O ) :   1.8083 B(  8-C , 10-O ) :   1.1965
B( 10-O , 11-C ) :   0.7815 B( 11-C , 12-C ) :   0.9433 B( 11-C , 27-H ) :   0.9472
B( 11-C , 28-H ) :   0.9529 B( 12-C , 29-H ) :   0.9665 B( 12-C , 30-H ) :   0.9736
B( 12-C , 31-H ) :   0.9708 B( 13-S , 14-P ) :   0.9756 B( 14-P , 15-S ) :   1.7843
B( 14-P , 16-O ) :   1.0104 B( 14-P , 18-O ) :   1.1925 B( 16-O , 17-C ) :   0.8398
B( 17-C , 32-H ) :   0.9540 B( 17-C , 33-H ) :   0.9583 B( 17-C , 34-H ) :   0.9693
B( 18-O , 19-C ) :   0.7963 B( 19-C , 35-H ) :   0.9656 B( 19-C , 36-H ) :   0.9592
B( 19-C , 37-H ) :   0.9633

Dispersion correction           -0.016325346
FINAL SINGLE POINT ENERGY     -1981.448176460798

DIPOLE MOMENT
-------------

Method             : SCF
Type of density    : Electron Density
Multiplicity       :   1
Irrep              :   0
Energy             : -1981.4693011514464160 Eh
Relativity type    :
Basis              : AO
                                X                 Y                 Z
Electronic contribution:    -14.586212496       4.578153571      -0.917258072
Nuclear contribution   :     16.381072862      -5.296473477       1.853412190
                        -----------------------------------------
Total Dipole Moment    :      1.794860367      -0.718319906       0.936154118
                        -----------------------------------------
Magnitude (a.u.)       :      2.147997150
Magnitude (Debye)      :      5.459774859

Rotational constants in cm-1:             0.010009             0.007313             0.004975
Rotational constants in MHz :           300.070122           219.249120           149.159459

                             ****ORCA TERMINATED NORMALLY****
TOTAL RUN TIME: 0 days 0 hours 1 minutes 10 seconds 644 msec
