                         Program Version 6.0.1  -  RELEASE   -
|  1> ! r2scan-3c def2/J RI DEFGRID2 scfconv6 printgap
|  2> %output
|  3>     printlevel normal
|  4> end
|  5> %cpcm
|  6>     smd true
|  7>     smdsolvent "water"
|  8> end
|  9> * xyz 0 1
| 10> C 3.0840794627 -4.4355216328 -0.9886434893
| 11> C 3.8295683027 -3.194057976 -1.4520126534
| 12> O 3.4897992991 -2.0592997348 -0.6315779578
| 13> C 2.4270080046 -1.3487365567 -0.9530352258
| 14> O 1.7222779151 -1.5550877698 -1.9151683588
| 15> C 2.2149260067 -0.2140838686 0.0330635383
| 16> C 0.7861371989 0.2969643975 -0.0512567143
| 17> H 0.5158309351 0.454508013 -1.1042556611
| 18> C 0.5387849185 1.5998281755 0.681348954
| 19> O -0.4737450547 1.8001530109 1.3226949172
| 20> O 1.5008632469 2.4647116343 0.5187082846
| 21> C 1.333158402 3.7727015609 1.111644398
| 22> C 2.603609171 4.5611771292 0.8679050719
| 23> S -0.3831279604 -0.936891626 0.616199266
| 24> P -2.1839362893 0.0894678223 0.1533144293
| 25> S -2.1315447134 1.4234568192 -1.2782011724
| 26> O -3.1370480299 -1.1568522236 -0.2103416493
| 27> C -2.9447759374 -1.9076326335 -1.4107281761
| 28> O -2.9048372289 0.5721586225 1.4706827545
| 29> C -3.0751063939 -0.2823137759 2.6185044821
| 30> H 3.2983916099 -4.6319848314 0.0580751701
| 31> H 2.0124920942 -4.2931775732 -1.1089220051
| 32> H 3.39649206 -5.2862712444 -1.5850933952
| 33> H 3.584178841 -2.960046335 -2.4917583353
| 34> H 4.9068359478 -3.3068701969 -1.3302679241
| 35> H 2.8993376333 0.596608643 -0.2262786692
| 36> H 2.4545356738 -0.5684283251 1.0353111474
| 37> H 0.4613062064 4.2439340846 0.6477259011
| 38> H 1.127587199 3.6410066959 2.1779741069
| 39> H 2.4917361631 5.5540711534 1.2902212056
| 40> H 3.4482662226 4.0659005127 1.3367470577
| 41> H 2.7900239915 4.6457230034 -0.1983462033
| 42> H -2.0085458056 -2.4646365804 -1.3593733059
| 43> H -2.9260692794 -1.237763513 -2.2721368933
| 44> H -3.7922452033 -2.5851415475 -1.4722832063
| 45> H -3.5219815669 0.3542637823 3.3775940002
| 46> H -2.1059311632 -0.6550339678 2.9502702451
| 47> H -3.7322718004 -1.1130071653 2.3671819412
| 48> *
| 49>
| 50>                          ****END OF INPUT****

CARTESIAN COORDINATES (ANGSTROEM)
---------------------------------
  C      3.084079   -4.435522   -0.988643
  C      3.829568   -3.194058   -1.452013
  O      3.489799   -2.059300   -0.631578
  C      2.427008   -1.348737   -0.953035
  O      1.722278   -1.555088   -1.915168
  C      2.214926   -0.214084    0.033064
  C      0.786137    0.296964   -0.051257
  H      0.515831    0.454508   -1.104256
  C      0.538785    1.599828    0.681349
  O     -0.473745    1.800153    1.322695
  O      1.500863    2.464712    0.518708
  C      1.333158    3.772702    1.111644
  C      2.603609    4.561177    0.867905
  S     -0.383128   -0.936892    0.616199
  P     -2.183936    0.089468    0.153314
  S     -2.131545    1.423457   -1.278201
  O     -3.137048   -1.156852   -0.210342
  C     -2.944776   -1.907633   -1.410728
  O     -2.904837    0.572159    1.470683
  C     -3.075106   -0.282314    2.618504
  H      3.298392   -4.631985    0.058075
  H      2.012492   -4.293178   -1.108922
  H      3.396492   -5.286271   -1.585093
  H      3.584179   -2.960046   -2.491758
  H      4.906836   -3.306870   -1.330268
  H      2.899338    0.596609   -0.226279
  H      2.454536   -0.568428    1.035311
  H      0.461306    4.243934    0.647726
  H      1.127587    3.641007    2.177974
  H      2.491736    5.554071    1.290221
  H      3.448266    4.065901    1.336747
  H      2.790024    4.645723   -0.198346
  H     -2.008546   -2.464637   -1.359373
  H     -2.926069   -1.237764   -2.272137
  H     -3.792245   -2.585142   -1.472283
  H     -3.521982    0.354264    3.377594
  H     -2.105931   -0.655034    2.950270
  H     -3.732272   -1.113007    2.367182

 Total Charge           Charge          ....    0
 Multiplicity           Mult            ....    1
 Number of Electrons    NEL             ....  174
 Basis Dimension        Dim             ....  510

ORBITAL ENERGIES
----------------

  NO   OCC          E(Eh)            E(eV)
   0   2.0000     -88.577916     -2410.3276
   1   2.0000     -88.524936     -2408.8860
   2   2.0000     -76.919237     -2093.0788
   3   2.0000     -19.015790      -517.4459
   4   2.0000     -19.008477      -517.2470
   5   2.0000     -18.995016      -516.8807
   6   2.0000     -18.988449      -516.7020
   7   2.0000     -18.951537      -515.6975
   8   2.0000     -18.950283      -515.6634
   9   2.0000     -10.175280      -276.8834
  10   2.0000     -10.172075      -276.7962
  11   2.0000     -10.096747      -274.7465
  12   2.0000     -10.089870      -274.5593
  13   2.0000     -10.086158      -274.4583
  14   2.0000     -10.084545      -274.4144
  15   2.0000     -10.078351      -274.2459
  16   2.0000     -10.060317      -273.7552
  17   2.0000     -10.020709      -272.6774
  18   2.0000     -10.019462      -272.6434
  19   2.0000      -7.872200      -214.2135
  20   2.0000      -7.820218      -212.7990
  21   2.0000      -6.597184      -179.5185
  22   2.0000      -5.819030      -158.3438
  23   2.0000      -5.816231      -158.2677
  24   2.0000      -5.809195      -158.0762
  25   2.0000      -5.768002      -156.9553
  26   2.0000      -5.760643      -156.7551
  27   2.0000      -5.759832      -156.7330
  28   2.0000      -4.742869      -129.0600
  29   2.0000      -4.742290      -129.0443
  30   2.0000      -4.740746      -129.0022
  31   2.0000      -1.095661       -29.8144
  32   2.0000      -1.086863       -29.5750
  33   2.0000      -1.050893       -28.5962
  34   2.0000      -1.007163       -27.4063
  35   2.0000      -1.000949       -27.2372
  36   2.0000      -0.997623       -27.1467
  37   2.0000      -0.812761       -22.1164
  38   2.0000      -0.751072       -20.4377
  39   2.0000      -0.748235       -20.3605
  40   2.0000      -0.729105       -19.8399
  41   2.0000      -0.696106       -18.9420
  42   2.0000      -0.666767       -18.1436
  43   2.0000      -0.659632       -17.9495
  44   2.0000      -0.653884       -17.7931
  45   2.0000      -0.622094       -16.9280
  46   2.0000      -0.591210       -16.0876
  47   2.0000      -0.542632       -14.7658
  48   2.0000      -0.532251       -14.4833
  49   2.0000      -0.524843       -14.2817
  50   2.0000      -0.501864       -13.6564
  51   2.0000      -0.489703       -13.3255
  52   2.0000      -0.487438       -13.2639
  53   2.0000      -0.474785       -12.9196
  54   2.0000      -0.464217       -12.6320
  55   2.0000      -0.459684       -12.5086
  56   2.0000      -0.452635       -12.3168
  57   2.0000      -0.444811       -12.1039
  58   2.0000      -0.444418       -12.0932
  59   2.0000      -0.427858       -11.6426
  60   2.0000      -0.422252       -11.4901
  61   2.0000      -0.409499       -11.1430
  62   2.0000      -0.404514       -11.0074
  63   2.0000      -0.397855       -10.8262
  64   2.0000      -0.396124       -10.7791
  65   2.0000      -0.378773       -10.3069
  66   2.0000      -0.371212       -10.1012
  67   2.0000      -0.365680        -9.9507
  68   2.0000      -0.362030        -9.8514
  69   2.0000      -0.356082        -9.6895
  70   2.0000      -0.347687        -9.4610
  71   2.0000      -0.340880        -9.2758
  72   2.0000      -0.332726        -9.0539
  73   2.0000      -0.330008        -8.9800
  74   2.0000      -0.324528        -8.8309
  75   2.0000      -0.317324        -8.6348
  76   2.0000      -0.312059        -8.4915
  77   2.0000      -0.307617        -8.3707
  78   2.0000      -0.288786        -7.8583
  79   2.0000      -0.287321        -7.8184
  80   2.0000      -0.283927        -7.7261
  81   2.0000      -0.275826        -7.5056
  82   2.0000      -0.263615        -7.1733
  83   2.0000      -0.258713        -7.0399
  84   2.0000      -0.240251        -6.5376
  85   2.0000      -0.227639        -6.1944
  86   2.0000      -0.220115        -5.9896
  87   0.0000      -0.051546        -1.4026
  88   0.0000      -0.037414        -1.0181
  89   0.0000      -0.022656        -0.6165
  90   0.0000       0.002077         0.0565
  91   0.0000       0.016763         0.4561

MULLIKEN ATOMIC CHARGES
-----------------------
   0 C :   -0.494663
   1 C :   -0.142238
   2 O :   -0.183362
   3 C :    0.413374
   4 O :   -0.488207
   5 C :   -0.437780
   6 C :   -0.006799
   7 H :    0.256837
   8 C :    0.355539
   9 O :   -0.457355
  10 O :   -0.148290
  11 C :   -0.150644
  12 C :   -0.493420
  13 S :   -0.217654
  14 P :    0.812248
  15 S :   -0.516607
  16 O :   -0.387919
  17 C :   -0.308501
  18 O :   -0.354530
  19 C :   -0.301142
  20 H :    0.167437
  21 H :    0.169759
  22 H :    0.171895
  23 H :    0.174615
  24 H :    0.176615
  25 H :    0.235037
  26 H :    0.221457
  27 H :    0.179033
  28 H :    0.177720
  29 H :    0.172459
  30 H :    0.167583
  31 H :    0.166946
  32 H :    0.171734
  33 H :    0.176068
  34 H :    0.177367
  35 H :    0.182158
  36 H :    0.178232
  37 H :    0.184996
Sum of atomic charges:   -0.0000000

LOEWDIN ATOMIC CHARGES
----------------------
   0 C :   -0.390982
   1 C :    0.036167
   2 O :   -0.582373
   3 C :    0.366321
   4 O :   -0.486487
   5 C :   -0.194380
   6 C :   -0.193397
   7 H :    0.224167
   8 C :    0.355781
   9 O :   -0.490201
  10 O :   -0.573832
  11 C :    0.045514
  12 C :   -0.386985
  13 S :    0.215537
  14 P :    0.403705
  15 S :   -0.130430
  16 O :   -0.706624
  17 C :   -0.061201
  18 O :   -0.670942
  19 C :   -0.042803
  20 H :    0.162511
  21 H :    0.163074
  22 H :    0.168694
  23 H :    0.190419
  24 H :    0.190474
  25 H :    0.219530
  26 H :    0.204209
  27 H :    0.188193
  28 H :    0.188752
  29 H :    0.170171
  30 H :    0.163773
  31 H :    0.164154
  32 H :    0.174391
  33 H :    0.176154
  34 H :    0.187329
  35 H :    0.191563
  36 H :    0.179080
  37 H :    0.180976

  Mayer bond orders larger than 0.100000
B(  0-C ,  1-C ) :   0.9357 B(  0-C , 20-H ) :   0.9699 B(  0-C , 21-H ) :   0.9689
B(  0-C , 22-H ) :   0.9591 B(  1-C ,  2-O ) :   0.7863 B(  1-C , 23-H ) :   0.9632
B(  1-C , 24-H ) :   0.9515 B(  2-O ,  3-C ) :   1.1215 B(  3-C ,  4-O ) :   1.7893
B(  3-C ,  5-C ) :   0.9484 B(  5-C ,  6-C ) :   0.9075 B(  5-C , 25-H ) :   0.9085
B(  5-C , 26-H ) :   0.9597 B(  6-C ,  7-H ) :   0.9005 B(  6-C ,  8-C ) :   0.8977
B(  6-C , 13-S ) :   0.8678 B(  8-C ,  9-O ) :   1.7700 B(  8-C , 10-O ) :   1.2239
B( 10-O , 11-C ) :   0.7677 B( 11-C , 12-C ) :   0.9440 B( 11-C , 27-H ) :   0.9400
B( 11-C , 28-H ) :   0.9461 B( 12-C , 29-H ) :   0.9605 B( 12-C , 30-H ) :   0.9707
B( 12-C , 31-H ) :   0.9688 B( 13-S , 14-P ) :   0.9991 B( 14-P , 15-S ) :   1.7775
B( 14-P , 16-O ) :   1.0091 B( 14-P , 18-O ) :   1.1825 B( 16-O , 17-C ) :   0.8304
B( 17-C , 32-H ) :   0.9492 B( 17-C , 33-H ) :   0.9552 B( 17-C , 34-H ) :   0.9584
B( 18-O , 19-C ) :   0.7891 B( 19-C , 35-H ) :   0.9545 B( 19-C , 36-H ) :   0.9488
B( 19-C , 37-H ) :   0.9536

Dispersion correction           -0.016325346
FINAL SINGLE POINT ENERGY     -1981.464397638650

DIPOLE MOMENT
-------------

Method             : SCF
Type of density    : Electron Density
Multiplicity       :   1
Irrep              :   0
Energy             : -1981.4855223292986466 Eh
Relativity type    :
Basis              : AO
                                X                 Y                 Z
Electronic contribution:    -13.725082901       4.175093249      -0.529066927
Nuclear contribution   :     16.381072862      -5.296473477       1.853412190
                        -----------------------------------------
Total Dipole Moment    :      2.655989961      -1.121380228       1.324345263
                        -----------------------------------------
Magnitude (a.u.)       :      3.172643482
Magnitude (Debye)      :      8.064218857

Rotational constants in cm-1:             0.010009             0.007313             0.004975
Rotational constants in MHz :           300.070122           219.249120           149.159459

                             ****ORCA TERMINATED NORMALLY****
TOTAL RUN TIME: 0 days 0 hours 1 minutes 46 seconds 982 msec
