                         Program Version 6.0.0  -   RELEASE  -
|  1> ! r2scan-3c def2/J RI DEFGRID2 scfconv6 printgap
|  2> %output
|  3>     printlevel normal
|  4> end
|  5> * xyz 0 1
|  6> C 3.4083378326 -2.1982026001 1.8162541032
|  7> C 2.0307110214 -2.099445594 1.1936120525
|  8> O 1.6771386159 -0.7287225873 0.9254577783
|  9> P 2.3543480801 0.0981279012 -0.2656031896
| 10> S 3.042118815 -0.9645761062 -1.7514402514
| 11> O 3.47990827 1.0019403464 0.3838116316
| 12> C 3.2301154758 1.8657913429 1.5213576022
| 13> C 4.5246776794 2.5824867816 1.8421008392
| 14> S 0.7911806272 1.468229186 -0.6947816561
| 15> C -0.0595477864 0.3950299224 -1.8780328083
| 16> S -0.9094471367 -0.9872485162 -1.0863696157
| 17> P -2.4850142093 0.181172662 -0.2317736018
| 18> S -3.1120987911 1.6595371228 -1.3453628325
| 19> O -1.9991123261 0.6575536841 1.184085999
| 20> C -1.5962991298 -0.2642685674 2.2316625721
| 21> C -0.6123437665 0.4567008595 3.1282827667
| 22> O -3.5624954112 -0.9243762702 0.1407716827
| 23> C -4.3455554299 -1.5839142048 -0.8769319013
| 24> C -5.5096941209 -2.2697309841 -0.19147109
| 25> H 4.1515668023 -1.8052159267 1.1223939743
| 26> H 3.4512545366 -1.6290472199 2.7411621192
| 27> H 3.6369150777 -3.238671618 2.0240196496
| 28> H 1.2513049839 -2.4504746604 1.8710933577
| 29> H 1.9879278469 -2.6607285464 0.2552727055
| 30> H 2.4375231411 2.5693646172 1.2511058083
| 31> H 2.8955640741 1.2476095725 2.3579804233
| 32> H 4.367263521 3.2386565255 2.6919695511
| 33> H 5.3017509396 1.8620415469 2.0804774208
| 34> H 4.8454944056 3.171130889 0.9875684032
| 35> H 0.6673165555 -0.0303706283 -2.5705645102
| 36> H -0.7918896493 1.0166373464 -2.3947983284
| 37> H -2.4982235264 -0.558164427 2.771003458
| 38> H -1.147475324 -1.1468162556 1.7661300601
| 39> H -1.0598171407 1.3695673465 3.5102605407
| 40> H -0.3439610199 -0.1897971617 3.9575792032
| 41> H 0.281282505 0.7148137589 2.5659780748
| 42> H -4.6866758629 -0.8315574392 -1.5953329098
| 43> H -3.7009432285 -2.3027660101 -1.3897270153
| 44> H -6.1249749861 -1.5359608469 0.321473364
| 45> H -6.1094343871 -2.7815709722 -0.9367629156
| 46> H -5.1422198919 -2.990968203 0.5324718111
| 47> *
| 48>
| 49>                          ****END OF INPUT****

CARTESIAN COORDINATES (ANGSTROEM)
---------------------------------
  C      3.408338   -2.198203    1.816254
  C      2.030711   -2.099446    1.193612
  O      1.677139   -0.728723    0.925458
  P      2.354348    0.098128   -0.265603
  S      3.042119   -0.964576   -1.751440
  O      3.479908    1.001940    0.383812
  C      3.230115    1.865791    1.521358
  C      4.524678    2.582487    1.842101
  S      0.791181    1.468229   -0.694782
  C     -0.059548    0.395030   -1.878033
  S     -0.909447   -0.987249   -1.086370
  P     -2.485014    0.181173   -0.231774
  S     -3.112099    1.659537   -1.345363
  O     -1.999112    0.657554    1.184086
  C     -1.596299   -0.264269    2.231663
  C     -0.612344    0.456701    3.128283
  O     -3.562495   -0.924376    0.140772
  C     -4.345555   -1.583914   -0.876932
  C     -5.509694   -2.269731   -0.191471
  H      4.151567   -1.805216    1.122394
  H      3.451255   -1.629047    2.741162
  H      3.636915   -3.238672    2.024020
  H      1.251305   -2.450475    1.871093
  H      1.987928   -2.660729    0.255273
  H      2.437523    2.569365    1.251106
  H      2.895564    1.247610    2.357980
  H      4.367264    3.238657    2.691970
  H      5.301751    1.862042    2.080477
  H      4.845494    3.171131    0.987568
  H      0.667317   -0.030371   -2.570565
  H     -0.791890    1.016637   -2.394798
  H     -2.498224   -0.558164    2.771003
  H     -1.147475   -1.146816    1.766130
  H     -1.059817    1.369567    3.510261
  H     -0.343961   -0.189797    3.957579
  H      0.281283    0.714814    2.565978
  H     -4.686676   -0.831557   -1.595333
  H     -3.700943   -2.302766   -1.389727
  H     -6.124975   -1.535961    0.321473
  H     -6.109434   -2.781571   -0.936763
  H     -5.142220   -2.990968    0.532472

 Total Charge           Charge          ....    0
 Multiplicity           Mult            ....    1
 Number of Electrons    NEL             ....  202
 Basis Dimension        Dim             ....  539

ORBITAL ENERGIES
----------------

  NO   OCC          E(Eh)            E(eV)
   0   2.0000     -88.574309     -2410.2295
   1   2.0000     -88.573654     -2410.2117
   2   2.0000     -88.523341     -2408.8426
   3   2.0000     -88.519279     -2408.7321
   4   2.0000     -76.915972     -2092.9900
   5   2.0000     -76.913103     -2092.9119
   6   2.0000     -18.997391      -516.9453
   7   2.0000     -18.995576      -516.8959
   8   2.0000     -18.993784      -516.8471
   9   2.0000     -18.992698      -516.8176
  10   2.0000     -10.110745      -275.1274
  11   2.0000     -10.104285      -274.9516
  12   2.0000     -10.101996      -274.8893
  13   2.0000     -10.101521      -274.8764
  14   2.0000     -10.101420      -274.8736
  15   2.0000     -10.040378      -273.2126
  16   2.0000     -10.035876      -273.0901
  17   2.0000     -10.035130      -273.0698
  18   2.0000     -10.033965      -273.0381
  19   2.0000      -7.868598      -214.1154
  20   2.0000      -7.867894      -214.0963
  21   2.0000      -7.818172      -212.7433
  22   2.0000      -7.814055      -212.6313
  23   2.0000      -6.594546      -179.4467
  24   2.0000      -6.591784      -179.3716
  25   2.0000      -5.815413      -158.2454
  26   2.0000      -5.814647      -158.2246
  27   2.0000      -5.812573      -158.1681
  28   2.0000      -5.811722      -158.1450
  29   2.0000      -5.805656      -157.9799
  30   2.0000      -5.805194      -157.9674
  31   2.0000      -5.765933      -156.8990
  32   2.0000      -5.761746      -156.7851
  33   2.0000      -5.758498      -156.6967
  34   2.0000      -5.757986      -156.6828
  35   2.0000      -5.754286      -156.5821
  36   2.0000      -5.754055      -156.5758
  37   2.0000      -4.740432      -128.9937
  38   2.0000      -4.739168      -128.9593
  39   2.0000      -4.738201      -128.9330
  40   2.0000      -4.737616      -128.9171
  41   2.0000      -4.736758      -128.8937
  42   2.0000      -4.735150      -128.8500
  43   2.0000      -1.053832       -28.6762
  44   2.0000      -1.052287       -28.6342
  45   2.0000      -1.014423       -27.6038
  46   2.0000      -1.012226       -27.5441
  47   2.0000      -0.801783       -21.8176
  48   2.0000      -0.764565       -20.8049
  49   2.0000      -0.756747       -20.5921
  50   2.0000      -0.740618       -20.1532
  51   2.0000      -0.738619       -20.0988
  52   2.0000      -0.710986       -19.3469
  53   2.0000      -0.685534       -18.6543
  54   2.0000      -0.670154       -18.2358
  55   2.0000      -0.627069       -17.0634
  56   2.0000      -0.617256       -16.7964
  57   2.0000      -0.612470       -16.6662
  58   2.0000      -0.606986       -16.5169
  59   2.0000      -0.595494       -16.2042
  60   2.0000      -0.541039       -14.7224
  61   2.0000      -0.530784       -14.4434
  62   2.0000      -0.505041       -13.7429
  63   2.0000      -0.504181       -13.7195
  64   2.0000      -0.480042       -13.0626
  65   2.0000      -0.467805       -12.7296
  66   2.0000      -0.465248       -12.6601
  67   2.0000      -0.458449       -12.4750
  68   2.0000      -0.450151       -12.2492
  69   2.0000      -0.430677       -11.7193
  70   2.0000      -0.426920       -11.6171
  71   2.0000      -0.415358       -11.3025
  72   2.0000      -0.412209       -11.2168
  73   2.0000      -0.402980       -10.9656
  74   2.0000      -0.394811       -10.7434
  75   2.0000      -0.389136       -10.5889
  76   2.0000      -0.384854       -10.4724
  77   2.0000      -0.377181       -10.2636
  78   2.0000      -0.376103       -10.2343
  79   2.0000      -0.370220       -10.0742
  80   2.0000      -0.366733        -9.9793
  81   2.0000      -0.364494        -9.9184
  82   2.0000      -0.360487        -9.8093
  83   2.0000      -0.356106        -9.6901
  84   2.0000      -0.351444        -9.5633
  85   2.0000      -0.337138        -9.1740
  86   2.0000      -0.335026        -9.1165
  87   2.0000      -0.327685        -8.9168
  88   2.0000      -0.320127        -8.7111
  89   2.0000      -0.317759        -8.6467
  90   2.0000      -0.301685        -8.2093
  91   2.0000      -0.291130        -7.9220
  92   2.0000      -0.290024        -7.8920
  93   2.0000      -0.284344        -7.7374
  94   2.0000      -0.272211        -7.4072
  95   2.0000      -0.245810        -6.6888
  96   2.0000      -0.231503        -6.2995
  97   2.0000      -0.227559        -6.1922
  98   2.0000      -0.217781        -5.9261
  99   2.0000      -0.216419        -5.8891
 100   2.0000      -0.212779        -5.7900
 101   0.0000      -0.046176        -1.2565
 102   0.0000      -0.024530        -0.6675
 103   0.0000      -0.001265        -0.0344
 104   0.0000       0.002564         0.0698
 105   0.0000       0.013590         0.3698

MULLIKEN ATOMIC CHARGES
-----------------------
   0 C :   -0.454962
   1 C :   -0.144407
   2 O :   -0.266526
   3 P :    0.641325
   4 S :   -0.450393
   5 O :   -0.275643
   6 C :   -0.124239
   7 C :   -0.449529
   8 S :   -0.140088
   9 C :   -0.234951
  10 S :   -0.187902
  11 P :    0.667093
  12 S :   -0.449722
  13 O :   -0.262116
  14 C :   -0.094061
  15 C :   -0.469046
  16 O :   -0.283433
  17 C :   -0.153351
  18 C :   -0.439336
  19 H :    0.179218
  20 H :    0.147599
  21 H :    0.150131
  22 H :    0.147077
  23 H :    0.178848
  24 H :    0.153734
  25 H :    0.154888
  26 H :    0.147600
  27 H :    0.157047
  28 H :    0.161464
  29 H :    0.215337
  30 H :    0.219794
  31 H :    0.155695
  32 H :    0.151492
  33 H :    0.157150
  34 H :    0.143239
  35 H :    0.170662
  36 H :    0.170723
  37 H :    0.152445
  38 H :    0.159056
  39 H :    0.147767
  40 H :    0.150321
Sum of atomic charges:   -0.0000000

LOEWDIN ATOMIC CHARGES
----------------------
   0 C :   -0.399312
   1 C :    0.011455
   2 O :   -0.704299
   3 P :    0.378266
   4 S :   -0.100065
   5 O :   -0.661951
   6 C :    0.021138
   7 C :   -0.381554
   8 S :    0.160423
   9 C :   -0.425136
  10 S :    0.136372
  11 P :    0.374624
  12 S :   -0.105577
  13 O :   -0.646598
  14 C :    0.026449
  15 C :   -0.391721
  16 O :   -0.670052
  17 C :    0.020976
  18 C :   -0.385618
  19 H :    0.168810
  20 H :    0.154802
  21 H :    0.161058
  22 H :    0.176514
  23 H :    0.183206
  24 H :    0.175765
  25 H :    0.172145
  26 H :    0.160491
  27 H :    0.162067
  28 H :    0.164423
  29 H :    0.192423
  30 H :    0.194431
  31 H :    0.174478
  32 H :    0.176066
  33 H :    0.162416
  34 H :    0.159028
  35 H :    0.169100
  36 H :    0.181258
  37 H :    0.172473
  38 H :    0.162030
  39 H :    0.160725
  40 H :    0.158470

  Mayer bond orders larger than 0.100000
B(  0-C ,  1-C ) :   0.9169 B(  0-C , 19-H ) :   0.9589 B(  0-C , 20-H ) :   0.9772
B(  0-C , 21-H ) :   0.9628 B(  1-C ,  2-O ) :   0.7624 B(  1-C , 22-H ) :   0.9643
B(  1-C , 23-H ) :   0.9545 B(  2-O ,  3-P ) :   1.0182 B(  3-P ,  4-S ) :   1.8376
B(  3-P ,  5-O ) :   1.1359 B(  3-P ,  8-S ) :   1.0675 B(  5-O ,  6-C ) :   0.7389
B(  6-C ,  7-C ) :   0.9621 B(  6-C , 24-H ) :   0.9356 B(  6-C , 25-H ) :   0.9488
B(  7-C , 26-H ) :   0.9628 B(  7-C , 27-H ) :   0.9742 B(  7-C , 28-H ) :   0.9693
B(  8-S ,  9-C ) :   0.9227 B(  9-C , 10-S ) :   0.9135 B(  9-C , 29-H ) :   0.9066
B(  9-C , 30-H ) :   0.9019 B( 10-S , 11-P ) :   0.9741 B( 11-P , 12-S ) :   1.8358
B( 11-P , 13-O ) :   1.1781 B( 11-P , 16-O ) :   1.0552 B( 13-O , 14-C ) :   0.7317
B( 14-C , 15-C ) :   0.9432 B( 14-C , 31-H ) :   0.9469 B( 14-C , 32-H ) :   0.9551
B( 15-C , 33-H ) :   0.9689 B( 15-C , 34-H ) :   0.9674 B( 15-C , 35-H ) :   0.9647
B( 16-O , 17-C ) :   0.7853 B( 17-C , 18-C ) :   0.9547 B( 17-C , 36-H ) :   0.9514
B( 17-C , 37-H ) :   0.9416 B( 18-C , 38-H ) :   0.9713 B( 18-C , 39-H ) :   0.9637
B( 18-C , 40-H ) :   0.9715

Dispersion correction           -0.021212830
FINAL SINGLE POINT ENERGY     -2932.464682463588

DIPOLE MOMENT
-------------

Method             : SCF
Type of density    : Electron Density
Multiplicity       :   1
Irrep              :   0
Energy             : -2932.4898530443101663 Eh
Relativity type    :
Basis              : AO
                                X                 Y                 Z
Electronic contribution:     -3.546900681       7.656308629     -21.042914316
Nuclear contribution   :      3.558876171      -8.691668270      23.066401080
                        -----------------------------------------
Total Dipole Moment    :      0.011975490      -1.035359642       2.023486765
                        -----------------------------------------
Magnitude (a.u.)       :      2.273018189
Magnitude (Debye)      :      5.777553086

Rotational constants in cm-1:             0.012660             0.004536             0.004526
Rotational constants in MHz :           379.538031           135.991218           135.678813

                             ****ORCA TERMINATED NORMALLY****
TOTAL RUN TIME: 0 days 0 hours 1 minutes 19 seconds 700 msec
