                         Program Version 6.0.0  -   RELEASE  -
|  1> ! r2scan-3c def2/J RI DEFGRID2 scfconv6 printgap
|  2> %output
|  3>     printlevel normal
|  4> end
|  5> %cpcm
|  6>     smd true
|  7>     smdsolvent "water"
|  8> end
|  9> * xyz 0 1
| 10> C 3.4083378326 -2.1982026001 1.8162541032
| 11> C 2.0307110214 -2.099445594 1.1936120525
| 12> O 1.6771386159 -0.7287225873 0.9254577783
| 13> P 2.3543480801 0.0981279012 -0.2656031896
| 14> S 3.042118815 -0.9645761062 -1.7514402514
| 15> O 3.47990827 1.0019403464 0.3838116316
| 16> C 3.2301154758 1.8657913429 1.5213576022
| 17> C 4.5246776794 2.5824867816 1.8421008392
| 18> S 0.7911806272 1.468229186 -0.6947816561
| 19> C -0.0595477864 0.3950299224 -1.8780328083
| 20> S -0.9094471367 -0.9872485162 -1.0863696157
| 21> P -2.4850142093 0.181172662 -0.2317736018
| 22> S -3.1120987911 1.6595371228 -1.3453628325
| 23> O -1.9991123261 0.6575536841 1.184085999
| 24> C -1.5962991298 -0.2642685674 2.2316625721
| 25> C -0.6123437665 0.4567008595 3.1282827667
| 26> O -3.5624954112 -0.9243762702 0.1407716827
| 27> C -4.3455554299 -1.5839142048 -0.8769319013
| 28> C -5.5096941209 -2.2697309841 -0.19147109
| 29> H 4.1515668023 -1.8052159267 1.1223939743
| 30> H 3.4512545366 -1.6290472199 2.7411621192
| 31> H 3.6369150777 -3.238671618 2.0240196496
| 32> H 1.2513049839 -2.4504746604 1.8710933577
| 33> H 1.9879278469 -2.6607285464 0.2552727055
| 34> H 2.4375231411 2.5693646172 1.2511058083
| 35> H 2.8955640741 1.2476095725 2.3579804233
| 36> H 4.367263521 3.2386565255 2.6919695511
| 37> H 5.3017509396 1.8620415469 2.0804774208
| 38> H 4.8454944056 3.171130889 0.9875684032
| 39> H 0.6673165555 -0.0303706283 -2.5705645102
| 40> H -0.7918896493 1.0166373464 -2.3947983284
| 41> H -2.4982235264 -0.558164427 2.771003458
| 42> H -1.147475324 -1.1468162556 1.7661300601
| 43> H -1.0598171407 1.3695673465 3.5102605407
| 44> H -0.3439610199 -0.1897971617 3.9575792032
| 45> H 0.281282505 0.7148137589 2.5659780748
| 46> H -4.6866758629 -0.8315574392 -1.5953329098
| 47> H -3.7009432285 -2.3027660101 -1.3897270153
| 48> H -6.1249749861 -1.5359608469 0.321473364
| 49> H -6.1094343871 -2.7815709722 -0.9367629156
| 50> H -5.1422198919 -2.990968203 0.5324718111
| 51> *
| 52>
| 53>                          ****END OF INPUT****

CARTESIAN COORDINATES (ANGSTROEM)
---------------------------------
  C      3.408338   -2.198203    1.816254
  C      2.030711   -2.099446    1.193612
  O      1.677139   -0.728723    0.925458
  P      2.354348    0.098128   -0.265603
  S      3.042119   -0.964576   -1.751440
  O      3.479908    1.001940    0.383812
  C      3.230115    1.865791    1.521358
  C      4.524678    2.582487    1.842101
  S      0.791181    1.468229   -0.694782
  C     -0.059548    0.395030   -1.878033
  S     -0.909447   -0.987249   -1.086370
  P     -2.485014    0.181173   -0.231774
  S     -3.112099    1.659537   -1.345363
  O     -1.999112    0.657554    1.184086
  C     -1.596299   -0.264269    2.231663
  C     -0.612344    0.456701    3.128283
  O     -3.562495   -0.924376    0.140772
  C     -4.345555   -1.583914   -0.876932
  C     -5.509694   -2.269731   -0.191471
  H      4.151567   -1.805216    1.122394
  H      3.451255   -1.629047    2.741162
  H      3.636915   -3.238672    2.024020
  H      1.251305   -2.450475    1.871093
  H      1.987928   -2.660729    0.255273
  H      2.437523    2.569365    1.251106
  H      2.895564    1.247610    2.357980
  H      4.367264    3.238657    2.691970
  H      5.301751    1.862042    2.080477
  H      4.845494    3.171131    0.987568
  H      0.667317   -0.030371   -2.570565
  H     -0.791890    1.016637   -2.394798
  H     -2.498224   -0.558164    2.771003
  H     -1.147475   -1.146816    1.766130
  H     -1.059817    1.369567    3.510261
  H     -0.343961   -0.189797    3.957579
  H      0.281283    0.714814    2.565978
  H     -4.686676   -0.831557   -1.595333
  H     -3.700943   -2.302766   -1.389727
  H     -6.124975   -1.535961    0.321473
  H     -6.109434   -2.781571   -0.936763
  H     -5.142220   -2.990968    0.532472

 Total Charge           Charge          ....    0
 Multiplicity           Mult            ....    1
 Number of Electrons    NEL             ....  202
 Basis Dimension        Dim             ....  539

ORBITAL ENERGIES
----------------

  NO   OCC          E(Eh)            E(eV)
   0   2.0000     -88.579502     -2410.3708
   1   2.0000     -88.578256     -2410.3369
   2   2.0000     -88.531949     -2409.0768
   3   2.0000     -88.531364     -2409.0609
   4   2.0000     -76.920474     -2093.1125
   5   2.0000     -76.920331     -2093.1086
   6   2.0000     -18.997459      -516.9471
   7   2.0000     -18.997129      -516.9381
   8   2.0000     -18.996988      -516.9343
   9   2.0000     -18.991058      -516.7730
  10   2.0000     -10.103620      -274.9335
  11   2.0000     -10.094686      -274.6904
  12   2.0000     -10.093072      -274.6465
  13   2.0000     -10.091626      -274.6071
  14   2.0000     -10.087941      -274.5068
  15   2.0000     -10.021311      -272.6937
  16   2.0000     -10.020159      -272.6624
  17   2.0000     -10.019117      -272.6340
  18   2.0000     -10.018531      -272.6181
  19   2.0000      -7.873848      -214.2583
  20   2.0000      -7.872471      -214.2208
  21   2.0000      -7.827137      -212.9872
  22   2.0000      -7.826506      -212.9701
  23   2.0000      -6.599191      -179.5731
  24   2.0000      -6.598880      -179.5647
  25   2.0000      -5.820603      -158.3867
  26   2.0000      -5.819238      -158.3495
  27   2.0000      -5.817795      -158.3103
  28   2.0000      -5.816324      -158.2702
  29   2.0000      -5.810995      -158.1252
  30   2.0000      -5.809734      -158.0909
  31   2.0000      -5.774791      -157.1401
  32   2.0000      -5.774069      -157.1204
  33   2.0000      -5.767422      -156.9395
  34   2.0000      -5.767028      -156.9288
  35   2.0000      -5.766715      -156.9203
  36   2.0000      -5.766586      -156.9168
  37   2.0000      -4.744957      -129.1168
  38   2.0000      -4.744674      -129.1091
  39   2.0000      -4.744123      -129.0941
  40   2.0000      -4.743488      -129.0769
  41   2.0000      -4.742705      -129.0556
  42   2.0000      -4.742696      -129.0553
  43   2.0000      -1.056639       -28.7526
  44   2.0000      -1.050446       -28.5841
  45   2.0000      -1.014310       -27.6008
  46   2.0000      -1.011501       -27.5244
  47   2.0000      -0.805385       -21.9156
  48   2.0000      -0.759160       -20.6578
  49   2.0000      -0.748258       -20.3611
  50   2.0000      -0.727578       -19.7984
  51   2.0000      -0.726860       -19.7789
  52   2.0000      -0.709446       -19.3050
  53   2.0000      -0.689207       -18.7543
  54   2.0000      -0.676951       -18.4208
  55   2.0000      -0.622207       -16.9311
  56   2.0000      -0.610940       -16.6245
  57   2.0000      -0.600228       -16.3330
  58   2.0000      -0.598347       -16.2819
  59   2.0000      -0.593326       -16.1452
  60   2.0000      -0.536733       -14.6053
  61   2.0000      -0.524885       -14.2829
  62   2.0000      -0.500397       -13.6165
  63   2.0000      -0.497283       -13.5317
  64   2.0000      -0.478526       -13.0213
  65   2.0000      -0.460832       -12.5399
  66   2.0000      -0.452949       -12.3254
  67   2.0000      -0.451269       -12.2797
  68   2.0000      -0.444081       -12.0841
  69   2.0000      -0.430604       -11.7173
  70   2.0000      -0.419991       -11.4285
  71   2.0000      -0.411013       -11.1842
  72   2.0000      -0.404256       -11.0004
  73   2.0000      -0.400191       -10.8897
  74   2.0000      -0.390096       -10.6150
  75   2.0000      -0.384489       -10.4625
  76   2.0000      -0.380805       -10.3622
  77   2.0000      -0.369481       -10.0541
  78   2.0000      -0.360584        -9.8120
  79   2.0000      -0.358148        -9.7457
  80   2.0000      -0.354888        -9.6570
  81   2.0000      -0.353483        -9.6188
  82   2.0000      -0.352568        -9.5939
  83   2.0000      -0.345569        -9.4034
  84   2.0000      -0.345348        -9.3974
  85   2.0000      -0.330226        -8.9859
  86   2.0000      -0.326520        -8.8851
  87   2.0000      -0.319935        -8.7059
  88   2.0000      -0.316761        -8.6195
  89   2.0000      -0.314768        -8.5653
  90   2.0000      -0.298251        -8.1158
  91   2.0000      -0.287235        -7.8161
  92   2.0000      -0.284165        -7.7325
  93   2.0000      -0.281905        -7.6710
  94   2.0000      -0.273716        -7.4482
  95   2.0000      -0.250623        -6.8198
  96   2.0000      -0.240346        -6.5401
  97   2.0000      -0.237972        -6.4756
  98   2.0000      -0.229518        -6.2455
  99   2.0000      -0.226359        -6.1595
 100   2.0000      -0.222329        -6.0499
 101   0.0000      -0.052355        -1.4246
 102   0.0000      -0.031782        -0.8648
 103   0.0000      -0.005414        -0.1473
 104   0.0000      -0.002625        -0.0714
 105   0.0000       0.013898         0.3782

MULLIKEN ATOMIC CHARGES
-----------------------
   0 C :   -0.487900
   1 C :   -0.137933
   2 O :   -0.275495
   3 P :    0.656813
   4 S :   -0.504017
   5 O :   -0.307545
   6 C :   -0.106277
   7 C :   -0.497288
   8 S :   -0.164434
   9 C :   -0.241758
  10 S :   -0.183703
  11 P :    0.677192
  12 S :   -0.505355
  13 O :   -0.291941
  14 C :   -0.098935
  15 C :   -0.505165
  16 O :   -0.302242
  17 C :   -0.140537
  18 C :   -0.480730
  19 H :    0.168713
  20 H :    0.170406
  21 H :    0.171988
  22 H :    0.180852
  23 H :    0.176169
  24 H :    0.163803
  25 H :    0.181924
  26 H :    0.171442
  27 H :    0.169563
  28 H :    0.167712
  29 H :    0.233680
  30 H :    0.233002
  31 H :    0.177685
  32 H :    0.171566
  33 H :    0.167706
  34 H :    0.173441
  35 H :    0.171809
  36 H :    0.172767
  37 H :    0.170398
  38 H :    0.166639
  39 H :    0.169807
  40 H :    0.166177
Sum of atomic charges:   -0.0000000

LOEWDIN ATOMIC CHARGES
----------------------
   0 C :   -0.401599
   1 C :    0.018187
   2 O :   -0.702407
   3 P :    0.381040
   4 S :   -0.140132
   5 O :   -0.679953
   6 C :    0.030356
   7 C :   -0.386019
   8 S :    0.147514
   9 C :   -0.423094
  10 S :    0.142485
  11 P :    0.375894
  12 S :   -0.149515
  13 O :   -0.668364
  14 C :    0.032715
  15 C :   -0.393688
  16 O :   -0.676652
  17 C :    0.026226
  18 C :   -0.388590
  19 H :    0.163030
  20 H :    0.163078
  21 H :    0.168592
  22 H :    0.190154
  23 H :    0.181852
  24 H :    0.180923
  25 H :    0.184116
  26 H :    0.170313
  27 H :    0.164779
  28 H :    0.164314
  29 H :    0.197056
  30 H :    0.197764
  31 H :    0.184429
  32 H :    0.183224
  33 H :    0.164609
  34 H :    0.171381
  35 H :    0.167830
  36 H :    0.181854
  37 H :    0.180090
  38 H :    0.163399
  39 H :    0.169395
  40 H :    0.163412

  Mayer bond orders larger than 0.100000
B(  0-C ,  1-C ) :   0.9106 B(  0-C , 19-H ) :   0.9609 B(  0-C , 20-H ) :   0.9717
B(  0-C , 21-H ) :   0.9584 B(  1-C ,  2-O ) :   0.7472 B(  1-C , 22-H ) :   0.9535
B(  1-C , 23-H ) :   0.9531 B(  2-O ,  3-P ) :   1.0380 B(  3-P ,  4-S ) :   1.8133
B(  3-P ,  5-O ) :   1.1474 B(  3-P ,  8-S ) :   1.0733 B(  5-O ,  6-C ) :   0.7349
B(  6-C ,  7-C ) :   0.9478 B(  6-C , 24-H ) :   0.9283 B(  6-C , 25-H ) :   0.9384
B(  7-C , 26-H ) :   0.9564 B(  7-C , 27-H ) :   0.9725 B(  7-C , 28-H ) :   0.9688
B(  8-S ,  9-C ) :   0.9050 B(  9-C , 10-S ) :   0.9032 B(  9-C , 29-H ) :   0.9032
B(  9-C , 30-H ) :   0.8990 B( 10-S , 11-P ) :   0.9898 B( 11-P , 12-S ) :   1.8103
B( 11-P , 13-O ) :   1.1864 B( 11-P , 16-O ) :   1.0675 B( 13-O , 14-C ) :   0.7179
B( 14-C , 15-C ) :   0.9336 B( 14-C , 31-H ) :   0.9355 B( 14-C , 32-H ) :   0.9469
B( 15-C , 33-H ) :   0.9680 B( 15-C , 34-H ) :   0.9600 B( 15-C , 35-H ) :   0.9635
B( 16-O , 17-C ) :   0.7764 B( 17-C , 18-C ) :   0.9532 B( 17-C , 36-H ) :   0.9484
B( 17-C , 37-H ) :   0.9321 B( 18-C , 38-H ) :   0.9693 B( 18-C , 39-H ) :   0.9578
B( 18-C , 40-H ) :   0.9680

Dispersion correction           -0.021212830
FINAL SINGLE POINT ENERGY     -2932.477063917754

DIPOLE MOMENT
-------------

Method             : SCF
Type of density    : Electron Density
Multiplicity       :   1
Irrep              :   0
Energy             : -2932.5022344984763549 Eh
Relativity type    :
Basis              : AO
                                X                 Y                 Z
Electronic contribution:     -3.635218914       7.072262598     -20.269151946
Nuclear contribution   :      3.558876171      -8.691668270      23.066401080
                        -----------------------------------------
Total Dipole Moment    :     -0.076342743      -1.619405673       2.797249134
                        -----------------------------------------
Magnitude (a.u.)       :      3.233095369
Magnitude (Debye)      :      8.217875343

Rotational constants in cm-1:             0.012660             0.004536             0.004526
Rotational constants in MHz :           379.538031           135.991218           135.678813

                             ****ORCA TERMINATED NORMALLY****
TOTAL RUN TIME: 0 days 0 hours 1 minutes 50 seconds 125 msec
