                         Program Version 6.0.0  -   RELEASE  -
|  1> ! pbe def2-sv(p) def2/J RI DEFGRID1 loosescf d4 GCP(DFT/SV(P)) printgap
|  2> %output
|  3>     printlevel normal
|  4> end
|  5> * xyz 0 1
|  6> C 5.2943420556 0.1225139629 -2.3384566922
|  7> C 3.8275624776 -0.2247003332 -2.1816987934
|  8> O 3.555435437 -0.3843519583 -0.7750098884
|  9> P 2.0917445654 -0.2486631706 -0.1750099663
| 10> S 1.1159054155 1.317852822 -0.8447695038
| 11> O 2.3492045302 -0.3316385006 1.381568001
| 12> C 2.5904928902 0.8330189515 2.1959905201
| 13> C 3.8694993708 1.5400281183 1.8039989274
| 14> S 1.3219311674 -2.1791811021 -0.5285532949
| 15> C -0.3198964926 -2.0478068561 0.2298433478
| 16> S -1.5120479768 -1.1278959481 -0.7885147017
| 17> P -2.2642869931 0.1911863161 0.7105482198
| 18> S -0.9684318064 0.6599940576 2.1054727882
| 19> O -3.4969277919 -0.5311557188 1.3785663443
| 20> C -4.8338581101 -0.620412874 0.826256945
| 21> C -4.8775921145 -1.3661694942 -0.4904164265
| 22> O -2.9682192849 1.38337633 -0.0556446863
| 23> C -2.2903188294 2.4217748719 -0.7885852163
| 24> C -2.2523341121 2.0987020182 -2.2684352856
| 25> H 5.907455575 -0.6575494115 -1.8967583501
| 26> H 5.5274610898 0.2098188611 -3.3944799584
| 27> H 5.5130389552 1.0648326117 -1.8440212408
| 28> H 3.5844173559 -1.1656760662 -2.6818480068
| 29> H 3.1821036643 0.5683651756 -2.5748262104
| 30> H 1.7262497531 1.4998739241 2.1113394023
| 31> H 2.6356094929 0.4324781487 3.209549265
| 32> H 4.0610859021 2.3481389969 2.5028812529
| 33> H 4.7019397582 0.841229846 1.8156512411
| 34> H 3.7688580361 1.9547772009 0.8015336446
| 35> H -0.2330421719 -1.5492061495 1.1987915861
| 36> H -0.6718623781 -3.0702290683 0.3367507135
| 37> H -5.3865470539 -1.1469516197 1.6059643621
| 38> H -5.2222935795 0.3932603221 0.7148402824
| 39> H -4.4423988201 -2.3563085973 -0.3838101051
| 40> H -5.9122614965 -1.4630434301 -0.8044781949
| 41> H -4.3245724375 -0.822169735 -1.2535482333
| 42> H -2.8779121161 3.3206994481 -0.592883194
| 43> H -1.2807502938 2.5532704222 -0.3897101539
| 44> H -1.8117961181 2.9370441903 -2.7978644755
| 45> H -1.6421257053 1.2165751582 -2.4481415219
| 46> H -3.2573119397 1.9215129524 -2.6405682686
| 47> *
| 48>
| 49>                          ****END OF INPUT****

CARTESIAN COORDINATES (ANGSTROEM)
---------------------------------
  C      5.294342    0.122514   -2.338457
  C      3.827562   -0.224700   -2.181699
  O      3.555435   -0.384352   -0.775010
  P      2.091745   -0.248663   -0.175010
  S      1.115905    1.317853   -0.844770
  O      2.349205   -0.331639    1.381568
  C      2.590493    0.833019    2.195991
  C      3.869499    1.540028    1.803999
  S      1.321931   -2.179181   -0.528553
  C     -0.319896   -2.047807    0.229843
  S     -1.512048   -1.127896   -0.788515
  P     -2.264287    0.191186    0.710548
  S     -0.968432    0.659994    2.105473
  O     -3.496928   -0.531156    1.378566
  C     -4.833858   -0.620413    0.826257
  C     -4.877592   -1.366169   -0.490416
  O     -2.968219    1.383376   -0.055645
  C     -2.290319    2.421775   -0.788585
  C     -2.252334    2.098702   -2.268435
  H      5.907456   -0.657549   -1.896758
  H      5.527461    0.209819   -3.394480
  H      5.513039    1.064833   -1.844021
  H      3.584417   -1.165676   -2.681848
  H      3.182104    0.568365   -2.574826
  H      1.726250    1.499874    2.111339
  H      2.635609    0.432478    3.209549
  H      4.061086    2.348139    2.502881
  H      4.701940    0.841230    1.815651
  H      3.768858    1.954777    0.801534
  H     -0.233042   -1.549206    1.198792
  H     -0.671862   -3.070229    0.336751
  H     -5.386547   -1.146952    1.605964
  H     -5.222294    0.393260    0.714840
  H     -4.442399   -2.356309   -0.383810
  H     -5.912261   -1.463043   -0.804478
  H     -4.324572   -0.822170   -1.253548
  H     -2.877912    3.320699   -0.592883
  H     -1.280750    2.553270   -0.389710
  H     -1.811796    2.937044   -2.797864
  H     -1.642126    1.216575   -2.448142
  H     -3.257312    1.921513   -2.640568

 Total Charge           Charge          ....    0
 Multiplicity           Mult            ....    1
 Number of Electrons    NEL             ....  202
 Basis Dimension        Dim             ....  334

ORBITAL ENERGIES
----------------

  NO   OCC          E(Eh)            E(eV)
   0   2.0000     -88.038950     -2395.6616
   1   2.0000     -88.036849     -2395.6044
   2   2.0000     -87.980724     -2394.0772
   3   2.0000     -87.977302     -2393.9841
   4   2.0000     -76.423224     -2079.5816
   5   2.0000     -76.422054     -2079.5498
   6   2.0000     -18.796083      -511.4674
   7   2.0000     -18.789507      -511.2885
   8   2.0000     -18.785075      -511.1679
   9   2.0000     -18.784373      -511.1488
  10   2.0000      -9.954498      -270.8757
  11   2.0000      -9.951586      -270.7964
  12   2.0000      -9.950667      -270.7714
  13   2.0000      -9.950330      -270.7622
  14   2.0000      -9.942221      -270.5416
  15   2.0000      -9.887780      -269.0602
  16   2.0000      -9.887152      -269.0431
  17   2.0000      -9.880948      -268.8743
  18   2.0000      -9.877608      -268.7834
  19   2.0000      -7.684649      -209.1099
  20   2.0000      -7.681599      -209.0269
  21   2.0000      -7.625551      -207.5018
  22   2.0000      -7.622471      -207.4180
  23   2.0000      -6.420591      -174.7132
  24   2.0000      -6.419633      -174.6871
  25   2.0000      -5.712483      -155.4446
  26   2.0000      -5.709476      -155.3627
  27   2.0000      -5.709171      -155.3544
  28   2.0000      -5.706204      -155.2737
  29   2.0000      -5.701554      -155.1472
  30   2.0000      -5.698524      -155.0647
  31   2.0000      -5.654250      -153.8600
  32   2.0000      -5.651481      -153.7846
  33   2.0000      -5.646188      -153.6406
  34   2.0000      -5.645892      -153.6325
  35   2.0000      -5.643399      -153.5647
  36   2.0000      -5.642148      -153.5307
  37   2.0000      -4.643685      -126.3611
  38   2.0000      -4.642170      -126.3199
  39   2.0000      -4.642123      -126.3186
  40   2.0000      -4.641472      -126.3009
  41   2.0000      -4.640762      -126.2816
  42   2.0000      -4.640107      -126.2637
  43   2.0000      -0.987017       -26.8581
  44   2.0000      -0.982849       -26.7447
  45   2.0000      -0.942075       -25.6352
  46   2.0000      -0.941373       -25.6161
  47   2.0000      -0.757960       -20.6251
  48   2.0000      -0.719943       -19.5907
  49   2.0000      -0.708460       -19.2782
  50   2.0000      -0.689859       -18.7720
  51   2.0000      -0.685011       -18.6401
  52   2.0000      -0.671253       -18.2657
  53   2.0000      -0.647647       -17.6234
  54   2.0000      -0.629661       -17.1340
  55   2.0000      -0.596610       -16.2346
  56   2.0000      -0.589128       -16.0310
  57   2.0000      -0.576017       -15.6742
  58   2.0000      -0.563052       -15.3214
  59   2.0000      -0.558205       -15.1895
  60   2.0000      -0.501980       -13.6596
  61   2.0000      -0.495493       -13.4830
  62   2.0000      -0.472383       -12.8542
  63   2.0000      -0.471488       -12.8298
  64   2.0000      -0.451866       -12.2959
  65   2.0000      -0.444467       -12.0946
  66   2.0000      -0.439172       -11.9505
  67   2.0000      -0.433130       -11.7861
  68   2.0000      -0.426543       -11.6068
  69   2.0000      -0.419528       -11.4159
  70   2.0000      -0.406207       -11.0535
  71   2.0000      -0.392791       -10.6884
  72   2.0000      -0.391573       -10.6552
  73   2.0000      -0.386776       -10.5247
  74   2.0000      -0.378116       -10.2891
  75   2.0000      -0.371038       -10.0965
  76   2.0000      -0.363605        -9.8942
  77   2.0000      -0.356065        -9.6890
  78   2.0000      -0.355186        -9.6651
  79   2.0000      -0.349501        -9.5104
  80   2.0000      -0.343637        -9.3508
  81   2.0000      -0.341539        -9.2937
  82   2.0000      -0.339121        -9.2279
  83   2.0000      -0.331861        -9.0304
  84   2.0000      -0.331073        -9.0090
  85   2.0000      -0.315824        -8.5940
  86   2.0000      -0.311648        -8.4804
  87   2.0000      -0.297305        -8.0901
  88   2.0000      -0.292920        -7.9708
  89   2.0000      -0.290488        -7.9046
  90   2.0000      -0.280463        -7.6318
  91   2.0000      -0.273062        -7.4304
  92   2.0000      -0.266719        -7.2578
  93   2.0000      -0.260521        -7.0891
  94   2.0000      -0.255418        -6.9503
  95   2.0000      -0.239201        -6.5090
  96   2.0000      -0.222309        -6.0493
  97   2.0000      -0.201262        -5.4766
  98   2.0000      -0.198765        -5.4087
  99   2.0000      -0.190949        -5.1960
 100   2.0000      -0.180149        -4.9021
 101   0.0000      -0.036985        -1.0064
 102   0.0000      -0.029701        -0.8082
 103   0.0000      -0.010877        -0.2960
 104   0.0000       0.005811         0.1581
 105   0.0000       0.018945         0.5155

MULLIKEN ATOMIC CHARGES
-----------------------
   0 C :   -0.283666
   1 C :   -0.011054
   2 O :   -0.377990
   3 P :    0.630183
   4 S :   -0.338405
   5 O :   -0.363617
   6 C :   -0.010515
   7 C :   -0.309599
   8 S :   -0.096266
   9 C :   -0.344723
  10 S :   -0.105381
  11 P :    0.619773
  12 S :   -0.313955
  13 O :   -0.365096
  14 C :    0.006602
  15 C :   -0.318644
  16 O :   -0.384640
  17 C :   -0.013310
  18 C :   -0.311426
  19 H :    0.117585
  20 H :    0.111363
  21 H :    0.120269
  22 H :    0.102399
  23 H :    0.104732
  24 H :    0.130012
  25 H :    0.104817
  26 H :    0.110745
  27 H :    0.114893
  28 H :    0.121398
  29 H :    0.195944
  30 H :    0.181621
  31 H :    0.108980
  32 H :    0.109026
  33 H :    0.121051
  34 H :    0.112558
  35 H :    0.125385
  36 H :    0.104365
  37 H :    0.130886
  38 H :    0.112494
  39 H :    0.140889
  40 H :    0.110316
Sum of atomic charges:   -0.0000000

LOEWDIN ATOMIC CHARGES
----------------------
   0 C :   -0.350846
   1 C :   -0.121195
   2 O :   -0.246924
   3 P :    0.571752
   4 S :   -0.318572
   5 O :   -0.234305
   6 C :   -0.118256
   7 C :   -0.367319
   8 S :    0.079164
   9 C :   -0.480527
  10 S :    0.073095
  11 P :    0.572574
  12 S :   -0.302656
  13 O :   -0.244222
  14 C :   -0.108713
  15 C :   -0.368808
  16 O :   -0.239743
  17 C :   -0.114600
  18 C :   -0.365334
  19 H :    0.127239
  20 H :    0.130562
  21 H :    0.128043
  22 H :    0.110846
  23 H :    0.106541
  24 H :    0.110787
  25 H :    0.119804
  26 H :    0.130086
  27 H :    0.124905
  28 H :    0.120048
  29 H :    0.124189
  30 H :    0.136000
  31 H :    0.121747
  32 H :    0.114308
  33 H :    0.125941
  34 H :    0.130579
  35 H :    0.117102
  36 H :    0.118470
  37 H :    0.111004
  38 H :    0.132490
  39 H :    0.123162
  40 H :    0.121580

  Mayer bond orders larger than 0.100000
B(  0-C ,  1-C ) :   1.1603 B(  0-C , 19-H ) :   0.9503 B(  0-C , 20-H ) :   0.9418
B(  0-C , 21-H ) :   0.9514 B(  1-C ,  2-O ) :   0.9057 B(  1-C , 22-H ) :   0.9308
B(  1-C , 23-H ) :   0.9047 B(  2-O ,  3-P ) :   1.0994 B(  3-P ,  4-S ) :   1.6157
B(  3-P ,  5-O ) :   1.1401 B(  3-P ,  8-S ) :   0.9707 B(  4-S ,  8-S ) :   0.1155
B(  5-O ,  6-C ) :   0.8972 B(  6-C ,  7-C ) :   1.1629 B(  6-C , 24-H ) :   0.9099
B(  6-C , 25-H ) :   0.9359 B(  7-C , 26-H ) :   0.9384 B(  7-C , 27-H ) :   0.9448
B(  7-C , 28-H ) :   0.9334 B(  8-S ,  9-C ) :   1.0020 B(  9-C , 10-S ) :   0.9914
B(  9-C , 29-H ) :   0.8497 B(  9-C , 30-H ) :   0.9116 B( 10-S , 11-P ) :   0.9461
B( 10-S , 12-S ) :   0.1167 B( 11-P , 12-S ) :   1.6337 B( 11-P , 13-O ) :   1.1250
B( 11-P , 16-O ) :   1.0997 B( 12-S , 29-H ) :   0.1095 B( 13-O , 14-C ) :   0.9054
B( 14-C , 15-C ) :   1.1690 B( 14-C , 31-H ) :   0.9350 B( 14-C , 32-H ) :   0.9280
B( 15-C , 33-H ) :   0.9429 B( 15-C , 34-H ) :   0.9357 B( 15-C , 35-H ) :   0.9382
B( 16-O , 17-C ) :   0.8930 B( 17-C , 18-C ) :   1.1731 B( 17-C , 36-H ) :   0.9337
B( 17-C , 37-H ) :   0.9031 B( 18-C , 38-H ) :   0.9397 B( 18-C , 39-H ) :   0.9309
B( 18-C , 40-H ) :   0.9456

Dispersion correction           -0.065863536
FINAL SINGLE POINT ENERGY     -2929.515284542822

DIPOLE MOMENT
-------------

Method             : SCF
Type of density    : Electron Density
Multiplicity       :   1
Irrep              :   0
Energy             : -2929.6340993340545538 Eh
Relativity type    :
Basis              : AO
                                X                 Y                 Z
Electronic contribution:     -3.775348438      -8.590106209       8.484468995
Nuclear contribution   :      3.473243822       8.564239661      -9.272401368
                        -----------------------------------------
Total Dipole Moment    :     -0.302104617      -0.025866548      -0.787932373
                        -----------------------------------------
Magnitude (a.u.)       :      0.844259262
Magnitude (Debye)      :      2.145936504

Rotational constants in cm-1:             0.013441             0.004756             0.004662
Rotational constants in MHz :           402.942504           142.580997           139.768035

                             ****ORCA TERMINATED NORMALLY****
TOTAL RUN TIME: 0 days 0 hours 0 minutes 20 seconds 767 msec
