                         Program Version 6.0.0  -   RELEASE  -
|  1> ! pbe def2-sv(p) def2/J RI DEFGRID1 loosescf d4 GCP(DFT/SV(P)) printgap
|  2> %output
|  3>     printlevel normal
|  4> end
|  5> * xyz 0 1
|  6> C 4.5698735112 0.1173401932 -1.8283715398
|  7> C 4.3465293705 1.0599827852 -0.6637642626
|  8> O 3.4409888854 0.519011172 0.3143104118
|  9> P 1.8939708894 0.291462769 0.0238886223
| 10> S 1.0307881954 1.7133396793 -1.0059485808
| 11> O 1.2869611544 0.1467448261 1.4703544205
| 12> C 1.6950988721 -0.8478333264 2.4420720243
| 13> C 2.7780442079 -0.3081097481 3.3528265205
| 14> S 1.8433794775 -1.6620512325 -0.8192646933
| 15> C 0.0997928924 -1.708196656 -1.2826323034
| 16> S -1.0233928276 -1.7941061965 0.1571186033
| 17> P -2.1172530891 -0.0274285375 -0.1218053919
| 18> S -2.2938717639 0.6649185711 -1.952648457
| 19> O -1.4417189621 0.9068596667 0.963114962
| 20> C -1.8104584011 2.2978804674 1.0834997127
| 21> C -0.940715564 2.9103286598 2.1601040517
| 22> O -3.5176668558 -0.3118317856 0.5827220941
| 23> C -4.6462652485 -0.8491537801 -0.1288615536
| 24> C -4.421215621 -2.2854571942 -0.5547548929
| 25> H 4.8412951669 -0.8718856442 -1.4686427434
| 26> H 3.6627066388 0.0378021684 -2.4250422403
| 27> H 5.3669703403 0.5059978064 -2.4540261579
| 28> H 3.9446007785 2.016048978 -1.0133362322
| 29> H 5.2656544107 1.2281270236 -0.1006260078
| 30> H 0.7795815826 -1.0720704508 2.9932639575
| 31> H 2.0330926396 -1.743680811 1.9133619072
| 32> H 2.4413677575 0.6053409953 3.8354426442
| 33> H 3.0025381702 -1.0519663371 4.1109292392
| 34> H 3.6778934922 -0.0934637806 2.782951619
| 35> H -0.0300843923 -2.6172636607 -1.8639943554
| 36> H -0.1567176004 -0.8232058876 -1.8718384027
| 37> H -1.6456798643 2.7802234852 0.1134999456
| 38> H -2.8723464684 2.3536532211 1.3379168886
| 39> H -1.1026386883 2.3989707782 3.1043261335
| 40> H 0.1057293436 2.813442697 1.880637554
| 41> H -1.1889977745 3.9613913775 2.2647192125
| 42> H -5.4685291184 -0.7616989604 0.5825171777
| 43> H -4.836132843 -0.2152280007 -1.0009662124
| 44> H -4.1180358881 -2.8896725961 0.2964739191
| 45> H -5.3405078897 -2.682935461 -0.9725806185
| 46> H -3.6412276889 -2.3282714736 -1.3137153688
| 47> *
| 48>
| 49>                          ****END OF INPUT****

CARTESIAN COORDINATES (ANGSTROEM)
---------------------------------
  C      4.569874    0.117340   -1.828372
  C      4.346529    1.059983   -0.663764
  O      3.440989    0.519011    0.314310
  P      1.893971    0.291463    0.023889
  S      1.030788    1.713340   -1.005949
  O      1.286961    0.146745    1.470354
  C      1.695099   -0.847833    2.442072
  C      2.778044   -0.308110    3.352827
  S      1.843379   -1.662051   -0.819265
  C      0.099793   -1.708197   -1.282632
  S     -1.023393   -1.794106    0.157119
  P     -2.117253   -0.027429   -0.121805
  S     -2.293872    0.664919   -1.952648
  O     -1.441719    0.906860    0.963115
  C     -1.810458    2.297880    1.083500
  C     -0.940716    2.910329    2.160104
  O     -3.517667   -0.311832    0.582722
  C     -4.646265   -0.849154   -0.128862
  C     -4.421216   -2.285457   -0.554755
  H      4.841295   -0.871886   -1.468643
  H      3.662707    0.037802   -2.425042
  H      5.366970    0.505998   -2.454026
  H      3.944601    2.016049   -1.013336
  H      5.265654    1.228127   -0.100626
  H      0.779582   -1.072070    2.993264
  H      2.033093   -1.743681    1.913362
  H      2.441368    0.605341    3.835443
  H      3.002538   -1.051966    4.110929
  H      3.677893   -0.093464    2.782952
  H     -0.030084   -2.617264   -1.863994
  H     -0.156718   -0.823206   -1.871838
  H     -1.645680    2.780223    0.113500
  H     -2.872346    2.353653    1.337917
  H     -1.102639    2.398971    3.104326
  H      0.105729    2.813443    1.880638
  H     -1.188998    3.961391    2.264719
  H     -5.468529   -0.761699    0.582517
  H     -4.836133   -0.215228   -1.000966
  H     -4.118036   -2.889673    0.296474
  H     -5.340508   -2.682935   -0.972581
  H     -3.641228   -2.328271   -1.313715

 Total Charge           Charge          ....    0
 Multiplicity           Mult            ....    1
 Number of Electrons    NEL             ....  202
 Basis Dimension        Dim             ....  334

ORBITAL ENERGIES
----------------

  NO   OCC          E(Eh)            E(eV)
   0   2.0000     -88.045105     -2395.8291
   1   2.0000     -88.042388     -2395.7552
   2   2.0000     -87.982486     -2394.1252
   3   2.0000     -87.980042     -2394.0587
   4   2.0000     -76.425086     -2079.6323
   5   2.0000     -76.419041     -2079.4678
   6   2.0000     -18.795620      -511.4548
   7   2.0000     -18.789422      -511.2862
   8   2.0000     -18.787046      -511.2215
   9   2.0000     -18.777636      -510.9655
  10   2.0000      -9.955601      -270.9057
  11   2.0000      -9.953951      -270.8608
  12   2.0000      -9.951714      -270.7999
  13   2.0000      -9.947024      -270.6723
  14   2.0000      -9.938931      -270.4521
  15   2.0000      -9.885252      -268.9914
  16   2.0000      -9.884663      -268.9753
  17   2.0000      -9.880624      -268.8655
  18   2.0000      -9.872745      -268.6510
  19   2.0000      -7.690094      -209.2581
  20   2.0000      -7.687642      -209.1914
  21   2.0000      -7.627400      -207.5521
  22   2.0000      -7.624995      -207.4867
  23   2.0000      -6.422496      -174.7650
  24   2.0000      -6.416827      -174.6108
  25   2.0000      -5.717923      -155.5926
  26   2.0000      -5.715508      -155.5269
  27   2.0000      -5.714409      -155.4970
  28   2.0000      -5.712197      -155.4368
  29   2.0000      -5.707300      -155.3035
  30   2.0000      -5.704476      -155.2267
  31   2.0000      -5.656378      -153.9179
  32   2.0000      -5.653852      -153.8491
  33   2.0000      -5.647899      -153.6871
  34   2.0000      -5.647600      -153.6790
  35   2.0000      -5.645803      -153.6301
  36   2.0000      -5.645040      -153.6093
  37   2.0000      -4.645370      -126.4070
  38   2.0000      -4.644313      -126.3782
  39   2.0000      -4.642639      -126.3326
  40   2.0000      -4.639172      -126.2383
  41   2.0000      -4.638396      -126.2172
  42   2.0000      -4.637630      -126.1963
  43   2.0000      -0.987712       -26.8770
  44   2.0000      -0.978796       -26.6344
  45   2.0000      -0.945222       -25.7208
  46   2.0000      -0.935039       -25.4437
  47   2.0000      -0.762855       -20.7583
  48   2.0000      -0.719111       -19.5680
  49   2.0000      -0.706629       -19.2283
  50   2.0000      -0.690159       -18.7802
  51   2.0000      -0.681576       -18.5466
  52   2.0000      -0.672680       -18.3046
  53   2.0000      -0.648581       -17.6488
  54   2.0000      -0.630738       -17.1633
  55   2.0000      -0.598231       -16.2787
  56   2.0000      -0.588289       -16.0082
  57   2.0000      -0.574453       -15.6317
  58   2.0000      -0.564634       -15.3645
  59   2.0000      -0.554116       -15.0783
  60   2.0000      -0.498833       -13.5739
  61   2.0000      -0.494825       -13.4649
  62   2.0000      -0.474528       -12.9126
  63   2.0000      -0.465863       -12.6768
  64   2.0000      -0.449824       -12.2403
  65   2.0000      -0.444853       -12.1051
  66   2.0000      -0.440241       -11.9796
  67   2.0000      -0.430975       -11.7274
  68   2.0000      -0.426533       -11.6065
  69   2.0000      -0.418647       -11.3920
  70   2.0000      -0.413276       -11.2458
  71   2.0000      -0.392580       -10.6826
  72   2.0000      -0.387755       -10.5514
  73   2.0000      -0.382973       -10.4212
  74   2.0000      -0.380197       -10.3457
  75   2.0000      -0.367655       -10.0044
  76   2.0000      -0.363300        -9.8859
  77   2.0000      -0.355308        -9.6684
  78   2.0000      -0.352496        -9.5919
  79   2.0000      -0.348631        -9.4867
  80   2.0000      -0.346848        -9.4382
  81   2.0000      -0.343565        -9.3489
  82   2.0000      -0.338261        -9.2046
  83   2.0000      -0.333943        -9.0871
  84   2.0000      -0.323719        -8.8089
  85   2.0000      -0.315243        -8.5782
  86   2.0000      -0.308629        -8.3982
  87   2.0000      -0.295947        -8.0531
  88   2.0000      -0.291791        -7.9400
  89   2.0000      -0.290607        -7.9078
  90   2.0000      -0.278531        -7.5792
  91   2.0000      -0.269826        -7.3423
  92   2.0000      -0.264414        -7.1951
  93   2.0000      -0.260699        -7.0940
  94   2.0000      -0.256418        -6.9775
  95   2.0000      -0.237413        -6.4603
  96   2.0000      -0.220031        -5.9873
  97   2.0000      -0.213808        -5.8180
  98   2.0000      -0.203430        -5.5356
  99   2.0000      -0.193422        -5.2633
 100   2.0000      -0.184037        -5.0079
 101   0.0000      -0.039952        -1.0871
 102   0.0000      -0.029744        -0.8094
 103   0.0000      -0.011442        -0.3114
 104   0.0000       0.013027         0.3545
 105   0.0000       0.023074         0.6279

MULLIKEN ATOMIC CHARGES
-----------------------
   0 C :   -0.321370
   1 C :   -0.000691
   2 O :   -0.381454
   3 P :    0.602255
   4 S :   -0.294857
   5 O :   -0.341723
   6 C :   -0.011696
   7 C :   -0.289743
   8 S :   -0.104557
   9 C :   -0.355351
  10 S :   -0.092537
  11 P :    0.612992
  12 S :   -0.320717
  13 O :   -0.355088
  14 C :   -0.002969
  15 C :   -0.278004
  16 O :   -0.380554
  17 C :   -0.001649
  18 C :   -0.310234
  19 H :    0.116814
  20 H :    0.132217
  21 H :    0.115169
  22 H :    0.112668
  23 H :    0.104182
  24 H :    0.109651
  25 H :    0.101248
  26 H :    0.118159
  27 H :    0.108247
  28 H :    0.120857
  29 H :    0.183317
  30 H :    0.208392
  31 H :    0.111920
  32 H :    0.094894
  33 H :    0.104553
  34 H :    0.125120
  35 H :    0.103241
  36 H :    0.101838
  37 H :    0.109522
  38 H :    0.115313
  39 H :    0.110824
  40 H :    0.119800
Sum of atomic charges:    0.0000000

LOEWDIN ATOMIC CHARGES
----------------------
   0 C :   -0.371749
   1 C :   -0.118017
   2 O :   -0.248107
   3 P :    0.565560
   4 S :   -0.290043
   5 O :   -0.223219
   6 C :   -0.118574
   7 C :   -0.360434
   8 S :    0.079056
   9 C :   -0.479394
  10 S :    0.086535
  11 P :    0.569048
  12 S :   -0.312445
  13 O :   -0.234476
  14 C :   -0.117006
  15 C :   -0.352637
  16 O :   -0.249641
  17 C :   -0.120783
  18 C :   -0.369027
  19 H :    0.122830
  20 H :    0.123126
  21 H :    0.132250
  22 H :    0.112604
  23 H :    0.117999
  24 H :    0.119562
  25 H :    0.101027
  26 H :    0.127512
  27 H :    0.128995
  28 H :    0.125080
  29 H :    0.137606
  30 H :    0.127104
  31 H :    0.110363
  32 H :    0.106593
  33 H :    0.121586
  34 H :    0.125964
  35 H :    0.126976
  36 H :    0.116936
  37 H :    0.109283
  38 H :    0.123081
  39 H :    0.129684
  40 H :    0.119195

  Mayer bond orders larger than 0.100000
B(  0-C ,  1-C ) :   1.1668 B(  0-C , 19-H ) :   0.9437 B(  0-C , 20-H ) :   0.9347
B(  0-C , 21-H ) :   0.9372 B(  1-C ,  2-O ) :   0.9062 B(  1-C , 22-H ) :   0.9159
B(  1-C , 23-H ) :   0.9339 B(  2-O ,  3-P ) :   1.0804 B(  3-P ,  4-S ) :   1.6430
B(  3-P ,  5-O ) :   1.1442 B(  3-P ,  8-S ) :   0.9413 B(  4-S ,  8-S ) :   0.1036
B(  5-O ,  6-C ) :   0.8925 B(  6-C ,  7-C ) :   1.1633 B(  6-C , 24-H ) :   0.9328
B(  6-C , 25-H ) :   0.9085 B(  7-C , 26-H ) :   0.9477 B(  7-C , 27-H ) :   0.9398
B(  7-C , 28-H ) :   0.9407 B(  8-S ,  9-C ) :   1.0021 B(  9-C , 10-S ) :   0.9927
B(  9-C , 29-H ) :   0.9115 B(  9-C , 30-H ) :   0.8473 B( 10-S , 11-P ) :   0.9664
B( 10-S , 12-S ) :   0.1178 B( 11-P , 12-S ) :   1.6045 B( 11-P , 13-O ) :   1.1477
B( 11-P , 16-O ) :   1.0948 B( 13-O , 14-C ) :   0.8958 B( 14-C , 15-C ) :   1.1656
B( 14-C , 31-H ) :   0.9148 B( 14-C , 32-H ) :   0.9273 B( 15-C , 33-H ) :   0.9503
B( 15-C , 34-H ) :   0.9413 B( 15-C , 35-H ) :   0.9412 B( 16-O , 17-C ) :   0.9137
B( 17-C , 18-C ) :   1.1656 B( 17-C , 36-H ) :   0.9339 B( 17-C , 37-H ) :   0.9133
B( 18-C , 38-H ) :   0.9449 B( 18-C , 39-H ) :   0.9384 B( 18-C , 40-H ) :   0.9366

Dispersion correction           -0.068024185
FINAL SINGLE POINT ENERGY     -2929.521594121542

DIPOLE MOMENT
-------------

Method             : SCF
Type of density    : Electron Density
Multiplicity       :   1
Irrep              :   0
Energy             : -2929.6393953101696752 Eh
Relativity type    :
Basis              : AO
                                X                 Y                 Z
Electronic contribution:     -4.124642240      -1.974856876      -9.399235632
Nuclear contribution   :      4.637572739       1.267801726      10.309401655
                        -----------------------------------------
Total Dipole Moment    :      0.512930499      -0.707055150       0.910166023
                        -----------------------------------------
Magnitude (a.u.)       :      1.261517685
Magnitude (Debye)      :      3.206523130

Rotational constants in cm-1:             0.012379             0.005459             0.005212
Rotational constants in MHz :           371.105208           163.658984           156.245803

                             ****ORCA TERMINATED NORMALLY****
TOTAL RUN TIME: 0 days 0 hours 0 minutes 23 seconds 69 msec
