                         Program Version 6.0.0  -   RELEASE  -
|  1> ! wb97x-v def2-tzvp def2/J RIJCOSX DEFGRID2 scfconv7 GCP(DFT/TZ) printgap
|  2> %output
|  3>     printlevel normal
|  4> end
|  5> * xyz 0 1
|  6> S -8.699133582659916e-09 -0.06165339301528858 2.28022460077703e-11
|  7> H -0.975703646951653 0.8662646313402846 1.2315012046712241e-08
|  8> H 0.9756781470349133 0.8662914645257273 5.067983064307657e-10
|  9> *
| 10>
| 11>                          ****END OF INPUT****

CARTESIAN COORDINATES (ANGSTROEM)
---------------------------------
  S     -0.000000   -0.061653    0.000000
  H     -0.975704    0.866265    0.000000
  H      0.975678    0.866291    0.000000

 Total Charge           Charge          ....    0
 Multiplicity           Mult            ....    1
 Number of Electrons    NEL             ....   18
 Basis Dimension        Dim             ....   49

ORBITAL ENERGIES
----------------

  NO   OCC          E(Eh)            E(eV)
   0   2.0000     -94.133298     -2561.4973
   1   2.0000      -9.645641      -262.4712
   2   2.0000      -7.622741      -207.4253
   3   2.0000      -7.622062      -207.4068
   4   2.0000      -7.621860      -207.4014
   5   2.0000      -1.232931       -33.5497
   6   2.0000      -0.859372       -23.3847
   7   2.0000      -0.778232       -21.1768
   8   2.0000      -0.661824       -18.0091
   9   0.0000      -0.144677        -3.9369
  10   0.0000      -0.091764        -2.4970
  11   0.0000       0.128105         3.4859
  12   0.0000       0.156168         4.2496
  13   0.0000       0.158981         4.3261

MULLIKEN ATOMIC CHARGES
-----------------------
   0 S :   -0.319196
   1 H :    0.159598
   2 H :    0.159598
Sum of atomic charges:    0.0000000

LOEWDIN ATOMIC CHARGES
----------------------
   0 S :   -0.052312
   1 H :    0.026156
   2 H :    0.026156

  Mayer bond orders larger than 0.100000
B(  0-S ,  1-H ) :   0.9733 B(  0-S ,  2-H ) :   0.9733

FINAL SINGLE POINT ENERGY      -399.339457249280

DIPOLE MOMENT
-------------

Method             : SCF
Type of density    : Electron Density
Multiplicity       :   1
Irrep              :   0
Energy             :  -399.3414792608803054 Eh
Relativity type    :
Basis              : AO
                                X                 Y                 Z
Electronic contribution:      0.000016258      -1.181622837      -0.000000034
Nuclear contribution   :     -0.000022515       1.639707726       0.000000011
                        -----------------------------------------
Total Dipole Moment    :     -0.000006256       0.458084889      -0.000000023
                        -----------------------------------------
Magnitude (a.u.)       :      0.458084889
Magnitude (Debye)      :      1.164359255

Rotational constants in cm-1:            10.321901             8.783788             4.745466
Rotational constants in MHz :        309442.803778        263331.352569        142265.483103

                             ****ORCA TERMINATED NORMALLY****
TOTAL RUN TIME: 0 days 0 hours 0 minutes 5 seconds 823 msec
