                         Program Version 6.0.0  -   RELEASE  -
|  1> ! wb97x-v def2-tzvp def2/J RIJCOSX DEFGRID2 scfconv7 GCP(DFT/TZ) printgap
|  2> %output
|  3>     printlevel normal
|  4> end
|  5> %cpcm
|  6>     smd true
|  7>     smdsolvent "water"
|  8> end
|  9> * xyz 0 1
| 10> S -8.699133582659916e-09 -0.06165339301528858 2.28022460077703e-11
| 11> H -0.975703646951653 0.8662646313402846 1.2315012046712241e-08
| 12> H 0.9756781470349133 0.8662914645257273 5.067983064307657e-10
| 13> *
| 14>
| 15>                          ****END OF INPUT****

CARTESIAN COORDINATES (ANGSTROEM)
---------------------------------
  S     -0.000000   -0.061653    0.000000
  H     -0.975704    0.866265    0.000000
  H      0.975678    0.866291    0.000000

 Total Charge           Charge          ....    0
 Multiplicity           Mult            ....    1
 Number of Electrons    NEL             ....   18
 Basis Dimension        Dim             ....   49

ORBITAL ENERGIES
----------------

  NO   OCC          E(Eh)            E(eV)
   0   2.0000     -94.127919     -2561.3509
   1   2.0000      -9.640521      -262.3319
   2   2.0000      -7.617647      -207.2867
   3   2.0000      -7.616982      -207.2686
   4   2.0000      -7.616954      -207.2678
   5   2.0000      -1.227693       -33.4072
   6   2.0000      -0.852055       -23.1856
   7   2.0000      -0.773845       -21.0574
   8   2.0000      -0.658711       -17.9244
   9   0.0000      -0.135094        -3.6761
  10   0.0000      -0.078749        -2.1429
  11   0.0000       0.134713         3.6657
  12   0.0000       0.162485         4.4214
  13   0.0000       0.166629         4.5342

MULLIKEN ATOMIC CHARGES
-----------------------
   0 S :   -0.394226
   1 H :    0.197113
   2 H :    0.197113
Sum of atomic charges:   -0.0000000

LOEWDIN ATOMIC CHARGES
----------------------
   0 S :   -0.082357
   1 H :    0.041178
   2 H :    0.041178

  Mayer bond orders larger than 0.100000
B(  0-S ,  1-H ) :   0.9626 B(  0-S ,  2-H ) :   0.9626

FINAL SINGLE POINT ENERGY      -399.341837500547

DIPOLE MOMENT
-------------

Method             : SCF
Type of density    : Electron Density
Multiplicity       :   1
Irrep              :   0
Energy             :  -399.3438595121465937 Eh
Relativity type    :
Basis              : AO
                                X                 Y                 Z
Electronic contribution:      0.000014423      -1.049614442      -0.000000039
Nuclear contribution   :     -0.000022515       1.639707726       0.000000011
                        -----------------------------------------
Total Dipole Moment    :     -0.000008091       0.590093284      -0.000000028
                        -----------------------------------------
Magnitude (a.u.)       :      0.590093284
Magnitude (Debye)      :      1.499897930

Rotational constants in cm-1:            10.321901             8.783788             4.745466
Rotational constants in MHz :        309442.803778        263331.352569        142265.483103

                             ****ORCA TERMINATED NORMALLY****
TOTAL RUN TIME: 0 days 0 hours 0 minutes 7 seconds 551 msec
