                         Program Version 6.0.0  -   RELEASE  -
|  1> ! pbe def2-sv(p) def2/J RI DEFGRID1 loosescf d4 GCP(DFT/SV(P)) printgap
|  2> %output
|  3>     printlevel normal
|  4> end
|  5> * xyz 0 1
|  6> C 4.0436286915 -1.1272617365 -2.7329592854
|  7> C 4.4371814025 -0.7125261764 -1.3313554178
|  8> O 3.5255114256 0.2448259328 -0.7556431275
|  9> P 1.968654199 0.0155554411 -0.5671757177
| 10> S 0.8014822981 0.2352990687 -2.1271653809
| 11> O 1.6052570468 1.0990499864 0.5174980842
| 12> C 2.4264485961 1.5400503612 1.6262027882
| 13> C 2.6362376381 0.4577172194 2.6650867943
| 14> S 1.8278657719 -1.9156198938 0.3027337773
| 15> C 0.028673039 -2.0203753679 0.2315924214
| 16> S -0.8010598126 -0.9551962272 1.4640374033
| 17> P -1.8742701535 0.4968970016 0.3650640895
| 18> S -1.2254062214 2.3073763954 0.0172377352
| 19> O -3.1816952944 0.6503514798 1.256363406
| 20> C -4.0219914287 -0.4584487744 1.6566417207
| 21> C -3.8881384867 -0.7085196983 3.1457045426
| 22> O -2.2684423029 -0.400747772 -0.9002167063
| 23> C -2.6917712271 0.1913471149 -2.1405621832
| 24> C -4.0824584724 0.7793569841 -2.027138962
| 25> H 3.9383066573 -0.2537875511 -3.3722545394
| 26> H 4.8060946528 -1.7825699101 -3.1412769418
| 27> H 3.0915669127 -1.65541601 -2.7157877914
| 28> H 5.3943246214 -0.1881623872 -1.3231056521
| 29> H 4.4811861629 -1.5813263414 -0.6690982836
| 30> H 3.3765508616 1.8957387768 1.2237940637
| 31> H 1.85601509 2.3799365165 2.0280555529
| 32> H 1.6802151943 0.0445432788 2.9804193648
| 33> H 3.2547353179 -0.343852972 2.2670653621
| 34> H 3.1344498727 0.8939784203 3.5253093031
| 35> H -0.2311101518 -3.0463657401 0.4770117741
| 36> H -0.3100013757 -1.7422622876 -0.7666334662
| 37> H -5.0366935088 -0.1484949813 1.3998539382
| 38> H -3.7507330913 -1.3443519417 1.0764710325
| 39> H -2.8753160949 -1.0210398588 3.3891646452
| 40> H -4.114712605 0.2014372376 3.694110207
| 41> H -4.5840192137 -1.4881061405 3.4387344574
| 42> H -1.9637350947 0.956880036 -2.4280867087
| 43> H -2.6486416146 -0.6317283851 -2.8555602446
| 44> H -4.3806552173 1.178771735 -2.9912134572
| 45> H -4.7918179791 0.0166620085 -1.7161277399
| 46> H -4.0799486849 1.5869484765 -1.295204163
| 47> *
| 48>
| 49>                          ****END OF INPUT****

CARTESIAN COORDINATES (ANGSTROEM)
---------------------------------
  C      4.043629   -1.127262   -2.732959
  C      4.437181   -0.712526   -1.331355
  O      3.525511    0.244826   -0.755643
  P      1.968654    0.015555   -0.567176
  S      0.801482    0.235299   -2.127165
  O      1.605257    1.099050    0.517498
  C      2.426449    1.540050    1.626203
  C      2.636238    0.457717    2.665087
  S      1.827866   -1.915620    0.302734
  C      0.028673   -2.020375    0.231592
  S     -0.801060   -0.955196    1.464037
  P     -1.874270    0.496897    0.365064
  S     -1.225406    2.307376    0.017238
  O     -3.181695    0.650351    1.256363
  C     -4.021991   -0.458449    1.656642
  C     -3.888138   -0.708520    3.145705
  O     -2.268442   -0.400748   -0.900217
  C     -2.691771    0.191347   -2.140562
  C     -4.082458    0.779357   -2.027139
  H      3.938307   -0.253788   -3.372255
  H      4.806095   -1.782570   -3.141277
  H      3.091567   -1.655416   -2.715788
  H      5.394325   -0.188162   -1.323106
  H      4.481186   -1.581326   -0.669098
  H      3.376551    1.895739    1.223794
  H      1.856015    2.379937    2.028056
  H      1.680215    0.044543    2.980419
  H      3.254735   -0.343853    2.267065
  H      3.134450    0.893978    3.525309
  H     -0.231110   -3.046366    0.477012
  H     -0.310001   -1.742262   -0.766633
  H     -5.036694   -0.148495    1.399854
  H     -3.750733   -1.344352    1.076471
  H     -2.875316   -1.021040    3.389165
  H     -4.114713    0.201437    3.694110
  H     -4.584019   -1.488106    3.438734
  H     -1.963735    0.956880   -2.428087
  H     -2.648642   -0.631728   -2.855560
  H     -4.380655    1.178772   -2.991213
  H     -4.791818    0.016662   -1.716128
  H     -4.079949    1.586948   -1.295204

 Total Charge           Charge          ....    0
 Multiplicity           Mult            ....    1
 Number of Electrons    NEL             ....  202
 Basis Dimension        Dim             ....  334

ORBITAL ENERGIES
----------------

  NO   OCC          E(Eh)            E(eV)
   0   2.0000     -88.044861     -2395.8225
   1   2.0000     -88.039872     -2395.6867
   2   2.0000     -87.978171     -2394.0077
   3   2.0000     -87.966731     -2393.6964
   4   2.0000     -76.424664     -2079.6208
   5   2.0000     -76.414338     -2079.3398
   6   2.0000     -18.797135      -511.4960
   7   2.0000     -18.784228      -511.1448
   8   2.0000     -18.781099      -511.0597
   9   2.0000     -18.780974      -511.0563
  10   2.0000      -9.962727      -271.0996
  11   2.0000      -9.958129      -270.9745
  12   2.0000      -9.949767      -270.7469
  13   2.0000      -9.948080      -270.7010
  14   2.0000      -9.941178      -270.5132
  15   2.0000      -9.885082      -268.9867
  16   2.0000      -9.883354      -268.9397
  17   2.0000      -9.881228      -268.8819
  18   2.0000      -9.877992      -268.7938
  19   2.0000      -7.690055      -209.2570
  20   2.0000      -7.684818      -209.1145
  21   2.0000      -7.623136      -207.4361
  22   2.0000      -7.612009      -207.1333
  23   2.0000      -6.421681      -174.7428
  24   2.0000      -6.411983      -174.4789
  25   2.0000      -5.717713      -155.5869
  26   2.0000      -5.714521      -155.5000
  27   2.0000      -5.713029      -155.4594
  28   2.0000      -5.708903      -155.3472
  29   2.0000      -5.707259      -155.3024
  30   2.0000      -5.701815      -155.1543
  31   2.0000      -5.652110      -153.8017
  32   2.0000      -5.643848      -153.5769
  33   2.0000      -5.643109      -153.5568
  34   2.0000      -5.641326      -153.5083
  35   2.0000      -5.632657      -153.2724
  36   2.0000      -5.631697      -153.2463
  37   2.0000      -4.644753      -126.3902
  38   2.0000      -4.643628      -126.3595
  39   2.0000      -4.641576      -126.3037
  40   2.0000      -4.634975      -126.1241
  41   2.0000      -4.633744      -126.0906
  42   2.0000      -4.632064      -126.0449
  43   2.0000      -0.987242       -26.8642
  44   2.0000      -0.975280       -26.5387
  45   2.0000      -0.940598       -25.5950
  46   2.0000      -0.935536       -25.4572
  47   2.0000      -0.762551       -20.7501
  48   2.0000      -0.717278       -19.5181
  49   2.0000      -0.707654       -19.2563
  50   2.0000      -0.690277       -18.7834
  51   2.0000      -0.685884       -18.6639
  52   2.0000      -0.671344       -18.2682
  53   2.0000      -0.646436       -17.5904
  54   2.0000      -0.628967       -17.1151
  55   2.0000      -0.591345       -16.0913
  56   2.0000      -0.582551       -15.8520
  57   2.0000      -0.576830       -15.6963
  58   2.0000      -0.568623       -15.4730
  59   2.0000      -0.561863       -15.2891
  60   2.0000      -0.498840       -13.5741
  61   2.0000      -0.492747       -13.4083
  62   2.0000      -0.471391       -12.8272
  63   2.0000      -0.468875       -12.7587
  64   2.0000      -0.454069       -12.3558
  65   2.0000      -0.446879       -12.1602
  66   2.0000      -0.437542       -11.9061
  67   2.0000      -0.431253       -11.7350
  68   2.0000      -0.425615       -11.5816
  69   2.0000      -0.416695       -11.3388
  70   2.0000      -0.410376       -11.1669
  71   2.0000      -0.401913       -10.9366
  72   2.0000      -0.394043       -10.7225
  73   2.0000      -0.385976       -10.5029
  74   2.0000      -0.377536       -10.2733
  75   2.0000      -0.362054        -9.8520
  76   2.0000      -0.355267        -9.6673
  77   2.0000      -0.352665        -9.5965
  78   2.0000      -0.351902        -9.5757
  79   2.0000      -0.347897        -9.4668
  80   2.0000      -0.345098        -9.3906
  81   2.0000      -0.341338        -9.2883
  82   2.0000      -0.338266        -9.2047
  83   2.0000      -0.336120        -9.1463
  84   2.0000      -0.327244        -8.9048
  85   2.0000      -0.323119        -8.7925
  86   2.0000      -0.306805        -8.3486
  87   2.0000      -0.299162        -8.1406
  88   2.0000      -0.296846        -8.0776
  89   2.0000      -0.286443        -7.7945
  90   2.0000      -0.275988        -7.5100
  91   2.0000      -0.270568        -7.3625
  92   2.0000      -0.266273        -7.2457
  93   2.0000      -0.260836        -7.0977
  94   2.0000      -0.254327        -6.9206
  95   2.0000      -0.235346        -6.4041
  96   2.0000      -0.218238        -5.9386
  97   2.0000      -0.205202        -5.5838
  98   2.0000      -0.195163        -5.3107
  99   2.0000      -0.184127        -5.0104
 100   2.0000      -0.169820        -4.6211
 101   0.0000      -0.043506        -1.1839
 102   0.0000      -0.024230        -0.6593
 103   0.0000      -0.017348        -0.4721
 104   0.0000       0.000354         0.0096
 105   0.0000       0.016149         0.4394

MULLIKEN ATOMIC CHARGES
-----------------------
   0 C :   -0.305858
   1 C :   -0.016208
   2 O :   -0.379683
   3 P :    0.611397
   4 S :   -0.306735
   5 O :   -0.334223
   6 C :    0.007347
   7 C :   -0.320485
   8 S :   -0.119755
   9 C :   -0.348438
  10 S :   -0.110920
  11 P :    0.612397
  12 S :   -0.287817
  13 O :   -0.368773
  14 C :   -0.021111
  15 C :   -0.285453
  16 O :   -0.391082
  17 C :   -0.012333
  18 C :   -0.308763
  19 H :    0.128101
  20 H :    0.110896
  21 H :    0.125375
  22 H :    0.110968
  23 H :    0.114154
  24 H :    0.106010
  25 H :    0.113191
  26 H :    0.131584
  27 H :    0.113070
  28 H :    0.109599
  29 H :    0.180049
  30 H :    0.211338
  31 H :    0.107090
  32 H :    0.099876
  33 H :    0.121083
  34 H :    0.119445
  35 H :    0.106145
  36 H :    0.129590
  37 H :    0.099291
  38 H :    0.111659
  39 H :    0.106127
  40 H :    0.131856
Sum of atomic charges:   -0.0000000

LOEWDIN ATOMIC CHARGES
----------------------
   0 C :   -0.369070
   1 C :   -0.113899
   2 O :   -0.242859
   3 P :    0.569596
   4 S :   -0.295049
   5 O :   -0.221444
   6 C :   -0.107172
   7 C :   -0.371078
   8 S :    0.065665
   9 C :   -0.476579
  10 S :    0.080818
  11 P :    0.559281
  12 S :   -0.293721
  13 O :   -0.245906
  14 C :   -0.123560
  15 C :   -0.359936
  16 O :   -0.252191
  17 C :   -0.123444
  18 C :   -0.366050
  19 H :    0.131777
  20 H :    0.130009
  21 H :    0.121454
  22 H :    0.121945
  23 H :    0.107588
  24 H :    0.112294
  25 H :    0.124193
  26 H :    0.124515
  27 H :    0.113391
  28 H :    0.129230
  29 H :    0.136826
  30 H :    0.130734
  31 H :    0.118199
  32 H :    0.104485
  33 H :    0.118948
  34 H :    0.128751
  35 H :    0.128043
  36 H :    0.111633
  37 H :    0.115412
  38 H :    0.130831
  39 H :    0.119687
  40 H :    0.126656

  Mayer bond orders larger than 0.100000
B(  0-C ,  1-C ) :   1.1669 B(  0-C , 19-H ) :   0.9434 B(  0-C , 20-H ) :   0.9346
B(  0-C , 21-H ) :   0.9308 B(  1-C ,  2-O ) :   0.9111 B(  1-C , 22-H ) :   0.9336
B(  1-C , 23-H ) :   0.9258 B(  2-O ,  3-P ) :   1.0860 B(  3-P ,  4-S ) :   1.6358
B(  3-P ,  5-O ) :   1.1591 B(  3-P ,  8-S ) :   0.9244 B(  4-S ,  8-S ) :   0.1071
B(  5-O ,  6-C ) :   0.8971 B(  6-C ,  7-C ) :   1.1680 B(  6-C , 24-H ) :   0.9297
B(  6-C , 25-H ) :   0.9299 B(  7-C , 26-H ) :   0.9372 B(  7-C , 27-H ) :   0.9416
B(  7-C , 28-H ) :   0.9364 B(  8-S ,  9-C ) :   1.0119 B(  9-C , 10-S ) :   0.9915
B(  9-C , 29-H ) :   0.9109 B(  9-C , 30-H ) :   0.8550 B( 10-S , 11-P ) :   0.9433
B( 10-S , 12-S ) :   0.1026 B( 11-P , 12-S ) :   1.6783 B( 11-P , 13-O ) :   1.0955
B( 11-P , 16-O ) :   1.0651 B( 13-O , 14-C ) :   0.9023 B( 14-C , 15-C ) :   1.1653
B( 14-C , 31-H ) :   0.9313 B( 14-C , 32-H ) :   0.9136 B( 15-C , 33-H ) :   0.9399
B( 15-C , 34-H ) :   0.9461 B( 15-C , 35-H ) :   0.9406 B( 16-O , 17-C ) :   0.8982
B( 17-C , 18-C ) :   1.1612 B( 17-C , 36-H ) :   0.9074 B( 17-C , 37-H ) :   0.9356
B( 18-C , 38-H ) :   0.9403 B( 18-C , 39-H ) :   0.9456 B( 18-C , 40-H ) :   0.9336

Dispersion correction           -0.068702176
FINAL SINGLE POINT ENERGY     -2929.505994177382

DIPOLE MOMENT
-------------

Method             : SCF
Type of density    : Electron Density
Multiplicity       :   1
Irrep              :   0
Energy             : -2929.6235824399182093 Eh
Relativity type    :
Basis              : AO
                                X                 Y                 Z
Electronic contribution:      4.052615674       4.651196020      -1.872211006
Nuclear contribution   :     -3.628354109      -6.121892500       2.280302213
                        -----------------------------------------
Total Dipole Moment    :      0.424261564      -1.470696479       0.408091207
                        -----------------------------------------
Magnitude (a.u.)       :      1.584135235
Magnitude (Debye)      :      4.026551772

Rotational constants in cm-1:             0.012761             0.005555             0.004985
Rotational constants in MHz :           382.556207           166.524534           149.440925

                             ****ORCA TERMINATED NORMALLY****
TOTAL RUN TIME: 0 days 0 hours 0 minutes 21 seconds 411 msec
