                         Program Version 6.0.0  -   RELEASE  -
|  1> ! r2scan-3c def2/J RI DEFGRID2 scfconv6 printgap
|  2> %output
|  3>     printlevel normal
|  4> end
|  5> * xyz 0 1
|  6> C 5.8378594391 -0.3021683809 0.2632745318
|  7> C 4.5114613946 -0.6645602163 -0.3735737791
|  8> O 3.4703307074 0.0280265089 0.3427922801
|  9> P 2.021896721 0.2293526442 -0.2810621196
| 10> S 2.0262289107 0.885902566 -2.132001884
| 11> O 1.3347941279 1.1102145683 0.8372818004
| 12> C 1.3709542747 2.5508950453 0.8167711994
| 13> C 2.7761717667 3.0845884674 0.98820363
| 14> S 1.1612960091 -1.6608384798 0.0476627595
| 15> C -0.0645286945 -1.7423475122 -1.3051495894
| 16> S -1.7474101229 -1.960683009 -0.6937549008
| 17> P -2.0127511051 -0.0201975984 0.1342267173
| 18> S -1.364158057 1.4493483481 -0.9886295736
| 19> O -1.3669998655 0.0072041617 1.5664310052
| 20> C -1.3689732819 -1.0626151308 2.5484715708
| 21> C -2.7540252025 -1.5873226784 2.853947668
| 22> O -3.5687695269 0.0321191669 0.4337828059
| 23> C -4.5324176298 0.1521503932 -0.631961559
| 24> C -5.8492877062 0.585342475 -0.0206680379
| 25> H 6.0167848586 0.7658141152 0.1768299598
| 26> H 5.8290962627 -0.5741272779 1.3146383055
| 27> H 6.6329500535 -0.840248069 -0.2421049003
| 28> H 4.3160014825 -1.7381537891 -0.3044529249
| 29> H 4.4715538665 -0.3603766246 -1.425146519
| 30> H 0.9312279323 2.8938744182 -0.1260225063
| 31> H 0.7173953546 2.835315891 1.6429902817
| 32> H 3.3807818532 2.812133921 0.1237435087
| 33> H 2.7406791547 4.166664835 1.0672011949
| 34> H 3.2293607246 2.666485741 1.8832230615
| 35> H 0.1584563944 -2.6181299492 -1.9086648063
| 36> H 0.0060818245 -0.8247863584 -1.8963040018
| 37> H -0.7175536214 -1.8607890143 2.1808668229
| 38> H -0.9121890343 -0.5912682296 3.4199714723
| 39> H -3.4142082452 -0.7698575212 3.1314638776
| 40> H -3.1669096236 -2.0970685158 1.9860319352
| 41> H -2.6866731752 -2.291594882 3.677545998
| 42> H -4.1635080365 0.8866880024 -1.3558222475
| 43> H -4.6191770779 -0.8206776979 -1.122898894
| 44> H -5.7323790724 1.5447546334 0.47533899
| 45> H -6.5924525529 0.6765591772 -0.8058671693
| 46> H -6.1812319583 -0.15004171 0.7060940985
| 47> *
| 48>
| 49>                          ****END OF INPUT****

CARTESIAN COORDINATES (ANGSTROEM)
---------------------------------
  C      5.837859   -0.302168    0.263275
  C      4.511461   -0.664560   -0.373574
  O      3.470331    0.028027    0.342792
  P      2.021897    0.229353   -0.281062
  S      2.026229    0.885903   -2.132002
  O      1.334794    1.110215    0.837282
  C      1.370954    2.550895    0.816771
  C      2.776172    3.084588    0.988204
  S      1.161296   -1.660838    0.047663
  C     -0.064529   -1.742348   -1.305150
  S     -1.747410   -1.960683   -0.693755
  P     -2.012751   -0.020198    0.134227
  S     -1.364158    1.449348   -0.988630
  O     -1.367000    0.007204    1.566431
  C     -1.368973   -1.062615    2.548472
  C     -2.754025   -1.587323    2.853948
  O     -3.568770    0.032119    0.433783
  C     -4.532418    0.152150   -0.631962
  C     -5.849288    0.585342   -0.020668
  H      6.016785    0.765814    0.176830
  H      5.829096   -0.574127    1.314638
  H      6.632950   -0.840248   -0.242105
  H      4.316001   -1.738154   -0.304453
  H      4.471554   -0.360377   -1.425147
  H      0.931228    2.893874   -0.126023
  H      0.717395    2.835316    1.642990
  H      3.380782    2.812134    0.123744
  H      2.740679    4.166665    1.067201
  H      3.229361    2.666486    1.883223
  H      0.158456   -2.618130   -1.908665
  H      0.006082   -0.824786   -1.896304
  H     -0.717554   -1.860789    2.180867
  H     -0.912189   -0.591268    3.419971
  H     -3.414208   -0.769858    3.131464
  H     -3.166910   -2.097069    1.986032
  H     -2.686673   -2.291595    3.677546
  H     -4.163508    0.886688   -1.355822
  H     -4.619177   -0.820678   -1.122899
  H     -5.732379    1.544755    0.475339
  H     -6.592453    0.676559   -0.805867
  H     -6.181232   -0.150042    0.706094

 Total Charge           Charge          ....    0
 Multiplicity           Mult            ....    1
 Number of Electrons    NEL             ....  202
 Basis Dimension        Dim             ....  539

ORBITAL ENERGIES
----------------

  NO   OCC          E(Eh)            E(eV)
   0   2.0000     -88.577282     -2410.3104
   1   2.0000     -88.573557     -2410.2090
   2   2.0000     -88.512686     -2408.5526
   3   2.0000     -88.509719     -2408.4719
   4   2.0000     -76.910733     -2092.8474
   5   2.0000     -76.907568     -2092.7613
   6   2.0000     -18.991179      -516.7763
   7   2.0000     -18.989443      -516.7290
   8   2.0000     -18.985857      -516.6314
   9   2.0000     -18.980084      -516.4744
  10   2.0000     -10.106065      -275.0000
  11   2.0000     -10.099791      -274.8293
  12   2.0000     -10.097971      -274.7798
  13   2.0000     -10.093166      -274.6490
  14   2.0000     -10.085141      -274.4306
  15   2.0000     -10.033067      -273.0136
  16   2.0000     -10.031782      -272.9787
  17   2.0000     -10.030154      -272.9344
  18   2.0000     -10.020027      -272.6588
  19   2.0000      -7.871752      -214.2013
  20   2.0000      -7.868223      -214.1052
  21   2.0000      -7.807390      -212.4499
  22   2.0000      -7.804655      -212.3755
  23   2.0000      -6.589144      -179.2997
  24   2.0000      -6.586065      -179.2159
  25   2.0000      -5.818575      -158.3315
  26   2.0000      -5.815388      -158.2447
  27   2.0000      -5.814990      -158.2339
  28   2.0000      -5.812031      -158.1534
  29   2.0000      -5.809119      -158.0742
  30   2.0000      -5.805424      -157.9736
  31   2.0000      -5.755052      -156.6029
  32   2.0000      -5.752428      -156.5315
  33   2.0000      -5.747894      -156.4081
  34   2.0000      -5.747165      -156.3883
  35   2.0000      -5.744885      -156.3263
  36   2.0000      -5.744551      -156.3172
  37   2.0000      -4.734856      -128.8420
  38   2.0000      -4.734358      -128.8284
  39   2.0000      -4.732406      -128.7753
  40   2.0000      -4.731374      -128.7472
  41   2.0000      -4.730952      -128.7358
  42   2.0000      -4.730002      -128.7099
  43   2.0000      -1.048861       -28.5410
  44   2.0000      -1.042759       -28.3749
  45   2.0000      -1.009539       -27.4710
  46   2.0000      -1.002508       -27.2796
  47   2.0000      -0.799502       -21.7555
  48   2.0000      -0.757737       -20.6191
  49   2.0000      -0.748462       -20.3667
  50   2.0000      -0.736394       -20.0383
  51   2.0000      -0.726075       -19.7575
  52   2.0000      -0.708167       -19.2702
  53   2.0000      -0.680706       -18.5230
  54   2.0000      -0.660796       -17.9812
  55   2.0000      -0.626397       -17.0451
  56   2.0000      -0.621774       -16.9193
  57   2.0000      -0.601951       -16.3799
  58   2.0000      -0.597643       -16.2627
  59   2.0000      -0.591017       -16.0824
  60   2.0000      -0.528946       -14.3934
  61   2.0000      -0.520022       -14.1505
  62   2.0000      -0.494263       -13.4496
  63   2.0000      -0.487161       -13.2563
  64   2.0000      -0.468287       -12.7427
  65   2.0000      -0.465051       -12.6547
  66   2.0000      -0.453093       -12.3293
  67   2.0000      -0.451875       -12.2961
  68   2.0000      -0.444169       -12.0864
  69   2.0000      -0.432938       -11.7808
  70   2.0000      -0.425924       -11.5900
  71   2.0000      -0.416005       -11.3201
  72   2.0000      -0.408682       -11.1208
  73   2.0000      -0.396284       -10.7834
  74   2.0000      -0.391719       -10.6592
  75   2.0000      -0.385772       -10.4974
  76   2.0000      -0.378566       -10.3013
  77   2.0000      -0.373627       -10.1669
  78   2.0000      -0.368443       -10.0258
  79   2.0000      -0.365104        -9.9350
  80   2.0000      -0.363477        -9.8907
  81   2.0000      -0.355575        -9.6757
  82   2.0000      -0.351728        -9.5710
  83   2.0000      -0.349872        -9.5205
  84   2.0000      -0.346168        -9.4197
  85   2.0000      -0.327491        -8.9115
  86   2.0000      -0.321405        -8.7459
  87   2.0000      -0.314025        -8.5451
  88   2.0000      -0.310763        -8.4563
  89   2.0000      -0.305553        -8.3145
  90   2.0000      -0.290990        -7.9183
  91   2.0000      -0.287443        -7.8217
  92   2.0000      -0.278294        -7.5728
  93   2.0000      -0.274658        -7.4738
  94   2.0000      -0.269954        -7.3458
  95   2.0000      -0.250683        -6.8214
  96   2.0000      -0.233611        -6.3569
  97   2.0000      -0.224985        -6.1222
  98   2.0000      -0.212837        -5.7916
  99   2.0000      -0.203564        -5.5393
 100   2.0000      -0.195231        -5.3125
 101   0.0000      -0.042498        -1.1564
 102   0.0000      -0.030419        -0.8277
 103   0.0000      -0.005653        -0.1538
 104   0.0000       0.017315         0.4712
 105   0.0000       0.022052         0.6001

MULLIKEN ATOMIC CHARGES
-----------------------
   0 C :   -0.442281
   1 C :   -0.159561
   2 O :   -0.278650
   3 P :    0.673333
   4 S :   -0.465100
   5 O :   -0.269079
   6 C :   -0.150529
   7 C :   -0.452101
   8 S :   -0.161719
   9 C :   -0.213775
  10 S :   -0.177740
  11 P :    0.685843
  12 S :   -0.435354
  13 O :   -0.259612
  14 C :   -0.137007
  15 C :   -0.441466
  16 O :   -0.278404
  17 C :   -0.168192
  18 C :   -0.439699
  19 H :    0.154967
  20 H :    0.152642
  21 H :    0.145913
  22 H :    0.150703
  23 H :    0.172668
  24 H :    0.181642
  25 H :    0.154906
  26 H :    0.168323
  27 H :    0.146229
  28 H :    0.154078
  29 H :    0.195476
  30 H :    0.220799
  31 H :    0.167915
  32 H :    0.153287
  33 H :    0.161264
  34 H :    0.159985
  35 H :    0.149343
  36 H :    0.175620
  37 H :    0.148554
  38 H :    0.159422
  39 H :    0.147252
  40 H :    0.150104
Sum of atomic charges:    0.0000000

LOEWDIN ATOMIC CHARGES
----------------------
   0 C :   -0.386720
   1 C :    0.015671
   2 O :   -0.671587
   3 P :    0.367667
   4 S :   -0.127842
   5 O :   -0.663600
   6 C :    0.013842
   7 C :   -0.401935
   8 S :    0.159152
   9 C :   -0.411938
  10 S :    0.124201
  11 P :    0.377959
  12 S :   -0.076881
  13 O :   -0.646451
  14 C :    0.021749
  15 C :   -0.400834
  16 O :   -0.673869
  17 C :    0.018637
  18 C :   -0.385572
  19 H :    0.159937
  20 H :    0.159309
  21 H :    0.159278
  22 H :    0.171182
  23 H :    0.180945
  24 H :    0.184770
  25 H :    0.183034
  26 H :    0.164999
  27 H :    0.158790
  28 H :    0.160059
  29 H :    0.180236
  30 H :    0.203343
  31 H :    0.178591
  32 H :    0.183539
  33 H :    0.164205
  34 H :    0.162782
  35 H :    0.159665
  36 H :    0.182677
  37 H :    0.170558
  38 H :    0.162182
  39 H :    0.160209
  40 H :    0.158062

  Mayer bond orders larger than 0.100000
B(  0-C ,  1-C ) :   0.9547 B(  0-C , 19-H ) :   0.9717 B(  0-C , 20-H ) :   0.9721
B(  0-C , 21-H ) :   0.9653 B(  1-C ,  2-O ) :   0.7886 B(  1-C , 22-H ) :   0.9465
B(  1-C , 23-H ) :   0.9503 B(  2-O ,  3-P ) :   1.0759 B(  3-P ,  4-S ) :   1.7537
B(  3-P ,  5-O ) :   1.1919 B(  3-P ,  8-S ) :   1.0884 B(  5-O ,  6-C ) :   0.8038
B(  6-C ,  7-C ) :   0.9098 B(  6-C , 24-H ) :   0.9635 B(  6-C , 25-H ) :   0.9620
B(  7-C , 26-H ) :   0.9626 B(  7-C , 27-H ) :   0.9608 B(  7-C , 28-H ) :   0.9719
B(  8-S ,  9-C ) :   0.8970 B(  9-C , 10-S ) :   0.9168 B(  9-C , 29-H ) :   0.9134
B(  9-C , 30-H ) :   0.9049 B( 10-S , 11-P ) :   0.9772 B( 11-P , 12-S ) :   1.8090
B( 11-P , 13-O ) :   1.1687 B( 11-P , 16-O ) :   1.0623 B( 13-O , 14-C ) :   0.8045
B( 14-C , 15-C ) :   0.9182 B( 14-C , 31-H ) :   0.9609 B( 14-C , 32-H ) :   0.9590
B( 15-C , 33-H ) :   0.9696 B( 15-C , 34-H ) :   0.9626 B( 15-C , 35-H ) :   0.9573
B( 16-O , 17-C ) :   0.7822 B( 17-C , 18-C ) :   0.9567 B( 17-C , 36-H ) :   0.9500
B( 17-C , 37-H ) :   0.9433 B( 18-C , 38-H ) :   0.9715 B( 18-C , 39-H ) :   0.9640
B( 18-C , 40-H ) :   0.9717

Dispersion correction           -0.021768173
FINAL SINGLE POINT ENERGY     -2932.459163375785

DIPOLE MOMENT
-------------

Method             : SCF
Type of density    : Electron Density
Multiplicity       :   1
Irrep              :   0
Energy             : -2932.4838606444905054 Eh
Relativity type    :
Basis              : AO
                                X                 Y                 Z
Electronic contribution:     -0.505464321      -4.217726049     -10.963194104
Nuclear contribution   :      0.216690569       3.349508817      12.107038454
                        -----------------------------------------
Total Dipole Moment    :     -0.288773752      -0.868217231       1.143844351
                        -----------------------------------------
Magnitude (a.u.)       :      1.464776890
Magnitude (Debye)      :      3.723166971

Rotational constants in cm-1:             0.014073             0.004810             0.004608
Rotational constants in MHz :           421.902370           144.213726           138.131724

                             ****ORCA TERMINATED NORMALLY****
TOTAL RUN TIME: 0 days 0 hours 1 minutes 18 seconds 8 msec
