                         Program Version 6.0.0  -   RELEASE  -
|  1> ! r2scan-3c def2/J RI DEFGRID2 scfconv6 printgap
|  2> %output
|  3>     printlevel normal
|  4> end
|  5> %cpcm
|  6>     smd true
|  7>     smdsolvent "water"
|  8> end
|  9> * xyz 0 1
| 10> C 5.8378594391 -0.3021683809 0.2632745318
| 11> C 4.5114613946 -0.6645602163 -0.3735737791
| 12> O 3.4703307074 0.0280265089 0.3427922801
| 13> P 2.021896721 0.2293526442 -0.2810621196
| 14> S 2.0262289107 0.885902566 -2.132001884
| 15> O 1.3347941279 1.1102145683 0.8372818004
| 16> C 1.3709542747 2.5508950453 0.8167711994
| 17> C 2.7761717667 3.0845884674 0.98820363
| 18> S 1.1612960091 -1.6608384798 0.0476627595
| 19> C -0.0645286945 -1.7423475122 -1.3051495894
| 20> S -1.7474101229 -1.960683009 -0.6937549008
| 21> P -2.0127511051 -0.0201975984 0.1342267173
| 22> S -1.364158057 1.4493483481 -0.9886295736
| 23> O -1.3669998655 0.0072041617 1.5664310052
| 24> C -1.3689732819 -1.0626151308 2.5484715708
| 25> C -2.7540252025 -1.5873226784 2.853947668
| 26> O -3.5687695269 0.0321191669 0.4337828059
| 27> C -4.5324176298 0.1521503932 -0.631961559
| 28> C -5.8492877062 0.585342475 -0.0206680379
| 29> H 6.0167848586 0.7658141152 0.1768299598
| 30> H 5.8290962627 -0.5741272779 1.3146383055
| 31> H 6.6329500535 -0.840248069 -0.2421049003
| 32> H 4.3160014825 -1.7381537891 -0.3044529249
| 33> H 4.4715538665 -0.3603766246 -1.425146519
| 34> H 0.9312279323 2.8938744182 -0.1260225063
| 35> H 0.7173953546 2.835315891 1.6429902817
| 36> H 3.3807818532 2.812133921 0.1237435087
| 37> H 2.7406791547 4.166664835 1.0672011949
| 38> H 3.2293607246 2.666485741 1.8832230615
| 39> H 0.1584563944 -2.6181299492 -1.9086648063
| 40> H 0.0060818245 -0.8247863584 -1.8963040018
| 41> H -0.7175536214 -1.8607890143 2.1808668229
| 42> H -0.9121890343 -0.5912682296 3.4199714723
| 43> H -3.4142082452 -0.7698575212 3.1314638776
| 44> H -3.1669096236 -2.0970685158 1.9860319352
| 45> H -2.6866731752 -2.291594882 3.677545998
| 46> H -4.1635080365 0.8866880024 -1.3558222475
| 47> H -4.6191770779 -0.8206776979 -1.122898894
| 48> H -5.7323790724 1.5447546334 0.47533899
| 49> H -6.5924525529 0.6765591772 -0.8058671693
| 50> H -6.1812319583 -0.15004171 0.7060940985
| 51> *
| 52>
| 53>                          ****END OF INPUT****

CARTESIAN COORDINATES (ANGSTROEM)
---------------------------------
  C      5.837859   -0.302168    0.263275
  C      4.511461   -0.664560   -0.373574
  O      3.470331    0.028027    0.342792
  P      2.021897    0.229353   -0.281062
  S      2.026229    0.885903   -2.132002
  O      1.334794    1.110215    0.837282
  C      1.370954    2.550895    0.816771
  C      2.776172    3.084588    0.988204
  S      1.161296   -1.660838    0.047663
  C     -0.064529   -1.742348   -1.305150
  S     -1.747410   -1.960683   -0.693755
  P     -2.012751   -0.020198    0.134227
  S     -1.364158    1.449348   -0.988630
  O     -1.367000    0.007204    1.566431
  C     -1.368973   -1.062615    2.548472
  C     -2.754025   -1.587323    2.853948
  O     -3.568770    0.032119    0.433783
  C     -4.532418    0.152150   -0.631962
  C     -5.849288    0.585342   -0.020668
  H      6.016785    0.765814    0.176830
  H      5.829096   -0.574127    1.314638
  H      6.632950   -0.840248   -0.242105
  H      4.316001   -1.738154   -0.304453
  H      4.471554   -0.360377   -1.425147
  H      0.931228    2.893874   -0.126023
  H      0.717395    2.835316    1.642990
  H      3.380782    2.812134    0.123744
  H      2.740679    4.166665    1.067201
  H      3.229361    2.666486    1.883223
  H      0.158456   -2.618130   -1.908665
  H      0.006082   -0.824786   -1.896304
  H     -0.717554   -1.860789    2.180867
  H     -0.912189   -0.591268    3.419971
  H     -3.414208   -0.769858    3.131464
  H     -3.166910   -2.097069    1.986032
  H     -2.686673   -2.291595    3.677546
  H     -4.163508    0.886688   -1.355822
  H     -4.619177   -0.820678   -1.122899
  H     -5.732379    1.544755    0.475339
  H     -6.592453    0.676559   -0.805867
  H     -6.181232   -0.150042    0.706094

 Total Charge           Charge          ....    0
 Multiplicity           Mult            ....    1
 Number of Electrons    NEL             ....  202
 Basis Dimension        Dim             ....  539

ORBITAL ENERGIES
----------------

  NO   OCC          E(Eh)            E(eV)
   0   2.0000     -88.581299     -2410.4197
   1   2.0000     -88.579341     -2410.3664
   2   2.0000     -88.525104     -2408.8906
   3   2.0000     -88.521488     -2408.7922
   4   2.0000     -76.918439     -2093.0571
   5   2.0000     -76.917700     -2093.0370
   6   2.0000     -18.995911      -516.9050
   7   2.0000     -18.994409      -516.8642
   8   2.0000     -18.992606      -516.8151
   9   2.0000     -18.991151      -516.7755
  10   2.0000     -10.106291      -275.0062
  11   2.0000     -10.092467      -274.6300
  12   2.0000     -10.090120      -274.5661
  13   2.0000     -10.088109      -274.5114
  14   2.0000     -10.087164      -274.4857
  15   2.0000     -10.020157      -272.6623
  16   2.0000     -10.019650      -272.6485
  17   2.0000     -10.019102      -272.6336
  18   2.0000     -10.017738      -272.5965
  19   2.0000      -7.875664      -214.3077
  20   2.0000      -7.873936      -214.2607
  21   2.0000      -7.820139      -212.7968
  22   2.0000      -7.816768      -212.7051
  23   2.0000      -6.596919      -179.5113
  24   2.0000      -6.596254      -179.4932
  25   2.0000      -5.822509      -158.4385
  26   2.0000      -5.820710      -158.3896
  27   2.0000      -5.819318      -158.3517
  28   2.0000      -5.817752      -158.3091
  29   2.0000      -5.813006      -158.1799
  30   2.0000      -5.811136      -158.1291
  31   2.0000      -5.767726      -156.9478
  32   2.0000      -5.764422      -156.8579
  33   2.0000      -5.760630      -156.7547
  34   2.0000      -5.759940      -156.7359
  35   2.0000      -5.757068      -156.6578
  36   2.0000      -5.756644      -156.6463
  37   2.0000      -4.742600      -129.0527
  38   2.0000      -4.742073      -129.0384
  39   2.0000      -4.741528      -129.0235
  40   2.0000      -4.741143      -129.0131
  41   2.0000      -4.740304      -128.9902
  42   2.0000      -4.740252      -128.9888
  43   2.0000      -1.053579       -28.6693
  44   2.0000      -1.051233       -28.6055
  45   2.0000      -1.013710       -27.5844
  46   2.0000      -1.010701       -27.5026
  47   2.0000      -0.802650       -21.8412
  48   2.0000      -0.757174       -20.6037
  49   2.0000      -0.746292       -20.3076
  50   2.0000      -0.727892       -19.8070
  51   2.0000      -0.723499       -19.6874
  52   2.0000      -0.710097       -19.3227
  53   2.0000      -0.687057       -18.6958
  54   2.0000      -0.669332       -18.2134
  55   2.0000      -0.629153       -17.1201
  56   2.0000      -0.621162       -16.9027
  57   2.0000      -0.599102       -16.3024
  58   2.0000      -0.593363       -16.1462
  59   2.0000      -0.590102       -16.0575
  60   2.0000      -0.528955       -14.3936
  61   2.0000      -0.520579       -14.1657
  62   2.0000      -0.492598       -13.4043
  63   2.0000      -0.491847       -13.3838
  64   2.0000      -0.469777       -12.7833
  65   2.0000      -0.467468       -12.7205
  66   2.0000      -0.451798       -12.2941
  67   2.0000      -0.445747       -12.1294
  68   2.0000      -0.443574       -12.0703
  69   2.0000      -0.436945       -11.8899
  70   2.0000      -0.425060       -11.5665
  71   2.0000      -0.413676       -11.2567
  72   2.0000      -0.409644       -11.1470
  73   2.0000      -0.399176       -10.8621
  74   2.0000      -0.388117       -10.5612
  75   2.0000      -0.387543       -10.5456
  76   2.0000      -0.378160       -10.2902
  77   2.0000      -0.368680       -10.0323
  78   2.0000      -0.361574        -9.8389
  79   2.0000      -0.357679        -9.7329
  80   2.0000      -0.354155        -9.6370
  81   2.0000      -0.352656        -9.5962
  82   2.0000      -0.350100        -9.5267
  83   2.0000      -0.346545        -9.4300
  84   2.0000      -0.344975        -9.3872
  85   2.0000      -0.323914        -8.8141
  86   2.0000      -0.322555        -8.7772
  87   2.0000      -0.312776        -8.5111
  88   2.0000      -0.311283        -8.4704
  89   2.0000      -0.306480        -8.3397
  90   2.0000      -0.296260        -8.0616
  91   2.0000      -0.289830        -7.8867
  92   2.0000      -0.284716        -7.7475
  93   2.0000      -0.276427        -7.5219
  94   2.0000      -0.273463        -7.4413
  95   2.0000      -0.255648        -6.9565
  96   2.0000      -0.241725        -6.5777
  97   2.0000      -0.237624        -6.4661
  98   2.0000      -0.225058        -6.1241
  99   2.0000      -0.214708        -5.8425
 100   2.0000      -0.208246        -5.6667
 101   0.0000      -0.047712        -1.2983
 102   0.0000      -0.037919        -1.0318
 103   0.0000      -0.010632        -0.2893
 104   0.0000       0.010541         0.2868
 105   0.0000       0.015800         0.4300

MULLIKEN ATOMIC CHARGES
-----------------------
   0 C :   -0.484274
   1 C :   -0.149403
   2 O :   -0.306707
   3 P :    0.704762
   4 S :   -0.521490
   5 O :   -0.298516
   6 C :   -0.148551
   7 C :   -0.494180
   8 S :   -0.156210
   9 C :   -0.213065
  10 S :   -0.171731
  11 P :    0.694883
  12 S :   -0.488801
  13 O :   -0.295759
  14 C :   -0.129683
  15 C :   -0.480175
  16 O :   -0.299072
  17 C :   -0.157920
  18 C :   -0.480597
  19 H :    0.165647
  20 H :    0.165567
  21 H :    0.169123
  22 H :    0.170235
  23 H :    0.172542
  24 H :    0.180898
  25 H :    0.177767
  26 H :    0.169570
  27 H :    0.171853
  28 H :    0.169489
  29 H :    0.237556
  30 H :    0.213311
  31 H :    0.175020
  32 H :    0.178897
  33 H :    0.170939
  34 H :    0.166121
  35 H :    0.175787
  36 H :    0.174469
  37 H :    0.169984
  38 H :    0.166491
  39 H :    0.169642
  40 H :    0.165580
Sum of atomic charges:    0.0000000

LOEWDIN ATOMIC CHARGES
----------------------
   0 C :   -0.389932
   1 C :    0.020840
   2 O :   -0.684618
   3 P :    0.371178
   4 S :   -0.163580
   5 O :   -0.683255
   6 C :    0.014558
   7 C :   -0.403602
   8 S :    0.165393
   9 C :   -0.406160
  10 S :    0.136511
  11 P :    0.378430
  12 S :   -0.117037
  13 O :   -0.669034
  14 C :    0.027466
  15 C :   -0.401399
  16 O :   -0.683781
  17 C :    0.022983
  18 C :   -0.388769
  19 H :    0.162265
  20 H :    0.163014
  21 H :    0.168528
  22 H :    0.179127
  23 H :    0.181390
  24 H :    0.183557
  25 H :    0.191084
  26 H :    0.163294
  27 H :    0.168616
  28 H :    0.164263
  29 H :    0.197123
  30 H :    0.200067
  31 H :    0.181791
  32 H :    0.193919
  33 H :    0.166123
  34 H :    0.163095
  35 H :    0.170227
  36 H :    0.181848
  37 H :    0.179375
  38 H :    0.163208
  39 H :    0.169005
  40 H :    0.162890

  Mayer bond orders larger than 0.100000
B(  0-C ,  1-C ) :   0.9511 B(  0-C , 19-H ) :   0.9694 B(  0-C , 20-H ) :   0.9691
B(  0-C , 21-H ) :   0.9589 B(  1-C ,  2-O ) :   0.7812 B(  1-C , 22-H ) :   0.9375
B(  1-C , 23-H ) :   0.9473 B(  2-O ,  3-P ) :   1.0841 B(  3-P ,  4-S ) :   1.6997
B(  3-P ,  5-O ) :   1.1873 B(  3-P ,  8-S ) :   1.1199 B(  5-O ,  6-C ) :   0.7883
B(  6-C ,  7-C ) :   0.9073 B(  6-C , 24-H ) :   0.9598 B(  6-C , 25-H ) :   0.9499
B(  7-C , 26-H ) :   0.9617 B(  7-C , 27-H ) :   0.9540 B(  7-C , 28-H ) :   0.9701
B(  8-S ,  9-C ) :   0.8907 B(  9-C , 10-S ) :   0.9093 B(  9-C , 29-H ) :   0.8971
B(  9-C , 30-H ) :   0.9094 B( 10-S , 11-P ) :   1.0039 B( 11-P , 12-S ) :   1.7848
B( 11-P , 13-O ) :   1.1654 B( 11-P , 16-O ) :   1.0702 B( 13-O , 14-C ) :   0.7932
B( 14-C , 15-C ) :   0.9128 B( 14-C , 31-H ) :   0.9531 B( 14-C , 32-H ) :   0.9468
B( 15-C , 33-H ) :   0.9688 B( 15-C , 34-H ) :   0.9600 B( 15-C , 35-H ) :   0.9504
B( 16-O , 17-C ) :   0.7742 B( 17-C , 18-C ) :   0.9550 B( 17-C , 36-H ) :   0.9472
B( 17-C , 37-H ) :   0.9338 B( 18-C , 38-H ) :   0.9694 B( 18-C , 39-H ) :   0.9580
B( 18-C , 40-H ) :   0.9686

Dispersion correction           -0.021768173
FINAL SINGLE POINT ENERGY     -2932.469085604303

DIPOLE MOMENT
-------------

Method             : SCF
Type of density    : Electron Density
Multiplicity       :   1
Irrep              :   0
Energy             : -2932.4937828730085130 Eh
Relativity type    :
Basis              : AO
                                X                 Y                 Z
Electronic contribution:     -0.576313090      -4.858651239     -10.679263598
Nuclear contribution   :      0.216690569       3.349508817      12.107038454
                        -----------------------------------------
Total Dipole Moment    :     -0.359622521      -1.509142422       1.427774856
                        -----------------------------------------
Magnitude (a.u.)       :      2.108407040
Magnitude (Debye)      :      5.359144798

Rotational constants in cm-1:             0.014073             0.004810             0.004608
Rotational constants in MHz :           421.902370           144.213726           138.131724

                             ****ORCA TERMINATED NORMALLY****
TOTAL RUN TIME: 0 days 0 hours 1 minutes 50 seconds 270 msec
