                         Program Version 6.0.1  -  RELEASE   -
|  1> ! pbe def2-sv(p) def2/J RI DEFGRID1 loosescf d4 GCP(DFT/SV(P)) printgap
|  2> %output
|  3>     printlevel normal
|  4> end
|  5> * xyz 0 1
|  6> C 3.5667264396 -1.11783766 1.8490984759
|  7> C 2.8383429537 -1.9878011222 0.8384960403
|  8> O 2.6397343031 -1.282035501 -0.4052086291
|  9> C 1.6090557132 -0.4973761514 -0.5441928578
| 10> O 0.7796394564 -0.2700648352 0.3299394655
| 11> C 1.506538883 0.1344771111 -1.9070747911
| 12> C 0.2977315075 1.0585591917 -1.9063145018
| 13> H 0.2319634884 1.6172012252 -2.8432449541
| 14> C 0.3397375056 2.0473384241 -0.7491270455
| 15> O -0.6270573847 2.3868396047 -0.1084412972
| 16> O 1.5601697592 2.5165739755 -0.5861867665
| 17> C 1.8064969721 3.4869643328 0.4540505445
| 18> C 2.5405676941 2.8369396694 1.6148049779
| 19> S -1.2915861005 0.1479797553 -1.8708577202
| 20> P -1.6058755711 -0.7913123133 -0.0029989067
| 21> S -0.9108471011 -2.5730910742 0.4854716625
| 22> O -1.8103986569 0.1979553466 1.2324746373
| 23> C -0.9851663416 0.3076452085 2.3845157497
| 24> O -3.1462708253 -0.9279312575 -0.4549067457
| 25> C -4.0902118055 -1.6950323956 0.2926652936
| 26> H 4.5030051005 -0.7610999168 1.4290635036
| 27> H 2.9512259989 -0.265602496 2.1266762032
| 28> H 3.7730099897 -1.7040481452 2.7382161616
| 29> H 1.8652823782 -2.311857681 1.2181478446
| 30> H 3.4341394211 -2.8555447263 0.5565452758
| 31> H 1.395348665 -0.6457273237 -2.6613330089
| 32> H 2.4218809181 0.6910347016 -2.1138937346
| 33> H 2.4180371308 4.2575007282 -0.0174886134
| 34> H 0.8485535351 3.9064063783 0.7734300262
| 35> H 1.9381299957 2.0346264017 2.0372607756
| 36> H 3.4878678192 2.4258456442 1.2775209749
| 37> H 2.7250671874 3.5789481473 2.3844378985
| 38> H -1.6549867131 0.5334524063 3.2116219617
| 39> H -0.2746980161 1.119182216 2.237379611
| 40> H -0.4555025102 -0.6299011609 2.5614251589
| 41> H -4.4160525963 -1.1336938447 1.1681317798
| 42> H -3.643377931 -2.6424642923 0.6044693631
| 43> H -4.9251992895 -1.8741153025 -0.3802209463
| 44> *
| 45>
| 46>                          ****END OF INPUT****

CARTESIAN COORDINATES (ANGSTROEM)
---------------------------------
  C      3.566726   -1.117838    1.849098
  C      2.838343   -1.987801    0.838496
  O      2.639734   -1.282036   -0.405209
  C      1.609056   -0.497376   -0.544193
  O      0.779639   -0.270065    0.329939
  C      1.506539    0.134477   -1.907075
  C      0.297732    1.058559   -1.906315
  H      0.231963    1.617201   -2.843245
  C      0.339738    2.047338   -0.749127
  O     -0.627057    2.386840   -0.108441
  O      1.560170    2.516574   -0.586187
  C      1.806497    3.486964    0.454051
  C      2.540568    2.836940    1.614805
  S     -1.291586    0.147980   -1.870858
  P     -1.605876   -0.791312   -0.002999
  S     -0.910847   -2.573091    0.485472
  O     -1.810399    0.197955    1.232475
  C     -0.985166    0.307645    2.384516
  O     -3.146271   -0.927931   -0.454907
  C     -4.090212   -1.695032    0.292665
  H      4.503005   -0.761100    1.429064
  H      2.951226   -0.265602    2.126676
  H      3.773010   -1.704048    2.738216
  H      1.865282   -2.311858    1.218148
  H      3.434139   -2.855545    0.556545
  H      1.395349   -0.645727   -2.661333
  H      2.421881    0.691035   -2.113894
  H      2.418037    4.257501   -0.017489
  H      0.848554    3.906406    0.773430
  H      1.938130    2.034626    2.037261
  H      3.487868    2.425846    1.277521
  H      2.725067    3.578948    2.384438
  H     -1.654987    0.533452    3.211622
  H     -0.274698    1.119182    2.237380
  H     -0.455503   -0.629901    2.561425
  H     -4.416053   -1.133694    1.168132
  H     -3.643378   -2.642464    0.604469
  H     -4.925199   -1.874115   -0.380221

 Total Charge           Charge          ....    0
 Multiplicity           Mult            ....    1
 Number of Electrons    NEL             ....  174
 Basis Dimension        Dim             ....  316

ORBITAL ENERGIES
----------------

  NO   OCC          E(Eh)            E(eV)
   0   2.0000     -88.027926     -2395.3616
   1   2.0000     -87.961315     -2393.5491
   2   2.0000     -76.412341     -2079.2855
   3   2.0000     -18.820867      -512.1418
   4   2.0000     -18.812006      -511.9007
   5   2.0000     -18.774086      -510.8689
   6   2.0000     -18.765346      -510.6310
   7   2.0000     -18.762532      -510.5544
   8   2.0000     -18.740066      -509.9431
   9   2.0000     -10.031146      -272.9614
  10   2.0000     -10.018846      -272.6267
  11   2.0000      -9.956596      -270.9328
  12   2.0000      -9.953481      -270.8480
  13   2.0000      -9.949731      -270.7459
  14   2.0000      -9.927700      -270.1465
  15   2.0000      -9.922648      -270.0090
  16   2.0000      -9.920801      -269.9587
  17   2.0000      -9.898854      -269.3615
  18   2.0000      -9.895939      -269.2822
  19   2.0000      -7.672594      -208.7819
  20   2.0000      -7.606503      -206.9835
  21   2.0000      -6.407901      -174.3678
  22   2.0000      -5.701343      -155.1414
  23   2.0000      -5.696942      -155.0217
  24   2.0000      -5.688848      -154.8014
  25   2.0000      -5.635653      -153.3539
  26   2.0000      -5.626973      -153.1177
  27   2.0000      -5.626518      -153.1053
  28   2.0000      -4.630843      -126.0116
  29   2.0000      -4.629925      -125.9867
  30   2.0000      -4.628251      -125.9411
  31   2.0000      -1.031266       -28.0622
  32   2.0000      -1.018483       -27.7143
  33   2.0000      -0.962448       -26.1895
  34   2.0000      -0.939153       -25.5556
  35   2.0000      -0.921637       -25.0790
  36   2.0000      -0.918204       -24.9856
  37   2.0000      -0.765911       -20.8415
  38   2.0000      -0.720615       -19.6089
  39   2.0000      -0.711758       -19.3679
  40   2.0000      -0.688262       -18.7286
  41   2.0000      -0.652867       -17.7654
  42   2.0000      -0.624636       -16.9972
  43   2.0000      -0.613124       -16.6839
  44   2.0000      -0.609963       -16.5979
  45   2.0000      -0.603389       -16.4191
  46   2.0000      -0.567291       -15.4368
  47   2.0000      -0.513469       -13.9722
  48   2.0000      -0.509501       -13.8642
  49   2.0000      -0.494159       -13.4467
  50   2.0000      -0.490529       -13.3480
  51   2.0000      -0.469727       -12.7819
  52   2.0000      -0.459710       -12.5093
  53   2.0000      -0.451480       -12.2854
  54   2.0000      -0.442655       -12.0452
  55   2.0000      -0.440703       -11.9921
  56   2.0000      -0.419167       -11.4061
  57   2.0000      -0.414578       -11.2813
  58   2.0000      -0.410589       -11.1727
  59   2.0000      -0.402938       -10.9645
  60   2.0000      -0.398437       -10.8420
  61   2.0000      -0.393007       -10.6943
  62   2.0000      -0.388215       -10.5639
  63   2.0000      -0.385172       -10.4811
  64   2.0000      -0.382190       -10.3999
  65   2.0000      -0.376832       -10.2541
  66   2.0000      -0.366646        -9.9769
  67   2.0000      -0.363152        -9.8819
  68   2.0000      -0.347313        -9.4509
  69   2.0000      -0.343425        -9.3451
  70   2.0000      -0.336846        -9.1660
  71   2.0000      -0.336286        -9.1508
  72   2.0000      -0.326609        -8.8875
  73   2.0000      -0.305189        -8.3046
  74   2.0000      -0.303786        -8.2664
  75   2.0000      -0.300778        -8.1846
  76   2.0000      -0.285299        -7.7634
  77   2.0000      -0.278741        -7.5849
  78   2.0000      -0.266628        -7.2553
  79   2.0000      -0.264305        -7.1921
  80   2.0000      -0.253865        -6.9080
  81   2.0000      -0.249715        -6.7951
  82   2.0000      -0.243785        -6.6337
  83   2.0000      -0.225932        -6.1479
  84   2.0000      -0.209198        -5.6926
  85   2.0000      -0.178827        -4.8661
  86   2.0000      -0.175463        -4.7746
  87   0.0000      -0.056636        -1.5411
  88   0.0000      -0.028603        -0.7783
  89   0.0000      -0.023030        -0.6267
  90   0.0000       0.003107         0.0845
  91   0.0000       0.023270         0.6332

MULLIKEN ATOMIC CHARGES
-----------------------
   0 C :   -0.325122
   1 C :   -0.027381
   2 O :   -0.208085
   3 C :    0.152428
   4 O :   -0.241358
   5 C :   -0.054644
   6 C :   -0.314721
   7 H :    0.146827
   8 C :    0.188056
   9 O :   -0.166324
  10 O :   -0.247143
  11 C :   -0.015314
  12 C :   -0.340761
  13 S :   -0.057781
  14 P :    0.673453
  15 S :   -0.373529
  16 O :   -0.370850
  17 C :   -0.102928
  18 O :   -0.400452
  19 C :   -0.094389
  20 H :    0.114022
  21 H :    0.133498
  22 H :    0.118875
  23 H :    0.140715
  24 H :    0.108418
  25 H :    0.136751
  26 H :    0.127607
  27 H :    0.106191
  28 H :    0.119690
  29 H :    0.162283
  30 H :    0.116322
  31 H :    0.116515
  32 H :    0.111629
  33 H :    0.122738
  34 H :    0.110639
  35 H :    0.106201
  36 H :    0.111355
  37 H :    0.116568
Sum of atomic charges:   -0.0000000

LOEWDIN ATOMIC CHARGES
----------------------
   0 C :   -0.358086
   1 C :   -0.110272
   2 O :   -0.030120
   3 C :    0.053321
   4 O :   -0.167229
   5 C :   -0.253977
   6 C :   -0.268809
   7 H :    0.152910
   8 C :    0.009106
   9 O :   -0.147211
  10 O :   -0.064483
  11 C :   -0.109181
  12 C :   -0.356880
  13 S :    0.137415
  14 P :    0.589587
  15 S :   -0.356623
  16 O :   -0.232908
  17 C :   -0.214837
  18 O :   -0.271526
  19 C :   -0.217151
  20 H :    0.124355
  21 H :    0.127338
  22 H :    0.134727
  23 H :    0.123244
  24 H :    0.121977
  25 H :    0.150504
  26 H :    0.148380
  27 H :    0.119156
  28 H :    0.123879
  29 H :    0.128244
  30 H :    0.124819
  31 H :    0.133069
  32 H :    0.115362
  33 H :    0.105999
  34 H :    0.104415
  35 H :    0.109055
  36 H :    0.104358
  37 H :    0.118074

  Mayer bond orders larger than 0.100000
B(  0-C ,  1-C ) :   1.1678 B(  0-C , 20-H ) :   0.9460 B(  0-C , 21-H ) :   0.9384
B(  0-C , 22-H ) :   0.9412 B(  1-C ,  2-O ) :   0.8939 B(  1-C , 23-H ) :   0.9014
B(  1-C , 24-H ) :   0.9375 B(  2-O ,  3-C ) :   1.3055 B(  3-C ,  4-O ) :   1.8126
B(  3-C ,  5-C ) :   1.0178 B(  4-O , 14-P ) :   0.1213 B(  5-C ,  6-C ) :   1.0267
B(  5-C , 25-H ) :   0.8811 B(  5-C , 26-H ) :   0.8699 B(  6-C ,  7-H ) :   0.8633
B(  6-C ,  8-C ) :   0.8702 B(  6-C , 13-S ) :   1.0518 B(  8-C ,  9-O ) :   2.0964
B(  8-C , 10-O ) :   1.2157 B( 10-O , 11-C ) :   0.9083 B( 11-C , 12-C ) :   1.1774
B( 11-C , 27-H ) :   0.9361 B( 11-C , 28-H ) :   0.9056 B( 12-C , 29-H ) :   0.9194
B( 12-C , 30-H ) :   0.9458 B( 12-C , 31-H ) :   0.9388 B( 13-S , 14-P ) :   0.9515
B( 13-S , 15-S ) :   0.1037 B( 14-P , 15-S ) :   1.5445 B( 14-P , 16-O ) :   1.0967
B( 14-P , 18-O ) :   1.0527 B( 16-O , 17-C ) :   0.9409 B( 17-C , 32-H ) :   0.9512
B( 17-C , 33-H ) :   0.9370 B( 17-C , 34-H ) :   0.9307 B( 18-O , 19-C ) :   0.9428
B( 19-C , 35-H ) :   0.9525 B( 19-C , 36-H ) :   0.9268 B( 19-C , 37-H ) :   0.9606

Dispersion correction           -0.055581770
FINAL SINGLE POINT ENERGY     -1979.002089534951

DIPOLE MOMENT
-------------

Method             : SCF
Type of density    : Electron Density
Multiplicity       :   1
Irrep              :   0
Energy             : -1979.1329325585888910 Eh
Relativity type    :
Basis              : AO
                                X                 Y                 Z
Electronic contribution:    -15.150482761      -4.924487594     -14.856691939
Nuclear contribution   :     17.085543552       5.826037972      15.342732608
                        -----------------------------------------
Total Dipole Moment    :      1.935060791       0.901550379       0.486040669
                        -----------------------------------------
Magnitude (a.u.)       :      2.189403773
Magnitude (Debye)      :      5.565022131

Rotational constants in cm-1:             0.013219             0.008670             0.007204
Rotational constants in MHz :           396.290700           259.909597           215.985259

                             ****ORCA TERMINATED NORMALLY****
TOTAL RUN TIME: 0 days 0 hours 0 minutes 32 seconds 99 msec
