                         Program Version 6.0.0  -   RELEASE  -
|  1> ! pbe def2-sv(p) def2/J RI DEFGRID1 loosescf d4 GCP(DFT/SV(P)) printgap
|  2> %output
|  3>     printlevel normal
|  4> end
|  5> * xyz 0 1
|  6> C 2.2697359178 2.4397585794 0.5056821118
|  7> C 1.9383806866 1.7988497945 1.8358417944
|  8> O 1.0778088321 0.6437078701 1.6910703196
|  9> P 1.4690258653 -0.694041628 0.9564563201
| 10> S 0.5762216564 -2.2804069091 1.6842538705
| 11> O 3.0489045739 -0.7036954394 1.1656313379
| 12> C 3.8457703045 -1.8283264822 0.7471309643
| 13> C 5.2311094368 -1.6624305551 1.3380243706
| 14> S 1.3270209231 -0.4949282116 -1.1664076051
| 15> C -0.0339638156 -1.6282919662 -1.5216261171
| 16> S -1.555411888 -0.8502693468 -2.1636161707
| 17> P -1.9074648208 0.6396249936 -0.69771981
| 18> S -3.7122707264 1.3946779032 -0.7125604268
| 19> O -0.7213315725 1.6796990843 -0.8937178853
| 20> C -0.6308120486 2.4396102817 -2.1201277945
| 21> C -1.1541803188 3.8470899986 -1.9144846059
| 22> O -1.4056330497 0.0201634559 0.6777810587
| 23> C -2.3624971986 -0.446886784 1.6475795206
| 24> C -3.0136616532 -1.7459125965 1.2179084531
| 25> H 2.8477209413 1.7532752518 -0.1109899889
| 26> H 1.3531897751 2.6965358982 -0.0176115173
| 27> H 2.8516060633 3.3398687642 0.6780177438
| 28> H 1.3498192118 2.4664751704 2.4673411738
| 29> H 2.8434054978 1.488779146 2.3617358939
| 30> H 3.3654827642 -2.7464929057 1.1010552149
| 31> H 3.8765447867 -1.8394200322 -0.3459182932
| 32> H 5.8512452137 -2.496712807 1.0274016514
| 33> H 5.6763410619 -0.7348859414 0.9903933574
| 34> H 5.175441099 -1.6429196977 2.4227870361
| 35> H -0.2597149115 -2.1877526567 -0.6095989117
| 36> H 0.28377273 -2.2948237415 -2.3196782316
| 37> H 0.4301957184 2.4355616232 -2.3808066657
| 38> H -1.1953825468 1.9255349757 -2.9059640735
| 39> H -2.2094371568 3.8183581266 -1.6511610045
| 40> H -0.6083798397 4.3406219744 -1.1152755711
| 41> H -1.0327918881 4.4098088743 -2.8343399484
| 42> H -1.7766930468 -0.5742071932 2.5593235089
| 43> H -3.115777085 0.3334155804 1.7917958505
| 44> H -2.2646374887 -2.5259582283 1.1016692605
| 45> H -3.7280380692 -2.0530205665 1.9747700612
| 46> H -3.5379971777 -1.6025798572 0.272971364
| 47> *
| 48>
| 49>                          ****END OF INPUT****

CARTESIAN COORDINATES (ANGSTROEM)
---------------------------------
  C      2.269736    2.439759    0.505682
  C      1.938381    1.798850    1.835842
  O      1.077809    0.643708    1.691070
  P      1.469026   -0.694042    0.956456
  S      0.576222   -2.280407    1.684254
  O      3.048905   -0.703695    1.165631
  C      3.845770   -1.828326    0.747131
  C      5.231109   -1.662431    1.338024
  S      1.327021   -0.494928   -1.166408
  C     -0.033964   -1.628292   -1.521626
  S     -1.555412   -0.850269   -2.163616
  P     -1.907465    0.639625   -0.697720
  S     -3.712271    1.394678   -0.712560
  O     -0.721332    1.679699   -0.893718
  C     -0.630812    2.439610   -2.120128
  C     -1.154180    3.847090   -1.914485
  O     -1.405633    0.020163    0.677781
  C     -2.362497   -0.446887    1.647580
  C     -3.013662   -1.745913    1.217908
  H      2.847721    1.753275   -0.110990
  H      1.353190    2.696536   -0.017612
  H      2.851606    3.339869    0.678018
  H      1.349819    2.466475    2.467341
  H      2.843405    1.488779    2.361736
  H      3.365483   -2.746493    1.101055
  H      3.876545   -1.839420   -0.345918
  H      5.851245   -2.496713    1.027402
  H      5.676341   -0.734886    0.990393
  H      5.175441   -1.642920    2.422787
  H     -0.259715   -2.187753   -0.609599
  H      0.283773   -2.294824   -2.319678
  H      0.430196    2.435562   -2.380807
  H     -1.195383    1.925535   -2.905964
  H     -2.209437    3.818358   -1.651161
  H     -0.608380    4.340622   -1.115276
  H     -1.032792    4.409809   -2.834340
  H     -1.776693   -0.574207    2.559324
  H     -3.115777    0.333416    1.791796
  H     -2.264637   -2.525958    1.101669
  H     -3.728038   -2.053021    1.974770
  H     -3.537997   -1.602580    0.272971

 Total Charge           Charge          ....    0
 Multiplicity           Mult            ....    1
 Number of Electrons    NEL             ....  202
 Basis Dimension        Dim             ....  334

ORBITAL ENERGIES
----------------

  NO   OCC          E(Eh)            E(eV)
   0   2.0000     -88.047437     -2395.8926
   1   2.0000     -88.041743     -2395.7376
   2   2.0000     -87.989230     -2394.3087
   3   2.0000     -87.984817     -2394.1886
   4   2.0000     -76.431823     -2079.8156
   5   2.0000     -76.423773     -2079.5966
   6   2.0000     -18.800223      -511.5801
   7   2.0000     -18.794439      -511.4227
   8   2.0000     -18.787957      -511.2463
   9   2.0000     -18.787623      -511.2372
  10   2.0000      -9.959355      -271.0078
  11   2.0000      -9.956297      -270.9246
  12   2.0000      -9.955887      -270.9134
  13   2.0000      -9.952381      -270.8181
  14   2.0000      -9.939530      -270.4684
  15   2.0000      -9.893257      -269.2092
  16   2.0000      -9.891121      -269.1511
  17   2.0000      -9.881480      -268.8887
  18   2.0000      -9.870362      -268.5862
  19   2.0000      -7.691816      -209.3050
  20   2.0000      -7.686868      -209.1703
  21   2.0000      -7.634229      -207.7379
  22   2.0000      -7.630019      -207.6234
  23   2.0000      -6.428760      -174.9354
  24   2.0000      -6.421358      -174.7340
  25   2.0000      -5.719688      -155.6406
  26   2.0000      -5.716404      -155.5513
  27   2.0000      -5.715043      -155.5142
  28   2.0000      -5.710993      -155.4040
  29   2.0000      -5.708792      -155.3441
  30   2.0000      -5.703971      -155.2129
  31   2.0000      -5.663211      -154.1038
  32   2.0000      -5.658994      -153.9890
  33   2.0000      -5.654723      -153.8728
  34   2.0000      -5.654349      -153.8627
  35   2.0000      -5.650732      -153.7642
  36   2.0000      -5.650028      -153.7451
  37   2.0000      -4.651761      -126.5809
  38   2.0000      -4.650300      -126.5411
  39   2.0000      -4.649124      -126.5091
  40   2.0000      -4.643741      -126.3626
  41   2.0000      -4.643569      -126.3579
  42   2.0000      -4.641568      -126.3035
  43   2.0000      -0.993904       -27.0455
  44   2.0000      -0.984513       -26.7900
  45   2.0000      -0.947972       -25.7956
  46   2.0000      -0.942052       -25.6345
  47   2.0000      -0.761494       -20.7213
  48   2.0000      -0.722916       -19.6716
  49   2.0000      -0.708472       -19.2785
  50   2.0000      -0.697018       -18.9668
  51   2.0000      -0.680557       -18.5189
  52   2.0000      -0.674875       -18.3643
  53   2.0000      -0.653003       -17.7691
  54   2.0000      -0.637921       -17.3587
  55   2.0000      -0.598685       -16.2910
  56   2.0000      -0.589557       -16.0427
  57   2.0000      -0.577318       -15.7096
  58   2.0000      -0.569905       -15.5079
  59   2.0000      -0.557740       -15.1769
  60   2.0000      -0.510927       -13.9030
  61   2.0000      -0.496973       -13.5233
  62   2.0000      -0.479512       -13.0482
  63   2.0000      -0.465670       -12.6715
  64   2.0000      -0.455443       -12.3932
  65   2.0000      -0.449898       -12.2423
  66   2.0000      -0.444335       -12.0910
  67   2.0000      -0.437251       -11.8982
  68   2.0000      -0.429770       -11.6946
  69   2.0000      -0.418546       -11.3892
  70   2.0000      -0.406107       -11.0507
  71   2.0000      -0.402850       -10.9621
  72   2.0000      -0.395176       -10.7533
  73   2.0000      -0.384507       -10.4630
  74   2.0000      -0.384026       -10.4499
  75   2.0000      -0.373617       -10.1666
  76   2.0000      -0.361948        -9.8491
  77   2.0000      -0.359157        -9.7732
  78   2.0000      -0.356667        -9.7054
  79   2.0000      -0.353515        -9.6196
  80   2.0000      -0.347111        -9.4454
  81   2.0000      -0.344139        -9.3645
  82   2.0000      -0.339040        -9.2257
  83   2.0000      -0.331092        -9.0095
  84   2.0000      -0.329462        -8.9651
  85   2.0000      -0.321950        -8.7607
  86   2.0000      -0.319965        -8.7067
  87   2.0000      -0.305850        -8.3226
  88   2.0000      -0.297645        -8.0993
  89   2.0000      -0.296505        -8.0683
  90   2.0000      -0.286643        -7.7999
  91   2.0000      -0.273023        -7.4293
  92   2.0000      -0.268519        -7.3068
  93   2.0000      -0.263442        -7.1686
  94   2.0000      -0.256258        -6.9731
  95   2.0000      -0.232085        -6.3153
  96   2.0000      -0.223929        -6.0934
  97   2.0000      -0.211637        -5.7589
  98   2.0000      -0.204665        -5.5692
  99   2.0000      -0.200418        -5.4536
 100   2.0000      -0.196588        -5.3494
 101   0.0000      -0.043684        -1.1887
 102   0.0000      -0.031520        -0.8577
 103   0.0000      -0.019951        -0.5429
 104   0.0000      -0.001659        -0.0451
 105   0.0000       0.013088         0.3562

MULLIKEN ATOMIC CHARGES
-----------------------
   0 C :   -0.358022
   1 C :    0.008190
   2 O :   -0.354868
   3 P :    0.642812
   4 S :   -0.318741
   5 O :   -0.390536
   6 C :   -0.007782
   7 C :   -0.281791
   8 S :   -0.118883
   9 C :   -0.343599
  10 S :   -0.090410
  11 P :    0.578459
  12 S :   -0.314912
  13 O :   -0.357915
  14 C :   -0.013771
  15 C :   -0.282114
  16 O :   -0.367523
  17 C :    0.004172
  18 C :   -0.322905
  19 H :    0.118956
  20 H :    0.161244
  21 H :    0.113300
  22 H :    0.111852
  23 H :    0.110972
  24 H :    0.106435
  25 H :    0.099805
  26 H :    0.113933
  27 H :    0.114021
  28 H :    0.120870
  29 H :    0.206216
  30 H :    0.178440
  31 H :    0.104366
  32 H :    0.105856
  33 H :    0.126848
  34 H :    0.110524
  35 H :    0.106827
  36 H :    0.109668
  37 H :    0.112224
  38 H :    0.129049
  39 H :    0.107754
  40 H :    0.120974
Sum of atomic charges:   -0.0000000

LOEWDIN ATOMIC CHARGES
----------------------
   0 C :   -0.372651
   1 C :   -0.105929
   2 O :   -0.225501
   3 P :    0.586425
   4 S :   -0.291467
   5 O :   -0.251530
   6 C :   -0.123794
   7 C :   -0.350643
   8 S :    0.081297
   9 C :   -0.484183
  10 S :    0.071213
  11 P :    0.564570
  12 S :   -0.314896
  13 O :   -0.240342
  14 C :   -0.124160
  15 C :   -0.359913
  16 O :   -0.232966
  17 C :   -0.125290
  18 C :   -0.370805
  19 H :    0.116172
  20 H :    0.132658
  21 H :    0.131850
  22 H :    0.124236
  23 H :    0.113959
  24 H :    0.109059
  25 H :    0.105316
  26 H :    0.132031
  27 H :    0.125251
  28 H :    0.128759
  29 H :    0.122752
  30 H :    0.138378
  31 H :    0.111437
  32 H :    0.105765
  33 H :    0.126950
  34 H :    0.122408
  35 H :    0.128481
  36 H :    0.117330
  37 H :    0.108477
  38 H :    0.120143
  39 H :    0.130105
  40 H :    0.119047

  Mayer bond orders larger than 0.100000
B(  0-C ,  1-C ) :   1.1716 B(  0-C , 19-H ) :   0.9362 B(  0-C , 20-H ) :   0.9214
B(  0-C , 21-H ) :   0.9344 B(  1-C ,  2-O ) :   0.8997 B(  1-C , 22-H ) :   0.9315
B(  1-C , 23-H ) :   0.9267 B(  2-O ,  3-P ) :   1.1429 B(  3-P ,  4-S ) :   1.6085
B(  3-P ,  5-O ) :   1.0618 B(  3-P ,  8-S ) :   0.9427 B(  4-S ,  8-S ) :   0.1196
B(  4-S , 29-H ) :   0.1152 B(  5-O ,  6-C ) :   0.9041 B(  6-C ,  7-C ) :   1.1591
B(  6-C , 24-H ) :   0.9109 B(  6-C , 25-H ) :   0.9228 B(  7-C , 26-H ) :   0.9419
B(  7-C , 27-H ) :   0.9516 B(  7-C , 28-H ) :   0.9509 B(  8-S ,  9-C ) :   1.0168
B(  9-C , 10-S ) :   0.9709 B(  9-C , 29-H ) :   0.8439 B(  9-C , 30-H ) :   0.9097
B( 10-S , 11-P ) :   0.9765 B( 11-P , 12-S ) :   1.6458 B( 11-P , 13-O ) :   1.0942
B( 11-P , 16-O ) :   1.1034 B( 13-O , 14-C ) :   0.8846 B( 14-C , 15-C ) :   1.1725
B( 14-C , 31-H ) :   0.9268 B( 14-C , 32-H ) :   0.9077 B( 15-C , 33-H ) :   0.9308
B( 15-C , 34-H ) :   0.9510 B( 15-C , 35-H ) :   0.9402 B( 16-O , 17-C ) :   0.8882
B( 17-C , 18-C ) :   1.1691 B( 17-C , 36-H ) :   0.9184 B( 17-C , 37-H ) :   0.9152
B( 18-C , 38-H ) :   0.9345 B( 18-C , 39-H ) :   0.9393 B( 18-C , 40-H ) :   0.9343

Dispersion correction           -0.069207489
FINAL SINGLE POINT ENERGY     -2929.516854262446

DIPOLE MOMENT
-------------

Method             : SCF
Type of density    : Electron Density
Multiplicity       :   1
Irrep              :   0
Energy             : -2929.6369743057557571 Eh
Relativity type    :
Basis              : AO
                                X                 Y                 Z
Electronic contribution:    -13.695859794      -7.552519838      -4.198846682
Nuclear contribution   :     15.694543202       7.933190347       4.058487764
                        -----------------------------------------
Total Dipole Moment    :      1.998683408       0.380670508      -0.140358918
                        -----------------------------------------
Magnitude (a.u.)       :      2.039447480
Magnitude (Debye)      :      5.183863527

Rotational constants in cm-1:             0.012076             0.005964             0.005232
Rotational constants in MHz :           362.015727           178.785034           156.837408

                             ****ORCA TERMINATED NORMALLY****
TOTAL RUN TIME: 0 days 0 hours 0 minutes 22 seconds 702 msec
