                         Program Version 6.0.0  -   RELEASE  -
|  1> ! pbe def2-sv(p) def2/J RI DEFGRID1 loosescf d4 GCP(DFT/SV(P)) printgap
|  2> %output
|  3>     printlevel normal
|  4> end
|  5> * xyz 0 1
|  6> C 5.1727294851 -0.0131163308 -2.0872940828
|  7> C 4.9479236036 -0.069826371 -0.5900902496
|  8> O 3.9140995798 0.8800285687 -0.212492429
|  9> P 2.5056813961 0.4502931908 0.3331883717
| 10> S 1.3364238602 1.9867937496 0.6246563669
| 11> O 2.9187690599 -0.3557509271 1.6429058609
| 12> C 1.9884441929 -0.8487922197 2.6250086639
| 13> C 1.6593566238 -2.3090029071 2.3824137369
| 14> S 1.8058365039 -1.0207175031 -1.0680755884
| 15> C 0.1174018226 -0.4359481264 -1.2233061426
| 16> S -0.8703488303 -0.8584359777 0.2523031811
| 17> P -2.6533749084 0.0220542672 -0.4909242689
| 18> S -3.0050436451 -0.2955956199 -2.3888487822
| 19> O -2.5420930138 1.5746029788 -0.2428884787
| 20> C -2.3994322045 2.1668000332 1.0729850709
| 21> C -2.0105045356 3.6173235011 0.8852925757
| 22> O -3.7477302923 -0.4017158609 0.5792101667
| 23> C -3.9542903358 -1.7433572222 1.0663467872
| 24> C -4.1601341523 -2.746117165 -0.0487851311
| 25> H 4.2843317405 -0.3471670206 -2.6177093896
| 26> H 5.4022052327 1.0046652737 -2.3904478163
| 27> H 6.0046474712 -0.6603199686 -2.3457675791
| 28> H 5.8358031494 0.2459471041 -0.0404666559
| 29> H 4.6512156164 -1.0700854648 -0.2693422907
| 30> H 2.5038018629 -0.7131637124 3.5777647255
| 31> H 1.08689587 -0.2288152645 2.6073829646
| 32> H 2.5742646431 -2.8916801339 2.3244873399
| 33> H 1.052812542 -2.6744832313 3.204270314
| 34> H 1.1015233309 -2.4290684992 1.4564413004
| 35> H -0.3221592557 -0.9229409984 -2.093021901
| 36> H 0.1170292005 0.6498261963 -1.3377517806
| 37> H -3.3554562778 2.0663306428 1.5895351718
| 38> H -1.6251648981 1.6220476473 1.6208678292
| 39> H -1.986525226 4.1068676877 1.8531538469
| 40> H -1.0237338997 3.6819724673 0.4327418689
| 41> H -2.7300037245 4.1157578969 0.2422361518
| 42> H -3.0910817689 -2.0168894026 1.6793749248
| 43> H -4.8430518043 -1.6525511329 1.6931182758
| 44> H -4.978118966 -2.4344279654 -0.6940340557
| 45> H -3.2581533737 -2.8254749595 -0.6542075543
| 46> H -4.3873609098 -3.7178264819 0.3775476713
| 47> *
| 48>
| 49>                          ****END OF INPUT****

CARTESIAN COORDINATES (ANGSTROEM)
---------------------------------
  C      5.172729   -0.013116   -2.087294
  C      4.947924   -0.069826   -0.590090
  O      3.914100    0.880029   -0.212492
  P      2.505681    0.450293    0.333188
  S      1.336424    1.986794    0.624656
  O      2.918769   -0.355751    1.642906
  C      1.988444   -0.848792    2.625009
  C      1.659357   -2.309003    2.382414
  S      1.805837   -1.020718   -1.068076
  C      0.117402   -0.435948   -1.223306
  S     -0.870349   -0.858436    0.252303
  P     -2.653375    0.022054   -0.490924
  S     -3.005044   -0.295596   -2.388849
  O     -2.542093    1.574603   -0.242888
  C     -2.399432    2.166800    1.072985
  C     -2.010505    3.617324    0.885293
  O     -3.747730   -0.401716    0.579210
  C     -3.954290   -1.743357    1.066347
  C     -4.160134   -2.746117   -0.048785
  H      4.284332   -0.347167   -2.617709
  H      5.402205    1.004665   -2.390448
  H      6.004647   -0.660320   -2.345768
  H      5.835803    0.245947   -0.040467
  H      4.651216   -1.070085   -0.269342
  H      2.503802   -0.713164    3.577765
  H      1.086896   -0.228815    2.607383
  H      2.574265   -2.891680    2.324487
  H      1.052813   -2.674483    3.204270
  H      1.101523   -2.429068    1.456441
  H     -0.322159   -0.922941   -2.093022
  H      0.117029    0.649826   -1.337752
  H     -3.355456    2.066331    1.589535
  H     -1.625165    1.622048    1.620868
  H     -1.986525    4.106868    1.853154
  H     -1.023734    3.681972    0.432742
  H     -2.730004    4.115758    0.242236
  H     -3.091082   -2.016889    1.679375
  H     -4.843052   -1.652551    1.693118
  H     -4.978119   -2.434428   -0.694034
  H     -3.258153   -2.825475   -0.654208
  H     -4.387361   -3.717826    0.377548

 Total Charge           Charge          ....    0
 Multiplicity           Mult            ....    1
 Number of Electrons    NEL             ....  202
 Basis Dimension        Dim             ....  334

ORBITAL ENERGIES
----------------

  NO   OCC          E(Eh)            E(eV)
   0   2.0000     -88.051992     -2396.0165
   1   2.0000     -88.043230     -2395.7781
   2   2.0000     -87.992131     -2394.3876
   3   2.0000     -87.979591     -2394.0464
   4   2.0000     -76.431331     -2079.8023
   5   2.0000     -76.424300     -2079.6109
   6   2.0000     -18.796372      -511.4753
   7   2.0000     -18.795250      -511.4448
   8   2.0000     -18.794230      -511.4170
   9   2.0000     -18.786139      -511.1968
  10   2.0000      -9.964593      -271.1504
  11   2.0000      -9.961706      -271.0718
  12   2.0000      -9.956319      -270.9252
  13   2.0000      -9.954390      -270.8727
  14   2.0000      -9.946485      -270.6576
  15   2.0000      -9.891359      -269.1576
  16   2.0000      -9.887346      -269.0484
  17   2.0000      -9.884857      -268.9806
  18   2.0000      -9.878546      -268.8089
  19   2.0000      -7.696652      -209.4366
  20   2.0000      -7.687802      -209.1957
  21   2.0000      -7.637134      -207.8170
  22   2.0000      -7.624999      -207.4868
  23   2.0000      -6.429022      -174.9426
  24   2.0000      -6.421505      -174.7380
  25   2.0000      -5.724459      -155.7704
  26   2.0000      -5.721221      -155.6823
  27   2.0000      -5.715455      -155.5254
  28   2.0000      -5.713705      -155.4778
  29   2.0000      -5.712469      -155.4442
  30   2.0000      -5.704966      -155.2400
  31   2.0000      -5.666145      -154.1836
  32   2.0000      -5.657514      -153.9488
  33   2.0000      -5.657383      -153.9452
  34   2.0000      -5.654126      -153.8566
  35   2.0000      -5.645513      -153.6222
  36   2.0000      -5.645016      -153.6087
  37   2.0000      -4.651672      -126.5784
  38   2.0000      -4.650788      -126.5544
  39   2.0000      -4.649397      -126.5165
  40   2.0000      -4.644406      -126.3807
  41   2.0000      -4.643586      -126.3584
  42   2.0000      -4.641426      -126.2996
  43   2.0000      -0.992626       -27.0107
  44   2.0000      -0.987024       -26.8583
  45   2.0000      -0.948096       -25.7990
  46   2.0000      -0.942429       -25.6448
  47   2.0000      -0.766381       -20.8543
  48   2.0000      -0.725369       -19.7383
  49   2.0000      -0.714729       -19.4488
  50   2.0000      -0.694191       -18.8899
  51   2.0000      -0.690115       -18.7790
  52   2.0000      -0.678747       -18.4696
  53   2.0000      -0.652308       -17.7502
  54   2.0000      -0.636910       -17.3312
  55   2.0000      -0.596609       -16.2345
  56   2.0000      -0.589421       -16.0390
  57   2.0000      -0.580302       -15.7908
  58   2.0000      -0.565671       -15.3927
  59   2.0000      -0.562912       -15.3176
  60   2.0000      -0.510689       -13.8966
  61   2.0000      -0.504660       -13.7325
  62   2.0000      -0.483147       -13.1471
  63   2.0000      -0.473982       -12.8977
  64   2.0000      -0.457729       -12.4554
  65   2.0000      -0.456068       -12.4102
  66   2.0000      -0.443831       -12.0773
  67   2.0000      -0.434935       -11.8352
  68   2.0000      -0.430281       -11.7085
  69   2.0000      -0.420958       -11.4548
  70   2.0000      -0.414444       -11.2776
  71   2.0000      -0.404084       -10.9957
  72   2.0000      -0.402238       -10.9455
  73   2.0000      -0.383447       -10.4341
  74   2.0000      -0.379138       -10.3169
  75   2.0000      -0.372678       -10.1411
  76   2.0000      -0.361755        -9.8438
  77   2.0000      -0.354912        -9.6576
  78   2.0000      -0.354233        -9.6392
  79   2.0000      -0.353020        -9.6062
  80   2.0000      -0.349754        -9.5173
  81   2.0000      -0.344933        -9.3861
  82   2.0000      -0.343036        -9.3345
  83   2.0000      -0.341466        -9.2918
  84   2.0000      -0.335427        -9.1274
  85   2.0000      -0.318692        -8.6721
  86   2.0000      -0.315671        -8.5898
  87   2.0000      -0.306675        -8.3450
  88   2.0000      -0.299207        -8.1418
  89   2.0000      -0.296663        -8.0726
  90   2.0000      -0.291588        -7.9345
  91   2.0000      -0.280685        -7.6378
  92   2.0000      -0.272201        -7.4070
  93   2.0000      -0.266528        -7.2526
  94   2.0000      -0.259798        -7.0695
  95   2.0000      -0.235110        -6.3977
  96   2.0000      -0.225432        -6.1343
  97   2.0000      -0.210765        -5.7352
  98   2.0000      -0.207496        -5.6463
  99   2.0000      -0.198846        -5.4109
 100   2.0000      -0.192843        -5.2475
 101   0.0000      -0.052589        -1.4310
 102   0.0000      -0.034882        -0.9492
 103   0.0000      -0.014251        -0.3878
 104   0.0000       0.003874         0.1054
 105   0.0000       0.005302         0.1443

MULLIKEN ATOMIC CHARGES
-----------------------
   0 C :   -0.285690
   1 C :   -0.021719
   2 O :   -0.354303
   3 P :    0.602004
   4 S :   -0.302859
   5 O :   -0.376370
   6 C :   -0.009137
   7 C :   -0.305069
   8 S :   -0.119686
   9 C :   -0.326575
  10 S :   -0.139540
  11 P :    0.608695
  12 S :   -0.314655
  13 O :   -0.357263
  14 C :   -0.015380
  15 C :   -0.287743
  16 O :   -0.383072
  17 C :   -0.011040
  18 C :   -0.309370
  19 H :    0.123855
  20 H :    0.124876
  21 H :    0.111958
  22 H :    0.117140
  23 H :    0.110123
  24 H :    0.107330
  25 H :    0.110687
  26 H :    0.111569
  27 H :    0.107822
  28 H :    0.133970
  29 H :    0.191124
  30 H :    0.199561
  31 H :    0.102163
  32 H :    0.109480
  33 H :    0.106577
  34 H :    0.133869
  35 H :    0.118868
  36 H :    0.110631
  37 H :    0.110530
  38 H :    0.128842
  39 H :    0.126668
  40 H :    0.111128
Sum of atomic charges:   -0.0000000

LOEWDIN ATOMIC CHARGES
----------------------
   0 C :   -0.357886
   1 C :   -0.111569
   2 O :   -0.234797
   3 P :    0.567529
   4 S :   -0.287337
   5 O :   -0.249493
   6 C :   -0.117471
   7 C :   -0.365642
   8 S :    0.076261
   9 C :   -0.479414
  10 S :    0.054311
  11 P :    0.569270
  12 S :   -0.310016
  13 O :   -0.234672
  14 C :   -0.118016
  15 C :   -0.351970
  16 O :   -0.245782
  17 C :   -0.113176
  18 C :   -0.369485
  19 H :    0.123619
  20 H :    0.131824
  21 H :    0.130811
  22 H :    0.124462
  23 H :    0.108145
  24 H :    0.119762
  25 H :    0.105739
  26 H :    0.124760
  27 H :    0.129530
  28 H :    0.111634
  29 H :    0.132295
  30 H :    0.125230
  31 H :    0.111187
  32 H :    0.103919
  33 H :    0.129216
  34 H :    0.125771
  35 H :    0.128650
  36 H :    0.107293
  37 H :    0.121906
  38 H :    0.131726
  39 H :    0.121797
  40 H :    0.130077

  Mayer bond orders larger than 0.100000
B(  0-C ,  1-C ) :   1.1641 B(  0-C , 19-H ) :   0.9412 B(  0-C , 20-H ) :   0.9458
B(  0-C , 21-H ) :   0.9394 B(  1-C ,  2-O ) :   0.8845 B(  1-C , 22-H ) :   0.9336
B(  1-C , 23-H ) :   0.9184 B(  2-O ,  3-P ) :   1.1552 B(  3-P ,  4-S ) :   1.6523
B(  3-P ,  5-O ) :   1.0921 B(  3-P ,  8-S ) :   0.9132 B(  4-S ,  8-S ) :   0.1141
B(  5-O ,  6-C ) :   0.9063 B(  6-C ,  7-C ) :   1.1690 B(  6-C , 24-H ) :   0.9349
B(  6-C , 25-H ) :   0.9076 B(  7-C , 26-H ) :   0.9459 B(  7-C , 27-H ) :   0.9399
B(  7-C , 28-H ) :   0.9270 B(  8-S ,  9-C ) :   1.0270 B(  9-C , 10-S ) :   0.9724
B(  9-C , 29-H ) :   0.8797 B(  9-C , 30-H ) :   0.8696 B( 10-S , 11-P ) :   0.9486
B( 10-S , 12-S ) :   0.1102 B( 11-P , 12-S ) :   1.6432 B( 11-P , 13-O ) :   1.1396
B( 11-P , 16-O ) :   1.0862 B( 13-O , 14-C ) :   0.8863 B( 14-C , 15-C ) :   1.1690
B( 14-C , 31-H ) :   0.9299 B( 14-C , 32-H ) :   0.9096 B( 15-C , 33-H ) :   0.9409
B( 15-C , 34-H ) :   0.9413 B( 15-C , 35-H ) :   0.9489 B( 16-O , 17-C ) :   0.9132
B( 17-C , 18-C ) :   1.1664 B( 17-C , 36-H ) :   0.9271 B( 17-C , 37-H ) :   0.9335
B( 18-C , 38-H ) :   0.9428 B( 18-C , 39-H ) :   0.9312 B( 18-C , 40-H ) :   0.9347

Dispersion correction           -0.063479929
FINAL SINGLE POINT ENERGY     -2929.515002200642

DIPOLE MOMENT
-------------

Method             : SCF
Type of density    : Electron Density
Multiplicity       :   1
Irrep              :   0
Energy             : -2929.6357352816726234 Eh
Relativity type    :
Basis              : AO
                                X                 Y                 Z
Electronic contribution:     -2.194685806       5.878194959      -8.347103257
Nuclear contribution   :      2.988617309      -7.044494844       9.826312277
                        -----------------------------------------
Total Dipole Moment    :      0.793931503      -1.166299886       1.479209020
                        -----------------------------------------
Magnitude (a.u.)       :      2.044172688
Magnitude (Debye)      :      5.195874051

Rotational constants in cm-1:             0.011981             0.004535             0.004360
Rotational constants in MHz :           359.172002           135.955573           130.710903

                             ****ORCA TERMINATED NORMALLY****
TOTAL RUN TIME: 0 days 0 hours 0 minutes 20 seconds 739 msec
