                         Program Version 6.0.0  -   RELEASE  -
|  1> ! pbe def2-sv(p) def2/J RI DEFGRID1 loosescf d4 GCP(DFT/SV(P)) printgap
|  2> %output
|  3>     printlevel normal
|  4> end
|  5> * xyz 0 1
|  6> C 4.0063811231 -1.903740467 -2.1033374434
|  7> C 4.5961602497 -1.489640214 -0.7706035745
|  8> O 3.5839787235 -1.2034989515 0.2104951419
|  9> P 2.5983596558 0.0353761757 0.0856021199
| 10> S 3.4121395962 1.6692263191 -0.6195753932
| 11> O 2.1030482745 0.2449262469 1.5659917504
| 12> C 1.2026104064 -0.5909287185 2.3314455797
| 13> C 1.5919956471 -2.053128286 2.3163989428
| 14> S 0.9316041443 -0.7193414414 -1.0223886375
| 15> C 0.2754546946 0.8898426816 -1.5092913211
| 16> S -0.4852301012 1.7752693068 -0.1187902065
| 17> P -2.2770629733 0.6459779245 -0.0933529158
| 18> S -3.0336808891 0.2438197518 -1.8601653656
| 19> O -3.050427922 1.6163874079 0.8885679399
| 20> C -4.1791219471 1.2003623069 1.6892366315
| 21> C -5.4040897602 0.9161721142 0.8437288016
| 22> O -2.0020741482 -0.6381875516 0.8073316188
| 23> C -2.0433662643 -2.0014536542 0.3407717434
| 24> C -3.1128827233 -2.7568897907 1.1044126887
| 25> H 3.2928292788 -2.712529451 -1.9689876893
| 26> H 3.4980056137 -1.0585410915 -2.5647227176
| 27> H 4.804778182 -2.2323112985 -2.7608955848
| 28> H 5.2244729887 -0.6013018842 -0.8882808649
| 29> H 5.1742428023 -2.2963873603 -0.3179312411
| 30> H 1.2651333138 -0.1663234917 3.3347659467
| 31> H 0.1917942434 -0.4447670559 1.9407582402
| 32> H 1.5248837507 -2.4523770603 1.305916046
| 33> H 2.6123766956 -2.1729121816 2.6707357922
| 34> H 0.9189136332 -2.6054330827 2.9652932456
| 35> H -0.4727280641 0.7159688098 -2.2841418104
| 36> H 1.0914019664 1.5149317077 -1.8735724591
| 37> H -3.8881184218 0.320525517 2.2681214957
| 38> H -4.3430529025 2.0465440297 2.3584418244
| 39> H -5.2127737762 0.083831385 0.1678392359
| 40> H -6.2390227015 0.6657851959 1.4906537174
| 41> H -5.6606031232 1.7875972801 0.2463194442
| 42> H -2.249677977 -2.0021635007 -0.7344859214
| 43> H -1.0512935927 -2.419958857 0.517488163
| 44> H -3.0933867073 -3.798081177 0.7999339489
| 45> H -2.9287753999 -2.6924579178 2.1730915355
| 46> H -4.0951613865 -2.3439044597 0.8876005295
| 47> *
| 48>
| 49>                          ****END OF INPUT****

CARTESIAN COORDINATES (ANGSTROEM)
---------------------------------
  C      4.006381   -1.903740   -2.103337
  C      4.596160   -1.489640   -0.770604
  O      3.583979   -1.203499    0.210495
  P      2.598360    0.035376    0.085602
  S      3.412140    1.669226   -0.619575
  O      2.103048    0.244926    1.565992
  C      1.202610   -0.590929    2.331446
  C      1.591996   -2.053128    2.316399
  S      0.931604   -0.719341   -1.022389
  C      0.275455    0.889843   -1.509291
  S     -0.485230    1.775269   -0.118790
  P     -2.277063    0.645978   -0.093353
  S     -3.033681    0.243820   -1.860165
  O     -3.050428    1.616387    0.888568
  C     -4.179122    1.200362    1.689237
  C     -5.404090    0.916172    0.843729
  O     -2.002074   -0.638188    0.807332
  C     -2.043366   -2.001454    0.340772
  C     -3.112883   -2.756890    1.104413
  H      3.292829   -2.712529   -1.968988
  H      3.498006   -1.058541   -2.564723
  H      4.804778   -2.232311   -2.760896
  H      5.224473   -0.601302   -0.888281
  H      5.174243   -2.296387   -0.317931
  H      1.265133   -0.166323    3.334766
  H      0.191794   -0.444767    1.940758
  H      1.524884   -2.452377    1.305916
  H      2.612377   -2.172912    2.670736
  H      0.918914   -2.605433    2.965293
  H     -0.472728    0.715969   -2.284142
  H      1.091402    1.514932   -1.873572
  H     -3.888118    0.320526    2.268121
  H     -4.343053    2.046544    2.358442
  H     -5.212774    0.083831    0.167839
  H     -6.239023    0.665785    1.490654
  H     -5.660603    1.787597    0.246319
  H     -2.249678   -2.002164   -0.734486
  H     -1.051294   -2.419959    0.517488
  H     -3.093387   -3.798081    0.799934
  H     -2.928775   -2.692458    2.173092
  H     -4.095161   -2.343904    0.887601

 Total Charge           Charge          ....    0
 Multiplicity           Mult            ....    1
 Number of Electrons    NEL             ....  202
 Basis Dimension        Dim             ....  334

ORBITAL ENERGIES
----------------

  NO   OCC          E(Eh)            E(eV)
   0   2.0000     -88.044615     -2395.8158
   1   2.0000     -88.040023     -2395.6908
   2   2.0000     -87.993200     -2394.4167
   3   2.0000     -87.984332     -2394.1754
   4   2.0000     -76.431341     -2079.8025
   5   2.0000     -76.427655     -2079.7022
   6   2.0000     -18.802133      -511.6321
   7   2.0000     -18.798564      -511.5349
   8   2.0000     -18.795604      -511.4544
   9   2.0000     -18.789880      -511.2986
  10   2.0000      -9.962844      -271.1028
  11   2.0000      -9.957125      -270.9471
  12   2.0000      -9.954200      -270.8676
  13   2.0000      -9.953743      -270.8551
  14   2.0000      -9.950172      -270.7579
  15   2.0000      -9.895699      -269.2757
  16   2.0000      -9.890627      -269.1376
  17   2.0000      -9.890071      -269.1225
  18   2.0000      -9.885007      -268.9847
  19   2.0000      -7.689118      -209.2315
  20   2.0000      -7.685131      -209.1230
  21   2.0000      -7.638071      -207.8425
  22   2.0000      -7.629636      -207.6130
  23   2.0000      -6.428885      -174.9389
  24   2.0000      -6.424831      -174.8285
  25   2.0000      -5.716793      -155.5618
  26   2.0000      -5.713704      -155.4778
  27   2.0000      -5.712993      -155.4585
  28   2.0000      -5.709853      -155.3730
  29   2.0000      -5.706307      -155.2765
  30   2.0000      -5.701915      -155.1570
  31   2.0000      -5.666828      -154.2022
  32   2.0000      -5.658955      -153.9880
  33   2.0000      -5.658606      -153.9785
  34   2.0000      -5.658135      -153.9657
  35   2.0000      -5.650172      -153.7490
  36   2.0000      -5.649773      -153.7381
  37   2.0000      -4.651878      -126.5840
  38   2.0000      -4.650284      -126.5407
  39   2.0000      -4.649277      -126.5133
  40   2.0000      -4.647618      -126.4681
  41   2.0000      -4.646653      -126.4418
  42   2.0000      -4.645104      -126.3997
  43   2.0000      -0.994341       -27.0574
  44   2.0000      -0.987532       -26.8721
  45   2.0000      -0.951860       -25.9014
  46   2.0000      -0.945847       -25.7378
  47   2.0000      -0.764922       -20.8146
  48   2.0000      -0.726782       -19.7768
  49   2.0000      -0.713180       -19.4066
  50   2.0000      -0.696824       -18.9615
  51   2.0000      -0.691912       -18.8279
  52   2.0000      -0.677583       -18.4380
  53   2.0000      -0.654224       -17.8023
  54   2.0000      -0.638480       -17.3739
  55   2.0000      -0.603265       -16.4157
  56   2.0000      -0.597081       -16.2474
  57   2.0000      -0.583413       -15.8755
  58   2.0000      -0.577781       -15.7222
  59   2.0000      -0.559775       -15.2323
  60   2.0000      -0.508943       -13.8490
  61   2.0000      -0.492350       -13.3975
  62   2.0000      -0.483140       -13.1469
  63   2.0000      -0.472268       -12.8511
  64   2.0000      -0.464146       -12.6300
  65   2.0000      -0.448102       -12.1935
  66   2.0000      -0.443905       -12.0793
  67   2.0000      -0.443300       -12.0628
  68   2.0000      -0.433156       -11.7868
  69   2.0000      -0.419019       -11.4021
  70   2.0000      -0.415152       -11.2969
  71   2.0000      -0.399884       -10.8814
  72   2.0000      -0.397545       -10.8177
  73   2.0000      -0.386061       -10.5052
  74   2.0000      -0.380868       -10.3639
  75   2.0000      -0.377198       -10.2641
  76   2.0000      -0.370829       -10.0908
  77   2.0000      -0.365325        -9.9410
  78   2.0000      -0.360000        -9.7961
  79   2.0000      -0.354980        -9.6595
  80   2.0000      -0.354697        -9.6518
  81   2.0000      -0.350387        -9.5345
  82   2.0000      -0.347601        -9.4587
  83   2.0000      -0.344792        -9.3823
  84   2.0000      -0.339406        -9.2357
  85   2.0000      -0.326298        -8.8790
  86   2.0000      -0.311267        -8.4700
  87   2.0000      -0.302575        -8.2335
  88   2.0000      -0.299135        -8.1399
  89   2.0000      -0.294369        -8.0102
  90   2.0000      -0.292814        -7.9679
  91   2.0000      -0.282937        -7.6991
  92   2.0000      -0.270377        -7.3573
  93   2.0000      -0.268251        -7.2995
  94   2.0000      -0.262546        -7.1442
  95   2.0000      -0.236453        -6.4342
  96   2.0000      -0.219119        -5.9625
  97   2.0000      -0.214755        -5.8438
  98   2.0000      -0.204492        -5.5645
  99   2.0000      -0.201475        -5.4824
 100   2.0000      -0.200664        -5.4603
 101   0.0000      -0.046499        -1.2653
 102   0.0000      -0.026115        -0.7106
 103   0.0000      -0.004192        -0.1141
 104   0.0000      -0.001624        -0.0442
 105   0.0000       0.012553         0.3416

MULLIKEN ATOMIC CHARGES
-----------------------
   0 C :   -0.315014
   1 C :   -0.001789
   2 O :   -0.375878
   3 P :    0.603663
   4 S :   -0.312180
   5 O :   -0.352988
   6 C :   -0.022897
   7 C :   -0.318791
   8 S :   -0.117762
   9 C :   -0.376595
  10 S :   -0.055403
  11 P :    0.637412
  12 S :   -0.324291
  13 O :   -0.373690
  14 C :   -0.013380
  15 C :   -0.319113
  16 O :   -0.381229
  17 C :   -0.025443
  18 C :   -0.291408
  19 H :    0.114171
  20 H :    0.128563
  21 H :    0.114001
  22 H :    0.115092
  23 H :    0.104617
  24 H :    0.108203
  25 H :    0.131992
  26 H :    0.125113
  27 H :    0.123705
  28 H :    0.111289
  29 H :    0.193410
  30 H :    0.196788
  31 H :    0.108800
  32 H :    0.113331
  33 H :    0.134314
  34 H :    0.111689
  35 H :    0.127119
  36 H :    0.112493
  37 H :    0.113386
  38 H :    0.115171
  39 H :    0.114267
  40 H :    0.119265
Sum of atomic charges:    0.0000000

LOEWDIN ATOMIC CHARGES
----------------------
   0 C :   -0.370283
   1 C :   -0.117197
   2 O :   -0.242569
   3 P :    0.574856
   4 S :   -0.308764
   5 O :   -0.231325
   6 C :   -0.117991
   7 C :   -0.368045
   8 S :    0.072164
   9 C :   -0.492037
  10 S :    0.102624
  11 P :    0.571286
  12 S :   -0.307592
  13 O :   -0.243101
  14 C :   -0.111311
  15 C :   -0.366633
  16 O :   -0.242795
  17 C :   -0.128536
  18 C :   -0.355208
  19 H :    0.122193
  20 H :    0.121951
  21 H :    0.131561
  22 H :    0.113579
  23 H :    0.118517
  24 H :    0.123028
  25 H :    0.107795
  26 H :    0.114932
  27 H :    0.129011
  28 H :    0.129459
  29 H :    0.127359
  30 H :    0.129465
  31 H :    0.110354
  32 H :    0.123451
  33 H :    0.120245
  34 H :    0.130204
  35 H :    0.132611
  36 H :    0.105906
  37 H :    0.109677
  38 H :    0.132814
  39 H :    0.123786
  40 H :    0.124558

  Mayer bond orders larger than 0.100000
B(  0-C ,  1-C ) :   1.1656 B(  0-C , 19-H ) :   0.9450 B(  0-C , 20-H ) :   0.9346
B(  0-C , 21-H ) :   0.9373 B(  1-C ,  2-O ) :   0.9049 B(  1-C , 22-H ) :   0.9164
B(  1-C , 23-H ) :   0.9340 B(  2-O ,  3-P ) :   1.0923 B(  3-P ,  4-S ) :   1.6264
B(  3-P ,  5-O ) :   1.1548 B(  3-P ,  8-S ) :   0.9280 B(  4-S ,  8-S ) :   0.1075
B(  5-O ,  6-C ) :   0.8953 B(  6-C ,  7-C ) :   1.1719 B(  6-C , 24-H ) :   0.9329
B(  6-C , 25-H ) :   0.9026 B(  7-C , 26-H ) :   0.9304 B(  7-C , 27-H ) :   0.9410
B(  7-C , 28-H ) :   0.9359 B(  8-S ,  9-C ) :   0.9983 B(  9-C , 10-S ) :   1.0078
B(  9-C , 29-H ) :   0.8662 B(  9-C , 30-H ) :   0.8690 B( 10-S , 11-P ) :   0.9686
B( 10-S , 12-S ) :   0.1086 B( 11-P , 12-S ) :   1.6127 B( 11-P , 13-O ) :   1.1305
B( 11-P , 16-O ) :   1.0620 B( 13-O , 14-C ) :   0.9092 B( 14-C , 15-C ) :   1.1637
B( 14-C , 31-H ) :   0.9253 B( 14-C , 32-H ) :   0.9346 B( 15-C , 33-H ) :   0.9302
B( 15-C , 34-H ) :   0.9371 B( 15-C , 35-H ) :   0.9444 B( 16-O , 17-C ) :   0.8950
B( 17-C , 18-C ) :   1.1616 B( 17-C , 36-H ) :   0.8970 B( 17-C , 37-H ) :   0.9215
B( 18-C , 38-H ) :   0.9403 B( 18-C , 39-H ) :   0.9486 B( 18-C , 40-H ) :   0.9432

Dispersion correction           -0.066169529
FINAL SINGLE POINT ENERGY     -2929.521191579905

DIPOLE MOMENT
-------------

Method             : SCF
Type of density    : Electron Density
Multiplicity       :   1
Irrep              :   0
Energy             : -2929.6414623428345294 Eh
Relativity type    :
Basis              : AO
                                X                 Y                 Z
Electronic contribution:      8.668431451      20.307840366      -8.156463307
Nuclear contribution   :     -9.341559258     -22.145055954       9.295276579
                        -----------------------------------------
Total Dipole Moment    :     -0.673127807      -1.837215589       1.138813272
                        -----------------------------------------
Magnitude (a.u.)       :      2.263925315
Magnitude (Debye)      :      5.754440838

Rotational constants in cm-1:             0.013953             0.004648             0.004401
Rotational constants in MHz :           418.306899           139.348920           131.952882

                             ****ORCA TERMINATED NORMALLY****
TOTAL RUN TIME: 0 days 0 hours 0 minutes 21 seconds 475 msec
