                         Program Version 6.0.0  -   RELEASE  -
|  1> ! wb97x-v def2-tzvp def2/J RIJCOSX DEFGRID2 scfconv7 GCP(DFT/TZ) printgap
|  2> %output
|  3>     printlevel normal
|  4> end
|  5> * xyz 0 1
|  6> C 5.281510157127534 -2.4399023105766315 -1.2731866529921203
|  7> C 4.364917850850355 -1.2644306843062394 -1.4890354034557298
|  8> O 3.521579879374389 -1.1477484649464316 -0.28884473867975374
|  9> P 2.62298014794251 0.15942259699221328 -0.0187871302519611
| 10> S 3.465510400622477 1.9080200566554661 -0.12689732776442555
| 11> O 2.072659096663094 -0.12443313834785505 1.4558891828309106
| 12> C 1.389292593861141 -1.381583757792152 1.8200125505897247
| 13> C 2.300815324516256 -2.227980478742118 2.6709916716895283
| 14> S 1.0529440743950462 -0.18582792363189812 -1.4152859293061275
| 15> C 0.16894647319918465 1.4177736335306066 -1.3329499197820571
| 16> S -0.8151920434086617 1.7331782511555913 0.18482010559630918
| 17> P -2.405305167593523 0.35775454189050804 -0.06950888198268247
| 18> S -2.987228172831517 0.04032302139585385 -1.901235009242168
| 19> O -3.500321103239235 0.9488405016192302 0.953721111130323
| 20> C -4.401616815672264 2.0355134165796405 0.5431782978372899
| 21> C -5.2569103358348706 2.3760011096339104 1.7353223987528037
| 22> O -1.875923904641319 -0.9117492129608017 0.7567391320094776
| 23> C -2.6899581102957133 -2.138923194267122 0.8390349603684905
| 24> C -1.786377620101244 -3.243067162288817 1.3218676484235894
| 25> H 4.710667412466319 -3.362006168816213 -1.132459956833548
| 26> H 5.916808810373111 -2.5581390153628383 -2.156174155746851
| 27> H 5.923970588821562 -2.2786707708556606 -0.4031259091664977
| 28> H 3.7100112095503004 -1.412391975204739 -2.3533494182482446
| 29> H 4.922069731159608 -0.3303257350380217 -1.6101880450643296
| 30> H 0.5002061601836517 -1.0621051088689948 2.3675153147117993
| 31> H 1.0752843756558714 -1.9018081387012356 0.9106889167791449
| 32> H 1.7517760465969732 -3.1204658239644183 2.989507958511157
| 33> H 3.1845635537892494 -2.546450334569293 2.1117470343133413
| 34> H 2.6180472420206096 -1.6831182469773662 3.5645987535192414
| 35> H -0.4917236870455527 1.442049371757423 -2.2042543588538894
| 36> H 0.8909156864270497 2.2379481996593578 -1.3979081204255979
| 37> H -3.793984767395586 2.888557450966609 0.22278920947166397
| 38> H -4.999323704201819 1.6803427526162458 -0.30131060364718276
| 39> H -5.946546760551349 3.1784654290605996 1.4564984324998862
| 40> H -5.845188336526346 1.510686757390696 2.0537484852007464
| 41> H -4.645081280237083 2.7217346394831914 2.5731645968159715
| 42> H -3.5124513602380034 -1.9441065985373691 1.5339273237697102
| 43> H -3.095371313210999 -2.354987560556501 -0.1543481515322254
| 44> H -0.9769215942901238 -3.4248696530481255 0.6091921165013024
| 45> H -1.3575211442770674 -3.005018010513697 2.299645974945987
| 46> H -2.374797426994195 -4.160856999513463 1.4178696839348504
| 47> *
| 48>
| 49>                          ****END OF INPUT****

CARTESIAN COORDINATES (ANGSTROEM)
---------------------------------
  C      5.281510   -2.439902   -1.273187
  C      4.364918   -1.264431   -1.489035
  O      3.521580   -1.147748   -0.288845
  P      2.622980    0.159423   -0.018787
  S      3.465510    1.908020   -0.126897
  O      2.072659   -0.124433    1.455889
  C      1.389293   -1.381584    1.820013
  C      2.300815   -2.227980    2.670992
  S      1.052944   -0.185828   -1.415286
  C      0.168946    1.417774   -1.332950
  S     -0.815192    1.733178    0.184820
  P     -2.405305    0.357755   -0.069509
  S     -2.987228    0.040323   -1.901235
  O     -3.500321    0.948841    0.953721
  C     -4.401617    2.035513    0.543178
  C     -5.256910    2.376001    1.735322
  O     -1.875924   -0.911749    0.756739
  C     -2.689958   -2.138923    0.839035
  C     -1.786378   -3.243067    1.321868
  H      4.710667   -3.362006   -1.132460
  H      5.916809   -2.558139   -2.156174
  H      5.923971   -2.278671   -0.403126
  H      3.710011   -1.412392   -2.353349
  H      4.922070   -0.330326   -1.610188
  H      0.500206   -1.062105    2.367515
  H      1.075284   -1.901808    0.910689
  H      1.751776   -3.120466    2.989508
  H      3.184564   -2.546450    2.111747
  H      2.618047   -1.683118    3.564599
  H     -0.491724    1.442049   -2.204254
  H      0.890916    2.237948   -1.397908
  H     -3.793985    2.888557    0.222789
  H     -4.999324    1.680343   -0.301311
  H     -5.946547    3.178465    1.456498
  H     -5.845188    1.510687    2.053748
  H     -4.645081    2.721735    2.573165
  H     -3.512451   -1.944107    1.533927
  H     -3.095371   -2.354988   -0.154348
  H     -0.976922   -3.424870    0.609192
  H     -1.357521   -3.005018    2.299646
  H     -2.374797   -4.160857    1.417870

 Total Charge           Charge          ....    0
 Multiplicity           Mult            ....    1
 Number of Electrons    NEL             ....  202
 Basis Dimension        Dim             ....  757

ORBITAL ENERGIES
----------------

  NO   OCC          E(Eh)            E(eV)
   0   2.0000     -94.145077     -2561.8178
   1   2.0000     -94.142116     -2561.7372
   2   2.0000     -94.086377     -2560.2205
   3   2.0000     -94.076826     -2559.9606
   4   2.0000     -82.122048     -2234.6545
   5   2.0000     -82.116584     -2234.5059
   6   2.0000     -21.714913      -590.8928
   7   2.0000     -21.713187      -590.8458
   8   2.0000     -21.713034      -590.8417
   9   2.0000     -21.705438      -590.6350
  10   2.0000     -12.123129      -329.8871
  11   2.0000     -12.120912      -329.8268
  12   2.0000     -12.118595      -329.7637
  13   2.0000     -12.118210      -329.7533
  14   2.0000     -12.112238      -329.5907
  15   2.0000     -12.057042      -328.0888
  16   2.0000     -12.052624      -327.9686
  17   2.0000     -12.052216      -327.9575
  18   2.0000     -12.045677      -327.7795
  19   2.0000      -9.656324      -262.7619
  20   2.0000      -9.653601      -262.6878
  21   2.0000      -9.599285      -261.2098
  22   2.0000      -9.589590      -260.9460
  23   2.0000      -8.235499      -224.0993
  24   2.0000      -8.229761      -223.9432
  25   2.0000      -7.633964      -207.7307
  26   2.0000      -7.633022      -207.7051
  27   2.0000      -7.632022      -207.6779
  28   2.0000      -7.631073      -207.6521
  29   2.0000      -7.629957      -207.6217
  30   2.0000      -7.628917      -207.5934
  31   2.0000      -7.576808      -206.1754
  32   2.0000      -7.575180      -206.1311
  33   2.0000      -7.575043      -206.1274
  34   2.0000      -7.567149      -205.9126
  35   2.0000      -7.565516      -205.8682
  36   2.0000      -7.565343      -205.8635
  37   2.0000      -6.399725      -174.1454
  38   2.0000      -6.399537      -174.1402
  39   2.0000      -6.399039      -174.1267
  40   2.0000      -6.394131      -173.9931
  41   2.0000      -6.393771      -173.9834
  42   2.0000      -6.393188      -173.9675
  43   2.0000      -1.724921       -46.9375
  44   2.0000      -1.720908       -46.8283
  45   2.0000      -1.701341       -46.2958
  46   2.0000      -1.695578       -46.1390
  47   2.0000      -1.330945       -36.2169
  48   2.0000      -1.317300       -35.8456
  49   2.0000      -1.306137       -35.5418
  50   2.0000      -1.295589       -35.2548
  51   2.0000      -1.291225       -35.1360
  52   2.0000      -1.252746       -34.0890
  53   2.0000      -1.228143       -33.4195
  54   2.0000      -1.207120       -32.8474
  55   2.0000      -1.171905       -31.8892
  56   2.0000      -1.164597       -31.6903
  57   2.0000      -1.153392       -31.3854
  58   2.0000      -1.149941       -31.2915
  59   2.0000      -1.118986       -30.4492
  60   2.0000      -1.086502       -29.5652
  61   2.0000      -1.076092       -29.2819
  62   2.0000      -1.060691       -28.8629
  63   2.0000      -1.049812       -28.5668
  64   2.0000      -0.994544       -27.0629
  65   2.0000      -0.990214       -26.9451
  66   2.0000      -0.990111       -26.9423
  67   2.0000      -0.987401       -26.8686
  68   2.0000      -0.975943       -26.5568
  69   2.0000      -0.970623       -26.4120
  70   2.0000      -0.967346       -26.3228
  71   2.0000      -0.958753       -26.0890
  72   2.0000      -0.920505       -25.0482
  73   2.0000      -0.890974       -24.2446
  74   2.0000      -0.880593       -23.9621
  75   2.0000      -0.879229       -23.9250
  76   2.0000      -0.876490       -23.8505
  77   2.0000      -0.872698       -23.7473
  78   2.0000      -0.866759       -23.5857
  79   2.0000      -0.852224       -23.1902
  80   2.0000      -0.848229       -23.0815
  81   2.0000      -0.846283       -23.0285
  82   2.0000      -0.839878       -22.8542
  83   2.0000      -0.832961       -22.6660
  84   2.0000      -0.832158       -22.6442
  85   2.0000      -0.827350       -22.5133
  86   2.0000      -0.826408       -22.4877
  87   2.0000      -0.825117       -22.4526
  88   2.0000      -0.820248       -22.3201
  89   2.0000      -0.794327       -21.6147
  90   2.0000      -0.792786       -21.5728
  91   2.0000      -0.790929       -21.5223
  92   2.0000      -0.787551       -21.4304
  93   2.0000      -0.775065       -21.0906
  94   2.0000      -0.752106       -20.4658
  95   2.0000      -0.689599       -18.7650
  96   2.0000      -0.675728       -18.3875
  97   2.0000      -0.649291       -17.6681
  98   2.0000      -0.643747       -17.5172
  99   2.0000      -0.640174       -17.4200
 100   2.0000      -0.631858       -17.1937
 101   0.0000      -0.317489        -8.6393
 102   0.0000      -0.312593        -8.5061
 103   0.0000      -0.270942        -7.3727
 104   0.0000      -0.242359        -6.5949
 105   0.0000      -0.234241        -6.3740

MULLIKEN ATOMIC CHARGES
-----------------------
   0 C :   -0.318606
   1 C :   -0.062709
   2 O :   -0.307087
   3 P :    0.606356
   4 S :   -0.405540
   5 O :   -0.281658
   6 C :   -0.033601
   7 C :   -0.323497
   8 S :   -0.144441
   9 C :   -0.193357
  10 S :   -0.108093
  11 P :    0.615994
  12 S :   -0.424390
  13 O :   -0.316631
  14 C :   -0.054552
  15 C :   -0.313169
  16 O :   -0.287453
  17 C :   -0.046922
  18 C :   -0.335910
  19 H :    0.115231
  20 H :    0.116730
  21 H :    0.123794
  22 H :    0.115796
  23 H :    0.127959
  24 H :    0.122936
  25 H :    0.103466
  26 H :    0.107896
  27 H :    0.125888
  28 H :    0.122695
  29 H :    0.176733
  30 H :    0.176674
  31 H :    0.114606
  32 H :    0.127703
  33 H :    0.114700
  34 H :    0.116489
  35 H :    0.121487
  36 H :    0.115520
  37 H :    0.124428
  38 H :    0.122613
  39 H :    0.116360
  40 H :    0.125563
Sum of atomic charges:    0.0000000

LOEWDIN ATOMIC CHARGES
----------------------
   0 C :   -0.304207
   1 C :   -0.318425
   2 O :    0.026016
   3 P :   -0.039171
   4 S :   -0.114759
   5 O :    0.040093
   6 C :   -0.319995
   7 C :   -0.306765
   8 S :    0.340623
   9 C :   -0.703762
  10 S :    0.363118
  11 P :   -0.032685
  12 S :   -0.119910
  13 O :    0.024879
  14 C :   -0.322014
  15 C :   -0.303713
  16 O :    0.025909
  17 C :   -0.311083
  18 C :   -0.305096
  19 H :    0.120764
  20 H :    0.126684
  21 H :    0.123617
  22 H :    0.119059
  23 H :    0.123546
  24 H :    0.126034
  25 H :    0.115043
  26 H :    0.123205
  27 H :    0.120962
  28 H :    0.123607
  29 H :    0.114427
  30 H :    0.115778
  31 H :    0.120514
  32 H :    0.121993
  33 H :    0.126419
  34 H :    0.121797
  35 H :    0.122701
  36 H :    0.122568
  37 H :    0.122002
  38 H :    0.122479
  39 H :    0.120370
  40 H :    0.127377

  Mayer bond orders larger than 0.100000
B(  0-C ,  1-C ) :   1.0074 B(  0-C , 19-H ) :   0.9752 B(  0-C , 20-H ) :   0.9686
B(  0-C , 21-H ) :   0.9753 B(  1-C ,  2-O ) :   0.8909 B(  1-C , 22-H ) :   0.9659
B(  1-C , 23-H ) :   0.9612 B(  2-O ,  3-P ) :   1.1575 B(  3-P ,  4-S ) :   1.8802
B(  3-P ,  5-O ) :   1.2410 B(  3-P ,  8-S ) :   1.0482 B(  5-O ,  6-C ) :   0.8590
B(  6-C ,  7-C ) :   0.9916 B(  6-C , 24-H ) :   0.9671 B(  6-C , 25-H ) :   0.9671
B(  7-C , 26-H ) :   0.9710 B(  7-C , 27-H ) :   0.9754 B(  7-C , 28-H ) :   0.9750
B(  8-S ,  9-C ) :   1.0148 B(  9-C , 10-S ) :   1.0200 B(  9-C , 29-H ) :   0.9328
B(  9-C , 30-H ) :   0.9303 B( 10-S , 11-P ) :   1.1002 B( 11-P , 12-S ) :   1.8089
B( 11-P , 13-O ) :   1.1804 B( 11-P , 16-O ) :   1.2134 B( 13-O , 14-C ) :   0.8840
B( 14-C , 15-C ) :   1.0063 B( 14-C , 31-H ) :   0.9642 B( 14-C , 32-H ) :   0.9648
B( 15-C , 33-H ) :   0.9699 B( 15-C , 34-H ) :   0.9750 B( 15-C , 35-H ) :   0.9749
B( 16-O , 17-C ) :   0.8977 B( 17-C , 18-C ) :   1.0102 B( 17-C , 36-H ) :   0.9682
B( 17-C , 37-H ) :   0.9579 B( 18-C , 38-H ) :   0.9759 B( 18-C , 39-H ) :   0.9739
B( 18-C , 40-H ) :   0.9672

FINAL SINGLE POINT ENERGY     -2932.536956443472

DIPOLE MOMENT
-------------

Method             : SCF
Type of density    : Electron Density
Multiplicity       :   1
Irrep              :   0
Energy             : -2932.5666979983716374 Eh
Relativity type    :
Basis              : AO
                                X                 Y                 Z
Electronic contribution:      2.250046483      17.724102641     -10.928725571
Nuclear contribution   :     -3.095638693     -19.166261988      11.387288712
                        -----------------------------------------
Total Dipole Moment    :     -0.845592210      -1.442159347       0.458563141
                        -----------------------------------------
Magnitude (a.u.)       :      1.733531056
Magnitude (Debye)      :      4.406285770

Rotational constants in cm-1:             0.012279             0.004307             0.003955
Rotational constants in MHz :           368.123513           129.114995           118.559197

                             ****ORCA TERMINATED NORMALLY****
TOTAL RUN TIME: 0 days 0 hours 14 minutes 19 seconds 581 msec
