                         Program Version 6.0.0  -   RELEASE  -
|  1> ! wb97x-v def2-tzvp def2/J RIJCOSX DEFGRID2 scfconv7 GCP(DFT/TZ) printgap
|  2> %output
|  3>     printlevel normal
|  4> end
|  5> %cpcm
|  6>     smd true
|  7>     smdsolvent "water"
|  8> end
|  9> * xyz 0 1
| 10> C 5.281510157127534 -2.4399023105766315 -1.2731866529921203
| 11> C 4.364917850850355 -1.2644306843062394 -1.4890354034557298
| 12> O 3.521579879374389 -1.1477484649464316 -0.28884473867975374
| 13> P 2.62298014794251 0.15942259699221328 -0.0187871302519611
| 14> S 3.465510400622477 1.9080200566554661 -0.12689732776442555
| 15> O 2.072659096663094 -0.12443313834785505 1.4558891828309106
| 16> C 1.389292593861141 -1.381583757792152 1.8200125505897247
| 17> C 2.300815324516256 -2.227980478742118 2.6709916716895283
| 18> S 1.0529440743950462 -0.18582792363189812 -1.4152859293061275
| 19> C 0.16894647319918465 1.4177736335306066 -1.3329499197820571
| 20> S -0.8151920434086617 1.7331782511555913 0.18482010559630918
| 21> P -2.405305167593523 0.35775454189050804 -0.06950888198268247
| 22> S -2.987228172831517 0.04032302139585385 -1.901235009242168
| 23> O -3.500321103239235 0.9488405016192302 0.953721111130323
| 24> C -4.401616815672264 2.0355134165796405 0.5431782978372899
| 25> C -5.2569103358348706 2.3760011096339104 1.7353223987528037
| 26> O -1.875923904641319 -0.9117492129608017 0.7567391320094776
| 27> C -2.6899581102957133 -2.138923194267122 0.8390349603684905
| 28> C -1.786377620101244 -3.243067162288817 1.3218676484235894
| 29> H 4.710667412466319 -3.362006168816213 -1.132459956833548
| 30> H 5.916808810373111 -2.5581390153628383 -2.156174155746851
| 31> H 5.923970588821562 -2.2786707708556606 -0.4031259091664977
| 32> H 3.7100112095503004 -1.412391975204739 -2.3533494182482446
| 33> H 4.922069731159608 -0.3303257350380217 -1.6101880450643296
| 34> H 0.5002061601836517 -1.0621051088689948 2.3675153147117993
| 35> H 1.0752843756558714 -1.9018081387012356 0.9106889167791449
| 36> H 1.7517760465969732 -3.1204658239644183 2.989507958511157
| 37> H 3.1845635537892494 -2.546450334569293 2.1117470343133413
| 38> H 2.6180472420206096 -1.6831182469773662 3.5645987535192414
| 39> H -0.4917236870455527 1.442049371757423 -2.2042543588538894
| 40> H 0.8909156864270497 2.2379481996593578 -1.3979081204255979
| 41> H -3.793984767395586 2.888557450966609 0.22278920947166397
| 42> H -4.999323704201819 1.6803427526162458 -0.30131060364718276
| 43> H -5.946546760551349 3.1784654290605996 1.4564984324998862
| 44> H -5.845188336526346 1.510686757390696 2.0537484852007464
| 45> H -4.645081280237083 2.7217346394831914 2.5731645968159715
| 46> H -3.5124513602380034 -1.9441065985373691 1.5339273237697102
| 47> H -3.095371313210999 -2.354987560556501 -0.1543481515322254
| 48> H -0.9769215942901238 -3.4248696530481255 0.6091921165013024
| 49> H -1.3575211442770674 -3.005018010513697 2.299645974945987
| 50> H -2.374797426994195 -4.160856999513463 1.4178696839348504
| 51> *
| 52>
| 53>                          ****END OF INPUT****

CARTESIAN COORDINATES (ANGSTROEM)
---------------------------------
  C      5.281510   -2.439902   -1.273187
  C      4.364918   -1.264431   -1.489035
  O      3.521580   -1.147748   -0.288845
  P      2.622980    0.159423   -0.018787
  S      3.465510    1.908020   -0.126897
  O      2.072659   -0.124433    1.455889
  C      1.389293   -1.381584    1.820013
  C      2.300815   -2.227980    2.670992
  S      1.052944   -0.185828   -1.415286
  C      0.168946    1.417774   -1.332950
  S     -0.815192    1.733178    0.184820
  P     -2.405305    0.357755   -0.069509
  S     -2.987228    0.040323   -1.901235
  O     -3.500321    0.948841    0.953721
  C     -4.401617    2.035513    0.543178
  C     -5.256910    2.376001    1.735322
  O     -1.875924   -0.911749    0.756739
  C     -2.689958   -2.138923    0.839035
  C     -1.786378   -3.243067    1.321868
  H      4.710667   -3.362006   -1.132460
  H      5.916809   -2.558139   -2.156174
  H      5.923971   -2.278671   -0.403126
  H      3.710011   -1.412392   -2.353349
  H      4.922070   -0.330326   -1.610188
  H      0.500206   -1.062105    2.367515
  H      1.075284   -1.901808    0.910689
  H      1.751776   -3.120466    2.989508
  H      3.184564   -2.546450    2.111747
  H      2.618047   -1.683118    3.564599
  H     -0.491724    1.442049   -2.204254
  H      0.890916    2.237948   -1.397908
  H     -3.793985    2.888557    0.222789
  H     -4.999324    1.680343   -0.301311
  H     -5.946547    3.178465    1.456498
  H     -5.845188    1.510687    2.053748
  H     -4.645081    2.721735    2.573165
  H     -3.512451   -1.944107    1.533927
  H     -3.095371   -2.354988   -0.154348
  H     -0.976922   -3.424870    0.609192
  H     -1.357521   -3.005018    2.299646
  H     -2.374797   -4.160857    1.417870

 Total Charge           Charge          ....    0
 Multiplicity           Mult            ....    1
 Number of Electrons    NEL             ....  202
 Basis Dimension        Dim             ....  757

ORBITAL ENERGIES
----------------

  NO   OCC          E(Eh)            E(eV)
   0   2.0000     -94.149911     -2561.9493
   1   2.0000     -94.148562     -2561.9126
   2   2.0000     -94.092814     -2560.3956
   3   2.0000     -94.091713     -2560.3657
   4   2.0000     -82.126779     -2234.7833
   5   2.0000     -82.126271     -2234.7694
   6   2.0000     -21.715309      -590.9036
   7   2.0000     -21.714414      -590.8792
   8   2.0000     -21.713828      -590.8633
   9   2.0000     -21.712448      -590.8257
  10   2.0000     -12.124401      -329.9217
  11   2.0000     -12.107995      -329.4753
  12   2.0000     -12.106521      -329.4352
  13   2.0000     -12.106264      -329.4282
  14   2.0000     -12.106047      -329.4223
  15   2.0000     -12.035886      -327.5131
  16   2.0000     -12.035530      -327.5034
  17   2.0000     -12.035192      -327.4942
  18   2.0000     -12.034383      -327.4722
  19   2.0000      -9.661276      -262.8967
  20   2.0000      -9.659950      -262.8606
  21   2.0000      -9.605962      -261.3915
  22   2.0000      -9.604857      -261.3614
  23   2.0000      -8.239966      -224.2209
  24   2.0000      -8.239673      -224.2129
  25   2.0000      -7.638963      -207.8668
  26   2.0000      -7.638156      -207.8448
  27   2.0000      -7.637505      -207.8271
  28   2.0000      -7.637089      -207.8157
  29   2.0000      -7.636099      -207.7888
  30   2.0000      -7.635116      -207.7621
  31   2.0000      -7.583496      -206.3574
  32   2.0000      -7.582433      -206.3285
  33   2.0000      -7.581933      -206.3149
  34   2.0000      -7.581797      -206.3112
  35   2.0000      -7.580857      -206.2856
  36   2.0000      -7.580701      -206.2814
  37   2.0000      -6.404309      -174.2701
  38   2.0000      -6.403990      -174.2614
  39   2.0000      -6.403880      -174.2584
  40   2.0000      -6.403718      -174.2540
  41   2.0000      -6.403467      -174.2472
  42   2.0000      -6.403261      -174.2416
  43   2.0000      -1.726023       -46.9675
  44   2.0000      -1.724540       -46.9271
  45   2.0000      -1.701611       -46.3032
  46   2.0000      -1.700613       -46.2760
  47   2.0000      -1.332813       -36.2677
  48   2.0000      -1.313273       -35.7360
  49   2.0000      -1.301643       -35.4195
  50   2.0000      -1.284238       -34.9459
  51   2.0000      -1.282250       -34.8918
  52   2.0000      -1.253454       -34.1082
  53   2.0000      -1.231704       -33.5164
  54   2.0000      -1.214158       -33.0389
  55   2.0000      -1.166908       -31.7532
  56   2.0000      -1.163851       -31.6700
  57   2.0000      -1.146202       -31.1897
  58   2.0000      -1.142104       -31.0782
  59   2.0000      -1.119501       -30.4632
  60   2.0000      -1.081322       -29.4243
  61   2.0000      -1.073777       -29.2190
  62   2.0000      -1.055444       -28.7201
  63   2.0000      -1.051059       -28.6008
  64   2.0000      -0.993749       -27.0413
  65   2.0000      -0.991539       -26.9811
  66   2.0000      -0.988690       -26.9036
  67   2.0000      -0.986885       -26.8545
  68   2.0000      -0.971201       -26.4277
  69   2.0000      -0.970113       -26.3981
  70   2.0000      -0.962378       -26.1877
  71   2.0000      -0.961743       -26.1704
  72   2.0000      -0.922873       -25.1127
  73   2.0000      -0.891687       -24.2640
  74   2.0000      -0.873986       -23.7824
  75   2.0000      -0.868037       -23.6205
  76   2.0000      -0.866732       -23.5850
  77   2.0000      -0.865292       -23.5458
  78   2.0000      -0.859996       -23.4017
  79   2.0000      -0.842432       -22.9237
  80   2.0000      -0.838212       -22.8089
  81   2.0000      -0.836180       -22.7536
  82   2.0000      -0.835417       -22.7328
  83   2.0000      -0.830803       -22.6073
  84   2.0000      -0.827937       -22.5293
  85   2.0000      -0.811491       -22.0818
  86   2.0000      -0.811181       -22.0733
  87   2.0000      -0.810553       -22.0563
  88   2.0000      -0.810058       -22.0428
  89   2.0000      -0.787023       -21.4160
  90   2.0000      -0.778827       -21.1930
  91   2.0000      -0.777471       -21.1561
  92   2.0000      -0.775988       -21.1157
  93   2.0000      -0.774104       -21.0645
  94   2.0000      -0.758480       -20.6393
  95   2.0000      -0.695598       -18.9282
  96   2.0000      -0.682176       -18.5629
  97   2.0000      -0.657208       -17.8835
  98   2.0000      -0.656043       -17.8518
  99   2.0000      -0.651127       -17.7181
 100   2.0000      -0.647954       -17.6317
 101   0.0000      -0.323562        -8.8046
 102   0.0000      -0.318756        -8.6738
 103   0.0000      -0.274901        -7.4804
 104   0.0000      -0.246804        -6.7159
 105   0.0000      -0.237674        -6.4674

MULLIKEN ATOMIC CHARGES
-----------------------
   0 C :   -0.366423
   1 C :   -0.051685
   2 O :   -0.321363
   3 P :    0.621461
   4 S :   -0.459742
   5 O :   -0.330362
   6 C :   -0.029615
   7 C :   -0.378095
   8 S :   -0.148560
   9 C :   -0.197263
  10 S :   -0.133284
  11 P :    0.648661
  12 S :   -0.469370
  13 O :   -0.341957
  14 C :   -0.044682
  15 C :   -0.365095
  16 O :   -0.317042
  17 C :   -0.048380
  18 C :   -0.373052
  19 H :    0.134238
  20 H :    0.139794
  21 H :    0.133476
  22 H :    0.136995
  23 H :    0.130969
  24 H :    0.138448
  25 H :    0.131012
  26 H :    0.141120
  27 H :    0.133835
  28 H :    0.133274
  29 H :    0.199865
  30 H :    0.196550
  31 H :    0.132560
  32 H :    0.135283
  33 H :    0.137375
  34 H :    0.133555
  35 H :    0.133277
  36 H :    0.140118
  37 H :    0.127515
  38 H :    0.133696
  39 H :    0.135955
  40 H :    0.146936
Sum of atomic charges:    0.0000000

LOEWDIN ATOMIC CHARGES
----------------------
   0 C :   -0.305339
   1 C :   -0.312923
   2 O :    0.021854
   3 P :   -0.037502
   4 S :   -0.155365
   5 O :    0.017906
   6 C :   -0.315800
   7 C :   -0.307861
   8 S :    0.342937
   9 C :   -0.698268
  10 S :    0.350144
  11 P :   -0.026924
  12 S :   -0.147223
  13 O :    0.015878
  14 C :   -0.317340
  15 C :   -0.306020
  16 O :    0.014404
  17 C :   -0.305899
  18 C :   -0.305203
  19 H :    0.124969
  20 H :    0.133741
  21 H :    0.124954
  22 H :    0.125806
  23 H :    0.124692
  24 H :    0.130256
  25 H :    0.121625
  26 H :    0.133460
  27 H :    0.121399
  28 H :    0.125097
  29 H :    0.121292
  30 H :    0.121255
  31 H :    0.125607
  32 H :    0.124577
  33 H :    0.133304
  34 H :    0.124918
  35 H :    0.124502
  36 H :    0.129932
  37 H :    0.123119
  38 H :    0.124984
  39 H :    0.125382
  40 H :    0.133675

  Mayer bond orders larger than 0.100000
B(  0-C ,  1-C ) :   1.0147 B(  0-C , 19-H ) :   0.9719 B(  0-C , 20-H ) :   0.9640
B(  0-C , 21-H ) :   0.9724 B(  1-C ,  2-O ) :   0.8642 B(  1-C , 22-H ) :   0.9608
B(  1-C , 23-H ) :   0.9590 B(  2-O ,  3-P ) :   1.1780 B(  3-P ,  4-S ) :   1.8464
B(  3-P ,  5-O ) :   1.2387 B(  3-P ,  8-S ) :   1.0637 B(  5-O ,  6-C ) :   0.8182
B(  6-C ,  7-C ) :   0.9977 B(  6-C , 24-H ) :   0.9597 B(  6-C , 25-H ) :   0.9637
B(  7-C , 26-H ) :   0.9669 B(  7-C , 27-H ) :   0.9741 B(  7-C , 28-H ) :   0.9720
B(  8-S ,  9-C ) :   1.0027 B(  9-C , 10-S ) :   1.0068 B(  9-C , 29-H ) :   0.9284
B(  9-C , 30-H ) :   0.9272 B( 10-S , 11-P ) :   1.0984 B( 11-P , 12-S ) :   1.7761
B( 11-P , 13-O ) :   1.1905 B( 11-P , 16-O ) :   1.2249 B( 13-O , 14-C ) :   0.8578
B( 14-C , 15-C ) :   1.0131 B( 14-C , 31-H ) :   0.9592 B( 14-C , 32-H ) :   0.9616
B( 15-C , 33-H ) :   0.9655 B( 15-C , 34-H ) :   0.9717 B( 15-C , 35-H ) :   0.9727
B( 16-O , 17-C ) :   0.8686 B( 17-C , 18-C ) :   1.0135 B( 17-C , 36-H ) :   0.9645
B( 17-C , 37-H ) :   0.9589 B( 18-C , 38-H ) :   0.9718 B( 18-C , 39-H ) :   0.9706
B( 18-C , 40-H ) :   0.9622

FINAL SINGLE POINT ENERGY     -2932.550377259795

DIPOLE MOMENT
-------------

Method             : SCF
Type of density    : Electron Density
Multiplicity       :   1
Irrep              :   0
Energy             : -2932.5801188146947425 Eh
Relativity type    :
Basis              : AO
                                X                 Y                 Z
Electronic contribution:      1.916837184      17.220371121     -11.018118372
Nuclear contribution   :     -3.095638693     -19.166261988      11.387288712
                        -----------------------------------------
Total Dipole Moment    :     -1.178801509      -1.945890867       0.369170340
                        -----------------------------------------
Magnitude (a.u.)       :      2.304853792
Magnitude (Debye)      :      5.858472759

Rotational constants in cm-1:             0.012279             0.004307             0.003955
Rotational constants in MHz :           368.123513           129.114995           118.559197

                             ****ORCA TERMINATED NORMALLY****
TOTAL RUN TIME: 0 days 0 hours 14 minutes 37 seconds 864 msec
