                         Program Version 6.0.0  -   RELEASE  -
|  1> ! pbe def2-sv(p) def2/J RI DEFGRID1 loosescf d4 GCP(DFT/SV(P)) printgap
|  2> %output
|  3>     printlevel normal
|  4> end
|  5> * xyz 0 1
|  6> C 1.15269984 -0.7802744437 -3.0403213774
|  7> C 1.7989496106 -1.3453157881 -1.7924199975
|  8> O 2.2697318632 -0.2357465088 -0.9888379968
|  9> P 2.4867094301 -0.329374142 0.5720250141
| 10> S 3.1870812662 1.3662966714 1.2481757205
| 11> O 3.4061577183 -1.6233933492 0.6680707734
| 12> C 3.6296107486 -2.4056207186 1.8579350107
| 13> C 4.0873473514 -1.5705446723 3.034753303
| 14> S 0.6540495618 -0.9962827658 1.4264493559
| 15> C -0.0926861675 0.6384597461 1.6225278743
| 16> S -0.2503240082 1.5658126618 0.0645181949
| 17> P -1.9903311237 0.6303634549 -0.7012296386
| 18> S -2.5363367243 1.2459497213 -2.4779417509
| 19> O -3.0564861687 0.7820115658 0.4794600548
| 20> C -3.7660271398 2.0161324092 0.696314816
| 21> C -5.1184935517 1.98555924 0.0110344744
| 22> O -1.6008254733 -0.89566373 -0.5729567859
| 23> C -2.2800645154 -1.9179620338 -1.3354945202
| 24> C -3.720311918 -2.074817444 -0.8986881297
| 25> H 0.2904316396 -0.1671137492 -2.7819167754
| 26> H 1.8622447661 -0.1576980203 -3.5777335173
| 27> H 0.8304845314 -1.5958769275 -3.6796932717
| 28> H 2.6627983598 -1.9666331583 -2.0355254874
| 29> H 1.0858951304 -1.929332059 -1.2017201402
| 30> H 2.7014162547 -2.9326533587 2.0952151641
| 31> H 4.396092758 -3.1200965251 1.5526777287
| 32> H 4.3168657469 -2.222462659 3.8714193186
| 33> H 4.9719301065 -0.9955342326 2.7714251278
| 34> H 3.3033430233 -0.8747140936 3.3297091857
| 35> H 0.5487068722 1.2489394199 2.2575039997
| 36> H -1.0736173895 0.4849152759 2.0651276775
| 37> H -3.8737839897 2.0931972939 1.7800747752
| 38> H -3.1607603571 2.8514356689 0.3293787056
| 39> H -5.6949377851 1.1336572085 0.3604766837
| 40> H -5.6554946543 2.9006316334 0.2389356212
| 41> H -4.9918097118 1.9099214859 -1.066808715
| 42> H -2.2234924331 -1.6536486054 -2.3959550329
| 43> H -1.6960948915 -2.8182501346 -1.1401218592
| 44> H -4.2774294844 -1.1707047897 -1.1402594695
| 45> H -4.1661675524 -2.9147666847 -1.4221331422
| 46> H -3.7716046156 -2.2459128525 0.1732923117
| 47> *
| 48>
| 49>                          ****END OF INPUT****

CARTESIAN COORDINATES (ANGSTROEM)
---------------------------------
  C      1.152700   -0.780274   -3.040321
  C      1.798950   -1.345316   -1.792420
  O      2.269732   -0.235747   -0.988838
  P      2.486709   -0.329374    0.572025
  S      3.187081    1.366297    1.248176
  O      3.406158   -1.623393    0.668071
  C      3.629611   -2.405621    1.857935
  C      4.087347   -1.570545    3.034753
  S      0.654050   -0.996283    1.426449
  C     -0.092686    0.638460    1.622528
  S     -0.250324    1.565813    0.064518
  P     -1.990331    0.630363   -0.701230
  S     -2.536337    1.245950   -2.477942
  O     -3.056486    0.782012    0.479460
  C     -3.766027    2.016132    0.696315
  C     -5.118494    1.985559    0.011034
  O     -1.600825   -0.895664   -0.572957
  C     -2.280065   -1.917962   -1.335495
  C     -3.720312   -2.074817   -0.898688
  H      0.290432   -0.167114   -2.781917
  H      1.862245   -0.157698   -3.577734
  H      0.830485   -1.595877   -3.679693
  H      2.662798   -1.966633   -2.035525
  H      1.085895   -1.929332   -1.201720
  H      2.701416   -2.932653    2.095215
  H      4.396093   -3.120097    1.552678
  H      4.316866   -2.222463    3.871419
  H      4.971930   -0.995534    2.771425
  H      3.303343   -0.874714    3.329709
  H      0.548707    1.248939    2.257504
  H     -1.073617    0.484915    2.065128
  H     -3.873784    2.093197    1.780075
  H     -3.160760    2.851436    0.329379
  H     -5.694938    1.133657    0.360477
  H     -5.655495    2.900632    0.238936
  H     -4.991810    1.909921   -1.066809
  H     -2.223492   -1.653649   -2.395955
  H     -1.696095   -2.818250   -1.140122
  H     -4.277429   -1.170705   -1.140259
  H     -4.166168   -2.914767   -1.422133
  H     -3.771605   -2.245913    0.173292

 Total Charge           Charge          ....    0
 Multiplicity           Mult            ....    1
 Number of Electrons    NEL             ....  202
 Basis Dimension        Dim             ....  334

ORBITAL ENERGIES
----------------

  NO   OCC          E(Eh)            E(eV)
   0   2.0000     -88.042941     -2395.7702
   1   2.0000     -88.042796     -2395.7663
   2   2.0000     -87.993482     -2394.4244
   3   2.0000     -87.981242     -2394.0913
   4   2.0000     -76.430455     -2079.7784
   5   2.0000     -76.424451     -2079.6150
   6   2.0000     -18.797860      -511.5158
   7   2.0000     -18.797244      -511.4990
   8   2.0000     -18.794153      -511.4149
   9   2.0000     -18.785067      -511.1677
  10   2.0000      -9.959441      -271.0102
  11   2.0000      -9.959373      -271.0083
  12   2.0000      -9.959295      -271.0062
  13   2.0000      -9.958369      -270.9810
  14   2.0000      -9.948081      -270.7010
  15   2.0000      -9.890225      -269.1267
  16   2.0000      -9.885720      -269.0041
  17   2.0000      -9.883750      -268.9505
  18   2.0000      -9.877715      -268.7863
  19   2.0000      -7.687756      -209.1945
  20   2.0000      -7.687738      -209.1940
  21   2.0000      -7.638459      -207.8530
  22   2.0000      -7.626581      -207.5298
  23   2.0000      -6.428003      -174.9149
  24   2.0000      -6.421429      -174.7360
  25   2.0000      -5.715987      -155.5399
  26   2.0000      -5.715435      -155.5249
  27   2.0000      -5.712219      -155.4374
  28   2.0000      -5.712080      -155.4336
  29   2.0000      -5.704941      -155.2393
  30   2.0000      -5.704584      -155.2296
  31   2.0000      -5.667380      -154.2172
  32   2.0000      -5.659056      -153.9907
  33   2.0000      -5.658673      -153.9803
  34   2.0000      -5.655662      -153.8984
  35   2.0000      -5.647109      -153.6656
  36   2.0000      -5.646640      -153.6529
  37   2.0000      -4.650471      -126.5458
  38   2.0000      -4.650009      -126.5332
  39   2.0000      -4.648340      -126.4877
  40   2.0000      -4.644260      -126.3767
  41   2.0000      -4.643507      -126.3562
  42   2.0000      -4.641472      -126.3009
  43   2.0000      -0.993083       -27.0231
  44   2.0000      -0.985609       -26.8198
  45   2.0000      -0.951947       -25.9038
  46   2.0000      -0.940679       -25.5972
  47   2.0000      -0.764910       -20.8143
  48   2.0000      -0.723373       -19.6840
  49   2.0000      -0.710674       -19.3384
  50   2.0000      -0.692264       -18.8375
  51   2.0000      -0.687787       -18.7156
  52   2.0000      -0.676445       -18.4070
  53   2.0000      -0.655510       -17.8373
  54   2.0000      -0.638522       -17.3751
  55   2.0000      -0.601790       -16.3755
  56   2.0000      -0.588620       -16.0172
  57   2.0000      -0.575198       -15.6519
  58   2.0000      -0.569214       -15.4891
  59   2.0000      -0.563953       -15.3459
  60   2.0000      -0.508628       -13.8405
  61   2.0000      -0.502317       -13.6687
  62   2.0000      -0.481444       -13.1008
  63   2.0000      -0.472643       -12.8613
  64   2.0000      -0.463423       -12.6104
  65   2.0000      -0.447844       -12.1864
  66   2.0000      -0.443405       -12.0657
  67   2.0000      -0.434041       -11.8109
  68   2.0000      -0.429530       -11.6881
  69   2.0000      -0.417064       -11.3489
  70   2.0000      -0.411674       -11.2022
  71   2.0000      -0.407449       -11.0872
  72   2.0000      -0.398941       -10.8557
  73   2.0000      -0.389169       -10.5898
  74   2.0000      -0.382172       -10.3994
  75   2.0000      -0.368833       -10.0365
  76   2.0000      -0.364828        -9.9275
  77   2.0000      -0.359533        -9.7834
  78   2.0000      -0.354810        -9.6549
  79   2.0000      -0.349504        -9.5105
  80   2.0000      -0.346801        -9.4369
  81   2.0000      -0.346111        -9.4182
  82   2.0000      -0.341568        -9.2945
  83   2.0000      -0.336458        -9.1555
  84   2.0000      -0.333236        -9.0678
  85   2.0000      -0.324869        -8.8401
  86   2.0000      -0.314627        -8.5614
  87   2.0000      -0.300625        -8.1804
  88   2.0000      -0.297435        -8.0936
  89   2.0000      -0.296796        -8.0762
  90   2.0000      -0.291155        -7.9227
  91   2.0000      -0.280912        -7.6440
  92   2.0000      -0.272251        -7.4083
  93   2.0000      -0.267643        -7.2829
  94   2.0000      -0.256621        -6.9830
  95   2.0000      -0.232736        -6.3331
  96   2.0000      -0.220765        -6.0073
  97   2.0000      -0.211817        -5.7638
  98   2.0000      -0.206851        -5.6287
  99   2.0000      -0.199420        -5.4265
 100   2.0000      -0.196057        -5.3350
 101   0.0000      -0.041548        -1.1306
 102   0.0000      -0.024423        -0.6646
 103   0.0000      -0.009214        -0.2507
 104   0.0000       0.001370         0.0373
 105   0.0000       0.006370         0.1733

MULLIKEN ATOMIC CHARGES
-----------------------
   0 C :   -0.294330
   1 C :   -0.014578
   2 O :   -0.349210
   3 P :    0.595608
   4 S :   -0.308183
   5 O :   -0.383096
   6 C :   -0.008831
   7 C :   -0.308935
   8 S :   -0.103370
   9 C :   -0.357376
  10 S :   -0.038223
  11 P :    0.590636
  12 S :   -0.313024
  13 O :   -0.379186
  14 C :   -0.012878
  15 C :   -0.293903
  16 O :   -0.369533
  17 C :   -0.013403
  18 C :   -0.306504
  19 H :    0.132301
  20 H :    0.119901
  21 H :    0.102000
  22 H :    0.102965
  23 H :    0.102583
  24 H :    0.109965
  25 H :    0.108922
  26 H :    0.110510
  27 H :    0.128720
  28 H :    0.123597
  29 H :    0.195549
  30 H :    0.181784
  31 H :    0.105421
  32 H :    0.105837
  33 H :    0.114007
  34 H :    0.110957
  35 H :    0.130706
  36 H :    0.115632
  37 H :    0.107167
  38 H :    0.129074
  39 H :    0.113400
  40 H :    0.117324
Sum of atomic charges:    0.0000000

LOEWDIN ATOMIC CHARGES
----------------------
   0 C :   -0.355443
   1 C :   -0.117244
   2 O :   -0.232249
   3 P :    0.564991
   4 S :   -0.309155
   5 O :   -0.248293
   6 C :   -0.114238
   7 C :   -0.369427
   8 S :    0.070052
   9 C :   -0.480131
  10 S :    0.109530
  11 P :    0.563740
  12 S :   -0.312962
  13 O :   -0.251709
  14 C :   -0.117816
  15 C :   -0.363491
  16 O :   -0.239726
  17 C :   -0.115886
  18 C :   -0.365056
  19 H :    0.120755
  20 H :    0.130195
  21 H :    0.126015
  22 H :    0.112692
  23 H :    0.100548
  24 H :    0.107120
  25 H :    0.121134
  26 H :    0.129661
  27 H :    0.131238
  28 H :    0.120440
  29 H :    0.133691
  30 H :    0.131665
  31 H :    0.117130
  32 H :    0.109898
  33 H :    0.124593
  34 H :    0.130343
  35 H :    0.124757
  36 H :    0.112683
  37 H :    0.117460
  38 H :    0.124055
  39 H :    0.131608
  40 H :    0.126831

  Mayer bond orders larger than 0.100000
B(  0-C ,  1-C ) :   1.1658 B(  0-C , 19-H ) :   0.9294 B(  0-C , 20-H ) :   0.9472
B(  0-C , 21-H ) :   0.9399 B(  1-C ,  2-O ) :   0.8901 B(  1-C , 22-H ) :   0.9306
B(  1-C , 23-H ) :   0.9095 B(  2-O ,  3-P ) :   1.1355 B(  3-P ,  4-S ) :   1.6434
B(  3-P ,  5-O ) :   1.0848 B(  3-P ,  8-S ) :   0.9488 B(  4-S ,  8-S ) :   0.1104
B(  5-O ,  6-C ) :   0.9151 B(  6-C ,  7-C ) :   1.1668 B(  6-C , 24-H ) :   0.9270
B(  6-C , 25-H ) :   0.9335 B(  7-C , 26-H ) :   0.9348 B(  7-C , 27-H ) :   0.9428
B(  7-C , 28-H ) :   0.9322 B(  8-S ,  9-C ) :   1.0001 B(  9-C , 10-S ) :   0.9896
B(  9-C , 29-H ) :   0.8839 B(  9-C , 30-H ) :   0.8946 B( 10-S , 11-P ) :   0.9840
B( 11-P , 12-S ) :   1.6187 B( 11-P , 13-O ) :   1.0673 B( 11-P , 16-O ) :   1.1127
B( 13-O , 14-C ) :   0.9033 B( 14-C , 15-C ) :   1.1708 B( 14-C , 31-H ) :   0.9345
B( 14-C , 32-H ) :   0.9129 B( 15-C , 33-H ) :   0.9450 B( 15-C , 34-H ) :   0.9395
B( 15-C , 35-H ) :   0.9312 B( 16-O , 17-C ) :   0.9000 B( 17-C , 18-C ) :   1.1689
B( 17-C , 36-H ) :   0.9167 B( 17-C , 37-H ) :   0.9302 B( 18-C , 38-H ) :   0.9332
B( 18-C , 39-H ) :   0.9370 B( 18-C , 40-H ) :   0.9457

Dispersion correction           -0.066129015
FINAL SINGLE POINT ENERGY     -2929.520859720947

DIPOLE MOMENT
-------------

Method             : SCF
Type of density    : Electron Density
Multiplicity       :   1
Irrep              :   0
Energy             : -2929.6404984235082338 Eh
Relativity type    :
Basis              : AO
                                X                 Y                 Z
Electronic contribution:     12.182757462      11.889744814       0.353283711
Nuclear contribution   :    -13.232148982     -13.658538836       0.461414464
                        -----------------------------------------
Total Dipole Moment    :     -1.049391520      -1.768794022       0.814698174
                        -----------------------------------------
Magnitude (a.u.)       :      2.212145558
Magnitude (Debye)      :      5.622827155

Rotational constants in cm-1:             0.013763             0.004723             0.004483
Rotational constants in MHz :           412.594599           141.577728           134.388983

                             ****ORCA TERMINATED NORMALLY****
TOTAL RUN TIME: 0 days 0 hours 0 minutes 21 seconds 622 msec
