                         Program Version 6.0.0  -   RELEASE  -
|  1> ! wb97x-v def2-tzvp def2/J RIJCOSX DEFGRID2 scfconv7 GCP(DFT/TZ) printgap
|  2> %output
|  3>     printlevel normal
|  4> end
|  5> * xyz 0 1
|  6> C 3.351989663434761 1.4448708017561844 -0.0003078312558011898
|  7> C 2.0233991399408264 1.8615511557433961 0.000977702538182553
|  8> C 0.9997961244439986 0.9293572365510553 0.002062271684689671
|  9> C 1.2940876138526582 -0.4325656913665408 0.0019294034352499967
| 10> C 2.609491857446661 -0.869039766040695 0.00045675296856092606
| 11> C 3.6219309816439393 0.08359366615754887 -0.0006095422833617937
| 12> Cl 5.292272689458214 -0.46459185749778253 -0.0024129625041698984
| 13> O 0.3050508097622131 -1.3995771236409371 0.0034210634770177294
| 14> C -0.9998043667383132 -0.9293681175272099 0.002067080350304006
| 15> C -2.023407759505398 -1.86156158375114 0.0009870432890046984
| 16> C -3.351998027205382 -1.4448803730832283 -0.00028450999356308484
| 17> C -3.621939504551822 -0.08360331689224229 -0.0005764987763907125
| 18> C -2.6094997226126337 0.8690295446698573 0.0004855062625160678
| 19> C -1.2940956510837498 0.43255477939081477 0.0019435994404798553
| 20> O -0.3050589035042501 1.3995660509635803 0.0034322441556490745
| 21> Cl -5.292280655923421 0.4645820884142517 -0.0023605089261647862
| 22> H 4.153043133650004 2.173919618473369 -0.001090035369326839
| 23> H 1.775160310424592 2.917448888855791 0.0012083280922714624
| 24> H 2.819377926833376 -1.9323076524153124 0.00024831609223072674
| 25> H -1.775170464125132 -2.917459889170112 0.0012101278857675577
| 26> H -4.1530517454125135 -2.1739288681452895 -0.0010640137807921054
| 27> H -2.819384014531744 1.9322979793795407 0.00028502169417777884
| 28> *
| 29>
| 30>                          ****END OF INPUT****

CARTESIAN COORDINATES (ANGSTROEM)
---------------------------------
  C      3.351990    1.444871   -0.000308
  C      2.023399    1.861551    0.000978
  C      0.999796    0.929357    0.002062
  C      1.294088   -0.432566    0.001929
  C      2.609492   -0.869040    0.000457
  C      3.621931    0.083594   -0.000610
  Cl     5.292273   -0.464592   -0.002413
  O      0.305051   -1.399577    0.003421
  C     -0.999804   -0.929368    0.002067
  C     -2.023408   -1.861562    0.000987
  C     -3.351998   -1.444880   -0.000285
  C     -3.621940   -0.083603   -0.000576
  C     -2.609500    0.869030    0.000486
  C     -1.294096    0.432555    0.001944
  O     -0.305059    1.399566    0.003432
  Cl    -5.292281    0.464582   -0.002361
  H      4.153043    2.173920   -0.001090
  H      1.775160    2.917449    0.001208
  H      2.819378   -1.932308    0.000248
  H     -1.775170   -2.917460    0.001210
  H     -4.153052   -2.173929   -0.001064
  H     -2.819384    1.932298    0.000285

 Total Charge           Charge          ....    0
 Multiplicity           Mult            ....    1
 Number of Electrons    NEL             ....  128
 Basis Dimension        Dim             ....  544

ORBITAL ENERGIES
----------------

  NO   OCC          E(Eh)            E(eV)
   0   2.0000    -107.150203     -2915.7053
   1   2.0000    -107.150201     -2915.7052
   2   2.0000     -21.744861      -591.7077
   3   2.0000     -21.744816      -591.7065
   4   2.0000     -12.143768      -330.4487
   5   2.0000     -12.143398      -330.4387
   6   2.0000     -12.139089      -330.3214
   7   2.0000     -12.138850      -330.3149
   8   2.0000     -12.128752      -330.0401
   9   2.0000     -12.128744      -330.0399
  10   2.0000     -12.079636      -328.7036
  11   2.0000     -12.079580      -328.7021
  12   2.0000     -12.079366      -328.6963
  13   2.0000     -12.079354      -328.6959
  14   2.0000     -12.076096      -328.6073
  15   2.0000     -12.076090      -328.6071
  16   2.0000     -11.303255      -307.5772
  17   2.0000     -11.303246      -307.5770
  18   2.0000      -9.094787      -247.4817
  19   2.0000      -9.094779      -247.4815
  20   2.0000      -9.092165      -247.4104
  21   2.0000      -9.092163      -247.4103
  22   2.0000      -9.092121      -247.4092
  23   2.0000      -9.092101      -247.4086
  24   2.0000      -1.775150       -48.3043
  25   2.0000      -1.758697       -47.8566
  26   2.0000      -1.451829       -39.5063
  27   2.0000      -1.442165       -39.2433
  28   2.0000      -1.414474       -38.4898
  29   2.0000      -1.388964       -37.7956
  30   2.0000      -1.343170       -36.5495
  31   2.0000      -1.323048       -36.0020
  32   2.0000      -1.297326       -35.3020
  33   2.0000      -1.286827       -35.0163
  34   2.0000      -1.227331       -33.3974
  35   2.0000      -1.178536       -32.0696
  36   2.0000      -1.167096       -31.7583
  37   2.0000      -1.133824       -30.8529
  38   2.0000      -1.103719       -30.0337
  39   2.0000      -1.054297       -28.6889
  40   2.0000      -1.049442       -28.5568
  41   2.0000      -1.040042       -28.3010
  42   2.0000      -1.021176       -27.7876
  43   2.0000      -0.995038       -27.0763
  44   2.0000      -0.993732       -27.0408
  45   2.0000      -0.978471       -26.6255
  46   2.0000      -0.960236       -26.1294
  47   2.0000      -0.949553       -25.8386
  48   2.0000      -0.923247       -25.1228
  49   2.0000      -0.920664       -25.0525
  50   2.0000      -0.895373       -24.3643
  51   2.0000      -0.887556       -24.1516
  52   2.0000      -0.864629       -23.5277
  53   2.0000      -0.856797       -23.3146
  54   2.0000      -0.839383       -22.8408
  55   2.0000      -0.833090       -22.6695
  56   2.0000      -0.797141       -21.6913
  57   2.0000      -0.797053       -21.6889
  58   2.0000      -0.796304       -21.6685
  59   2.0000      -0.776025       -21.1167
  60   2.0000      -0.684141       -18.6164
  61   2.0000      -0.680751       -18.5242
  62   2.0000      -0.665960       -18.1217
  63   2.0000      -0.660280       -17.9671
  64   0.0000      -0.291685        -7.9372
  65   0.0000      -0.286385        -7.7929
  66   0.0000      -0.278075        -7.5668
  67   0.0000      -0.276677        -7.5288
  68   0.0000      -0.275596        -7.4993

MULLIKEN ATOMIC CHARGES
-----------------------
   0 C :   -0.154249
   1 C :   -0.246583
   2 C :    0.210533
   3 C :    0.254249
   4 C :   -0.347082
   5 C :    0.200087
   6 Cl:   -0.095174
   7 O :   -0.233568
   8 C :    0.210655
   9 C :   -0.246530
  10 C :   -0.154393
  11 C :    0.199917
  12 C :   -0.346779
  13 C :    0.254041
  14 O :   -0.233588
  15 Cl:   -0.095175
  16 H :    0.137057
  17 H :    0.133852
  18 H :    0.140898
  19 H :    0.133851
  20 H :    0.137032
  21 H :    0.140949
Sum of atomic charges:    0.0000000

LOEWDIN ATOMIC CHARGES
----------------------
   0 C :   -0.143486
   1 C :   -0.098114
   2 C :   -0.194894
   3 C :   -0.192063
   4 C :   -0.107983
   5 C :   -0.410697
   6 Cl:    0.371662
   7 O :    0.313867
   8 C :   -0.194894
   9 C :   -0.098114
  10 C :   -0.143487
  11 C :   -0.410697
  12 C :   -0.107983
  13 C :   -0.192063
  14 O :    0.313867
  15 Cl:    0.371663
  16 H :    0.149883
  17 H :    0.154889
  18 H :    0.156935
  19 H :    0.154889
  20 H :    0.149883
  21 H :    0.156936

  Mayer bond orders larger than 0.100000
B(  0-C ,  1-C ) :   1.3832 B(  0-C ,  5-C ) :   1.4001 B(  0-C , 16-H ) :   0.9726
B(  1-C ,  2-C ) :   1.4137 B(  1-C , 17-H ) :   0.9711 B(  2-C ,  3-C ) :   1.3555
B(  2-C , 14-O ) :   1.0237 B(  3-C ,  4-C ) :   1.3745 B(  3-C ,  7-O ) :   1.0204
B(  4-C ,  5-C ) :   1.3813 B(  4-C , 18-H ) :   0.9713 B(  5-C ,  6-Cl) :   0.9621
B(  7-O ,  8-C ) :   1.0237 B(  8-C ,  9-C ) :   1.4136 B(  8-C , 13-C ) :   1.3554
B(  9-C , 10-C ) :   1.3831 B(  9-C , 19-H ) :   0.9712 B( 10-C , 11-C ) :   1.4003
B( 10-C , 20-H ) :   0.9727 B( 11-C , 12-C ) :   1.3813 B( 11-C , 15-Cl) :   0.9625
B( 12-C , 13-C ) :   1.3749 B( 12-C , 21-H ) :   0.9712 B( 13-C , 14-O ) :   1.0204

FINAL SINGLE POINT ENERGY     -1531.658183801620

DIPOLE MOMENT
-------------

Method             : SCF
Type of density    : Electron Density
Multiplicity       :   1
Irrep              :   0
Energy             : -1531.6694250922196261 Eh
Relativity type    :
Basis              : AO
                                X                 Y                 Z
Electronic contribution:     -0.000009238      -0.000002544      -0.006685367
Nuclear contribution   :     -0.000000600       0.000000086       0.006658732
                        -----------------------------------------
Total Dipole Moment    :     -0.000009838      -0.000002458      -0.000026635
                        -----------------------------------------
Magnitude (a.u.)       :      0.000028500
Magnitude (Debye)      :      0.000072440

Rotational constants in cm-1:             0.058302             0.005700             0.005193
Rotational constants in MHz :          1747.845813           170.893052           155.672508

                             ****ORCA TERMINATED NORMALLY****
TOTAL RUN TIME: 0 days 0 hours 8 minutes 10 seconds 982 msec
