                         Program Version 6.0.0  -   RELEASE  -
|  1> ! wb97x-v def2-tzvp def2/J RIJCOSX DEFGRID2 scfconv7 GCP(DFT/TZ) printgap
|  2> %output
|  3>     printlevel normal
|  4> end
|  5> %cpcm
|  6>     smd true
|  7>     smdsolvent "water"
|  8> end
|  9> * xyz 0 1
| 10> C 3.351989663434761 1.4448708017561844 -0.0003078312558011898
| 11> C 2.0233991399408264 1.8615511557433961 0.000977702538182553
| 12> C 0.9997961244439986 0.9293572365510553 0.002062271684689671
| 13> C 1.2940876138526582 -0.4325656913665408 0.0019294034352499967
| 14> C 2.609491857446661 -0.869039766040695 0.00045675296856092606
| 15> C 3.6219309816439393 0.08359366615754887 -0.0006095422833617937
| 16> Cl 5.292272689458214 -0.46459185749778253 -0.0024129625041698984
| 17> O 0.3050508097622131 -1.3995771236409371 0.0034210634770177294
| 18> C -0.9998043667383132 -0.9293681175272099 0.002067080350304006
| 19> C -2.023407759505398 -1.86156158375114 0.0009870432890046984
| 20> C -3.351998027205382 -1.4448803730832283 -0.00028450999356308484
| 21> C -3.621939504551822 -0.08360331689224229 -0.0005764987763907125
| 22> C -2.6094997226126337 0.8690295446698573 0.0004855062625160678
| 23> C -1.2940956510837498 0.43255477939081477 0.0019435994404798553
| 24> O -0.3050589035042501 1.3995660509635803 0.0034322441556490745
| 25> Cl -5.292280655923421 0.4645820884142517 -0.0023605089261647862
| 26> H 4.153043133650004 2.173919618473369 -0.001090035369326839
| 27> H 1.775160310424592 2.917448888855791 0.0012083280922714624
| 28> H 2.819377926833376 -1.9323076524153124 0.00024831609223072674
| 29> H -1.775170464125132 -2.917459889170112 0.0012101278857675577
| 30> H -4.1530517454125135 -2.1739288681452895 -0.0010640137807921054
| 31> H -2.819384014531744 1.9322979793795407 0.00028502169417777884
| 32> *
| 33>
| 34>                          ****END OF INPUT****

CARTESIAN COORDINATES (ANGSTROEM)
---------------------------------
  C      3.351990    1.444871   -0.000308
  C      2.023399    1.861551    0.000978
  C      0.999796    0.929357    0.002062
  C      1.294088   -0.432566    0.001929
  C      2.609492   -0.869040    0.000457
  C      3.621931    0.083594   -0.000610
  Cl     5.292273   -0.464592   -0.002413
  O      0.305051   -1.399577    0.003421
  C     -0.999804   -0.929368    0.002067
  C     -2.023408   -1.861562    0.000987
  C     -3.351998   -1.444880   -0.000285
  C     -3.621940   -0.083603   -0.000576
  C     -2.609500    0.869030    0.000486
  C     -1.294096    0.432555    0.001944
  O     -0.305059    1.399566    0.003432
  Cl    -5.292281    0.464582   -0.002361
  H      4.153043    2.173920   -0.001090
  H      1.775160    2.917449    0.001208
  H      2.819378   -1.932308    0.000248
  H     -1.775170   -2.917460    0.001210
  H     -4.153052   -2.173929   -0.001064
  H     -2.819384    1.932298    0.000285

 Total Charge           Charge          ....    0
 Multiplicity           Mult            ....    1
 Number of Electrons    NEL             ....  128
 Basis Dimension        Dim             ....  544

ORBITAL ENERGIES
----------------

  NO   OCC          E(Eh)            E(eV)
   0   2.0000    -107.149555     -2915.6876
   1   2.0000    -107.149553     -2915.6876
   2   2.0000     -21.738921      -591.5461
   3   2.0000     -21.738878      -591.5449
   4   2.0000     -12.136028      -330.2381
   5   2.0000     -12.135659      -330.2281
   6   2.0000     -12.131413      -330.1125
   7   2.0000     -12.131176      -330.1061
   8   2.0000     -12.121975      -329.8557
   9   2.0000     -12.121968      -329.8555
  10   2.0000     -12.070664      -328.4595
  11   2.0000     -12.070627      -328.4585
  12   2.0000     -12.068417      -328.3983
  13   2.0000     -12.068390      -328.3976
  14   2.0000     -12.065998      -328.3325
  15   2.0000     -12.065988      -328.3322
  16   2.0000     -11.302733      -307.5630
  17   2.0000     -11.302724      -307.5628
  18   2.0000      -9.094244      -247.4670
  19   2.0000      -9.094236      -247.4667
  20   2.0000      -9.091684      -247.3973
  21   2.0000      -9.091682      -247.3972
  22   2.0000      -9.091642      -247.3962
  23   2.0000      -9.091625      -247.3957
  24   2.0000      -1.768924       -48.1349
  25   2.0000      -1.752666       -47.6925
  26   2.0000      -1.446167       -39.3522
  27   2.0000      -1.438431       -39.1417
  28   2.0000      -1.410519       -38.3822
  29   2.0000      -1.383377       -37.6436
  30   2.0000      -1.335265       -36.3344
  31   2.0000      -1.315644       -35.8005
  32   2.0000      -1.289312       -35.0840
  33   2.0000      -1.279602       -34.8197
  34   2.0000      -1.219932       -33.1960
  35   2.0000      -1.170455       -31.8497
  36   2.0000      -1.159820       -31.5603
  37   2.0000      -1.124954       -30.6115
  38   2.0000      -1.095848       -29.8195
  39   2.0000      -1.046977       -28.4897
  40   2.0000      -1.040878       -28.3237
  41   2.0000      -1.035328       -28.1727
  42   2.0000      -1.015293       -27.6275
  43   2.0000      -0.988318       -26.8935
  44   2.0000      -0.986445       -26.8425
  45   2.0000      -0.970901       -26.4196
  46   2.0000      -0.953607       -25.9490
  47   2.0000      -0.943515       -25.6744
  48   2.0000      -0.911727       -24.8094
  49   2.0000      -0.908658       -24.7258
  50   2.0000      -0.886597       -24.1255
  51   2.0000      -0.879285       -23.9266
  52   2.0000      -0.853112       -23.2144
  53   2.0000      -0.845894       -23.0180
  54   2.0000      -0.835725       -22.7412
  55   2.0000      -0.830939       -22.6110
  56   2.0000      -0.796519       -21.6744
  57   2.0000      -0.796454       -21.6726
  58   2.0000      -0.792028       -21.5522
  59   2.0000      -0.770943       -20.9784
  60   2.0000      -0.677655       -18.4399
  61   2.0000      -0.672356       -18.2958
  62   2.0000      -0.657455       -17.8903
  63   2.0000      -0.653582       -17.7849
  64   0.0000      -0.284443        -7.7401
  65   0.0000      -0.280871        -7.6429
  66   0.0000      -0.273108        -7.4317
  67   0.0000      -0.268893        -7.3169
  68   0.0000      -0.268220        -7.2986

MULLIKEN ATOMIC CHARGES
-----------------------
   0 C :   -0.187339
   1 C :   -0.290364
   2 C :    0.235027
   3 C :    0.261087
   4 C :   -0.367314
   5 C :    0.206575
   6 Cl:   -0.114918
   7 O :   -0.257925
   8 C :    0.235166
   9 C :   -0.290320
  10 C :   -0.187471
  11 C :    0.206384
  12 C :   -0.367001
  13 C :    0.260872
  14 O :   -0.257945
  15 Cl:   -0.114918
  16 H :    0.173355
  17 H :    0.169848
  18 H :    0.171987
  19 H :    0.169844
  20 H :    0.173329
  21 H :    0.172042
Sum of atomic charges:    0.0000000

LOEWDIN ATOMIC CHARGES
----------------------
   0 C :   -0.143871
   1 C :   -0.095864
   2 C :   -0.193077
   3 C :   -0.191207
   4 C :   -0.108394
   5 C :   -0.419662
   6 Cl:    0.355314
   7 O :    0.305140
   8 C :   -0.193076
   9 C :   -0.095864
  10 C :   -0.143872
  11 C :   -0.419662
  12 C :   -0.108394
  13 C :   -0.191207
  14 O :    0.305140
  15 Cl:    0.355315
  16 H :    0.159615
  17 H :    0.165834
  18 H :    0.166172
  19 H :    0.165834
  20 H :    0.159615
  21 H :    0.166172

  Mayer bond orders larger than 0.100000
B(  0-C ,  1-C ) :   1.3857 B(  0-C ,  5-C ) :   1.3684 B(  0-C , 16-H ) :   0.9758
B(  1-C ,  2-C ) :   1.3671 B(  1-C , 17-H ) :   0.9828 B(  2-C ,  3-C ) :   1.3527
B(  2-C , 14-O ) :   1.0086 B(  3-C ,  4-C ) :   1.3684 B(  3-C ,  7-O ) :   1.0079
B(  4-C ,  5-C ) :   1.3589 B(  4-C , 18-H ) :   0.9709 B(  5-C ,  6-Cl) :   0.9555
B(  7-O ,  8-C ) :   1.0086 B(  8-C ,  9-C ) :   1.3669 B(  8-C , 13-C ) :   1.3527
B(  9-C , 10-C ) :   1.3855 B(  9-C , 19-H ) :   0.9829 B( 10-C , 11-C ) :   1.3686
B( 10-C , 20-H ) :   0.9760 B( 11-C , 12-C ) :   1.3588 B( 11-C , 15-Cl) :   0.9559
B( 12-C , 13-C ) :   1.3688 B( 12-C , 21-H ) :   0.9708 B( 13-C , 14-O ) :   1.0079

FINAL SINGLE POINT ENERGY     -1531.661835038057

DIPOLE MOMENT
-------------

Method             : SCF
Type of density    : Electron Density
Multiplicity       :   1
Irrep              :   0
Energy             : -1531.6730763286570891 Eh
Relativity type    :
Basis              : AO
                                X                 Y                 Z
Electronic contribution:     -0.000011579      -0.000004483      -0.006725151
Nuclear contribution   :     -0.000000600       0.000000086       0.006658732
                        -----------------------------------------
Total Dipole Moment    :     -0.000012179      -0.000004397      -0.000066418
                        -----------------------------------------
Magnitude (a.u.)       :      0.000067669
Magnitude (Debye)      :      0.000172000

Rotational constants in cm-1:             0.058302             0.005700             0.005193
Rotational constants in MHz :          1747.845813           170.893052           155.672508

                             ****ORCA TERMINATED NORMALLY****
TOTAL RUN TIME: 0 days 0 hours 9 minutes 6 seconds 189 msec
