                         Program Version 6.0.0  -   RELEASE  -
|  1> ! pbe def2-sv(p) def2/J RI DEFGRID1 loosescf d4 GCP(DFT/SV(P)) printgap
|  2> %output
|  3>     printlevel normal
|  4> end
|  5> * xyz 0 1
|  6> C 4.8064604588 0.4689370376 -2.2069489247
|  7> C 3.9485503899 1.3466466174 -1.3191601271
|  8> O 3.7769138416 0.7412869353 -0.0126955454
|  9> P 2.5026696958 -0.0750474776 0.4144731624
| 10> S 2.6729384388 -0.6617671733 2.2704991204
| 11> O 2.4362708308 -1.1816829642 -0.7292040971
| 12> C 1.3439661391 -2.0781171951 -0.9827013229
| 13> C 1.1340912361 -3.0757539304 0.1382822943
| 14> S 0.8664620027 1.2451770471 -0.004329769
| 15> C -0.076286541 1.0196518977 1.520424179
| 16> S -1.1891668877 -0.4154414017 1.4910851358
| 17> P -2.4162726713 0.1363640163 -0.1476332963
| 18> S -1.8109752301 -0.192848856 -1.9879699909
| 19> O -2.7298291396 1.6393629702 0.2308439548
| 20> C -2.9477642841 2.6855045243 -0.742569275
| 21> C -1.8902737203 3.7594249245 -0.5817821116
| 22> O -3.8052552209 -0.5647805919 0.1837270994
| 23> C -4.1151972504 -1.8963394948 -0.2597894456
| 24> C -3.2456666098 -2.9317500631 0.4238514772
| 25> H 4.3106642784 -0.4798955592 -2.3931707175
| 26> H 4.9759757068 0.9767637021 -3.151296716
| 27> H 5.7611271403 0.2760211261 -1.7254133779
| 28> H 2.9649400231 1.5228222045 -1.7635550967
| 29> H 4.4350743524 2.3019836161 -1.1146043454
| 30> H 0.4383799835 -1.4908091461 -1.1674367278
| 31> H 1.6326594902 -2.5800794584 -1.9082178839
| 32> H 2.0688652882 -3.5814332927 0.3672824833
| 33> H 0.7808202711 -2.5770898342 1.0393876283
| 34> H 0.3966819676 -3.8097768602 -0.1713912119
| 35> H -0.6580380533 1.9239619726 1.6757030787
| 36> H 0.615351512 0.8375260969 2.3455263437
| 37> H -2.9133395684 2.251582616 -1.7472029337
| 38> H -3.9483259272 3.0735484138 -0.5449917842
| 39> H -0.9018267848 3.3432466267 -0.7697229771
| 40> H -2.0814520585 4.5542056741 -1.2953540984
| 41> H -1.917982561 4.1687511815 0.4243619649
| 42> H -5.1691084937 -2.020460422 -0.0082376476
| 43> H -3.9827572862 -1.9382188151 -1.345957061
| 44> H -3.5613650458 -3.9259008368 0.1245300929
| 45> H -2.2048887729 -2.7866892355 0.1340113451
| 46> H -3.3210022297 -2.8368370183 1.5041329092
| 47> *
| 48>
| 49>                          ****END OF INPUT****

CARTESIAN COORDINATES (ANGSTROEM)
---------------------------------
  C      4.806460    0.468937   -2.206949
  C      3.948550    1.346647   -1.319160
  O      3.776914    0.741287   -0.012696
  P      2.502670   -0.075047    0.414473
  S      2.672938   -0.661767    2.270499
  O      2.436271   -1.181683   -0.729204
  C      1.343966   -2.078117   -0.982701
  C      1.134091   -3.075754    0.138282
  S      0.866462    1.245177   -0.004330
  C     -0.076287    1.019652    1.520424
  S     -1.189167   -0.415441    1.491085
  P     -2.416273    0.136364   -0.147633
  S     -1.810975   -0.192849   -1.987970
  O     -2.729829    1.639363    0.230844
  C     -2.947764    2.685505   -0.742569
  C     -1.890274    3.759425   -0.581782
  O     -3.805255   -0.564781    0.183727
  C     -4.115197   -1.896339   -0.259789
  C     -3.245667   -2.931750    0.423851
  H      4.310664   -0.479896   -2.393171
  H      4.975976    0.976764   -3.151297
  H      5.761127    0.276021   -1.725413
  H      2.964940    1.522822   -1.763555
  H      4.435074    2.301984   -1.114604
  H      0.438380   -1.490809   -1.167437
  H      1.632659   -2.580079   -1.908218
  H      2.068865   -3.581433    0.367282
  H      0.780820   -2.577090    1.039388
  H      0.396682   -3.809777   -0.171391
  H     -0.658038    1.923962    1.675703
  H      0.615352    0.837526    2.345526
  H     -2.913340    2.251583   -1.747203
  H     -3.948326    3.073548   -0.544992
  H     -0.901827    3.343247   -0.769723
  H     -2.081452    4.554206   -1.295354
  H     -1.917983    4.168751    0.424362
  H     -5.169108   -2.020460   -0.008238
  H     -3.982757   -1.938219   -1.345957
  H     -3.561365   -3.925901    0.124530
  H     -2.204889   -2.786689    0.134011
  H     -3.321002   -2.836837    1.504133

 Total Charge           Charge          ....    0
 Multiplicity           Mult            ....    1
 Number of Electrons    NEL             ....  202
 Basis Dimension        Dim             ....  334

ORBITAL ENERGIES
----------------

  NO   OCC          E(Eh)            E(eV)
   0   2.0000     -88.044720     -2395.8186
   1   2.0000     -88.042489     -2395.7579
   2   2.0000     -87.992043     -2394.3852
   3   2.0000     -87.985312     -2394.2021
   4   2.0000     -76.431499     -2079.8068
   5   2.0000     -76.425537     -2079.6446
   6   2.0000     -18.799078      -511.5489
   7   2.0000     -18.793127      -511.3870
   8   2.0000     -18.790186      -511.3070
   9   2.0000     -18.789696      -511.2936
  10   2.0000      -9.958832      -270.9936
  11   2.0000      -9.957584      -270.9596
  12   2.0000      -9.956415      -270.9278
  13   2.0000      -9.955154      -270.8935
  14   2.0000      -9.942991      -270.5625
  15   2.0000      -9.891454      -269.1601
  16   2.0000      -9.889899      -269.1178
  17   2.0000      -9.886533      -269.0262
  18   2.0000      -9.872326      -268.6396
  19   2.0000      -7.689658      -209.2462
  20   2.0000      -7.686961      -209.1729
  21   2.0000      -7.636611      -207.8028
  22   2.0000      -7.630535      -207.6374
  23   2.0000      -6.428984      -174.9415
  24   2.0000      -6.422925      -174.7767
  25   2.0000      -5.717694      -155.5864
  26   2.0000      -5.714820      -155.5082
  27   2.0000      -5.714165      -155.4903
  28   2.0000      -5.711546      -155.4191
  29   2.0000      -5.706495      -155.2816
  30   2.0000      -5.703979      -155.2132
  31   2.0000      -5.665349      -154.1620
  32   2.0000      -5.659588      -154.0052
  33   2.0000      -5.657382      -153.9452
  34   2.0000      -5.656846      -153.9306
  35   2.0000      -5.651174      -153.7763
  36   2.0000      -5.650487      -153.7576
  37   2.0000      -4.651653      -126.5779
  38   2.0000      -4.650763      -126.5537
  39   2.0000      -4.649335      -126.5148
  40   2.0000      -4.645615      -126.4136
  41   2.0000      -4.644809      -126.3917
  42   2.0000      -4.643202      -126.3479
  43   2.0000      -0.991297       -26.9746
  44   2.0000      -0.986236       -26.8368
  45   2.0000      -0.951015       -25.8784
  46   2.0000      -0.941926       -25.6311
  47   2.0000      -0.764051       -20.7909
  48   2.0000      -0.724404       -19.7120
  49   2.0000      -0.712838       -19.3973
  50   2.0000      -0.691224       -18.8091
  51   2.0000      -0.685246       -18.6465
  52   2.0000      -0.674208       -18.3461
  53   2.0000      -0.654093       -17.7988
  54   2.0000      -0.641464       -17.4551
  55   2.0000      -0.602430       -16.3929
  56   2.0000      -0.586261       -15.9530
  57   2.0000      -0.577696       -15.7199
  58   2.0000      -0.573759       -15.6128
  59   2.0000      -0.564625       -15.3642
  60   2.0000      -0.507020       -13.7967
  61   2.0000      -0.500498       -13.6192
  62   2.0000      -0.476205       -12.9582
  63   2.0000      -0.471333       -12.8256
  64   2.0000      -0.459419       -12.5014
  65   2.0000      -0.445835       -12.1318
  66   2.0000      -0.445099       -12.1118
  67   2.0000      -0.436576       -11.8798
  68   2.0000      -0.427318       -11.6279
  69   2.0000      -0.420654       -11.4466
  70   2.0000      -0.407744       -11.0953
  71   2.0000      -0.400396       -10.8953
  72   2.0000      -0.395127       -10.7520
  73   2.0000      -0.392588       -10.6829
  74   2.0000      -0.383315       -10.4305
  75   2.0000      -0.377956       -10.2847
  76   2.0000      -0.364797        -9.9266
  77   2.0000      -0.360658        -9.8140
  78   2.0000      -0.357167        -9.7190
  79   2.0000      -0.354892        -9.6571
  80   2.0000      -0.349029        -9.4976
  81   2.0000      -0.347079        -9.4445
  82   2.0000      -0.339259        -9.2317
  83   2.0000      -0.337291        -9.1782
  84   2.0000      -0.331921        -9.0320
  85   2.0000      -0.322627        -8.7791
  86   2.0000      -0.313557        -8.5323
  87   2.0000      -0.301838        -8.2134
  88   2.0000      -0.291304        -7.9268
  89   2.0000      -0.289535        -7.8787
  90   2.0000      -0.287355        -7.8193
  91   2.0000      -0.279159        -7.5963
  92   2.0000      -0.275385        -7.4936
  93   2.0000      -0.266010        -7.2385
  94   2.0000      -0.257748        -7.0137
  95   2.0000      -0.244778        -6.6608
  96   2.0000      -0.221039        -6.0148
  97   2.0000      -0.206731        -5.6254
  98   2.0000      -0.205808        -5.6003
  99   2.0000      -0.202699        -5.5157
 100   2.0000      -0.195795        -5.3278
 101   0.0000      -0.051165        -1.3923
 102   0.0000      -0.029681        -0.8077
 103   0.0000      -0.018936        -0.5153
 104   0.0000      -0.005197        -0.1414
 105   0.0000       0.011931         0.3247

MULLIKEN ATOMIC CHARGES
-----------------------
   0 C :   -0.287468
   1 C :   -0.018364
   2 O :   -0.355270
   3 P :    0.615979
   4 S :   -0.306082
   5 O :   -0.377767
   6 C :   -0.033589
   7 C :   -0.317898
   8 S :   -0.126226
   9 C :   -0.345892
  10 S :   -0.087104
  11 P :    0.606788
  12 S :   -0.321628
  13 O :   -0.372892
  14 C :   -0.007353
  15 C :   -0.311658
  16 O :   -0.363927
  17 C :    0.000219
  18 C :   -0.343383
  19 H :    0.125282
  20 H :    0.109363
  21 H :    0.121523
  22 H :    0.109514
  23 H :    0.112676
  24 H :    0.134625
  25 H :    0.098457
  26 H :    0.114453
  27 H :    0.136782
  28 H :    0.111395
  29 H :    0.192788
  30 H :    0.194784
  31 H :    0.113197
  32 H :    0.109523
  33 H :    0.132749
  34 H :    0.115060
  35 H :    0.120100
  36 H :    0.108187
  37 H :    0.110363
  38 H :    0.117770
  39 H :    0.138210
  40 H :    0.126711
Sum of atomic charges:   -0.0000000

LOEWDIN ATOMIC CHARGES
----------------------
   0 C :   -0.357930
   1 C :   -0.111720
   2 O :   -0.235809
   3 P :    0.569477
   4 S :   -0.294746
   5 O :   -0.242574
   6 C :   -0.124602
   7 C :   -0.372036
   8 S :    0.066537
   9 C :   -0.481158
  10 S :    0.096343
  11 P :    0.569603
  12 S :   -0.309392
  13 O :   -0.241160
  14 C :   -0.116294
  15 C :   -0.360041
  16 O :   -0.243599
  17 C :   -0.120229
  18 C :   -0.372135
  19 H :    0.128355
  20 H :    0.129277
  21 H :    0.130011
  22 H :    0.105936
  23 H :    0.122427
  24 H :    0.099480
  25 H :    0.116962
  26 H :    0.125672
  27 H :    0.115028
  28 H :    0.126923
  29 H :    0.133238
  30 H :    0.129369
  31 H :    0.108498
  32 H :    0.119073
  33 H :    0.121016
  34 H :    0.133108
  35 H :    0.125467
  36 H :    0.120340
  37 H :    0.109370
  38 H :    0.133544
  39 H :    0.120606
  40 H :    0.127764

  Mayer bond orders larger than 0.100000
B(  0-C ,  1-C ) :   1.1661 B(  0-C , 19-H ) :   0.9420 B(  0-C , 20-H ) :   0.9394
B(  0-C , 21-H ) :   0.9467 B(  1-C ,  2-O ) :   0.8929 B(  1-C , 22-H ) :   0.9161
B(  1-C , 23-H ) :   0.9357 B(  2-O ,  3-P ) :   1.1451 B(  3-P ,  4-S ) :   1.6492
B(  3-P ,  5-O ) :   1.0897 B(  3-P ,  8-S ) :   0.9299 B(  4-S ,  8-S ) :   0.1104
B(  4-S , 30-H ) :   0.1032 B(  5-O ,  6-C ) :   0.9048 B(  6-C ,  7-C ) :   1.1686
B(  6-C , 24-H ) :   0.8961 B(  6-C , 25-H ) :   0.9344 B(  7-C , 26-H ) :   0.9422
B(  7-C , 27-H ) :   0.9263 B(  7-C , 28-H ) :   0.9320 B(  8-S ,  9-C ) :   1.0248
B(  9-C , 10-S ) :   0.9971 B(  9-C , 29-H ) :   0.8932 B(  9-C , 30-H ) :   0.8608
B( 10-S , 11-P ) :   0.9669 B( 10-S , 12-S ) :   0.1044 B( 11-P , 12-S ) :   1.6005
B( 11-P , 13-O ) :   1.1201 B( 11-P , 16-O ) :   1.1172 B( 13-O , 14-C ) :   0.8941
B( 14-C , 15-C ) :   1.1682 B( 14-C , 31-H ) :   0.9017 B( 14-C , 32-H ) :   0.9321
B( 15-C , 33-H ) :   0.9353 B( 15-C , 34-H ) :   0.9385 B( 15-C , 35-H ) :   0.9459
B( 16-O , 17-C ) :   0.9117 B( 17-C , 18-C ) :   1.1602 B( 17-C , 36-H ) :   0.9325
B( 17-C , 37-H ) :   0.9139 B( 18-C , 38-H ) :   0.9379 B( 18-C , 39-H ) :   0.9280
B( 18-C , 40-H ) :   0.9427

Dispersion correction           -0.065843103
FINAL SINGLE POINT ENERGY     -2929.519828661654

DIPOLE MOMENT
-------------

Method             : SCF
Type of density    : Electron Density
Multiplicity       :   1
Irrep              :   0
Energy             : -2929.6391588986812167 Eh
Relativity type    :
Basis              : AO
                                X                 Y                 Z
Electronic contribution:      1.386919000       3.150081868      10.068399531
Nuclear contribution   :     -2.236180194      -2.668531611     -11.075597379
                        -----------------------------------------
Total Dipole Moment    :     -0.849261195       0.481550257      -1.007197848
                        -----------------------------------------
Magnitude (a.u.)       :      1.402705505
Magnitude (Debye)      :      3.565394046

Rotational constants in cm-1:             0.011429             0.005300             0.004685
Rotational constants in MHz :           342.645589           158.902706           140.451173

                             ****ORCA TERMINATED NORMALLY****
TOTAL RUN TIME: 0 days 0 hours 0 minutes 21 seconds 417 msec
