                         Program Version 6.0.0  -   RELEASE  -
|  1> ! wb97x-v def2-tzvp def2/J RIJCOSX DEFGRID2 scfconv7 GCP(DFT/TZ) printgap
|  2> %output
|  3>     printlevel normal
|  4> end
|  5> * xyz 0 1
|  6> C -2.2835770491073166 -0.32819861158242253 -0.26578107013136515
|  7> C -1.2279451470988327 0.022421727213478994 0.4660643615898799
|  8> C -0.09691185261330978 0.8036374559922709 -0.08425460143894971
|  9> Cl 1.462791208562962 -0.21086510375168785 -0.02808062503162669
| 10> H -3.1145593651533536 -0.8725481353812913 0.1717315700589875
| 11> H -2.347249903792759 -0.07756724768521023 -1.3217903277620597
| 12> H -1.1712457977672244 -0.23877421004691485 1.5207559370318622
| 13> H -0.24218007042452946 1.0734598657929861 -1.1307653279872945
| 14> H 0.1321515913635619 1.68799337083984 0.5126592465157194
| 15> *
| 16>
| 17>                          ****END OF INPUT****

CARTESIAN COORDINATES (ANGSTROEM)
---------------------------------
  C     -2.283577   -0.328199   -0.265781
  C     -1.227945    0.022422    0.466064
  C     -0.096912    0.803637   -0.084255
  Cl     1.462791   -0.210865   -0.028081
  H     -3.114559   -0.872548    0.171732
  H     -2.347250   -0.077567   -1.321790
  H     -1.171246   -0.238774    1.520756
  H     -0.242180    1.073460   -1.130765
  H      0.132152    1.687993    0.512659

 Total Charge           Charge          ....    0
 Multiplicity           Mult            ....    1
 Number of Electrons    NEL             ....   40
 Basis Dimension        Dim             ....  160

ORBITAL ENERGIES
----------------

  NO   OCC          E(Eh)            E(eV)
   0   2.0000    -107.125984     -2915.0462
   1   2.0000     -12.118736      -329.7676
   2   2.0000     -12.070238      -328.4479
   3   2.0000     -12.060573      -328.1849
   4   2.0000     -11.278940      -306.9156
   5   2.0000      -9.070295      -246.8153
   6   2.0000      -9.067649      -246.7433
   7   2.0000      -9.067599      -246.7419
   8   2.0000      -1.389332       -37.8056
   9   2.0000      -1.319136       -35.8955
  10   2.0000      -1.193047       -32.4644
  11   2.0000      -1.041441       -28.3390
  12   2.0000      -0.937581       -25.5129
  13   2.0000      -0.917928       -24.9781
  14   2.0000      -0.877025       -23.8651
  15   2.0000      -0.857232       -23.3265
  16   2.0000      -0.812054       -22.0971
  17   2.0000      -0.766457       -20.8563
  18   2.0000      -0.762641       -20.7525
  19   2.0000      -0.676004       -18.3950
  20   0.0000      -0.291015        -7.9189
  21   0.0000      -0.184985        -5.0337
  22   0.0000      -0.025984        -0.7071
  23   0.0000      -0.006180        -0.1682
  24   0.0000       0.000116         0.0032

MULLIKEN ATOMIC CHARGES
-----------------------
   0 C :   -0.261272
   1 C :   -0.115002
   2 C :   -0.085962
   3 Cl:   -0.176657
   4 H :    0.129329
   5 H :    0.124728
   6 H :    0.126756
   7 H :    0.126806
   8 H :    0.131274
Sum of atomic charges:   -0.0000000

LOEWDIN ATOMIC CHARGES
----------------------
   0 C :   -0.185022
   1 C :   -0.237935
   2 C :   -0.414581
   3 Cl:    0.195573
   4 H :    0.123645
   5 H :    0.123012
   6 H :    0.141301
   7 H :    0.127150
   8 H :    0.126857

  Mayer bond orders larger than 0.100000
B(  0-C ,  1-C ) :   1.9350 B(  0-C ,  4-H ) :   0.9677 B(  0-C ,  5-H ) :   0.9659
B(  1-C ,  2-C ) :   1.0067 B(  1-C ,  6-H ) :   0.9539 B(  2-C ,  3-Cl) :   1.0236
B(  2-C ,  7-H ) :   0.9706 B(  2-C ,  8-H ) :   0.9645

FINAL SINGLE POINT ENERGY      -577.449076453370

DIPOLE MOMENT
-------------

Method             : SCF
Type of density    : Electron Density
Multiplicity       :   1
Irrep              :   0
Energy             :  -577.4540407122705119 Eh
Relativity type    :
Basis              : AO
                                X                 Y                 Z
Electronic contribution:      7.595812075      -1.346390870       0.195833149
Nuclear contribution   :     -8.364941425       1.754465886      -0.200929648
                        -----------------------------------------
Total Dipole Moment    :     -0.769129350       0.408075016      -0.005096499
                        -----------------------------------------
Magnitude (a.u.)       :      0.870695785
Magnitude (Debye)      :      2.213132805

Rotational constants in cm-1:             0.681289             0.092264             0.089206
Rotational constants in MHz :         20424.535975          2766.003638          2674.318122

                             ****ORCA TERMINATED NORMALLY****
TOTAL RUN TIME: 0 days 0 hours 0 minutes 43 seconds 754 msec
