                         Program Version 6.0.0  -   RELEASE  -
|  1> ! wb97x-v def2-tzvp def2/J RIJCOSX DEFGRID2 scfconv7 GCP(DFT/TZ) printgap
|  2> %output
|  3>     printlevel normal
|  4> end
|  5> %cpcm
|  6>     smd true
|  7>     smdsolvent "water"
|  8> end
|  9> * xyz 0 1
| 10> C -2.2835770491073166 -0.32819861158242253 -0.26578107013136515
| 11> C -1.2279451470988327 0.022421727213478994 0.4660643615898799
| 12> C -0.09691185261330978 0.8036374559922709 -0.08425460143894971
| 13> Cl 1.462791208562962 -0.21086510375168785 -0.02808062503162669
| 14> H -3.1145593651533536 -0.8725481353812913 0.1717315700589875
| 15> H -2.347249903792759 -0.07756724768521023 -1.3217903277620597
| 16> H -1.1712457977672244 -0.23877421004691485 1.5207559370318622
| 17> H -0.24218007042452946 1.0734598657929861 -1.1307653279872945
| 18> H 0.1321515913635619 1.68799337083984 0.5126592465157194
| 19> *
| 20>
| 21>                          ****END OF INPUT****

CARTESIAN COORDINATES (ANGSTROEM)
---------------------------------
  C     -2.283577   -0.328199   -0.265781
  C     -1.227945    0.022422    0.466064
  C     -0.096912    0.803637   -0.084255
  Cl     1.462791   -0.210865   -0.028081
  H     -3.114559   -0.872548    0.171732
  H     -2.347250   -0.077567   -1.321790
  H     -1.171246   -0.238774    1.520756
  H     -0.242180    1.073460   -1.130765
  H      0.132152    1.687993    0.512659

 Total Charge           Charge          ....    0
 Multiplicity           Mult            ....    1
 Number of Electrons    NEL             ....   40
 Basis Dimension        Dim             ....  160

ORBITAL ENERGIES
----------------

  NO   OCC          E(Eh)            E(eV)
   0   2.0000    -107.127014     -2915.0743
   1   2.0000     -12.105941      -329.4194
   2   2.0000     -12.057780      -328.1089
   3   2.0000     -12.046800      -327.8101
   4   2.0000     -11.280194      -306.9497
   5   2.0000      -9.071485      -246.8477
   6   2.0000      -9.069018      -246.7805
   7   2.0000      -9.068972      -246.7793
   8   2.0000      -1.387682       -37.7607
   9   2.0000      -1.309293       -35.6277
  10   2.0000      -1.181710       -32.1560
  11   2.0000      -1.027700       -27.9652
  12   2.0000      -0.924292       -25.1513
  13   2.0000      -0.904940       -24.6247
  14   2.0000      -0.870303       -23.6821
  15   2.0000      -0.847129       -23.0515
  16   2.0000      -0.799590       -21.7580
  17   2.0000      -0.766376       -20.8541
  18   2.0000      -0.762450       -20.7473
  19   2.0000      -0.665787       -18.1170
  20   0.0000      -0.283209        -7.7065
  21   0.0000      -0.174619        -4.7516
  22   0.0000      -0.011783        -0.3206
  23   0.0000       0.012583         0.3424
  24   0.0000       0.020441         0.5562

MULLIKEN ATOMIC CHARGES
-----------------------
   0 C :   -0.325220
   1 C :   -0.175572
   2 C :   -0.092507
   3 Cl:   -0.230265
   4 H :    0.165739
   5 H :    0.165279
   6 H :    0.160465
   7 H :    0.165395
   8 H :    0.166686
Sum of atomic charges:   -0.0000000

LOEWDIN ATOMIC CHARGES
----------------------
   0 C :   -0.191337
   1 C :   -0.248332
   2 C :   -0.403507
   3 Cl:    0.159688
   4 H :    0.130286
   5 H :    0.131735
   6 H :    0.147456
   7 H :    0.137320
   8 H :    0.136691

  Mayer bond orders larger than 0.100000
B(  0-C ,  1-C ) :   1.9298 B(  0-C ,  4-H ) :   0.9625 B(  0-C ,  5-H ) :   0.9586
B(  1-C ,  2-C ) :   0.9984 B(  1-C ,  6-H ) :   0.9499 B(  2-C ,  3-Cl) :   0.9680
B(  2-C ,  7-H ) :   0.9637 B(  2-C ,  8-H ) :   0.9586

FINAL SINGLE POINT ENERGY      -577.451879734164

DIPOLE MOMENT
-------------

Method             : SCF
Type of density    : Electron Density
Multiplicity       :   1
Irrep              :   0
Energy             :  -577.4568439930641262 Eh
Relativity type    :
Basis              : AO
                                X                 Y                 Z
Electronic contribution:      7.370215816      -1.165413922       0.171925982
Nuclear contribution   :     -8.364941425       1.754465886      -0.200929648
                        -----------------------------------------
Total Dipole Moment    :     -0.994725610       0.589051963      -0.029003666
                        -----------------------------------------
Magnitude (a.u.)       :      1.156417946
Magnitude (Debye)      :      2.939380823

Rotational constants in cm-1:             0.681289             0.092264             0.089206
Rotational constants in MHz :         20424.535975          2766.003638          2674.318122

                             ****ORCA TERMINATED NORMALLY****
TOTAL RUN TIME: 0 days 0 hours 0 minutes 38 seconds 712 msec
