                         Program Version 6.0.0  -   RELEASE  -
|  1> ! pbe def2-sv(p) def2/J RI DEFGRID1 loosescf d4 GCP(DFT/SV(P)) printgap
|  2> %output
|  3>     printlevel normal
|  4> end
|  5> * xyz 0 1
|  6> C 3.5943897202 1.68848632 -1.0810689266
|  7> C 3.1354468787 2.1757633203 0.2769325839
|  8> O 1.8938878268 1.5586163113 0.6990782428
|  9> P 1.7194870002 0.0188376221 1.010851679
| 10> S 0.3662546124 -0.3577038959 2.3766043627
| 11> O 3.2031566845 -0.3633805451 1.4612999926
| 12> C 3.4985632781 -1.5293542607 2.2456794558
| 13> C 3.2107031154 -2.8189589591 1.5037921992
| 14> S 1.4775756053 -0.9738405894 -0.8642314323
| 15> C -0.0847368456 -1.8508262742 -0.590544824
| 16> S -1.4291204554 -1.3422813229 -1.7067668163
| 17> P -2.0712965701 0.4016635563 -0.6893150046
| 18> S -3.5831403291 1.3681238916 -1.4687206053
| 19> O -0.7290791957 1.2435452917 -0.488060417
| 20> C -0.4218458161 2.3163977619 -1.4011863143
| 21> C -0.1020797907 1.8104250103 -2.7946264226
| 22> O -2.2565250832 -0.0451696926 0.8212845227
| 23> C -3.5267642837 -0.486511783 1.3308575906
| 24> C -3.9146763511 -1.8508495288 0.7958091707
| 25> H 3.7952053768 0.6189124206 -1.047834059
| 26> H 2.8362126036 1.8797212515 -1.8353069505
| 27> H 4.5063748923 2.2109258848 -1.3530742436
| 28> H 2.8961645343 3.2406080492 0.2655110471
| 29> H 3.8925100472 1.9769980237 1.0377056056
| 30> H 4.5606114481 -1.4257893951 2.4728051826
| 31> H 2.9136255818 -1.4808161802 3.1695630939
| 32> H 2.1364938855 -2.9377408362 1.3701713637
| 33> H 3.6922861866 -2.8138317673 0.5293469732
| 34> H 3.5841777543 -3.6552697842 2.0859852298
| 35> H -0.3905451907 -1.6914377537 0.4474284406
| 36> H 0.0789117554 -2.9029344509 -0.8067818955
| 37> H -1.2777896667 2.9981077821 -1.4295205395
| 38> H 0.4297828379 2.8152716576 -0.9379614701
| 39> H -0.9911498762 1.3599824769 -3.2363418136
| 40> H 0.2119345234 2.6451767228 -3.4134241647
| 41> H 0.687793258 1.062919814 -2.7634836849
| 42> H -3.3788348534 -0.5027155049 2.412038464
| 43> H -4.2830407523 0.2607541009 1.0691785301
| 44> H -4.8389605481 -2.1674324719 1.2684052746
| 45> H -4.0679020919 -1.7993125835 -0.2818744133
| 46> H -3.1356471632 -2.5782016117 1.0104368055
| 47> *
| 48>
| 49>                          ****END OF INPUT****

CARTESIAN COORDINATES (ANGSTROEM)
---------------------------------
  C      3.594390    1.688486   -1.081069
  C      3.135447    2.175763    0.276933
  O      1.893888    1.558616    0.699078
  P      1.719487    0.018838    1.010852
  S      0.366255   -0.357704    2.376604
  O      3.203157   -0.363381    1.461300
  C      3.498563   -1.529354    2.245679
  C      3.210703   -2.818959    1.503792
  S      1.477576   -0.973841   -0.864231
  C     -0.084737   -1.850826   -0.590545
  S     -1.429120   -1.342281   -1.706767
  P     -2.071297    0.401664   -0.689315
  S     -3.583140    1.368124   -1.468721
  O     -0.729079    1.243545   -0.488060
  C     -0.421846    2.316398   -1.401186
  C     -0.102080    1.810425   -2.794626
  O     -2.256525   -0.045170    0.821285
  C     -3.526764   -0.486512    1.330858
  C     -3.914676   -1.850850    0.795809
  H      3.795205    0.618912   -1.047834
  H      2.836213    1.879721   -1.835307
  H      4.506375    2.210926   -1.353074
  H      2.896165    3.240608    0.265511
  H      3.892510    1.976998    1.037706
  H      4.560611   -1.425789    2.472805
  H      2.913626   -1.480816    3.169563
  H      2.136494   -2.937741    1.370171
  H      3.692286   -2.813832    0.529347
  H      3.584178   -3.655270    2.085985
  H     -0.390545   -1.691438    0.447428
  H      0.078912   -2.902934   -0.806782
  H     -1.277790    2.998108   -1.429521
  H      0.429783    2.815272   -0.937961
  H     -0.991150    1.359982   -3.236342
  H      0.211935    2.645177   -3.413424
  H      0.687793    1.062920   -2.763484
  H     -3.378835   -0.502716    2.412038
  H     -4.283041    0.260754    1.069179
  H     -4.838961   -2.167432    1.268405
  H     -4.067902   -1.799313   -0.281874
  H     -3.135647   -2.578202    1.010437

 Total Charge           Charge          ....    0
 Multiplicity           Mult            ....    1
 Number of Electrons    NEL             ....  202
 Basis Dimension        Dim             ....  334

ORBITAL ENERGIES
----------------

  NO   OCC          E(Eh)            E(eV)
   0   2.0000     -88.044219     -2395.8050
   1   2.0000     -88.040968     -2395.7165
   2   2.0000     -87.987730     -2394.2679
   3   2.0000     -87.985088     -2394.1960
   4   2.0000     -76.429249     -2079.7456
   5   2.0000     -76.421038     -2079.5222
   6   2.0000     -18.795495      -511.4514
   7   2.0000     -18.794466      -511.4234
   8   2.0000     -18.782888      -511.1084
   9   2.0000     -18.781366      -511.0669
  10   2.0000      -9.962307      -271.0882
  11   2.0000      -9.956246      -270.9232
  12   2.0000      -9.955961      -270.9155
  13   2.0000      -9.945835      -270.6399
  14   2.0000      -9.942900      -270.5601
  15   2.0000      -9.896243      -269.2905
  16   2.0000      -9.888426      -269.0777
  17   2.0000      -9.879934      -268.8467
  18   2.0000      -9.875177      -268.7172
  19   2.0000      -7.688717      -209.2206
  20   2.0000      -7.686036      -209.1477
  21   2.0000      -7.632755      -207.6978
  22   2.0000      -7.630246      -207.6296
  23   2.0000      -6.426345      -174.8697
  24   2.0000      -6.418633      -174.6599
  25   2.0000      -5.716622      -155.5572
  26   2.0000      -5.714109      -155.4888
  27   2.0000      -5.713264      -155.4658
  28   2.0000      -5.710313      -155.3855
  29   2.0000      -5.705678      -155.2594
  30   2.0000      -5.703062      -155.1882
  31   2.0000      -5.661770      -154.0646
  32   2.0000      -5.659216      -153.9951
  33   2.0000      -5.653295      -153.8340
  34   2.0000      -5.652843      -153.8217
  35   2.0000      -5.650718      -153.7639
  36   2.0000      -5.650505      -153.7581
  37   2.0000      -4.649345      -126.5151
  38   2.0000      -4.647756      -126.4719
  39   2.0000      -4.646792      -126.4456
  40   2.0000      -4.640889      -126.2850
  41   2.0000      -4.640776      -126.2819
  42   2.0000      -4.639029      -126.2344
  43   2.0000      -0.991541       -26.9812
  44   2.0000      -0.979429       -26.6516
  45   2.0000      -0.946309       -25.7504
  46   2.0000      -0.937245       -25.5037
  47   2.0000      -0.760582       -20.6965
  48   2.0000      -0.721132       -19.6230
  49   2.0000      -0.707155       -19.2427
  50   2.0000      -0.695473       -18.9248
  51   2.0000      -0.680270       -18.5111
  52   2.0000      -0.675673       -18.3860
  53   2.0000      -0.654067       -17.7981
  54   2.0000      -0.637230       -17.3399
  55   2.0000      -0.601472       -16.3669
  56   2.0000      -0.592112       -16.1122
  57   2.0000      -0.584813       -15.9136
  58   2.0000      -0.564113       -15.3503
  59   2.0000      -0.558991       -15.2109
  60   2.0000      -0.500366       -13.6157
  61   2.0000      -0.487837       -13.2747
  62   2.0000      -0.474143       -12.9021
  63   2.0000      -0.461774       -12.5655
  64   2.0000      -0.457223       -12.4417
  65   2.0000      -0.451701       -12.2914
  66   2.0000      -0.444441       -12.0938
  67   2.0000      -0.436047       -11.8654
  68   2.0000      -0.428939       -11.6720
  69   2.0000      -0.415141       -11.2966
  70   2.0000      -0.410201       -11.1621
  71   2.0000      -0.404737       -11.0135
  72   2.0000      -0.392865       -10.6904
  73   2.0000      -0.388728       -10.5778
  74   2.0000      -0.382532       -10.4092
  75   2.0000      -0.374352       -10.1866
  76   2.0000      -0.368164       -10.0183
  77   2.0000      -0.363806        -9.8997
  78   2.0000      -0.357489        -9.7278
  79   2.0000      -0.348883        -9.4936
  80   2.0000      -0.346290        -9.4230
  81   2.0000      -0.344446        -9.3728
  82   2.0000      -0.342474        -9.3192
  83   2.0000      -0.332376        -9.0444
  84   2.0000      -0.327206        -8.9037
  85   2.0000      -0.320309        -8.7161
  86   2.0000      -0.312871        -8.5137
  87   2.0000      -0.301357        -8.2003
  88   2.0000      -0.299266        -8.1434
  89   2.0000      -0.293744        -7.9932
  90   2.0000      -0.283971        -7.7272
  91   2.0000      -0.275767        -7.5040
  92   2.0000      -0.263839        -7.1794
  93   2.0000      -0.261447        -7.1143
  94   2.0000      -0.255491        -6.9523
  95   2.0000      -0.224336        -6.1045
  96   2.0000      -0.216925        -5.9028
  97   2.0000      -0.208083        -5.6622
  98   2.0000      -0.206057        -5.6071
  99   2.0000      -0.200445        -5.4544
 100   2.0000      -0.198843        -5.4108
 101   0.0000      -0.042155        -1.1471
 102   0.0000      -0.028666        -0.7800
 103   0.0000      -0.021621        -0.5883
 104   0.0000       0.003567         0.0971
 105   0.0000       0.005168         0.1406

MULLIKEN ATOMIC CHARGES
-----------------------
   0 C :   -0.339940
   1 C :    0.002330
   2 O :   -0.368982
   3 P :    0.626806
   4 S :   -0.289765
   5 O :   -0.390169
   6 C :    0.003289
   7 C :   -0.316127
   8 S :   -0.106076
   9 C :   -0.364836
  10 S :   -0.077236
  11 P :    0.589110
  12 S :   -0.319929
  13 O :   -0.367257
  14 C :   -0.012105
  15 C :   -0.333827
  16 O :   -0.347863
  17 C :    0.000571
  18 C :   -0.318313
  19 H :    0.129655
  20 H :    0.133381
  21 H :    0.117794
  22 H :    0.114183
  23 H :    0.114404
  24 H :    0.102709
  25 H :    0.111955
  26 H :    0.120246
  27 H :    0.118763
  28 H :    0.113462
  29 H :    0.207416
  30 H :    0.182344
  31 H :    0.112666
  32 H :    0.110922
  33 H :    0.122742
  34 H :    0.105231
  35 H :    0.139034
  36 H :    0.107865
  37 H :    0.111598
  38 H :    0.111632
  39 H :    0.126238
  40 H :    0.116078
Sum of atomic charges:    0.0000000

LOEWDIN ATOMIC CHARGES
----------------------
   0 C :   -0.369212
   1 C :   -0.111080
   2 O :   -0.232434
   3 P :    0.581072
   4 S :   -0.280557
   5 O :   -0.253009
   6 C :   -0.118007
   7 C :   -0.370548
   8 S :    0.082313
   9 C :   -0.487114
  10 S :    0.080928
  11 P :    0.574205
  12 S :   -0.316059
  13 O :   -0.240688
  14 C :   -0.123225
  15 C :   -0.377336
  16 O :   -0.228779
  17 C :   -0.117687
  18 C :   -0.368301
  19 H :    0.119231
  20 H :    0.129027
  21 H :    0.134563
  22 H :    0.121325
  23 H :    0.116298
  24 H :    0.117614
  25 H :    0.111243
  26 H :    0.118952
  27 H :    0.123725
  28 H :    0.130963
  29 H :    0.122986
  30 H :    0.137232
  31 H :    0.110028
  32 H :    0.114077
  33 H :    0.120303
  34 H :    0.127196
  35 H :    0.116274
  36 H :    0.120037
  37 H :    0.109959
  38 H :    0.130255
  39 H :    0.120891
  40 H :    0.123338

  Mayer bond orders larger than 0.100000
B(  0-C ,  1-C ) :   1.1724 B(  0-C , 19-H ) :   0.9312 B(  0-C , 20-H ) :   0.9392
B(  0-C , 21-H ) :   0.9348 B(  1-C ,  2-O ) :   0.8967 B(  1-C , 22-H ) :   0.9290
B(  1-C , 23-H ) :   0.9236 B(  2-O ,  3-P ) :   1.1180 B(  3-P ,  4-S ) :   1.6419
B(  3-P ,  5-O ) :   1.0526 B(  3-P ,  8-S ) :   0.9391 B(  4-S ,  8-S ) :   0.1195
B(  4-S , 29-H ) :   0.1092 B(  5-O ,  6-C ) :   0.9143 B(  6-C ,  7-C ) :   1.1661
B(  6-C , 24-H ) :   0.9341 B(  6-C , 25-H ) :   0.9156 B(  7-C , 26-H ) :   0.9377
B(  7-C , 27-H ) :   0.9422 B(  7-C , 28-H ) :   0.9369 B(  8-S ,  9-C ) :   1.0025
B(  9-C , 10-S ) :   0.9859 B(  9-C , 29-H ) :   0.8387 B(  9-C , 30-H ) :   0.9087
B( 10-S , 11-P ) :   0.9697 B( 11-P , 12-S ) :   1.6292 B( 11-P , 13-O ) :   1.0921
B( 11-P , 16-O ) :   1.1111 B( 13-O , 14-C ) :   0.9055 B( 14-C , 15-C ) :   1.1639
B( 14-C , 31-H ) :   0.9160 B( 14-C , 32-H ) :   0.9217 B( 15-C , 33-H ) :   0.9300
B( 15-C , 34-H ) :   0.9384 B( 15-C , 35-H ) :   0.9239 B( 16-O , 17-C ) :   0.9108
B( 17-C , 18-C ) :   1.1618 B( 17-C , 36-H ) :   0.9321 B( 17-C , 37-H ) :   0.9154
B( 18-C , 38-H ) :   0.9389 B( 18-C , 39-H ) :   0.9364 B( 18-C , 40-H ) :   0.9465

Dispersion correction           -0.070238239
FINAL SINGLE POINT ENERGY     -2929.513172649414

DIPOLE MOMENT
-------------

Method             : SCF
Type of density    : Electron Density
Multiplicity       :   1
Irrep              :   0
Energy             : -2929.6326600920929195 Eh
Relativity type    :
Basis              : AO
                                X                 Y                 Z
Electronic contribution:    -11.626583701       2.530608570       0.389188157
Nuclear contribution   :     13.438717864      -3.010135147      -0.171287363
                        -----------------------------------------
Total Dipole Moment    :      1.812134162      -0.479526577       0.217900794
                        -----------------------------------------
Magnitude (a.u.)       :      1.887129226
Magnitude (Debye)      :      4.796701293

Rotational constants in cm-1:             0.012082             0.006085             0.005167
Rotational constants in MHz :           362.195401           182.438058           154.891935

                             ****ORCA TERMINATED NORMALLY****
TOTAL RUN TIME: 0 days 0 hours 0 minutes 22 seconds 386 msec
