                         Program Version 6.0.0  -   RELEASE  -
|  1> ! r2scan-3c def2/J RI DEFGRID2 scfconv6 printgap
|  2> %output
|  3>     printlevel normal
|  4> end
|  5> * xyz 0 1
|  6> C 2.6587170218 7.07918e-05 0.3928585343
|  7> N 1.3481043711 2.52897e-05 -0.2201379383
|  8> C 0.5903830799 1.190740303 0.127705321
|  9> C -0.7525877027 1.1825861075 -0.611901029
| 10> N -1.5529217135 1.2003e-05 -0.3496739279
| 11> C -0.7526952101 -1.1826865612 -0.6117335168
| 12> C 0.5905218459 -1.1908447456 0.1274937084
| 13> C -2.2004566502 0.0001165843 0.94691461
| 14> H 3.2016254562 -0.885800347 0.0683204643
| 15> H 2.612351618 0.0004986084 1.4947696082
| 16> H 3.2018329463 0.8855369103 0.0676942513
| 17> H 0.4225032598 1.2558282423 1.2200181386
| 18> H 1.1660395398 2.0674085244 -0.1767618072
| 19> H -1.3301719378 2.068466134 -0.3431070414
| 20> H -0.5533757453 1.2036914303 -1.6865948377
| 21> H -1.3302265206 -2.0684351112 -0.342400988
| 22> H -0.553873411 -1.2042509019 -1.6865010082
| 23> H 0.4229592444 -1.2563488947 1.2198277506
| 24> H 1.1661798682 -2.0673405447 -0.1774578104
| 25> H -2.8324394661 -0.8839791143 1.0166813958
| 26> H -2.8321755565 0.884399484 1.0166774571
| 27> H -1.5103574342 1.6113e-05 1.8022837955
| 28> *
| 29>
| 30>                          ****END OF INPUT****

CARTESIAN COORDINATES (ANGSTROEM)
---------------------------------
  C      2.658717    0.000071    0.392859
  N      1.348104    0.000025   -0.220138
  C      0.590383    1.190740    0.127705
  C     -0.752588    1.182586   -0.611901
  N     -1.552922    0.000012   -0.349674
  C     -0.752695   -1.182687   -0.611734
  C      0.590522   -1.190845    0.127494
  C     -2.200457    0.000117    0.946915
  H      3.201625   -0.885800    0.068320
  H      2.612352    0.000499    1.494770
  H      3.201833    0.885537    0.067694
  H      0.422503    1.255828    1.220018
  H      1.166040    2.067409   -0.176762
  H     -1.330172    2.068466   -0.343107
  H     -0.553376    1.203691   -1.686595
  H     -1.330227   -2.068435   -0.342401
  H     -0.553873   -1.204251   -1.686501
  H      0.422959   -1.256349    1.219828
  H      1.166180   -2.067341   -0.177458
  H     -2.832439   -0.883979    1.016681
  H     -2.832176    0.884399    1.016677
  H     -1.510357    0.000016    1.802284

 Total Charge           Charge          ....    0
 Multiplicity           Mult            ....    1
 Number of Electrons    NEL             ....   64
 Basis Dimension        Dim             ....  232

ORBITAL ENERGIES
----------------

  NO   OCC          E(Eh)            E(eV)
   0   2.0000     -14.149165      -385.0183
   1   2.0000     -14.145407      -384.9161
   2   2.0000     -10.047059      -273.3944
   3   2.0000     -10.047053      -273.3942
   4   2.0000     -10.046692      -273.3844
   5   2.0000     -10.046683      -273.3842
   6   2.0000     -10.043051      -273.2853
   7   2.0000     -10.042353      -273.2663
   8   2.0000      -0.910377       -24.7726
   9   2.0000      -0.868036       -23.6205
  10   2.0000      -0.723117       -19.6770
  11   2.0000      -0.697077       -18.9684
  12   2.0000      -0.646827       -17.6011
  13   2.0000      -0.606243       -16.4967
  14   2.0000      -0.580330       -15.7916
  15   2.0000      -0.514059       -13.9883
  16   2.0000      -0.461268       -12.5517
  17   2.0000      -0.435638       -11.8543
  18   2.0000      -0.430330       -11.7099
  19   2.0000      -0.426649       -11.6097
  20   2.0000      -0.413762       -11.2590
  21   2.0000      -0.401767       -10.9326
  22   2.0000      -0.361862        -9.8468
  23   2.0000      -0.358145        -9.7456
  24   2.0000      -0.353063        -9.6073
  25   2.0000      -0.330338        -8.9890
  26   2.0000      -0.329949        -8.9784
  27   2.0000      -0.313829        -8.5397
  28   2.0000      -0.311421        -8.4742
  29   2.0000      -0.299088        -8.1386
  30   2.0000      -0.192702        -5.2437
  31   2.0000      -0.167571        -4.5598
  32   0.0000       0.073832         2.0091
  33   0.0000       0.095348         2.5946
  34   0.0000       0.106174         2.8891
  35   0.0000       0.117403         3.1947
  36   0.0000       0.118415         3.2222

MULLIKEN ATOMIC CHARGES
-----------------------
   0 C :   -0.351601
   1 N :   -0.109575
   2 C :   -0.275972
   3 C :   -0.248681
   4 N :   -0.176448
   5 C :   -0.248578
   6 C :   -0.276095
   7 C :   -0.362351
   8 H :    0.144397
   9 H :    0.133606
  10 H :    0.144439
  11 H :    0.151976
  12 H :    0.140451
  13 H :    0.143344
  14 H :    0.160909
  15 H :    0.143335
  16 H :    0.160902
  17 H :    0.151969
  18 H :    0.140462
  19 H :    0.147661
  20 H :    0.147659
  21 H :    0.138191
Sum of atomic charges:   -0.0000000

LOEWDIN ATOMIC CHARGES
----------------------
   0 C :   -0.145631
   1 N :   -0.992104
   2 C :   -0.042140
   3 C :   -0.030365
   4 N :   -0.975667
   5 C :   -0.030375
   6 C :   -0.042154
   7 C :   -0.145284
   8 H :    0.173485
   9 H :    0.152230
  10 H :    0.173477
  11 H :    0.160682
  12 H :    0.179900
  13 H :    0.178790
  14 H :    0.184800
  15 H :    0.178798
  16 H :    0.184781
  17 H :    0.160669
  18 H :    0.179905
  19 H :    0.174486
  20 H :    0.174488
  21 H :    0.147232

  Mayer bond orders larger than 0.100000
B(  0-C ,  1-N ) :   0.9481 B(  0-C ,  8-H ) :   0.9700 B(  0-C ,  9-H ) :   0.9546
B(  0-C , 10-H ) :   0.9701 B(  1-N ,  2-C ) :   0.9589 B(  1-N ,  6-C ) :   0.9591
B(  2-C ,  3-C ) :   0.8580 B(  2-C , 11-H ) :   0.9828 B(  2-C , 12-H ) :   0.9459
B(  3-C ,  4-N ) :   0.9861 B(  3-C , 13-H ) :   0.9836 B(  3-C , 14-H ) :   0.9683
B(  4-N ,  5-C ) :   0.9861 B(  4-N ,  7-C ) :   0.9166 B(  5-C ,  6-C ) :   0.8581
B(  5-C , 15-H ) :   0.9836 B(  5-C , 16-H ) :   0.9683 B(  6-C , 17-H ) :   0.9828
B(  6-C , 18-H ) :   0.9459 B(  7-C , 19-H ) :   0.9726 B(  7-C , 20-H ) :   0.9726
B(  7-C , 21-H ) :   0.9430

Dispersion correction           -0.006917419
FINAL SINGLE POINT ENERGY      -346.424764197902

DIPOLE MOMENT
-------------

Method             : SCF
Type of density    : Electron Density
Multiplicity       :   1
Irrep              :   0
Energy             :  -346.4408277324428127 Eh
Relativity type    :
Basis              : AO
                                X                 Y                 Z
Electronic contribution:     -1.003006670       0.000259052      -2.858020655
Nuclear contribution   :      1.172403296      -0.000290127       3.274313515
                        -----------------------------------------
Total Dipole Moment    :      0.169396626      -0.000031076       0.416292860
                        -----------------------------------------
Magnitude (a.u.)       :      0.449438498
Magnitude (Debye)      :      1.142381875

Rotational constants in cm-1:             0.124710             0.052906             0.045342
Rotational constants in MHz :          3738.707590          1586.083006          1359.332450

                             ****ORCA TERMINATED NORMALLY****
TOTAL RUN TIME: 0 days 0 hours 0 minutes 38 seconds 330 msec
