                         Program Version 6.0.0  -   RELEASE  -
|  1> ! r2scan-3c def2/J RI DEFGRID2 scfconv6 printgap
|  2> %output
|  3>     printlevel normal
|  4> end
|  5> %cpcm
|  6>     smd true
|  7>     smdsolvent "water"
|  8> end
|  9> * xyz 0 1
| 10> C 2.6587170218 7.07918e-05 0.3928585343
| 11> N 1.3481043711 2.52897e-05 -0.2201379383
| 12> C 0.5903830799 1.190740303 0.127705321
| 13> C -0.7525877027 1.1825861075 -0.611901029
| 14> N -1.5529217135 1.2003e-05 -0.3496739279
| 15> C -0.7526952101 -1.1826865612 -0.6117335168
| 16> C 0.5905218459 -1.1908447456 0.1274937084
| 17> C -2.2004566502 0.0001165843 0.94691461
| 18> H 3.2016254562 -0.885800347 0.0683204643
| 19> H 2.612351618 0.0004986084 1.4947696082
| 20> H 3.2018329463 0.8855369103 0.0676942513
| 21> H 0.4225032598 1.2558282423 1.2200181386
| 22> H 1.1660395398 2.0674085244 -0.1767618072
| 23> H -1.3301719378 2.068466134 -0.3431070414
| 24> H -0.5533757453 1.2036914303 -1.6865948377
| 25> H -1.3302265206 -2.0684351112 -0.342400988
| 26> H -0.553873411 -1.2042509019 -1.6865010082
| 27> H 0.4229592444 -1.2563488947 1.2198277506
| 28> H 1.1661798682 -2.0673405447 -0.1774578104
| 29> H -2.8324394661 -0.8839791143 1.0166813958
| 30> H -2.8321755565 0.884399484 1.0166774571
| 31> H -1.5103574342 1.6113e-05 1.8022837955
| 32> *
| 33>
| 34>                          ****END OF INPUT****

CARTESIAN COORDINATES (ANGSTROEM)
---------------------------------
  C      2.658717    0.000071    0.392859
  N      1.348104    0.000025   -0.220138
  C      0.590383    1.190740    0.127705
  C     -0.752588    1.182586   -0.611901
  N     -1.552922    0.000012   -0.349674
  C     -0.752695   -1.182687   -0.611734
  C      0.590522   -1.190845    0.127494
  C     -2.200457    0.000117    0.946915
  H      3.201625   -0.885800    0.068320
  H      2.612352    0.000499    1.494770
  H      3.201833    0.885537    0.067694
  H      0.422503    1.255828    1.220018
  H      1.166040    2.067409   -0.176762
  H     -1.330172    2.068466   -0.343107
  H     -0.553376    1.203691   -1.686595
  H     -1.330227   -2.068435   -0.342401
  H     -0.553873   -1.204251   -1.686501
  H      0.422959   -1.256349    1.219828
  H      1.166180   -2.067341   -0.177458
  H     -2.832439   -0.883979    1.016681
  H     -2.832176    0.884399    1.016677
  H     -1.510357    0.000016    1.802284

 Total Charge           Charge          ....    0
 Multiplicity           Mult            ....    1
 Number of Electrons    NEL             ....   64
 Basis Dimension        Dim             ....  232

ORBITAL ENERGIES
----------------

  NO   OCC          E(Eh)            E(eV)
   0   2.0000     -14.145653      -384.9228
   1   2.0000     -14.143429      -384.8623
   2   2.0000     -10.040759      -273.2229
   3   2.0000     -10.040752      -273.2227
   4   2.0000     -10.039182      -273.1800
   5   2.0000     -10.039177      -273.1799
   6   2.0000     -10.034536      -273.0536
   7   2.0000     -10.033971      -273.0382
   8   2.0000      -0.905923       -24.6514
   9   2.0000      -0.863908       -23.5081
  10   2.0000      -0.716784       -19.5047
  11   2.0000      -0.690885       -18.7999
  12   2.0000      -0.640271       -17.4227
  13   2.0000      -0.600441       -16.3388
  14   2.0000      -0.573298       -15.6002
  15   2.0000      -0.507952       -13.8221
  16   2.0000      -0.454962       -12.3802
  17   2.0000      -0.429766       -11.6945
  18   2.0000      -0.423729       -11.5303
  19   2.0000      -0.419675       -11.4199
  20   2.0000      -0.408050       -11.1036
  21   2.0000      -0.396008       -10.7759
  22   2.0000      -0.354139        -9.6366
  23   2.0000      -0.350622        -9.5409
  24   2.0000      -0.344650        -9.3784
  25   2.0000      -0.323912        -8.8141
  26   2.0000      -0.322879        -8.7860
  27   2.0000      -0.307227        -8.3601
  28   2.0000      -0.305664        -8.3175
  29   2.0000      -0.291826        -7.9410
  30   2.0000      -0.191116        -5.2005
  31   2.0000      -0.166889        -4.5413
  32   0.0000       0.080708         2.1962
  33   0.0000       0.100006         2.7213
  34   0.0000       0.114958         3.1282
  35   0.0000       0.121913         3.3174
  36   0.0000       0.128220         3.4890

MULLIKEN ATOMIC CHARGES
-----------------------
   0 C :   -0.389429
   1 N :   -0.136153
   2 C :   -0.294135
   3 C :   -0.268810
   4 N :   -0.203678
   5 C :   -0.268709
   6 C :   -0.294259
   7 C :   -0.391851
   8 H :    0.160837
   9 H :    0.144408
  10 H :    0.160860
  11 H :    0.162387
  12 H :    0.160616
  13 H :    0.162227
  14 H :    0.167412
  15 H :    0.162227
  16 H :    0.167406
  17 H :    0.162376
  18 H :    0.160627
  19 H :    0.162345
  20 H :    0.162347
  21 H :    0.150949
Sum of atomic charges:   -0.0000000

LOEWDIN ATOMIC CHARGES
----------------------
   0 C :   -0.151313
   1 N :   -1.011882
   2 C :   -0.042106
   3 C :   -0.034822
   4 N :   -0.997203
   5 C :   -0.034832
   6 C :   -0.042118
   7 C :   -0.149693
   8 H :    0.177759
   9 H :    0.156579
  10 H :    0.177746
  11 H :    0.166182
  12 H :    0.185332
  13 H :    0.185495
  14 H :    0.183593
  15 H :    0.185505
  16 H :    0.183578
  17 H :    0.166167
  18 H :    0.185336
  19 H :    0.178510
  20 H :    0.178514
  21 H :    0.153675

  Mayer bond orders larger than 0.100000
B(  0-C ,  1-N ) :   0.9438 B(  0-C ,  8-H ) :   0.9656 B(  0-C ,  9-H ) :   0.9542
B(  0-C , 10-H ) :   0.9656 B(  1-N ,  2-C ) :   0.9631 B(  1-N ,  6-C ) :   0.9632
B(  2-C ,  3-C ) :   0.8519 B(  2-C , 11-H ) :   0.9778 B(  2-C , 12-H ) :   0.9483
B(  3-C ,  4-N ) :   0.9807 B(  3-C , 13-H ) :   0.9741 B(  3-C , 14-H ) :   0.9727
B(  4-N ,  5-C ) :   0.9807 B(  4-N ,  7-C ) :   0.9189 B(  5-C ,  6-C ) :   0.8520
B(  5-C , 15-H ) :   0.9741 B(  5-C , 16-H ) :   0.9726 B(  6-C , 17-H ) :   0.9778
B(  6-C , 18-H ) :   0.9484 B(  7-C , 19-H ) :   0.9681 B(  7-C , 20-H ) :   0.9681
B(  7-C , 21-H ) :   0.9411

Dispersion correction           -0.006917419
FINAL SINGLE POINT ENERGY      -346.436494830881

DIPOLE MOMENT
-------------

Method             : SCF
Type of density    : Electron Density
Multiplicity       :   1
Irrep              :   0
Energy             :  -346.4525583654217371 Eh
Relativity type    :
Basis              : AO
                                X                 Y                 Z
Electronic contribution:     -0.927994118       0.000233100      -2.570296862
Nuclear contribution   :      1.172403296      -0.000290127       3.274313515
                        -----------------------------------------
Total Dipole Moment    :      0.244409178      -0.000057027       0.704016654
                        -----------------------------------------
Magnitude (a.u.)       :      0.745235062
Magnitude (Debye)      :      1.894236991

Rotational constants in cm-1:             0.124710             0.052906             0.045342
Rotational constants in MHz :          3738.707590          1586.083006          1359.332450

                             ****ORCA TERMINATED NORMALLY****
TOTAL RUN TIME: 0 days 0 hours 0 minutes 48 seconds 591 msec
