                         Program Version 6.0.0  -   RELEASE  -
|  1> ! r2scan-3c def2/J RI DEFGRID2 scfconv6 printgap
|  2> %output
|  3>     printlevel normal
|  4> end
|  5> * xyz 0 1
|  6> C 0.7636599019 -1.0334592013 3.4180295103
|  7> C 2.0084398053 -0.6180105604 2.6615358238
|  8> O 1.6162852599 0.0667679208 1.4442380159
|  9> P 2.3553956795 -0.1920716994 0.0723000857
| 10> S 2.9641110365 -2.0304084314 -0.2562093549
| 11> O 3.5194185448 0.8882711675 0.1276318938
| 12> C 4.5929502983 0.917077608 -0.8348788378
| 13> C 5.8124265288 1.5149829728 -0.1622020378
| 14> S 0.9887451439 0.6019240773 -1.3225322422
| 15> C 0.0159084119 -0.9180710591 -1.5257167786
| 16> S -1.0656437347 -1.2499911048 -0.1208005588
| 17> P -2.3958232344 0.3845217105 -0.4899797255
| 18> S -2.7718620363 0.7710237275 -2.3676201011
| 19> O -1.742192882 1.6164541746 0.2450502664
| 20> C -1.4545956394 1.6283339235 1.6647242936
| 21> C -2.5101674754 2.4178895385 2.4104985221
| 22> O -3.6524226986 0.060462976 0.4269002914
| 23> C -4.7614540551 -0.7366297415 -0.0298185592
| 24> C -4.3654188981 -2.1701020513 -0.3165912817
| 25> H 0.1889129324 -0.1590372057 3.7082187238
| 26> H 0.1472383914 -1.6774525169 2.7951136619
| 27> H 1.0602973869 -1.5784311413 4.3084789889
| 28> H 2.6128940306 -1.4906486547 2.3921880787
| 29> H 2.6170800638 0.0808615403 3.2381436307
| 30> H 4.7864598153 -0.1060081616 -1.1750036918
| 31> H 4.2661705603 1.522539114 -1.6839213387
| 32> H 6.621145077 1.5765864172 -0.8829619904
| 33> H 5.5814856025 2.5101132133 0.2066094547
| 34> H 6.1227127552 0.8919882966 0.6720216097
| 35> H 0.6911233847 -1.7689429932 -1.62179843
| 36> H -0.5884818512 -0.7819732232 -2.4228837439
| 37> H -1.4043634815 0.5965153653 2.0224303653
| 38> H -0.4692667505 2.0930508392 1.7451178479
| 39> H -3.4771025871 1.9304595664 2.3184678864
| 40> H -2.2362810938 2.4783843995 3.4591844589
| 41> H -2.5824863847 3.42118372 1.9997872651
| 42> H -5.4795244678 -0.6740081916 0.7890381156
| 43> H -5.175472447 -0.2658132419 -0.9264261553
| 44> H -3.8491712391 -2.600740409 0.5377360185
| 45> H -5.2569466647 -2.7509599692 -0.5301212987
| 46> H -3.7057547643 -2.2087520659 -1.1821405184
| 47> *
| 48>
| 49>                          ****END OF INPUT****

CARTESIAN COORDINATES (ANGSTROEM)
---------------------------------
  C      0.763660   -1.033459    3.418030
  C      2.008440   -0.618011    2.661536
  O      1.616285    0.066768    1.444238
  P      2.355396   -0.192072    0.072300
  S      2.964111   -2.030408   -0.256209
  O      3.519419    0.888271    0.127632
  C      4.592950    0.917078   -0.834879
  C      5.812427    1.514983   -0.162202
  S      0.988745    0.601924   -1.322532
  C      0.015908   -0.918071   -1.525717
  S     -1.065644   -1.249991   -0.120801
  P     -2.395823    0.384522   -0.489980
  S     -2.771862    0.771024   -2.367620
  O     -1.742193    1.616454    0.245050
  C     -1.454596    1.628334    1.664724
  C     -2.510167    2.417890    2.410499
  O     -3.652423    0.060463    0.426900
  C     -4.761454   -0.736630   -0.029819
  C     -4.365419   -2.170102   -0.316591
  H      0.188913   -0.159037    3.708219
  H      0.147238   -1.677453    2.795114
  H      1.060297   -1.578431    4.308479
  H      2.612894   -1.490649    2.392188
  H      2.617080    0.080862    3.238144
  H      4.786460   -0.106008   -1.175004
  H      4.266171    1.522539   -1.683921
  H      6.621145    1.576586   -0.882962
  H      5.581486    2.510113    0.206609
  H      6.122713    0.891988    0.672022
  H      0.691123   -1.768943   -1.621798
  H     -0.588482   -0.781973   -2.422884
  H     -1.404363    0.596515    2.022430
  H     -0.469267    2.093051    1.745118
  H     -3.477103    1.930460    2.318468
  H     -2.236281    2.478384    3.459184
  H     -2.582486    3.421184    1.999787
  H     -5.479524   -0.674008    0.789038
  H     -5.175472   -0.265813   -0.926426
  H     -3.849171   -2.600740    0.537736
  H     -5.256947   -2.750960   -0.530121
  H     -3.705755   -2.208752   -1.182141

 Total Charge           Charge          ....    0
 Multiplicity           Mult            ....    1
 Number of Electrons    NEL             ....  202
 Basis Dimension        Dim             ....  539

ORBITAL ENERGIES
----------------

  NO   OCC          E(Eh)            E(eV)
   0   2.0000     -88.574992     -2410.2481
   1   2.0000     -88.572557     -2410.1818
   2   2.0000     -88.520942     -2408.7773
   3   2.0000     -88.520562     -2408.7670
   4   2.0000     -76.914309     -2092.9447
   5   2.0000     -76.913847     -2092.9322
   6   2.0000     -18.996730      -516.9273
   7   2.0000     -18.993611      -516.8424
   8   2.0000     -18.993587      -516.8418
   9   2.0000     -18.988268      -516.6970
  10   2.0000     -10.102401      -274.9003
  11   2.0000     -10.101435      -274.8740
  12   2.0000     -10.101172      -274.8669
  13   2.0000     -10.099020      -274.8083
  14   2.0000     -10.098883      -274.8046
  15   2.0000     -10.035626      -273.0833
  16   2.0000     -10.033610      -273.0284
  17   2.0000     -10.030776      -272.9513
  18   2.0000     -10.030377      -272.9404
  19   2.0000      -7.869096      -214.1290
  20   2.0000      -7.867022      -214.0725
  21   2.0000      -7.815851      -212.6801
  22   2.0000      -7.815338      -212.6661
  23   2.0000      -6.593028      -179.4054
  24   2.0000      -6.592372      -179.3875
  25   2.0000      -5.816011      -158.2617
  26   2.0000      -5.813817      -158.2020
  27   2.0000      -5.812971      -158.1790
  28   2.0000      -5.810925      -158.1233
  29   2.0000      -5.806198      -157.9947
  30   2.0000      -5.804149      -157.9389
  31   2.0000      -5.763341      -156.8285
  32   2.0000      -5.763042      -156.8204
  33   2.0000      -5.756135      -156.6324
  34   2.0000      -5.755964      -156.6277
  35   2.0000      -5.755530      -156.6159
  36   2.0000      -5.755366      -156.6115
  37   2.0000      -4.738510      -128.9414
  38   2.0000      -4.738246      -128.9342
  39   2.0000      -4.737926      -128.9255
  40   2.0000      -4.737221      -128.9063
  41   2.0000      -4.736745      -128.8934
  42   2.0000      -4.735841      -128.8688
  43   2.0000      -1.052333       -28.6354
  44   2.0000      -1.051309       -28.6076
  45   2.0000      -1.012140       -27.5417
  46   2.0000      -1.011015       -27.5111
  47   2.0000      -0.801418       -21.8077
  48   2.0000      -0.761414       -20.7191
  49   2.0000      -0.751860       -20.4591
  50   2.0000      -0.735999       -20.0276
  51   2.0000      -0.735599       -20.0167
  52   2.0000      -0.711123       -19.3506
  53   2.0000      -0.684841       -18.6355
  54   2.0000      -0.668357       -18.1869
  55   2.0000      -0.631010       -17.1706
  56   2.0000      -0.623552       -16.9677
  57   2.0000      -0.607794       -16.5389
  58   2.0000      -0.604331       -16.4447
  59   2.0000      -0.589371       -16.0376
  60   2.0000      -0.536696       -14.6042
  61   2.0000      -0.523943       -14.2572
  62   2.0000      -0.502206       -13.6657
  63   2.0000      -0.494971       -13.4688
  64   2.0000      -0.475711       -12.9448
  65   2.0000      -0.466947       -12.7063
  66   2.0000      -0.460553       -12.5323
  67   2.0000      -0.454727       -12.3738
  68   2.0000      -0.445602       -12.1254
  69   2.0000      -0.440185       -11.9781
  70   2.0000      -0.423514       -11.5244
  71   2.0000      -0.412687       -11.2298
  72   2.0000      -0.409941       -11.1551
  73   2.0000      -0.398080       -10.8323
  74   2.0000      -0.395421       -10.7600
  75   2.0000      -0.392576       -10.6825
  76   2.0000      -0.382287       -10.4026
  77   2.0000      -0.376192       -10.2367
  78   2.0000      -0.374057       -10.1786
  79   2.0000      -0.371133       -10.0991
  80   2.0000      -0.367266        -9.9938
  81   2.0000      -0.361224        -9.8294
  82   2.0000      -0.358461        -9.7542
  83   2.0000      -0.357479        -9.7275
  84   2.0000      -0.350398        -9.5348
  85   2.0000      -0.333930        -9.0867
  86   2.0000      -0.326470        -8.8837
  87   2.0000      -0.315523        -8.5858
  88   2.0000      -0.312718        -8.5095
  89   2.0000      -0.308966        -8.4074
  90   2.0000      -0.306749        -8.3471
  91   2.0000      -0.295587        -8.0433
  92   2.0000      -0.283718        -7.7204
  93   2.0000      -0.279256        -7.5990
  94   2.0000      -0.273296        -7.4368
  95   2.0000      -0.246679        -6.7125
  96   2.0000      -0.231547        -6.3007
  97   2.0000      -0.226055        -6.1513
  98   2.0000      -0.217988        -5.9318
  99   2.0000      -0.215435        -5.8623
 100   2.0000      -0.213398        -5.8069
 101   0.0000      -0.045370        -1.2346
 102   0.0000      -0.024333        -0.6621
 103   0.0000      -0.001871        -0.0509
 104   0.0000       0.000543         0.0148
 105   0.0000       0.014082         0.3832

MULLIKEN ATOMIC CHARGES
-----------------------
   0 C :   -0.478513
   1 C :   -0.118488
   2 O :   -0.255932
   3 P :    0.693930
   4 S :   -0.502482
   5 O :   -0.298782
   6 C :   -0.141600
   7 C :   -0.446215
   8 S :   -0.115982
   9 C :   -0.242473
  10 S :   -0.159555
  11 P :    0.642338
  12 S :   -0.442291
  13 O :   -0.261871
  14 C :   -0.097958
  15 C :   -0.480285
  16 O :   -0.291761
  17 C :   -0.166671
  18 C :   -0.443744
  19 H :    0.148721
  20 H :    0.175072
  21 H :    0.148181
  22 H :    0.171137
  23 H :    0.150650
  24 H :    0.170289
  25 H :    0.151373
  26 H :    0.147480
  27 H :    0.153960
  28 H :    0.156402
  29 H :    0.215116
  30 H :    0.217853
  31 H :    0.157519
  32 H :    0.170901
  33 H :    0.164605
  34 H :    0.144107
  35 H :    0.159656
  36 H :    0.147800
  37 H :    0.174926
  38 H :    0.152871
  39 H :    0.148425
  40 H :    0.181291
Sum of atomic charges:    0.0000000

LOEWDIN ATOMIC CHARGES
----------------------
   0 C :   -0.395720
   1 C :    0.023379
   2 O :   -0.667073
   3 P :    0.369642
   4 S :   -0.148520
   5 O :   -0.662124
   6 C :    0.021733
   7 C :   -0.386522
   8 S :    0.186373
   9 C :   -0.424380
  10 S :    0.137087
  11 P :    0.381684
  12 S :   -0.101461
  13 O :   -0.652749
  14 C :    0.016406
  15 C :   -0.392324
  16 O :   -0.671054
  17 C :    0.022675
  18 C :   -0.408678
  19 H :    0.155081
  20 H :    0.166147
  21 H :    0.160072
  22 H :    0.183667
  23 H :    0.172435
  24 H :    0.181531
  25 H :    0.172259
  26 H :    0.160322
  27 H :    0.159621
  28 H :    0.160319
  29 H :    0.193323
  30 H :    0.192353
  31 H :    0.177148
  32 H :    0.185511
  33 H :    0.164491
  34 H :    0.157783
  35 H :    0.162784
  36 H :    0.179180
  37 H :    0.180817
  38 H :    0.159798
  39 H :    0.159740
  40 H :    0.167244

  Mayer bond orders larger than 0.100000
B(  0-C ,  1-C ) :   0.9498 B(  0-C , 19-H ) :   0.9725 B(  0-C , 20-H ) :   0.9697
B(  0-C , 21-H ) :   0.9629 B(  1-C ,  2-O ) :   0.7625 B(  1-C , 22-H ) :   0.9543
B(  1-C , 23-H ) :   0.9498 B(  2-O ,  3-P ) :   1.1632 B(  3-P ,  4-S ) :   1.7271
B(  3-P ,  5-O ) :   1.0863 B(  3-P ,  8-S ) :   1.0984 B(  5-O ,  6-C ) :   0.7725
B(  6-C ,  7-C ) :   0.9583 B(  6-C , 24-H ) :   0.9526 B(  6-C , 25-H ) :   0.9463
B(  7-C , 26-H ) :   0.9647 B(  7-C , 27-H ) :   0.9718 B(  7-C , 28-H ) :   0.9720
B(  8-S ,  9-C ) :   0.9162 B(  9-C , 10-S ) :   0.9132 B(  9-C , 29-H ) :   0.9011
B(  9-C , 30-H ) :   0.9061 B( 10-S , 11-P ) :   1.0135 B( 11-P , 12-S ) :   1.8416
B( 11-P , 13-O ) :   1.1401 B( 11-P , 16-O ) :   1.0339 B( 13-O , 14-C ) :   0.7352
B( 14-C , 15-C ) :   0.9323 B( 14-C , 31-H ) :   0.9638 B( 14-C , 32-H ) :   0.9544
B( 15-C , 33-H ) :   0.9708 B( 15-C , 34-H ) :   0.9661 B( 15-C , 35-H ) :   0.9731
B( 16-O , 17-C ) :   0.8184 B( 17-C , 18-C ) :   0.9174 B( 17-C , 36-H ) :   0.9614
B( 17-C , 37-H ) :   0.9684 B( 18-C , 38-H ) :   0.9671 B( 18-C , 39-H ) :   0.9560
B( 18-C , 40-H ) :   0.9627

Dispersion correction           -0.021121139
FINAL SINGLE POINT ENERGY     -2932.463564500216

DIPOLE MOMENT
-------------

Method             : SCF
Type of density    : Electron Density
Multiplicity       :   1
Irrep              :   0
Energy             : -2932.4889520963856739 Eh
Relativity type    :
Basis              : AO
                                X                 Y                 Z
Electronic contribution:     -0.403152688      -0.811057771     -17.418751409
Nuclear contribution   :      0.470516318       0.896920607      19.069267130
                        -----------------------------------------
Total Dipole Moment    :      0.067363630       0.085862836       1.650515720
                        -----------------------------------------
Magnitude (a.u.)       :      1.654119835
Magnitude (Debye)      :      4.204438488

Rotational constants in cm-1:             0.012798             0.004610             0.004403
Rotational constants in MHz :           383.679287           138.200371           132.010086

                             ****ORCA TERMINATED NORMALLY****
TOTAL RUN TIME: 0 days 0 hours 1 minutes 19 seconds 56 msec
