                         Program Version 6.0.0  -   RELEASE  -
|  1> ! r2scan-3c def2/J RI DEFGRID2 scfconv6 printgap
|  2> %output
|  3>     printlevel normal
|  4> end
|  5> %cpcm
|  6>     smd true
|  7>     smdsolvent "water"
|  8> end
|  9> * xyz 0 1
| 10> C 0.7636599019 -1.0334592013 3.4180295103
| 11> C 2.0084398053 -0.6180105604 2.6615358238
| 12> O 1.6162852599 0.0667679208 1.4442380159
| 13> P 2.3553956795 -0.1920716994 0.0723000857
| 14> S 2.9641110365 -2.0304084314 -0.2562093549
| 15> O 3.5194185448 0.8882711675 0.1276318938
| 16> C 4.5929502983 0.917077608 -0.8348788378
| 17> C 5.8124265288 1.5149829728 -0.1622020378
| 18> S 0.9887451439 0.6019240773 -1.3225322422
| 19> C 0.0159084119 -0.9180710591 -1.5257167786
| 20> S -1.0656437347 -1.2499911048 -0.1208005588
| 21> P -2.3958232344 0.3845217105 -0.4899797255
| 22> S -2.7718620363 0.7710237275 -2.3676201011
| 23> O -1.742192882 1.6164541746 0.2450502664
| 24> C -1.4545956394 1.6283339235 1.6647242936
| 25> C -2.5101674754 2.4178895385 2.4104985221
| 26> O -3.6524226986 0.060462976 0.4269002914
| 27> C -4.7614540551 -0.7366297415 -0.0298185592
| 28> C -4.3654188981 -2.1701020513 -0.3165912817
| 29> H 0.1889129324 -0.1590372057 3.7082187238
| 30> H 0.1472383914 -1.6774525169 2.7951136619
| 31> H 1.0602973869 -1.5784311413 4.3084789889
| 32> H 2.6128940306 -1.4906486547 2.3921880787
| 33> H 2.6170800638 0.0808615403 3.2381436307
| 34> H 4.7864598153 -0.1060081616 -1.1750036918
| 35> H 4.2661705603 1.522539114 -1.6839213387
| 36> H 6.621145077 1.5765864172 -0.8829619904
| 37> H 5.5814856025 2.5101132133 0.2066094547
| 38> H 6.1227127552 0.8919882966 0.6720216097
| 39> H 0.6911233847 -1.7689429932 -1.62179843
| 40> H -0.5884818512 -0.7819732232 -2.4228837439
| 41> H -1.4043634815 0.5965153653 2.0224303653
| 42> H -0.4692667505 2.0930508392 1.7451178479
| 43> H -3.4771025871 1.9304595664 2.3184678864
| 44> H -2.2362810938 2.4783843995 3.4591844589
| 45> H -2.5824863847 3.42118372 1.9997872651
| 46> H -5.4795244678 -0.6740081916 0.7890381156
| 47> H -5.175472447 -0.2658132419 -0.9264261553
| 48> H -3.8491712391 -2.600740409 0.5377360185
| 49> H -5.2569466647 -2.7509599692 -0.5301212987
| 50> H -3.7057547643 -2.2087520659 -1.1821405184
| 51> *
| 52>
| 53>                          ****END OF INPUT****

CARTESIAN COORDINATES (ANGSTROEM)
---------------------------------
  C      0.763660   -1.033459    3.418030
  C      2.008440   -0.618011    2.661536
  O      1.616285    0.066768    1.444238
  P      2.355396   -0.192072    0.072300
  S      2.964111   -2.030408   -0.256209
  O      3.519419    0.888271    0.127632
  C      4.592950    0.917078   -0.834879
  C      5.812427    1.514983   -0.162202
  S      0.988745    0.601924   -1.322532
  C      0.015908   -0.918071   -1.525717
  S     -1.065644   -1.249991   -0.120801
  P     -2.395823    0.384522   -0.489980
  S     -2.771862    0.771024   -2.367620
  O     -1.742193    1.616454    0.245050
  C     -1.454596    1.628334    1.664724
  C     -2.510167    2.417890    2.410499
  O     -3.652423    0.060463    0.426900
  C     -4.761454   -0.736630   -0.029819
  C     -4.365419   -2.170102   -0.316591
  H      0.188913   -0.159037    3.708219
  H      0.147238   -1.677453    2.795114
  H      1.060297   -1.578431    4.308479
  H      2.612894   -1.490649    2.392188
  H      2.617080    0.080862    3.238144
  H      4.786460   -0.106008   -1.175004
  H      4.266171    1.522539   -1.683921
  H      6.621145    1.576586   -0.882962
  H      5.581486    2.510113    0.206609
  H      6.122713    0.891988    0.672022
  H      0.691123   -1.768943   -1.621798
  H     -0.588482   -0.781973   -2.422884
  H     -1.404363    0.596515    2.022430
  H     -0.469267    2.093051    1.745118
  H     -3.477103    1.930460    2.318468
  H     -2.236281    2.478384    3.459184
  H     -2.582486    3.421184    1.999787
  H     -5.479524   -0.674008    0.789038
  H     -5.175472   -0.265813   -0.926426
  H     -3.849171   -2.600740    0.537736
  H     -5.256947   -2.750960   -0.530121
  H     -3.705755   -2.208752   -1.182141

 Total Charge           Charge          ....    0
 Multiplicity           Mult            ....    1
 Number of Electrons    NEL             ....  202
 Basis Dimension        Dim             ....  539

ORBITAL ENERGIES
----------------

  NO   OCC          E(Eh)            E(eV)
   0   2.0000     -88.581202     -2410.4170
   1   2.0000     -88.576408     -2410.2866
   2   2.0000     -88.531346     -2409.0604
   3   2.0000     -88.528351     -2408.9789
   4   2.0000     -76.920540     -2093.1143
   5   2.0000     -76.919534     -2093.0869
   6   2.0000     -18.997387      -516.9452
   7   2.0000     -18.995986      -516.9070
   8   2.0000     -18.994383      -516.8634
   9   2.0000     -18.993677      -516.8442
  10   2.0000     -10.103561      -274.9319
  11   2.0000     -10.091360      -274.5999
  12   2.0000     -10.091311      -274.5985
  13   2.0000     -10.089803      -274.5575
  14   2.0000     -10.089375      -274.5458
  15   2.0000     -10.019476      -272.6438
  16   2.0000     -10.018816      -272.6258
  17   2.0000     -10.018603      -272.6200
  18   2.0000     -10.018410      -272.6148
  19   2.0000      -7.875422      -214.3011
  20   2.0000      -7.870822      -214.1759
  21   2.0000      -7.826483      -212.9694
  22   2.0000      -7.823535      -212.8892
  23   2.0000      -6.599099      -179.5706
  24   2.0000      -6.598251      -179.5475
  25   2.0000      -5.822282      -158.4323
  26   2.0000      -5.819265      -158.3502
  27   2.0000      -5.817645      -158.3062
  28   2.0000      -5.814753      -158.2275
  29   2.0000      -5.812612      -158.1692
  30   2.0000      -5.807898      -158.0409
  31   2.0000      -5.774070      -157.1204
  32   2.0000      -5.770976      -157.0362
  33   2.0000      -5.766653      -156.9186
  34   2.0000      -5.766583      -156.9167
  35   2.0000      -5.763819      -156.8415
  36   2.0000      -5.763649      -156.8369
  37   2.0000      -4.744906      -129.1155
  38   2.0000      -4.743916      -129.0885
  39   2.0000      -4.743661      -129.0816
  40   2.0000      -4.743154      -129.0678
  41   2.0000      -4.742707      -129.0556
  42   2.0000      -4.742075      -129.0384
  43   2.0000      -1.054804       -28.7027
  44   2.0000      -1.052654       -28.6442
  45   2.0000      -1.013383       -27.5756
  46   2.0000      -1.012594       -27.5541
  47   2.0000      -0.805177       -21.9100
  48   2.0000      -0.757518       -20.6131
  49   2.0000      -0.745855       -20.2957
  50   2.0000      -0.726586       -19.7714
  51   2.0000      -0.724155       -19.7053
  52   2.0000      -0.710522       -19.3343
  53   2.0000      -0.688888       -18.7456
  54   2.0000      -0.675211       -18.3734
  55   2.0000      -0.628689       -17.1075
  56   2.0000      -0.617681       -16.8080
  57   2.0000      -0.602221       -16.3873
  58   2.0000      -0.595899       -16.2152
  59   2.0000      -0.587051       -15.9745
  60   2.0000      -0.532667       -14.4946
  61   2.0000      -0.520422       -14.1614
  62   2.0000      -0.497914       -13.5489
  63   2.0000      -0.491106       -13.3637
  64   2.0000      -0.477281       -12.9875
  65   2.0000      -0.463100       -12.6016
  66   2.0000      -0.455180       -12.3861
  67   2.0000      -0.446680       -12.1548
  68   2.0000      -0.440739       -11.9931
  69   2.0000      -0.435642       -11.8544
  70   2.0000      -0.422114       -11.4863
  71   2.0000      -0.409155       -11.1337
  72   2.0000      -0.406481       -11.0609
  73   2.0000      -0.395860       -10.7719
  74   2.0000      -0.393112       -10.6971
  75   2.0000      -0.388146       -10.5620
  76   2.0000      -0.379420       -10.3245
  77   2.0000      -0.369607       -10.0575
  78   2.0000      -0.363916        -9.9027
  79   2.0000      -0.363096        -9.8803
  80   2.0000      -0.356994        -9.7143
  81   2.0000      -0.353065        -9.6074
  82   2.0000      -0.349504        -9.5105
  83   2.0000      -0.347562        -9.4576
  84   2.0000      -0.344860        -9.3841
  85   2.0000      -0.331028        -9.0077
  86   2.0000      -0.322375        -8.7723
  87   2.0000      -0.311814        -8.4849
  88   2.0000      -0.308185        -8.3861
  89   2.0000      -0.304814        -8.2944
  90   2.0000      -0.304242        -8.2788
  91   2.0000      -0.292195        -7.9510
  92   2.0000      -0.282203        -7.6791
  93   2.0000      -0.278915        -7.5897
  94   2.0000      -0.275433        -7.4949
  95   2.0000      -0.252109        -6.8602
  96   2.0000      -0.239717        -6.5230
  97   2.0000      -0.235942        -6.4203
  98   2.0000      -0.227287        -6.1848
  99   2.0000      -0.225030        -6.1234
 100   2.0000      -0.220766        -6.0074
 101   0.0000      -0.051755        -1.4083
 102   0.0000      -0.031685        -0.8622
 103   0.0000      -0.005794        -0.1577
 104   0.0000      -0.005183        -0.1410
 105   0.0000       0.013091         0.3562

MULLIKEN ATOMIC CHARGES
-----------------------
   0 C :   -0.507390
   1 C :   -0.113466
   2 O :   -0.278678
   3 P :    0.720496
   4 S :   -0.544456
   5 O :   -0.322728
   6 C :   -0.136451
   7 C :   -0.485637
   8 S :   -0.142736
   9 C :   -0.249545
  10 S :   -0.153495
  11 P :    0.658487
  12 S :   -0.497951
  13 O :   -0.292588
  14 C :   -0.088905
  15 C :   -0.526652
  16 O :   -0.307815
  17 C :   -0.159344
  18 C :   -0.481768
  19 H :    0.171233
  20 H :    0.171247
  21 H :    0.169621
  22 H :    0.169756
  23 H :    0.174597
  24 H :    0.170719
  25 H :    0.172353
  26 H :    0.169755
  27 H :    0.166022
  28 H :    0.166345
  29 H :    0.232694
  30 H :    0.233624
  31 H :    0.176445
  32 H :    0.183100
  33 H :    0.170048
  34 H :    0.171630
  35 H :    0.168433
  36 H :    0.176626
  37 H :    0.179980
  38 H :    0.168756
  39 H :    0.173075
  40 H :    0.174563
Sum of atomic charges:    0.0000000

LOEWDIN ATOMIC CHARGES
----------------------
   0 C :   -0.397432
   1 C :    0.029677
   2 O :   -0.676716
   3 P :    0.373822
   4 S :   -0.176043
   5 O :   -0.673652
   6 C :    0.025786
   7 C :   -0.390240
   8 S :    0.168647
   9 C :   -0.420392
  10 S :    0.145029
  11 P :    0.384248
  12 S :   -0.143228
  13 O :   -0.676479
  14 C :    0.021939
  15 C :   -0.394168
  16 O :   -0.673695
  17 C :    0.028955
  18 C :   -0.411321
  19 H :    0.163177
  20 H :    0.163878
  21 H :    0.168070
  22 H :    0.183415
  23 H :    0.182882
  24 H :    0.181962
  25 H :    0.180512
  26 H :    0.168943
  27 H :    0.163116
  28 H :    0.162474
  29 H :    0.198193
  30 H :    0.196814
  31 H :    0.184634
  32 H :    0.190617
  33 H :    0.164871
  34 H :    0.169088
  35 H :    0.164334
  36 H :    0.191675
  37 H :    0.182010
  38 H :    0.163845
  39 H :    0.168728
  40 H :    0.162025

  Mayer bond orders larger than 0.100000
B(  0-C ,  1-C ) :   0.9486 B(  0-C , 19-H ) :   0.9665 B(  0-C , 20-H ) :   0.9684
B(  0-C , 21-H ) :   0.9580 B(  1-C ,  2-O ) :   0.7516 B(  1-C , 22-H ) :   0.9530
B(  1-C , 23-H ) :   0.9397 B(  2-O ,  3-P ) :   1.1754 B(  3-P ,  4-S ) :   1.6965
B(  3-P ,  5-O ) :   1.0938 B(  3-P ,  8-S ) :   1.1050 B(  5-O ,  6-C ) :   0.7638
B(  6-C ,  7-C ) :   0.9544 B(  6-C , 24-H ) :   0.9499 B(  6-C , 25-H ) :   0.9378
B(  7-C , 26-H ) :   0.9590 B(  7-C , 27-H ) :   0.9688 B(  7-C , 28-H ) :   0.9691
B(  8-S ,  9-C ) :   0.9031 B(  9-C , 10-S ) :   0.9041 B(  9-C , 29-H ) :   0.8986
B(  9-C , 30-H ) :   0.9017 B( 10-S , 11-P ) :   1.0225 B( 11-P , 12-S ) :   1.8167
B( 11-P , 13-O ) :   1.1455 B( 11-P , 16-O ) :   1.0489 B( 13-O , 14-C ) :   0.7197
B( 14-C , 15-C ) :   0.9312 B( 14-C , 31-H ) :   0.9520 B( 14-C , 32-H ) :   0.9459
B( 15-C , 33-H ) :   0.9696 B( 15-C , 34-H ) :   0.9587 B( 15-C , 35-H ) :   0.9719
B( 16-O , 17-C ) :   0.8058 B( 17-C , 18-C ) :   0.9047 B( 17-C , 36-H ) :   0.9504
B( 17-C , 37-H ) :   0.9674 B( 18-C , 38-H ) :   0.9642 B( 18-C , 39-H ) :   0.9509
B( 18-C , 40-H ) :   0.9649

Dispersion correction           -0.021121139
FINAL SINGLE POINT ENERGY     -2932.473050832468

DIPOLE MOMENT
-------------

Method             : SCF
Type of density    : Electron Density
Multiplicity       :   1
Irrep              :   0
Energy             : -2932.4984384286376553 Eh
Relativity type    :
Basis              : AO
                                X                 Y                 Z
Electronic contribution:     -0.407338641      -0.991570217     -16.760277377
Nuclear contribution   :      0.470516318       0.896920607      19.069267130
                        -----------------------------------------
Total Dipole Moment    :      0.063177678      -0.094649610       2.308989753
                        -----------------------------------------
Magnitude (a.u.)       :      2.311792301
Magnitude (Debye)      :      5.876109048

Rotational constants in cm-1:             0.012798             0.004610             0.004403
Rotational constants in MHz :           383.679287           138.200371           132.010086

                             ****ORCA TERMINATED NORMALLY****
TOTAL RUN TIME: 0 days 0 hours 1 minutes 47 seconds 705 msec
