                         Program Version 6.0.0  -   RELEASE  -
|  1> ! r2scan-3c def2/J RI DEFGRID2 scfconv6 printgap
|  2> %output
|  3>     printlevel normal
|  4> end
|  5> * xyz 0 1
|  6> C 5.3842102719 -0.2649595109 -0.9717215334
|  7> C 4.0317953617 0.2961036511 -1.3582510643
|  8> O 3.2848197853 0.6933971803 -0.1775867781
|  9> P 2.2417696405 -0.2363331961 0.5454756059
| 10> S 1.6205558965 0.5242578425 2.2375697913
| 11> O 2.9909162811 -1.6293457993 0.6726192442
| 12> C 2.3729952204 -2.7429764778 1.350974323
| 13> C 3.4605558634 -3.7394152372 1.6973704066
| 14> S 0.7663929445 -0.6903860239 -0.9375487866
| 15> C 0.1848395682 0.9958451052 -1.2616366542
| 16> S -0.8540236992 1.696922713 0.0528348685
| 17> P -2.6248269554 0.5546167771 -0.2859587827
| 18> S -2.7206348495 -0.3832738782 -2.0090316041
| 19> O -3.8198344384 1.5535617707 -0.0149690495
| 20> C -4.4342888721 2.3044006165 -1.0763854868
| 21> C -3.5281404595 3.4056240565 -1.5904794956
| 22> O -2.8415751391 -0.278826096 1.0435970129
| 23> C -1.8994614375 -1.1912942146 1.6271608371
| 24> C -1.854299215 -2.5143251151 0.8871109502
| 25> H 5.9310586222 0.4594274696 -0.3743683884
| 26> H 5.2628539456 -1.1762092401 -0.392812021
| 27> H 5.9474408386 -0.4843895832 -1.8734566318
| 28> H 3.4456006204 -0.4352150038 -1.9208672605
| 29> H 4.1351670306 1.2164106592 -1.9360453322
| 30> H 1.8707865657 -2.3679291249 2.2489537351
| 31> H 1.6303994629 -3.1785356681 0.6770656859
| 32> H 4.1935623888 -3.2787660048 2.3536178069
| 33> H 3.0150474843 -4.5905678756 2.2014900572
| 34> H 3.9577494849 -4.0782225821 0.7932205689
| 35> H -0.3935274368 0.9281887921 -2.1831291434
| 36> H 1.0339019103 1.6665782174 -1.367114647
| 37> H -4.7001678424 1.6148061134 -1.8844924139
| 38> H -5.3397999664 2.7079720971 -0.6214441436
| 39> H -2.6673725042 2.9722943673 -2.0978655784
| 40> H -4.0769166491 4.0241241079 -2.2933736862
| 41> H -3.1768623381 4.0200484532 -0.7652236582
| 42> H -0.9107208342 -0.7190766659 1.6648993358
| 43> H -2.2628270233 -1.3217278087 2.6484116532
| 44> H -1.2112145699 -3.2024641115 1.4268139898
| 45> H -2.85453886 -2.9338884386 0.8189646893
| 46> H -1.4655291972 -2.3780447259 -0.1204898801
| 47> *
| 48>
| 49>                          ****END OF INPUT****

CARTESIAN COORDINATES (ANGSTROEM)
---------------------------------
  C      5.384210   -0.264960   -0.971722
  C      4.031795    0.296104   -1.358251
  O      3.284820    0.693397   -0.177587
  P      2.241770   -0.236333    0.545476
  S      1.620556    0.524258    2.237570
  O      2.990916   -1.629346    0.672619
  C      2.372995   -2.742976    1.350974
  C      3.460556   -3.739415    1.697370
  S      0.766393   -0.690386   -0.937549
  C      0.184840    0.995845   -1.261637
  S     -0.854024    1.696923    0.052835
  P     -2.624827    0.554617   -0.285959
  S     -2.720635   -0.383274   -2.009032
  O     -3.819834    1.553562   -0.014969
  C     -4.434289    2.304401   -1.076385
  C     -3.528140    3.405624   -1.590479
  O     -2.841575   -0.278826    1.043597
  C     -1.899461   -1.191294    1.627161
  C     -1.854299   -2.514325    0.887111
  H      5.931059    0.459427   -0.374368
  H      5.262854   -1.176209   -0.392812
  H      5.947441   -0.484390   -1.873457
  H      3.445601   -0.435215   -1.920867
  H      4.135167    1.216411   -1.936045
  H      1.870787   -2.367929    2.248954
  H      1.630399   -3.178536    0.677066
  H      4.193562   -3.278766    2.353618
  H      3.015047   -4.590568    2.201490
  H      3.957749   -4.078223    0.793221
  H     -0.393527    0.928189   -2.183129
  H      1.033902    1.666578   -1.367115
  H     -4.700168    1.614806   -1.884492
  H     -5.339800    2.707972   -0.621444
  H     -2.667373    2.972294   -2.097866
  H     -4.076917    4.024124   -2.293374
  H     -3.176862    4.020048   -0.765224
  H     -0.910721   -0.719077    1.664899
  H     -2.262827   -1.321728    2.648412
  H     -1.211215   -3.202464    1.426814
  H     -2.854539   -2.933888    0.818965
  H     -1.465529   -2.378045   -0.120490

 Total Charge           Charge          ....    0
 Multiplicity           Mult            ....    1
 Number of Electrons    NEL             ....  202
 Basis Dimension        Dim             ....  539

ORBITAL ENERGIES
----------------

  NO   OCC          E(Eh)            E(eV)
   0   2.0000     -88.577368     -2410.3127
   1   2.0000     -88.572836     -2410.1894
   2   2.0000     -88.520173     -2408.7564
   3   2.0000     -88.520031     -2408.7525
   4   2.0000     -76.917739     -2093.0381
   5   2.0000     -76.910758     -2092.8481
   6   2.0000     -19.001103      -517.0463
   7   2.0000     -19.000646      -517.0339
   8   2.0000     -18.986409      -516.6465
   9   2.0000     -18.984082      -516.5831
  10   2.0000     -10.110576      -275.1228
  11   2.0000     -10.109531      -275.0943
  12   2.0000     -10.108159      -275.0570
  13   2.0000     -10.093920      -274.6695
  14   2.0000     -10.088362      -274.5183
  15   2.0000     -10.040660      -273.2202
  16   2.0000     -10.036806      -273.1154
  17   2.0000     -10.025599      -272.8104
  18   2.0000     -10.019060      -272.6325
  19   2.0000      -7.871545      -214.1956
  20   2.0000      -7.866821      -214.0671
  21   2.0000      -7.814930      -212.6550
  22   2.0000      -7.814817      -212.6520
  23   2.0000      -6.596256      -179.4933
  24   2.0000      -6.589189      -179.3010
  25   2.0000      -5.818276      -158.3233
  26   2.0000      -5.815332      -158.2432
  27   2.0000      -5.813793      -158.2014
  28   2.0000      -5.810625      -158.1152
  29   2.0000      -5.808887      -158.0679
  30   2.0000      -5.803936      -157.9331
  31   2.0000      -5.762630      -156.8091
  32   2.0000      -5.762504      -156.8057
  33   2.0000      -5.755167      -156.6061
  34   2.0000      -5.755113      -156.6046
  35   2.0000      -5.755028      -156.6023
  36   2.0000      -5.754669      -156.5925
  37   2.0000      -4.742309      -129.0448
  38   2.0000      -4.741348      -129.0186
  39   2.0000      -4.739290      -128.9626
  40   2.0000      -4.734517      -128.8328
  41   2.0000      -4.734355      -128.8283
  42   2.0000      -4.732879      -128.7882
  43   2.0000      -1.059733       -28.8368
  44   2.0000      -1.047472       -28.5032
  45   2.0000      -1.020177       -27.7604
  46   2.0000      -1.004285       -27.3280
  47   2.0000      -0.800338       -21.7783
  48   2.0000      -0.763682       -20.7808
  49   2.0000      -0.749630       -20.3985
  50   2.0000      -0.744615       -20.2620
  51   2.0000      -0.722110       -19.6496
  52   2.0000      -0.709049       -19.2942
  53   2.0000      -0.686755       -18.6876
  54   2.0000      -0.671430       -18.2705
  55   2.0000      -0.627623       -17.0785
  56   2.0000      -0.625650       -17.0248
  57   2.0000      -0.611760       -16.6468
  58   2.0000      -0.599699       -16.3186
  59   2.0000      -0.594641       -16.1810
  60   2.0000      -0.541660       -14.7393
  61   2.0000      -0.516038       -14.0421
  62   2.0000      -0.509619       -13.8674
  63   2.0000      -0.483922       -13.1682
  64   2.0000      -0.476225       -12.9587
  65   2.0000      -0.471260       -12.8236
  66   2.0000      -0.461497       -12.5580
  67   2.0000      -0.454623       -12.3709
  68   2.0000      -0.439471       -11.9586
  69   2.0000      -0.432919       -11.7803
  70   2.0000      -0.426023       -11.5927
  71   2.0000      -0.420432       -11.4405
  72   2.0000      -0.415687       -11.3114
  73   2.0000      -0.403038       -10.9672
  74   2.0000      -0.394699       -10.7403
  75   2.0000      -0.389980       -10.6119
  76   2.0000      -0.383423       -10.4335
  77   2.0000      -0.379150       -10.3172
  78   2.0000      -0.376250       -10.2383
  79   2.0000      -0.371508       -10.1093
  80   2.0000      -0.366744        -9.9796
  81   2.0000      -0.359286        -9.7767
  82   2.0000      -0.354750        -9.6532
  83   2.0000      -0.351637        -9.5685
  84   2.0000      -0.344437        -9.3726
  85   2.0000      -0.337885        -9.1943
  86   2.0000      -0.323921        -8.8143
  87   2.0000      -0.323475        -8.8022
  88   2.0000      -0.316367        -8.6088
  89   2.0000      -0.307991        -8.3809
  90   2.0000      -0.299148        -8.1402
  91   2.0000      -0.295380        -8.0377
  92   2.0000      -0.281658        -7.6643
  93   2.0000      -0.279450        -7.6042
  94   2.0000      -0.271081        -7.3765
  95   2.0000      -0.257778        -7.0145
  96   2.0000      -0.228469        -6.2169
  97   2.0000      -0.222627        -6.0580
  98   2.0000      -0.218257        -5.9391
  99   2.0000      -0.215507        -5.8642
 100   2.0000      -0.204573        -5.5667
 101   0.0000      -0.047195        -1.2842
 102   0.0000      -0.030240        -0.8229
 103   0.0000      -0.009907        -0.2696
 104   0.0000      -0.000182        -0.0050
 105   0.0000       0.008253         0.2246

MULLIKEN ATOMIC CHARGES
-----------------------
   0 C :   -0.462271
   1 C :   -0.107904
   2 O :   -0.300466
   3 P :    0.648416
   4 S :   -0.401506
   5 O :   -0.277280
   6 C :   -0.142869
   7 C :   -0.448801
   8 S :   -0.191170
   9 C :   -0.240390
  10 S :   -0.101742
  11 P :    0.683550
  12 S :   -0.470187
  13 O :   -0.308707
  14 C :   -0.152638
  15 C :   -0.436511
  16 O :   -0.278762
  17 C :   -0.158132
  18 C :   -0.433578
  19 H :    0.159108
  20 H :    0.167772
  21 H :    0.148043
  22 H :    0.168172
  23 H :    0.151588
  24 H :    0.173130
  25 H :    0.150946
  26 H :    0.162431
  27 H :    0.148388
  28 H :    0.152570
  29 H :    0.214559
  30 H :    0.194965
  31 H :    0.173477
  32 H :    0.149571
  33 H :    0.163545
  34 H :    0.146283
  35 H :    0.157079
  36 H :    0.182744
  37 H :    0.149923
  38 H :    0.137642
  39 H :    0.152383
  40 H :    0.176629
Sum of atomic charges:   -0.0000000

LOEWDIN ATOMIC CHARGES
----------------------
   0 C :   -0.391560
   1 C :    0.023359
   2 O :   -0.655096
   3 P :    0.371386
   4 S :   -0.091127
   5 O :   -0.678113
   6 C :    0.018722
   7 C :   -0.384800
   8 S :    0.120112
   9 C :   -0.422217
  10 S :    0.154498
  11 P :    0.391617
  12 S :   -0.129016
  13 O :   -0.651244
  14 C :    0.020572
  15 C :   -0.405519
  16 O :   -0.645035
  17 C :    0.017726
  18 C :   -0.413406
  19 H :    0.162234
  20 H :    0.167476
  21 H :    0.159747
  22 H :    0.178153
  23 H :    0.179399
  24 H :    0.181638
  25 H :    0.171773
  26 H :    0.163190
  27 H :    0.161359
  28 H :    0.159317
  29 H :    0.193720
  30 H :    0.183183
  31 H :    0.179706
  32 H :    0.180081
  33 H :    0.160914
  34 H :    0.158110
  35 H :    0.161615
  36 H :    0.184748
  37 H :    0.180416
  38 H :    0.155151
  39 H :    0.160561
  40 H :    0.166650

  Mayer bond orders larger than 0.100000
B(  0-C ,  1-C ) :   0.9482 B(  0-C , 19-H ) :   0.9706 B(  0-C , 20-H ) :   0.9663
B(  0-C , 21-H ) :   0.9647 B(  1-C ,  2-O ) :   0.7510 B(  1-C , 22-H ) :   0.9626
B(  1-C , 23-H ) :   0.9582 B(  2-O ,  3-P ) :   1.1447 B(  3-P ,  4-S ) :   1.8882
B(  3-P ,  5-O ) :   1.0414 B(  3-P ,  8-S ) :   0.9724 B(  5-O ,  6-C ) :   0.7816
B(  6-C ,  7-C ) :   0.9610 B(  6-C , 24-H ) :   0.9464 B(  6-C , 25-H ) :   0.9369
B(  7-C , 26-H ) :   0.9719 B(  7-C , 27-H ) :   0.9622 B(  7-C , 28-H ) :   0.9720
B(  8-S ,  9-C ) :   0.8908 B(  9-C , 10-S ) :   0.9163 B(  9-C , 29-H ) :   0.9115
B(  9-C , 30-H ) :   0.9200 B( 10-S , 11-P ) :   1.0660 B( 11-P , 12-S ) :   1.7243
B( 11-P , 13-O ) :   1.1204 B( 11-P , 16-O ) :   1.1430 B( 13-O , 14-C ) :   0.8173
B( 14-C , 15-C ) :   0.9214 B( 14-C , 31-H ) :   0.9690 B( 14-C , 32-H ) :   0.9592
B( 15-C , 33-H ) :   0.9676 B( 15-C , 34-H ) :   0.9613 B( 15-C , 35-H ) :   0.9672
B( 16-O , 17-C ) :   0.8064 B( 17-C , 18-C ) :   0.9118 B( 17-C , 36-H ) :   0.9567
B( 17-C , 37-H ) :   0.9658 B( 18-C , 38-H ) :   0.9674 B( 18-C , 39-H ) :   0.9657
B( 18-C , 40-H ) :   0.9582

Dispersion correction           -0.021498379
FINAL SINGLE POINT ENERGY     -2932.460243415011

DIPOLE MOMENT
-------------

Method             : SCF
Type of density    : Electron Density
Multiplicity       :   1
Irrep              :   0
Energy             : -2932.4850058122124210 Eh
Relativity type    :
Basis              : AO
                                X                 Y                 Z
Electronic contribution:     -9.939652411       9.695331595       2.343821579
Nuclear contribution   :     11.032402526     -10.196403051      -3.002250429
                        -----------------------------------------
Total Dipole Moment    :      1.092750115      -0.501071456      -0.658428849
                        -----------------------------------------
Magnitude (a.u.)       :      1.370658224
Magnitude (Debye)      :      3.483936334

Rotational constants in cm-1:             0.013428             0.004620             0.004176
Rotational constants in MHz :           402.546975           138.492256           125.205129

                             ****ORCA TERMINATED NORMALLY****
TOTAL RUN TIME: 0 days 0 hours 1 minutes 18 seconds 325 msec
