                         Program Version 6.0.0  -   RELEASE  -
|  1> ! r2scan-3c def2/J RI DEFGRID2 scfconv6 printgap
|  2> %output
|  3>     printlevel normal
|  4> end
|  5> %cpcm
|  6>     smd true
|  7>     smdsolvent "water"
|  8> end
|  9> * xyz 0 1
| 10> C 5.3842102719 -0.2649595109 -0.9717215334
| 11> C 4.0317953617 0.2961036511 -1.3582510643
| 12> O 3.2848197853 0.6933971803 -0.1775867781
| 13> P 2.2417696405 -0.2363331961 0.5454756059
| 14> S 1.6205558965 0.5242578425 2.2375697913
| 15> O 2.9909162811 -1.6293457993 0.6726192442
| 16> C 2.3729952204 -2.7429764778 1.350974323
| 17> C 3.4605558634 -3.7394152372 1.6973704066
| 18> S 0.7663929445 -0.6903860239 -0.9375487866
| 19> C 0.1848395682 0.9958451052 -1.2616366542
| 20> S -0.8540236992 1.696922713 0.0528348685
| 21> P -2.6248269554 0.5546167771 -0.2859587827
| 22> S -2.7206348495 -0.3832738782 -2.0090316041
| 23> O -3.8198344384 1.5535617707 -0.0149690495
| 24> C -4.4342888721 2.3044006165 -1.0763854868
| 25> C -3.5281404595 3.4056240565 -1.5904794956
| 26> O -2.8415751391 -0.278826096 1.0435970129
| 27> C -1.8994614375 -1.1912942146 1.6271608371
| 28> C -1.854299215 -2.5143251151 0.8871109502
| 29> H 5.9310586222 0.4594274696 -0.3743683884
| 30> H 5.2628539456 -1.1762092401 -0.392812021
| 31> H 5.9474408386 -0.4843895832 -1.8734566318
| 32> H 3.4456006204 -0.4352150038 -1.9208672605
| 33> H 4.1351670306 1.2164106592 -1.9360453322
| 34> H 1.8707865657 -2.3679291249 2.2489537351
| 35> H 1.6303994629 -3.1785356681 0.6770656859
| 36> H 4.1935623888 -3.2787660048 2.3536178069
| 37> H 3.0150474843 -4.5905678756 2.2014900572
| 38> H 3.9577494849 -4.0782225821 0.7932205689
| 39> H -0.3935274368 0.9281887921 -2.1831291434
| 40> H 1.0339019103 1.6665782174 -1.367114647
| 41> H -4.7001678424 1.6148061134 -1.8844924139
| 42> H -5.3397999664 2.7079720971 -0.6214441436
| 43> H -2.6673725042 2.9722943673 -2.0978655784
| 44> H -4.0769166491 4.0241241079 -2.2933736862
| 45> H -3.1768623381 4.0200484532 -0.7652236582
| 46> H -0.9107208342 -0.7190766659 1.6648993358
| 47> H -2.2628270233 -1.3217278087 2.6484116532
| 48> H -1.2112145699 -3.2024641115 1.4268139898
| 49> H -2.85453886 -2.9338884386 0.8189646893
| 50> H -1.4655291972 -2.3780447259 -0.1204898801
| 51> *
| 52>
| 53>                          ****END OF INPUT****

CARTESIAN COORDINATES (ANGSTROEM)
---------------------------------
  C      5.384210   -0.264960   -0.971722
  C      4.031795    0.296104   -1.358251
  O      3.284820    0.693397   -0.177587
  P      2.241770   -0.236333    0.545476
  S      1.620556    0.524258    2.237570
  O      2.990916   -1.629346    0.672619
  C      2.372995   -2.742976    1.350974
  C      3.460556   -3.739415    1.697370
  S      0.766393   -0.690386   -0.937549
  C      0.184840    0.995845   -1.261637
  S     -0.854024    1.696923    0.052835
  P     -2.624827    0.554617   -0.285959
  S     -2.720635   -0.383274   -2.009032
  O     -3.819834    1.553562   -0.014969
  C     -4.434289    2.304401   -1.076385
  C     -3.528140    3.405624   -1.590479
  O     -2.841575   -0.278826    1.043597
  C     -1.899461   -1.191294    1.627161
  C     -1.854299   -2.514325    0.887111
  H      5.931059    0.459427   -0.374368
  H      5.262854   -1.176209   -0.392812
  H      5.947441   -0.484390   -1.873457
  H      3.445601   -0.435215   -1.920867
  H      4.135167    1.216411   -1.936045
  H      1.870787   -2.367929    2.248954
  H      1.630399   -3.178536    0.677066
  H      4.193562   -3.278766    2.353618
  H      3.015047   -4.590568    2.201490
  H      3.957749   -4.078223    0.793221
  H     -0.393527    0.928189   -2.183129
  H      1.033902    1.666578   -1.367115
  H     -4.700168    1.614806   -1.884492
  H     -5.339800    2.707972   -0.621444
  H     -2.667373    2.972294   -2.097866
  H     -4.076917    4.024124   -2.293374
  H     -3.176862    4.020048   -0.765224
  H     -0.910721   -0.719077    1.664899
  H     -2.262827   -1.321728    2.648412
  H     -1.211215   -3.202464    1.426814
  H     -2.854539   -2.933888    0.818965
  H     -1.465529   -2.378045   -0.120490

 Total Charge           Charge          ....    0
 Multiplicity           Mult            ....    1
 Number of Electrons    NEL             ....  202
 Basis Dimension        Dim             ....  539

ORBITAL ENERGIES
----------------

  NO   OCC          E(Eh)            E(eV)
   0   2.0000     -88.577322     -2410.3115
   1   2.0000     -88.576739     -2410.2956
   2   2.0000     -88.529416     -2409.0079
   3   2.0000     -88.527390     -2408.9528
   4   2.0000     -76.919738     -2093.0925
   5   2.0000     -76.918979     -2093.0718
   6   2.0000     -18.998767      -516.9827
   7   2.0000     -18.996758      -516.9281
   8   2.0000     -18.994058      -516.8546
   9   2.0000     -18.993583      -516.8417
  10   2.0000     -10.105958      -274.9971
  11   2.0000     -10.092880      -274.6412
  12   2.0000     -10.092512      -274.6312
  13   2.0000     -10.089033      -274.5365
  14   2.0000     -10.087913      -274.5061
  15   2.0000     -10.020424      -272.6696
  16   2.0000     -10.018765      -272.6244
  17   2.0000     -10.017866      -272.6000
  18   2.0000     -10.015250      -272.5288
  19   2.0000      -7.871329      -214.1898
  20   2.0000      -7.870914      -214.1785
  21   2.0000      -7.824545      -212.9167
  22   2.0000      -7.822436      -212.8593
  23   2.0000      -6.598266      -179.5479
  24   2.0000      -6.597542      -179.5282
  25   2.0000      -5.818304      -158.3241
  26   2.0000      -5.817676      -158.3070
  27   2.0000      -5.815127      -158.2377
  28   2.0000      -5.814726      -158.2267
  29   2.0000      -5.808471      -158.0565
  30   2.0000      -5.808210      -158.0494
  31   2.0000      -5.772083      -157.0664
  32   2.0000      -5.770117      -157.0129
  33   2.0000      -5.764758      -156.8670
  34   2.0000      -5.764661      -156.8644
  35   2.0000      -5.762699      -156.8110
  36   2.0000      -5.762379      -156.8023
  37   2.0000      -4.744235      -129.0972
  38   2.0000      -4.743330      -129.0726
  39   2.0000      -4.742864      -129.0599
  40   2.0000      -4.742709      -129.0557
  41   2.0000      -4.741467      -129.0219
  42   2.0000      -4.741230      -129.0154
  43   2.0000      -1.056298       -28.7433
  44   2.0000      -1.055938       -28.7335
  45   2.0000      -1.015937       -27.6451
  46   2.0000      -1.012063       -27.5396
  47   2.0000      -0.799492       -21.7553
  48   2.0000      -0.756121       -20.5751
  49   2.0000      -0.747145       -20.3309
  50   2.0000      -0.728717       -19.8294
  51   2.0000      -0.718653       -19.5556
  52   2.0000      -0.708623       -19.2826
  53   2.0000      -0.688842       -18.7443
  54   2.0000      -0.676368       -18.4049
  55   2.0000      -0.628996       -17.1159
  56   2.0000      -0.616376       -16.7724
  57   2.0000      -0.600902       -16.3514
  58   2.0000      -0.595870       -16.2145
  59   2.0000      -0.592032       -16.1100
  60   2.0000      -0.533609       -14.5202
  61   2.0000      -0.516456       -14.0535
  62   2.0000      -0.499972       -13.6049
  63   2.0000      -0.485772       -13.2185
  64   2.0000      -0.475835       -12.9481
  65   2.0000      -0.460279       -12.5248
  66   2.0000      -0.458189       -12.4680
  67   2.0000      -0.447080       -12.1657
  68   2.0000      -0.436064       -11.8659
  69   2.0000      -0.432442       -11.7673
  70   2.0000      -0.424532       -11.5521
  71   2.0000      -0.419651       -11.4193
  72   2.0000      -0.406426       -11.0594
  73   2.0000      -0.395370       -10.7586
  74   2.0000      -0.390800       -10.6342
  75   2.0000      -0.387086       -10.5331
  76   2.0000      -0.381662       -10.3855
  77   2.0000      -0.370901       -10.0927
  78   2.0000      -0.365634        -9.9494
  79   2.0000      -0.359348        -9.7784
  80   2.0000      -0.354961        -9.6590
  81   2.0000      -0.351117        -9.5544
  82   2.0000      -0.350645        -9.5415
  83   2.0000      -0.348711        -9.4889
  84   2.0000      -0.342204        -9.3118
  85   2.0000      -0.329904        -8.9771
  86   2.0000      -0.324823        -8.8389
  87   2.0000      -0.315378        -8.5819
  88   2.0000      -0.307553        -8.3689
  89   2.0000      -0.304726        -8.2920
  90   2.0000      -0.300794        -8.1850
  91   2.0000      -0.288563        -7.8522
  92   2.0000      -0.285521        -7.7694
  93   2.0000      -0.279888        -7.6161
  94   2.0000      -0.274253        -7.4628
  95   2.0000      -0.260092        -7.0775
  96   2.0000      -0.234581        -6.3833
  97   2.0000      -0.231505        -6.2996
  98   2.0000      -0.227505        -6.1907
  99   2.0000      -0.220880        -6.0104
 100   2.0000      -0.212524        -5.7831
 101   0.0000      -0.051593        -1.4039
 102   0.0000      -0.034948        -0.9510
 103   0.0000      -0.011066        -0.3011
 104   0.0000      -0.002364        -0.0643
 105   0.0000       0.002867         0.0780

MULLIKEN ATOMIC CHARGES
-----------------------
   0 C :   -0.501214
   1 C :   -0.096285
   2 O :   -0.323914
   3 P :    0.670410
   4 S :   -0.470274
   5 O :   -0.296835
   6 C :   -0.125869
   7 C :   -0.487726
   8 S :   -0.195614
   9 C :   -0.243917
  10 S :   -0.123078
  11 P :    0.707180
  12 S :   -0.504256
  13 O :   -0.341791
  14 C :   -0.151922
  15 C :   -0.473456
  16 O :   -0.312881
  17 C :   -0.152422
  18 C :   -0.471885
  19 H :    0.167597
  20 H :    0.170247
  21 H :    0.172025
  22 H :    0.175851
  23 H :    0.178670
  24 H :    0.174575
  25 H :    0.170100
  26 H :    0.168206
  27 H :    0.170043
  28 H :    0.166630
  29 H :    0.230511
  30 H :    0.236248
  31 H :    0.177589
  32 H :    0.174792
  33 H :    0.168800
  34 H :    0.171289
  35 H :    0.166793
  36 H :    0.175690
  37 H :    0.175840
  38 H :    0.170482
  39 H :    0.163923
  40 H :    0.169848
Sum of atomic charges:   -0.0000000

LOEWDIN ATOMIC CHARGES
----------------------
   0 C :   -0.395387
   1 C :    0.032644
   2 O :   -0.669470
   3 P :    0.377661
   4 S :   -0.142360
   5 O :   -0.683445
   6 C :    0.025693
   7 C :   -0.388357
   8 S :    0.124155
   9 C :   -0.411062
  10 S :    0.145241
  11 P :    0.392696
  12 S :   -0.152427
  13 O :   -0.671197
  14 C :    0.024728
  15 C :   -0.408062
  16 O :   -0.666595
  17 C :    0.020113
  18 C :   -0.415982
  19 H :    0.163547
  20 H :    0.166150
  21 H :    0.169369
  22 H :    0.182839
  23 H :    0.190898
  24 H :    0.182678
  25 H :    0.180268
  26 H :    0.163947
  27 H :    0.169506
  28 H :    0.163681
  29 H :    0.200051
  30 H :    0.198214
  31 H :    0.181461
  32 H :    0.190558
  33 H :    0.160608
  34 H :    0.167544
  35 H :    0.163677
  36 H :    0.183345
  37 H :    0.190420
  38 H :    0.168130
  39 H :    0.161820
  40 H :    0.162702

  Mayer bond orders larger than 0.100000
B(  0-C ,  1-C ) :   0.9341 B(  0-C , 19-H ) :   0.9695 B(  0-C , 20-H ) :   0.9658
B(  0-C , 21-H ) :   0.9587 B(  1-C ,  2-O ) :   0.7410 B(  1-C , 22-H ) :   0.9562
B(  1-C , 23-H ) :   0.9499 B(  2-O ,  3-P ) :   1.1599 B(  3-P ,  4-S ) :   1.8477
B(  3-P ,  5-O ) :   1.0569 B(  3-P ,  8-S ) :   0.9858 B(  5-O ,  6-C ) :   0.7735
B(  6-C ,  7-C ) :   0.9579 B(  6-C , 24-H ) :   0.9446 B(  6-C , 25-H ) :   0.9278
B(  7-C , 26-H ) :   0.9697 B(  7-C , 27-H ) :   0.9573 B(  7-C , 28-H ) :   0.9683
B(  8-S ,  9-C ) :   0.8859 B(  9-C , 10-S ) :   0.9055 B(  9-C , 29-H ) :   0.9079
B(  9-C , 30-H ) :   0.9062 B( 10-S , 11-P ) :   1.0789 B( 11-P , 12-S ) :   1.7105
B( 11-P , 13-O ) :   1.1209 B( 11-P , 16-O ) :   1.1384 B( 13-O , 14-C ) :   0.8064
B( 14-C , 15-C ) :   0.9126 B( 14-C , 31-H ) :   0.9644 B( 14-C , 32-H ) :   0.9496
B( 15-C , 33-H ) :   0.9656 B( 15-C , 34-H ) :   0.9555 B( 15-C , 35-H ) :   0.9659
B( 16-O , 17-C ) :   0.7970 B( 17-C , 18-C ) :   0.9041 B( 17-C , 36-H ) :   0.9541
B( 17-C , 37-H ) :   0.9571 B( 18-C , 38-H ) :   0.9590 B( 18-C , 39-H ) :   0.9678
B( 18-C , 40-H ) :   0.9587

Dispersion correction           -0.021498379
FINAL SINGLE POINT ENERGY     -2932.470219497641

DIPOLE MOMENT
-------------

Method             : SCF
Type of density    : Electron Density
Multiplicity       :   1
Irrep              :   0
Energy             : -2932.4949818948425673 Eh
Relativity type    :
Basis              : AO
                                X                 Y                 Z
Electronic contribution:     -9.625338791       9.502253516       1.819148914
Nuclear contribution   :     11.032402526     -10.196403051      -3.002250429
                        -----------------------------------------
Total Dipole Moment    :      1.407063735      -0.694149535      -1.183101515
                        -----------------------------------------
Magnitude (a.u.)       :      1.965044815
Magnitude (Debye)      :      4.994746981

Rotational constants in cm-1:             0.013428             0.004620             0.004176
Rotational constants in MHz :           402.546975           138.492256           125.205129

                             ****ORCA TERMINATED NORMALLY****
TOTAL RUN TIME: 0 days 0 hours 1 minutes 46 seconds 676 msec
