                         Program Version 6.0.0  -   RELEASE  -
|  1> ! pbe def2-sv(p) def2/J RI DEFGRID1 loosescf d4 GCP(DFT/SV(P)) printgap
|  2> %output
|  3>     printlevel normal
|  4> end
|  5> * xyz 0 1
|  6> C 2.9673199901 0.4155721343 -3.015330344
|  7> C 2.6074099969 -0.9827783991 -2.5551861058
|  8> O 1.7124225699 -0.9635435403 -1.4240499899
|  9> P 2.1404203472 -0.5957846239 0.0542856473
| 10> S 2.7382076607 1.2210534409 0.5149474269
| 11> O 3.2701837924 -1.6958830094 0.2968345525
| 12> C 4.1940133483 -1.6241926115 1.3943112389
| 13> C 3.5067888583 -1.8312362346 2.7286819387
| 14> S 0.4316934322 -1.3099096022 1.0547105888
| 15> C -0.1332912107 0.2252123082 1.8767800542
| 16> S -1.9164235379 0.4452375657 1.7634643383
| 17> P -2.1198582427 0.9415143139 -0.3023676872
| 18> S -0.4754816554 1.4264216671 -1.253037791
| 19> O -3.1253847642 2.1466194764 -0.3619762915
| 20> C -4.2605042455 2.3815208975 0.5103363308
| 21> C -5.1846067396 1.18963448 0.6293001967
| 22> O -2.9885761358 -0.2372561406 -0.9271640557
| 23> C -2.6367120464 -1.6306122108 -0.9311122316
| 24> C -1.668327267 -1.9684888643 -2.0473885477
| 25> H 3.5133975566 0.3606268429 -3.951500446
| 26> H 2.061332883 1.0019885337 -3.1569759909
| 27> H 3.5836502052 0.9173869844 -2.2716648668
| 28> H 3.4984313796 -1.5564385636 -2.2882932244
| 29> H 2.037757637 -1.5146003005 -3.3195669787
| 30> H 4.9144439537 -2.4154915896 1.183115289
| 31> H 4.6891490937 -0.6481951175 1.3656893123
| 32> H 2.9170659663 -2.74428071 2.7133690302
| 33> H 4.2548200779 -1.8955483545 3.5121788824
| 34> H 2.849611883 -0.9878719227 2.9378883782
| 35> H 0.3843598922 1.071180169 1.4166647356
| 36> H 0.0858511556 0.157109337 2.9394443231
| 37> H -3.8736659181 2.6726289345 1.4898786317
| 38> H -4.757543694 3.2315574393 0.0402581332
| 39> H -4.6835299148 0.3732774863 1.1459718307
| 40> H -6.060382996 1.4813911607 1.2008455897
| 41> H -5.4939800719 0.8523804816 -0.3563750919
| 42> H -2.2156551989 -1.8999083395 0.0431175222
| 43> H -3.5915491717 -2.1410458355 -1.0715029452
| 44> H -1.4967181795 -3.0400122293 -2.0596519982
| 45> H -2.0751110534 -1.6543614134 -3.005019174
| 46> H -0.7171910361 -1.462186203 -1.8935634367
| 47> *
| 48>
| 49>                          ****END OF INPUT****

CARTESIAN COORDINATES (ANGSTROEM)
---------------------------------
  C      2.967320    0.415572   -3.015330
  C      2.607410   -0.982778   -2.555186
  O      1.712423   -0.963544   -1.424050
  P      2.140420   -0.595785    0.054286
  S      2.738208    1.221053    0.514947
  O      3.270184   -1.695883    0.296835
  C      4.194013   -1.624193    1.394311
  C      3.506789   -1.831236    2.728682
  S      0.431693   -1.309910    1.054711
  C     -0.133291    0.225212    1.876780
  S     -1.916424    0.445238    1.763464
  P     -2.119858    0.941514   -0.302368
  S     -0.475482    1.426422   -1.253038
  O     -3.125385    2.146619   -0.361976
  C     -4.260504    2.381521    0.510336
  C     -5.184607    1.189634    0.629300
  O     -2.988576   -0.237256   -0.927164
  C     -2.636712   -1.630612   -0.931112
  C     -1.668327   -1.968489   -2.047389
  H      3.513398    0.360627   -3.951500
  H      2.061333    1.001989   -3.156976
  H      3.583650    0.917387   -2.271665
  H      3.498431   -1.556439   -2.288293
  H      2.037758   -1.514600   -3.319567
  H      4.914444   -2.415492    1.183115
  H      4.689149   -0.648195    1.365689
  H      2.917066   -2.744281    2.713369
  H      4.254820   -1.895548    3.512179
  H      2.849612   -0.987872    2.937888
  H      0.384360    1.071180    1.416665
  H      0.085851    0.157109    2.939444
  H     -3.873666    2.672629    1.489879
  H     -4.757544    3.231557    0.040258
  H     -4.683530    0.373277    1.145972
  H     -6.060383    1.481391    1.200846
  H     -5.493980    0.852380   -0.356375
  H     -2.215655   -1.899908    0.043118
  H     -3.591549   -2.141046   -1.071503
  H     -1.496718   -3.040012   -2.059652
  H     -2.075111   -1.654361   -3.005019
  H     -0.717191   -1.462186   -1.893563

 Total Charge           Charge          ....    0
 Multiplicity           Mult            ....    1
 Number of Electrons    NEL             ....  202
 Basis Dimension        Dim             ....  334

ORBITAL ENERGIES
----------------

  NO   OCC          E(Eh)            E(eV)
   0   2.0000     -88.047015     -2395.8811
   1   2.0000     -88.042807     -2395.7666
   2   2.0000     -87.986277     -2394.2283
   3   2.0000     -87.974259     -2393.9013
   4   2.0000     -76.426004     -2079.6573
   5   2.0000     -76.421333     -2079.5302
   6   2.0000     -18.789803      -511.2965
   7   2.0000     -18.787689      -511.2390
   8   2.0000     -18.787686      -511.2389
   9   2.0000     -18.784802      -511.1605
  10   2.0000      -9.957272      -270.9512
  11   2.0000      -9.954936      -270.8876
  12   2.0000      -9.950791      -270.7748
  13   2.0000      -9.950669      -270.7715
  14   2.0000      -9.947341      -270.6809
  15   2.0000      -9.890320      -269.1293
  16   2.0000      -9.884350      -268.9668
  17   2.0000      -9.875139      -268.7162
  18   2.0000      -9.871122      -268.6069
  19   2.0000      -7.691778      -209.3039
  20   2.0000      -7.687685      -209.1925
  21   2.0000      -7.631091      -207.6525
  22   2.0000      -7.619105      -207.3264
  23   2.0000      -6.423124      -174.7821
  24   2.0000      -6.418479      -174.6557
  25   2.0000      -5.719693      -155.6407
  26   2.0000      -5.715970      -155.5394
  27   2.0000      -5.715557      -155.5282
  28   2.0000      -5.712312      -155.4399
  29   2.0000      -5.709109      -155.3527
  30   2.0000      -5.704522      -155.2279
  31   2.0000      -5.660003      -154.0165
  32   2.0000      -5.651912      -153.7964
  33   2.0000      -5.651069      -153.7734
  34   2.0000      -5.648288      -153.6977
  35   2.0000      -5.639738      -153.4651
  36   2.0000      -5.638977      -153.4444
  37   2.0000      -4.645712      -126.4163
  38   2.0000      -4.644698      -126.3886
  39   2.0000      -4.643808      -126.3644
  40   2.0000      -4.641139      -126.2918
  41   2.0000      -4.640597      -126.2771
  42   2.0000      -4.638571      -126.2219
  43   2.0000      -0.985586       -26.8192
  44   2.0000      -0.981886       -26.7185
  45   2.0000      -0.941335       -25.6150
  46   2.0000      -0.939556       -25.5666
  47   2.0000      -0.762392       -20.7457
  48   2.0000      -0.719839       -19.5878
  49   2.0000      -0.709892       -19.3171
  50   2.0000      -0.687570       -18.7097
  51   2.0000      -0.684471       -18.6254
  52   2.0000      -0.673427       -18.3249
  53   2.0000      -0.647956       -17.6318
  54   2.0000      -0.633762       -17.2455
  55   2.0000      -0.596142       -16.2218
  56   2.0000      -0.587393       -15.9838
  57   2.0000      -0.574883       -15.6434
  58   2.0000      -0.570160       -15.5149
  59   2.0000      -0.563020       -15.3206
  60   2.0000      -0.497161       -13.5284
  61   2.0000      -0.491312       -13.3693
  62   2.0000      -0.471931       -12.8419
  63   2.0000      -0.466270       -12.6878
  64   2.0000      -0.453234       -12.3331
  65   2.0000      -0.448760       -12.2114
  66   2.0000      -0.436558       -11.8794
  67   2.0000      -0.432578       -11.7710
  68   2.0000      -0.430353       -11.7105
  69   2.0000      -0.415530       -11.3072
  70   2.0000      -0.404204       -10.9989
  71   2.0000      -0.400254       -10.8915
  72   2.0000      -0.396127       -10.7792
  73   2.0000      -0.391755       -10.6602
  74   2.0000      -0.387353       -10.5404
  75   2.0000      -0.369228       -10.0472
  76   2.0000      -0.356022        -9.6878
  77   2.0000      -0.353624        -9.6226
  78   2.0000      -0.351882        -9.5752
  79   2.0000      -0.350429        -9.5357
  80   2.0000      -0.344053        -9.3622
  81   2.0000      -0.342350        -9.3158
  82   2.0000      -0.337785        -9.1916
  83   2.0000      -0.333830        -9.0840
  84   2.0000      -0.325241        -8.8503
  85   2.0000      -0.314215        -8.5502
  86   2.0000      -0.310894        -8.4599
  87   2.0000      -0.295186        -8.0324
  88   2.0000      -0.289047        -7.8654
  89   2.0000      -0.285074        -7.7573
  90   2.0000      -0.283687        -7.7195
  91   2.0000      -0.273749        -7.4491
  92   2.0000      -0.272606        -7.4180
  93   2.0000      -0.262035        -7.1303
  94   2.0000      -0.255404        -6.9499
  95   2.0000      -0.239715        -6.5230
  96   2.0000      -0.219989        -5.9862
  97   2.0000      -0.211299        -5.7497
  98   2.0000      -0.200777        -5.4634
  99   2.0000      -0.187699        -5.1075
 100   2.0000      -0.183580        -4.9955
 101   0.0000      -0.044834        -1.2200
 102   0.0000      -0.035691        -0.9712
 103   0.0000      -0.010012        -0.2724
 104   0.0000       0.009350         0.2544
 105   0.0000       0.015191         0.4134

MULLIKEN ATOMIC CHARGES
-----------------------
   0 C :   -0.316891
   1 C :    0.001406
   2 O :   -0.356605
   3 P :    0.640214
   4 S :   -0.312846
   5 O :   -0.379362
   6 C :   -0.002172
   7 C :   -0.311817
   8 S :   -0.107026
   9 C :   -0.332100
  10 S :   -0.140375
  11 P :    0.596444
  12 S :   -0.298549
  13 O :   -0.356539
  14 C :   -0.004855
  15 C :   -0.318226
  16 O :   -0.370739
  17 C :   -0.010660
  18 C :   -0.324935
  19 H :    0.106378
  20 H :    0.135065
  21 H :    0.127189
  22 H :    0.103486
  23 H :    0.106676
  24 H :    0.102528
  25 H :    0.109948
  26 H :    0.118248
  27 H :    0.112155
  28 H :    0.117234
  29 H :    0.214325
  30 H :    0.180868
  31 H :    0.113562
  32 H :    0.113862
  33 H :    0.124406
  34 H :    0.115622
  35 H :    0.128154
  36 H :    0.104709
  37 H :    0.098932
  38 H :    0.100182
  39 H :    0.109313
  40 H :    0.162790
Sum of atomic charges:   -0.0000000

LOEWDIN ATOMIC CHARGES
----------------------
   0 C :   -0.367522
   1 C :   -0.109033
   2 O :   -0.229725
   3 P :    0.574018
   4 S :   -0.296059
   5 O :   -0.249005
   6 C :   -0.121574
   7 C :   -0.368560
   8 S :    0.085786
   9 C :   -0.477416
  10 S :    0.066378
  11 P :    0.559136
  12 S :   -0.293877
  13 O :   -0.234357
  14 C :   -0.112428
  15 C :   -0.368259
  16 O :   -0.242801
  17 C :   -0.118302
  18 C :   -0.371516
  19 H :    0.127541
  20 H :    0.132074
  21 H :    0.121865
  22 H :    0.109920
  23 H :    0.119489
  24 H :    0.117231
  25 H :    0.108920
  26 H :    0.124582
  27 H :    0.130238
  28 H :    0.118234
  29 H :    0.126738
  30 H :    0.133612
  31 H :    0.111889
  32 H :    0.124489
  33 H :    0.117205
  34 H :    0.132328
  35 H :    0.131321
  36 H :    0.096419
  37 H :    0.115079
  38 H :    0.125987
  39 H :    0.124442
  40 H :    0.125514

  Mayer bond orders larger than 0.100000
B(  0-C ,  1-C ) :   1.1658 B(  0-C , 19-H ) :   0.9379 B(  0-C , 20-H ) :   0.9422
B(  0-C , 21-H ) :   0.9356 B(  1-C ,  2-O ) :   0.9023 B(  1-C , 22-H ) :   0.9265
B(  1-C , 23-H ) :   0.9345 B(  2-O ,  3-P ) :   1.1291 B(  3-P ,  4-S ) :   1.6031
B(  3-P ,  5-O ) :   1.0837 B(  3-P ,  8-S ) :   0.9569 B(  4-S ,  8-S ) :   0.1201
B(  5-O ,  6-C ) :   0.9160 B(  6-C ,  7-C ) :   1.1648 B(  6-C , 24-H ) :   0.9332
B(  6-C , 25-H ) :   0.9130 B(  7-C , 26-H ) :   0.9440 B(  7-C , 27-H ) :   0.9383
B(  7-C , 28-H ) :   0.9368 B(  8-S ,  9-C ) :   0.9882 B(  9-C , 10-S ) :   1.0144
B(  9-C , 29-H ) :   0.8465 B(  9-C , 30-H ) :   0.9062 B( 10-S , 11-P ) :   0.9176
B( 10-S , 12-S ) :   0.1105 B( 11-P , 12-S ) :   1.6768 B( 11-P , 13-O ) :   1.1440
B( 11-P , 16-O ) :   1.0870 B( 13-O , 14-C ) :   0.9048 B( 14-C , 15-C ) :   1.1666
B( 14-C , 31-H ) :   0.9256 B( 14-C , 32-H ) :   0.9348 B( 15-C , 33-H ) :   0.9389
B( 15-C , 34-H ) :   0.9342 B( 15-C , 35-H ) :   0.9413 B( 16-O , 17-C ) :   0.9159
B( 17-C , 18-C ) :   1.1682 B( 17-C , 36-H ) :   0.9079 B( 17-C , 37-H ) :   0.9348
B( 18-C , 38-H ) :   0.9386 B( 18-C , 39-H ) :   0.9450 B( 18-C , 40-H ) :   0.9182

Dispersion correction           -0.067473278
FINAL SINGLE POINT ENERGY     -2929.515007949467

DIPOLE MOMENT
-------------

Method             : SCF
Type of density    : Electron Density
Multiplicity       :   1
Irrep              :   0
Energy             : -2929.6332988894218943 Eh
Relativity type    :
Basis              : AO
                                X                 Y                 Z
Electronic contribution:     -0.168989805       8.425471398       3.567978614
Nuclear contribution   :     -0.222256230      -9.603625314      -3.050697986
                        -----------------------------------------
Total Dipole Moment    :     -0.391246035      -1.178153917       0.517280628
                        -----------------------------------------
Magnitude (a.u.)       :      1.344878939
Magnitude (Debye)      :      3.418410596

Rotational constants in cm-1:             0.013305             0.005076             0.004683
Rotational constants in MHz :           398.875382           152.163959           140.407342

                             ****ORCA TERMINATED NORMALLY****
TOTAL RUN TIME: 0 days 0 hours 0 minutes 21 seconds 225 msec
