                         Program Version 6.0.0  -   RELEASE  -
|  1> ! pbe def2-sv(p) def2/J RI DEFGRID1 loosescf d4 GCP(DFT/SV(P)) printgap
|  2> %output
|  3>     printlevel normal
|  4> end
|  5> * xyz 0 1
|  6> C 5.5660121589 1.0011279143 -1.2141329634
|  7> C 4.318002829 1.3332610772 -0.4217210162
|  8> O 3.3305351869 0.3177207708 -0.697910251
|  9> P 2.119350183 0.0429808055 0.2893844626
| 10> S 2.6113622786 -0.1333670861 2.1822187897
| 11> O 1.4243203399 -1.2065858055 -0.3832228344
| 12> C 1.6983409053 -2.5601639876 0.0258291833
| 13> C 3.1110032737 -2.9734130931 -0.3259451044
| 14> S 0.7582012554 1.5757183681 -0.1824054968
| 15> C -0.2747182084 1.4103243249 1.3027525425
| 16> S -1.0670545497 -0.2148872415 1.4534491556
| 17> P -2.1699922158 -0.2685692246 -0.3661134315
| 18> S -1.3399297311 -0.7626791825 -2.0623462241
| 19> O -2.8865304917 1.1578025612 -0.3294013692
| 20> C -2.9863059208 2.0558126731 -1.4553620284
| 21> C -2.2725930934 3.3589984643 -1.1570805828
| 22> O -3.290215442 -1.3266210873 -0.0044780965
| 23> C -4.194168271 -1.1740806132 1.1212285474
| 24> C -5.4914778323 -1.8746004769 0.7731375493
| 25> H 6.3067628488 1.7770523078 -1.0514286653
| 26> H 5.9717146999 0.0454165211 -0.894349498
| 27> H 5.3274902265 0.9454406997 -2.2723170879
| 28> H 3.9020537873 2.2995994153 -0.7188079434
| 29> H 4.5162439977 1.342659863 0.6555886224
| 30> H 1.5241975855 -2.6367052058 1.1047281151
| 31> H 0.9525826693 -3.1483071861 -0.512119745
| 32> H 3.2513673261 -4.0219147584 -0.0827326644
| 33> H 3.29207038 -2.8169111432 -1.3862081398
| 34> H 3.8206955549 -2.3767284354 0.2465898326
| 35> H -1.0326545017 2.1876242322 1.2532807394
| 36> H 0.3486213632 1.5158348378 2.1909741897
| 37> H -2.5631389806 1.5643068469 -2.3375744257
| 38> H -4.0554757536 2.2170148946 -1.6062093512
| 39> H -2.6579093782 3.7981655934 -0.2409809392
| 40> H -1.2012531299 3.1936946889 -1.056326459
| 41> H -2.4443562354 4.0461388125 -1.9791826504
| 42> H -3.7141526946 -1.6280550819 1.9910629398
| 43> H -4.3507097316 -0.1091657142 1.3062963882
| 44> H -6.1706494921 -1.8051445279 1.6167317974
| 45> H -5.9478323361 -1.4110662024 -0.0970275485
| 46> H -5.2995876994 -2.9201390251 0.5497952329
| 47> *
| 48>
| 49>                          ****END OF INPUT****

CARTESIAN COORDINATES (ANGSTROEM)
---------------------------------
  C      5.566012    1.001128   -1.214133
  C      4.318003    1.333261   -0.421721
  O      3.330535    0.317721   -0.697910
  P      2.119350    0.042981    0.289384
  S      2.611362   -0.133367    2.182219
  O      1.424320   -1.206586   -0.383223
  C      1.698341   -2.560164    0.025829
  C      3.111003   -2.973413   -0.325945
  S      0.758201    1.575718   -0.182405
  C     -0.274718    1.410324    1.302753
  S     -1.067055   -0.214887    1.453449
  P     -2.169992   -0.268569   -0.366113
  S     -1.339930   -0.762679   -2.062346
  O     -2.886530    1.157803   -0.329401
  C     -2.986306    2.055813   -1.455362
  C     -2.272593    3.358998   -1.157081
  O     -3.290215   -1.326621   -0.004478
  C     -4.194168   -1.174081    1.121229
  C     -5.491478   -1.874600    0.773138
  H      6.306763    1.777052   -1.051429
  H      5.971715    0.045417   -0.894349
  H      5.327490    0.945441   -2.272317
  H      3.902054    2.299599   -0.718808
  H      4.516244    1.342660    0.655589
  H      1.524198   -2.636705    1.104728
  H      0.952583   -3.148307   -0.512120
  H      3.251367   -4.021915   -0.082733
  H      3.292070   -2.816911   -1.386208
  H      3.820696   -2.376728    0.246590
  H     -1.032655    2.187624    1.253281
  H      0.348621    1.515835    2.190974
  H     -2.563139    1.564307   -2.337574
  H     -4.055476    2.217015   -1.606209
  H     -2.657909    3.798166   -0.240981
  H     -1.201253    3.193695   -1.056326
  H     -2.444356    4.046139   -1.979183
  H     -3.714153   -1.628055    1.991063
  H     -4.350710   -0.109166    1.306296
  H     -6.170649   -1.805145    1.616732
  H     -5.947832   -1.411066   -0.097028
  H     -5.299588   -2.920139    0.549795

 Total Charge           Charge          ....    0
 Multiplicity           Mult            ....    1
 Number of Electrons    NEL             ....  202
 Basis Dimension        Dim             ....  334

ORBITAL ENERGIES
----------------

  NO   OCC          E(Eh)            E(eV)
   0   2.0000     -88.041821     -2395.7397
   1   2.0000     -88.038910     -2395.6605
   2   2.0000     -87.985313     -2394.2021
   3   2.0000     -87.975909     -2393.9462
   4   2.0000     -76.423431     -2079.5873
   5   2.0000     -76.421022     -2079.5217
   6   2.0000     -18.793876      -511.4074
   7   2.0000     -18.791678      -511.3475
   8   2.0000     -18.787903      -511.2448
   9   2.0000     -18.781801      -511.0788
  10   2.0000      -9.957459      -270.9562
  11   2.0000      -9.954108      -270.8651
  12   2.0000      -9.952393      -270.8184
  13   2.0000      -9.952046      -270.8089
  14   2.0000      -9.941649      -270.5260
  15   2.0000      -9.890002      -269.1206
  16   2.0000      -9.888997      -269.0933
  17   2.0000      -9.887498      -269.0525
  18   2.0000      -9.876700      -268.7587
  19   2.0000      -7.686842      -209.1696
  20   2.0000      -7.683787      -209.0865
  21   2.0000      -7.630293      -207.6308
  22   2.0000      -7.621336      -207.3871
  23   2.0000      -6.421045      -174.7255
  24   2.0000      -6.418503      -174.6564
  25   2.0000      -5.714696      -155.5048
  26   2.0000      -5.711815      -155.4264
  27   2.0000      -5.711449      -155.4164
  28   2.0000      -5.708192      -155.3278
  29   2.0000      -5.703716      -155.2060
  30   2.0000      -5.700737      -155.1250
  31   2.0000      -5.659039      -153.9903
  32   2.0000      -5.650992      -153.7713
  33   2.0000      -5.650566      -153.7597
  34   2.0000      -5.650399      -153.7552
  35   2.0000      -5.641783      -153.5207
  36   2.0000      -5.641446      -153.5115
  37   2.0000      -4.643379      -126.3528
  38   2.0000      -4.642805      -126.3371
  39   2.0000      -4.641715      -126.3075
  40   2.0000      -4.641661      -126.3060
  41   2.0000      -4.640038      -126.2619
  42   2.0000      -4.638657      -126.2243
  43   2.0000      -0.983109       -26.7518
  44   2.0000      -0.982605       -26.7380
  45   2.0000      -0.942597       -25.6494
  46   2.0000      -0.941420       -25.6173
  47   2.0000      -0.763261       -20.7694
  48   2.0000      -0.721369       -19.6295
  49   2.0000      -0.709371       -19.3030
  50   2.0000      -0.693468       -18.8702
  51   2.0000      -0.683920       -18.6104
  52   2.0000      -0.668730       -18.1971
  53   2.0000      -0.645580       -17.5671
  54   2.0000      -0.636938       -17.3320
  55   2.0000      -0.595446       -16.2029
  56   2.0000      -0.587124       -15.9765
  57   2.0000      -0.570520       -15.5246
  58   2.0000      -0.566289       -15.4095
  59   2.0000      -0.559612       -15.2278
  60   2.0000      -0.507518       -13.8103
  61   2.0000      -0.500425       -13.6173
  62   2.0000      -0.482188       -13.1210
  63   2.0000      -0.471954       -12.8425
  64   2.0000      -0.457105       -12.4385
  65   2.0000      -0.442656       -12.0453
  66   2.0000      -0.437738       -11.9115
  67   2.0000      -0.433269       -11.7899
  68   2.0000      -0.427429       -11.6309
  69   2.0000      -0.410351       -11.1662
  70   2.0000      -0.401175       -10.9165
  71   2.0000      -0.393970       -10.7205
  72   2.0000      -0.391076       -10.6417
  73   2.0000      -0.386230       -10.5098
  74   2.0000      -0.379567       -10.3285
  75   2.0000      -0.370587       -10.0842
  76   2.0000      -0.367980       -10.0133
  77   2.0000      -0.361118        -9.8265
  78   2.0000      -0.356078        -9.6894
  79   2.0000      -0.354443        -9.6449
  80   2.0000      -0.345062        -9.3896
  81   2.0000      -0.341947        -9.3049
  82   2.0000      -0.339242        -9.2313
  83   2.0000      -0.338365        -9.2074
  84   2.0000      -0.332021        -9.0348
  85   2.0000      -0.319622        -8.6974
  86   2.0000      -0.308724        -8.4008
  87   2.0000      -0.306632        -8.3439
  88   2.0000      -0.298738        -8.1291
  89   2.0000      -0.284425        -7.7396
  90   2.0000      -0.278777        -7.5859
  91   2.0000      -0.270188        -7.3522
  92   2.0000      -0.265805        -7.2329
  93   2.0000      -0.264291        -7.1917
  94   2.0000      -0.259862        -7.0712
  95   2.0000      -0.235763        -6.4154
  96   2.0000      -0.217080        -5.9071
  97   2.0000      -0.206215        -5.6114
  98   2.0000      -0.202648        -5.5143
  99   2.0000      -0.192347        -5.2340
 100   2.0000      -0.186777        -5.0825
 101   0.0000      -0.046948        -1.2775
 102   0.0000      -0.022675        -0.6170
 103   0.0000      -0.005678        -0.1545
 104   0.0000       0.005528         0.1504
 105   0.0000       0.021126         0.5749

MULLIKEN ATOMIC CHARGES
-----------------------
   0 C :   -0.282033
   1 C :   -0.011948
   2 O :   -0.372354
   3 P :    0.633065
   4 S :   -0.344312
   5 O :   -0.341879
   6 C :    0.001703
   7 C :   -0.310581
   8 S :   -0.100916
   9 C :   -0.360954
  10 S :   -0.096859
  11 P :    0.609006
  12 S :   -0.288598
  13 O :   -0.397508
  14 C :   -0.006639
  15 C :   -0.314921
  16 O :   -0.367262
  17 C :   -0.024337
  18 C :   -0.276648
  19 H :    0.111519
  20 H :    0.120518
  21 H :    0.119140
  22 H :    0.101917
  23 H :    0.105454
  24 H :    0.109250
  25 H :    0.108808
  26 H :    0.109972
  27 H :    0.118532
  28 H :    0.119267
  29 H :    0.186017
  30 H :    0.193334
  31 H :    0.116105
  32 H :    0.100762
  33 H :    0.116711
  34 H :    0.134239
  35 H :    0.114984
  36 H :    0.111975
  37 H :    0.106829
  38 H :    0.110254
  39 H :    0.115838
  40 H :    0.122549
Sum of atomic charges:   -0.0000000

LOEWDIN ATOMIC CHARGES
----------------------
   0 C :   -0.350239
   1 C :   -0.120534
   2 O :   -0.244348
   3 P :    0.573368
   4 S :   -0.330283
   5 O :   -0.223870
   6 C :   -0.115782
   7 C :   -0.365619
   8 S :    0.087514
   9 C :   -0.476545
  10 S :    0.078725
  11 P :    0.558348
  12 S :   -0.293841
  13 O :   -0.259910
  14 C :   -0.118614
  15 C :   -0.361331
  16 O :   -0.247607
  17 C :   -0.120524
  18 C :   -0.350134
  19 H :    0.130697
  20 H :    0.128369
  21 H :    0.128152
  22 H :    0.110198
  23 H :    0.107700
  24 H :    0.109408
  25 H :    0.120526
  26 H :    0.129362
  27 H :    0.126993
  28 H :    0.119498
  29 H :    0.130266
  30 H :    0.131695
  31 H :    0.109407
  32 H :    0.115145
  33 H :    0.123509
  34 H :    0.116821
  35 H :    0.133552
  36 H :    0.113142
  37 H :    0.109406
  38 H :    0.129686
  39 H :    0.127413
  40 H :    0.130283

  Mayer bond orders larger than 0.100000
B(  0-C ,  1-C ) :   1.1616 B(  0-C , 19-H ) :   0.9417 B(  0-C , 20-H ) :   0.9513
B(  0-C , 21-H ) :   0.9501 B(  1-C ,  2-O ) :   0.9039 B(  1-C , 22-H ) :   0.9298
B(  1-C , 23-H ) :   0.9076 B(  2-O ,  3-P ) :   1.1127 B(  3-P ,  4-S ) :   1.5913
B(  3-P ,  5-O ) :   1.1554 B(  3-P ,  8-S ) :   0.9524 B(  4-S ,  8-S ) :   0.1060
B(  5-O ,  6-C ) :   0.9031 B(  6-C ,  7-C ) :   1.1641 B(  6-C , 24-H ) :   0.9185
B(  6-C , 25-H ) :   0.9298 B(  7-C , 26-H ) :   0.9395 B(  7-C , 27-H ) :   0.9458
B(  7-C , 28-H ) :   0.9355 B(  8-S ,  9-C ) :   1.0101 B(  9-C , 10-S ) :   1.0024
B(  9-C , 29-H ) :   0.8981 B(  9-C , 30-H ) :   0.8842 B( 10-S , 11-P ) :   0.9496
B( 10-S , 12-S ) :   0.1052 B( 11-P , 12-S ) :   1.6854 B( 11-P , 13-O ) :   1.0534
B( 11-P , 16-O ) :   1.1278 B( 13-O , 14-C ) :   0.9069 B( 14-C , 15-C ) :   1.1674
B( 14-C , 31-H ) :   0.8970 B( 14-C , 32-H ) :   0.9339 B( 15-C , 33-H ) :   0.9435
B( 15-C , 34-H ) :   0.9315 B( 15-C , 35-H ) :   0.9374 B( 16-O , 17-C ) :   0.8968
B( 17-C , 18-C ) :   1.1622 B( 17-C , 36-H ) :   0.9303 B( 17-C , 37-H ) :   0.9187
B( 18-C , 38-H ) :   0.9411 B( 18-C , 39-H ) :   0.9503 B( 18-C , 40-H ) :   0.9499

Dispersion correction           -0.064757655
FINAL SINGLE POINT ENERGY     -2929.519444337215

DIPOLE MOMENT
-------------

Method             : SCF
Type of density    : Electron Density
Multiplicity       :   1
Irrep              :   0
Energy             : -2929.6381933546522305 Eh
Relativity type    :
Basis              : AO
                                X                 Y                 Z
Electronic contribution:     -0.350800134      -1.280804206       3.262640104
Nuclear contribution   :     -0.213748482       2.103964519      -3.107596250
                        -----------------------------------------
Total Dipole Moment    :     -0.564548616       0.823160313       0.155043854
                        -----------------------------------------
Magnitude (a.u.)       :      1.010122091
Magnitude (Debye)      :      2.567526310

Rotational constants in cm-1:             0.012838             0.004865             0.004424
Rotational constants in MHz :           384.886183           145.861835           132.629247

                             ****ORCA TERMINATED NORMALLY****
TOTAL RUN TIME: 0 days 0 hours 0 minutes 20 seconds 719 msec
