                         Program Version 6.0.0  -   RELEASE  -
|  1> ! pbe def2-sv(p) def2/J RI DEFGRID1 loosescf d4 GCP(DFT/SV(P)) printgap
|  2> %output
|  3>     printlevel normal
|  4> end
|  5> * xyz 0 1
|  6> C 5.3125073345 -2.0880376911 -1.3411688706
|  7> C 4.2831516383 -0.9797354859 -1.4351070367
|  8> O 3.2150339251 -1.2876553013 -0.5167991322
|  9> P 2.2256011781 -0.1707432699 0.0225076216
| 10> S 3.0806122406 1.4731643088 0.6712641752
| 11> O 1.3669323542 -0.9833506607 1.0726290426
| 12> C 1.6777752439 -0.9558833598 2.4841273397
| 13> C 2.9757738328 -1.6759128888 2.7799558821
| 14> S 0.8499867209 0.0694014595 -1.5669531816
| 15> C 0.1128561009 1.6079822895 -0.9479682492
| 16> S -0.8752469679 1.3652574821 0.5440774749
| 17> P -2.4415228379 0.2607679015 -0.4077153796
| 18> S -2.904881591 0.8301732985 -2.2172520921
| 19> O -3.6176800967 0.2878744914 0.6606631054
| 20> C -4.5993224386 1.3403794795 0.70776996
| 21> C -3.9989207887 2.6753376722 1.0970759489
| 22> O -1.9728043768 -1.2441282824 -0.3616455179
| 23> C -1.7216189309 -1.9618572652 0.8709642133
| 24> C -2.8980488983 -2.8521190149 1.2133814704
| 25> H 5.7293151833 -2.1295916739 -0.3389045833
| 26> H 4.8488779602 -3.0430798364 -1.5702756347
| 27> H 6.1089318082 -1.8947259859 -2.0522001085
| 28> H 3.8588589782 -0.9116931913 -2.4404658153
| 29> H 4.7111330591 -0.0093805438 -1.1609836411
| 30> H 1.7289976316 0.0888309624 2.8066466446
| 31> H 0.8240690174 -1.4477002768 2.9516063218
| 32> H 3.1334523901 -1.709696685 3.8533408361
| 33> H 2.9439494397 -2.6874007417 2.3840581594
| 34> H 3.8050838616 -1.142292561 2.3169863595
| 35> H -0.5235434855 1.989780001 -1.7464638486
| 36> H 0.9045207149 2.3128147948 -0.693337287
| 37> H -5.0791947335 1.4058253151 -0.2732912055
| 38> H -5.3173795884 0.990916123 1.4510335176
| 39> H -3.4180040689 2.5791997006 2.0110129647
| 40> H -3.3474266514 3.0379735436 0.3035973121
| 41> H -4.7971291212 3.3943640173 1.2508908093
| 42> H -0.8193127699 -2.5442562156 0.6725152581
| 43> H -1.524838041 -1.2382517152 1.6670538001
| 44> H -3.780876396 -2.2491304339 1.4084100345
| 45> H -3.1075664527 -3.5234028085 0.3851300394
| 46> H -2.6581983765 -3.4353955858 2.0968686922
| 47> *
| 48>
| 49>                          ****END OF INPUT****

CARTESIAN COORDINATES (ANGSTROEM)
---------------------------------
  C      5.312507   -2.088038   -1.341169
  C      4.283152   -0.979735   -1.435107
  O      3.215034   -1.287655   -0.516799
  P      2.225601   -0.170743    0.022508
  S      3.080612    1.473164    0.671264
  O      1.366932   -0.983351    1.072629
  C      1.677775   -0.955883    2.484127
  C      2.975774   -1.675913    2.779956
  S      0.849987    0.069401   -1.566953
  C      0.112856    1.607982   -0.947968
  S     -0.875247    1.365257    0.544077
  P     -2.441523    0.260768   -0.407715
  S     -2.904882    0.830173   -2.217252
  O     -3.617680    0.287874    0.660663
  C     -4.599322    1.340379    0.707770
  C     -3.998921    2.675338    1.097076
  O     -1.972804   -1.244128   -0.361646
  C     -1.721619   -1.961857    0.870964
  C     -2.898049   -2.852119    1.213381
  H      5.729315   -2.129592   -0.338905
  H      4.848878   -3.043080   -1.570276
  H      6.108932   -1.894726   -2.052200
  H      3.858859   -0.911693   -2.440466
  H      4.711133   -0.009381   -1.160984
  H      1.728998    0.088831    2.806647
  H      0.824069   -1.447700    2.951606
  H      3.133452   -1.709697    3.853341
  H      2.943949   -2.687401    2.384058
  H      3.805084   -1.142293    2.316986
  H     -0.523543    1.989780   -1.746464
  H      0.904521    2.312815   -0.693337
  H     -5.079195    1.405825   -0.273291
  H     -5.317380    0.990916    1.451034
  H     -3.418004    2.579200    2.011013
  H     -3.347427    3.037974    0.303597
  H     -4.797129    3.394364    1.250891
  H     -0.819313   -2.544256    0.672515
  H     -1.524838   -1.238252    1.667054
  H     -3.780876   -2.249130    1.408410
  H     -3.107566   -3.523403    0.385130
  H     -2.658198   -3.435396    2.096869

 Total Charge           Charge          ....    0
 Multiplicity           Mult            ....    1
 Number of Electrons    NEL             ....  202
 Basis Dimension        Dim             ....  334

ORBITAL ENERGIES
----------------

  NO   OCC          E(Eh)            E(eV)
   0   2.0000     -88.039473     -2395.6759
   1   2.0000     -88.039397     -2395.6738
   2   2.0000     -87.990695     -2394.3485
   3   2.0000     -87.985770     -2394.2145
   4   2.0000     -76.427831     -2079.7070
   5   2.0000     -76.425569     -2079.6455
   6   2.0000     -18.797339      -511.5016
   7   2.0000     -18.796825      -511.4876
   8   2.0000     -18.795038      -511.4390
   9   2.0000     -18.788014      -511.2478
  10   2.0000      -9.955816      -270.9115
  11   2.0000      -9.955632      -270.9065
  12   2.0000      -9.955464      -270.9019
  13   2.0000      -9.951725      -270.8002
  14   2.0000      -9.949911      -270.7508
  15   2.0000      -9.890776      -269.1417
  16   2.0000      -9.887607      -269.0555
  17   2.0000      -9.885137      -268.9883
  18   2.0000      -9.884800      -268.9791
  19   2.0000      -7.684721      -209.1119
  20   2.0000      -7.684250      -209.0991
  21   2.0000      -7.635631      -207.7761
  22   2.0000      -7.631096      -207.6527
  23   2.0000      -6.425689      -174.8519
  24   2.0000      -6.423068      -174.7806
  25   2.0000      -5.712519      -155.4455
  26   2.0000      -5.711969      -155.4306
  27   2.0000      -5.709382      -155.3602
  28   2.0000      -5.708916      -155.3475
  29   2.0000      -5.701592      -155.1482
  30   2.0000      -5.701270      -155.1394
  31   2.0000      -5.664341      -154.1346
  32   2.0000      -5.660067      -154.0183
  33   2.0000      -5.656280      -153.9152
  34   2.0000      -5.655983      -153.9071
  35   2.0000      -5.651591      -153.7876
  36   2.0000      -5.651282      -153.7792
  37   2.0000      -4.648102      -126.4813
  38   2.0000      -4.647460      -126.4638
  39   2.0000      -4.646203      -126.4296
  40   2.0000      -4.646032      -126.4250
  41   2.0000      -4.644683      -126.3882
  42   2.0000      -4.643325      -126.3513
  43   2.0000      -0.991160       -26.9708
  44   2.0000      -0.988729       -26.9047
  45   2.0000      -0.950262       -25.8579
  46   2.0000      -0.944858       -25.7109
  47   2.0000      -0.762939       -20.7606
  48   2.0000      -0.722653       -19.6644
  49   2.0000      -0.710530       -19.3345
  50   2.0000      -0.692093       -18.8328
  51   2.0000      -0.690806       -18.7978
  52   2.0000      -0.674604       -18.3569
  53   2.0000      -0.650841       -17.7103
  54   2.0000      -0.638027       -17.3616
  55   2.0000      -0.602315       -16.3898
  56   2.0000      -0.594000       -16.1636
  57   2.0000      -0.573610       -15.6087
  58   2.0000      -0.568796       -15.4777
  59   2.0000      -0.560634       -15.2556
  60   2.0000      -0.507819       -13.8185
  61   2.0000      -0.498660       -13.5692
  62   2.0000      -0.481281       -13.0963
  63   2.0000      -0.474974       -12.9247
  64   2.0000      -0.458783       -12.4841
  65   2.0000      -0.449544       -12.2327
  66   2.0000      -0.441431       -12.0119
  67   2.0000      -0.436773       -11.8852
  68   2.0000      -0.426720       -11.6116
  69   2.0000      -0.420023       -11.4294
  70   2.0000      -0.408923       -11.1274
  71   2.0000      -0.399078       -10.8595
  72   2.0000      -0.391963       -10.6658
  73   2.0000      -0.383045       -10.4232
  74   2.0000      -0.378924       -10.3110
  75   2.0000      -0.374740       -10.1972
  76   2.0000      -0.368257       -10.0208
  77   2.0000      -0.361170        -9.8279
  78   2.0000      -0.359941        -9.7945
  79   2.0000      -0.353551        -9.6206
  80   2.0000      -0.350640        -9.5414
  81   2.0000      -0.347147        -9.4464
  82   2.0000      -0.344507        -9.3745
  83   2.0000      -0.342520        -9.3204
  84   2.0000      -0.335385        -9.1263
  85   2.0000      -0.322684        -8.7807
  86   2.0000      -0.312218        -8.4959
  87   2.0000      -0.303035        -8.2460
  88   2.0000      -0.297467        -8.0945
  89   2.0000      -0.294298        -8.0083
  90   2.0000      -0.288870        -7.8605
  91   2.0000      -0.279817        -7.6142
  92   2.0000      -0.268618        -7.3095
  93   2.0000      -0.264830        -7.2064
  94   2.0000      -0.258392        -7.0312
  95   2.0000      -0.233008        -6.3405
  96   2.0000      -0.217955        -5.9309
  97   2.0000      -0.214151        -5.8273
  98   2.0000      -0.205726        -5.5981
  99   2.0000      -0.202075        -5.4987
 100   2.0000      -0.200110        -5.4453
 101   0.0000      -0.043085        -1.1724
 102   0.0000      -0.022002        -0.5987
 103   0.0000      -0.000763        -0.0208
 104   0.0000       0.001741         0.0474
 105   0.0000       0.013109         0.3567

MULLIKEN ATOMIC CHARGES
-----------------------
   0 C :   -0.282506
   1 C :   -0.012876
   2 O :   -0.375801
   3 P :    0.612376
   4 S :   -0.339314
   5 O :   -0.358420
   6 C :   -0.009285
   7 C :   -0.304075
   8 S :   -0.065419
   9 C :   -0.377352
  10 S :   -0.090958
  11 P :    0.602225
  12 S :   -0.314112
  13 O :   -0.383791
  14 C :   -0.000468
  15 C :   -0.316536
  16 O :   -0.348068
  17 C :   -0.022901
  18 C :   -0.280764
  19 H :    0.118857
  20 H :    0.118424
  21 H :    0.113862
  22 H :    0.106851
  23 H :    0.107766
  24 H :    0.115844
  25 H :    0.102412
  26 H :    0.112783
  27 H :    0.116044
  28 H :    0.124458
  29 H :    0.193615
  30 H :    0.194037
  31 H :    0.114028
  32 H :    0.104589
  33 H :    0.117247
  34 H :    0.129712
  35 H :    0.114314
  36 H :    0.117227
  37 H :    0.103930
  38 H :    0.116715
  39 H :    0.120076
  40 H :    0.105255
Sum of atomic charges:   -0.0000000

LOEWDIN ATOMIC CHARGES
----------------------
   0 C :   -0.350274
   1 C :   -0.119610
   2 O :   -0.246520
   3 P :    0.571449
   4 S :   -0.324024
   5 O :   -0.234888
   6 C :   -0.117190
   7 C :   -0.364955
   8 S :    0.089925
   9 C :   -0.488209
  10 S :    0.074824
  11 P :    0.572865
  12 S :   -0.309053
  13 O :   -0.248449
  14 C :   -0.115704
  15 C :   -0.370697
  16 O :   -0.231351
  17 C :   -0.115284
  18 C :   -0.357937
  19 H :    0.127552
  20 H :    0.127782
  21 H :    0.131820
  22 H :    0.112601
  23 H :    0.108914
  24 H :    0.112153
  25 H :    0.114334
  26 H :    0.130992
  27 H :    0.126124
  28 H :    0.122377
  29 H :    0.128462
  30 H :    0.128556
  31 H :    0.113842
  32 H :    0.118220
  33 H :    0.123329
  34 H :    0.122342
  35 H :    0.131732
  36 H :    0.120103
  37 H :    0.102599
  38 H :    0.124910
  39 H :    0.129016
  40 H :    0.127325

  Mayer bond orders larger than 0.100000
B(  0-C ,  1-C ) :   1.1611 B(  0-C , 19-H ) :   0.9515 B(  0-C , 20-H ) :   0.9503
B(  0-C , 21-H ) :   0.9416 B(  1-C ,  2-O ) :   0.9015 B(  1-C , 22-H ) :   0.9297
B(  1-C , 23-H ) :   0.9093 B(  2-O ,  3-P ) :   1.1127 B(  3-P ,  4-S ) :   1.5937
B(  3-P ,  5-O ) :   1.1226 B(  3-P ,  8-S ) :   0.9738 B(  4-S ,  8-S ) :   0.1098
B(  5-O ,  6-C ) :   0.9006 B(  6-C ,  7-C ) :   1.1656 B(  6-C , 24-H ) :   0.9156
B(  6-C , 25-H ) :   0.9298 B(  7-C , 26-H ) :   0.9385 B(  7-C , 27-H ) :   0.9460
B(  7-C , 28-H ) :   0.9334 B(  8-S ,  9-C ) :   1.0036 B(  9-C , 10-S ) :   1.0065
B(  9-C , 29-H ) :   0.8742 B(  9-C , 30-H ) :   0.8747 B( 10-S , 11-P ) :   0.9438
B( 10-S , 12-S ) :   0.1090 B( 11-P , 12-S ) :   1.6364 B( 11-P , 13-O ) :   1.0795
B( 11-P , 16-O ) :   1.1444 B( 13-O , 14-C ) :   0.9049 B( 14-C , 15-C ) :   1.1666
B( 14-C , 31-H ) :   0.9188 B( 14-C , 32-H ) :   0.9342 B( 15-C , 33-H ) :   0.9437
B( 15-C , 34-H ) :   0.9347 B( 15-C , 35-H ) :   0.9368 B( 16-O , 17-C ) :   0.8916
B( 17-C , 18-C ) :   1.1565 B( 17-C , 36-H ) :   0.9301 B( 17-C , 37-H ) :   0.9117
B( 18-C , 38-H ) :   0.9431 B( 18-C , 39-H ) :   0.9467 B( 18-C , 40-H ) :   0.9410

Dispersion correction           -0.064789439
FINAL SINGLE POINT ENERGY     -2929.524955772535

DIPOLE MOMENT
-------------

Method             : SCF
Type of density    : Electron Density
Multiplicity       :   1
Irrep              :   0
Energy             : -2929.6452746142113028 Eh
Relativity type    :
Basis              : AO
                                X                 Y                 Z
Electronic contribution:     -3.970125482      10.846946957     -13.522791959
Nuclear contribution   :      4.136210384     -11.650512212      14.769501250
                        -----------------------------------------
Total Dipole Moment    :      0.166084902      -0.803565255       1.246709291
                        -----------------------------------------
Magnitude (a.u.)       :      1.492509755
Magnitude (Debye)      :      3.793658311

Rotational constants in cm-1:             0.013174             0.004608             0.004399
Rotational constants in MHz :           394.947222           138.143395           131.885026

                             ****ORCA TERMINATED NORMALLY****
TOTAL RUN TIME: 0 days 0 hours 0 minutes 21 seconds 340 msec
