                         Program Version 6.0.1  -  RELEASE   -
|  1> ! pbe def2-sv(p) def2/J RI DEFGRID1 loosescf d4 GCP(DFT/SV(P)) printgap
|  2> %output
|  3>     printlevel normal
|  4> end
|  5> * xyz 0 1
|  6> C 5.5729723466 -0.5184291908 -0.7328948117
|  7> C 4.8037790418 -1.5922278289 -1.4844010992
|  8> O 3.5685482819 -1.9099983775 -0.8129126733
|  9> C 2.4919829812 -1.2083591732 -1.1053290192
| 10> O 2.4547040582 -0.297642947 -1.9020717685
| 11> C 1.2862952755 -1.7305005325 -0.3453560844
| 12> C 0.2232370174 -0.6502079217 -0.2311502542
| 13> H 0.1250915758 -0.1279013101 -1.1940084862
| 14> C 0.5278120947 0.4116651154 0.8032058381
| 15> O -0.3553523023 0.9950202275 1.4032502664
| 16> O 1.8027453234 0.6335819484 0.9617205248
| 17> C 2.1871947459 1.6787201981 1.8850891575
| 18> C 3.6692587069 1.9396086419 1.7151550247
| 19> S -1.407050945 -1.3526266882 0.1816616192
| 20> P -2.5643239817 0.4275221174 0.055010515
| 21> S -1.9036979755 1.8490357948 -1.1189773104
| 22> O -3.956333026 -0.1898793481 -0.4680993984
| 23> C -4.0945565197 -0.6994867167 -1.7963642658
| 24> O -3.0374189144 0.8928450622 1.4872711688
| 25> C -3.6635248742 -0.0095321799 2.4204831469
| 26> H 6.5236659454 -0.3458092931 -1.2263131959
| 27> H 5.0047599151 0.4083253384 -0.7263837374
| 28> H 5.7527643022 -0.8338610825 0.2909288426
| 29> H 5.3518457672 -2.5343878185 -1.5049975899
| 30> H 4.5727695098 -1.2619003746 -2.5010536249
| 31> H 1.6026689345 -2.0958396693 0.6303733564
| 32> H 0.8790483376 -2.5723580109 -0.9100729997
| 33> H 1.5848755117 2.5658124673 1.6668258337
| 34> H 1.9470120629 1.336165298 2.895892249
| 35> H 3.9751981194 2.7155783532 2.4087115103
| 36> H 4.233506529 1.034290032 1.9165420231
| 37> H 3.875190304 2.2681410421 0.7004531942
| 38> H -3.5753410929 -1.6539570253 -1.8830186947
| 39> H -3.687398984 0.0137496096 -2.5152921537
| 40> H -5.1625897824 -0.8274625303 -1.9522236898
| 41> H -3.7391479225 0.5529429908 3.3473903886
| 42> H -3.043358312 -0.8957637183 2.5572263289
| 43> H -4.6480846684 -0.2940655194 2.0536545822
| 44> *
| 45>
| 46>                          ****END OF INPUT****

CARTESIAN COORDINATES (ANGSTROEM)
---------------------------------
  C      5.572972   -0.518429   -0.732895
  C      4.803779   -1.592228   -1.484401
  O      3.568548   -1.909998   -0.812913
  C      2.491983   -1.208359   -1.105329
  O      2.454704   -0.297643   -1.902072
  C      1.286295   -1.730501   -0.345356
  C      0.223237   -0.650208   -0.231150
  H      0.125092   -0.127901   -1.194008
  C      0.527812    0.411665    0.803206
  O     -0.355352    0.995020    1.403250
  O      1.802745    0.633582    0.961721
  C      2.187195    1.678720    1.885089
  C      3.669259    1.939609    1.715155
  S     -1.407051   -1.352627    0.181662
  P     -2.564324    0.427522    0.055011
  S     -1.903698    1.849036   -1.118977
  O     -3.956333   -0.189879   -0.468099
  C     -4.094557   -0.699487   -1.796364
  O     -3.037419    0.892845    1.487271
  C     -3.663525   -0.009532    2.420483
  H      6.523666   -0.345809   -1.226313
  H      5.004760    0.408325   -0.726384
  H      5.752764   -0.833861    0.290929
  H      5.351846   -2.534388   -1.504998
  H      4.572770   -1.261900   -2.501054
  H      1.602669   -2.095840    0.630373
  H      0.879048   -2.572358   -0.910073
  H      1.584876    2.565812    1.666826
  H      1.947012    1.336165    2.895892
  H      3.975198    2.715578    2.408712
  H      4.233507    1.034290    1.916542
  H      3.875190    2.268141    0.700453
  H     -3.575341   -1.653957   -1.883019
  H     -3.687399    0.013750   -2.515292
  H     -5.162590   -0.827463   -1.952224
  H     -3.739148    0.552943    3.347390
  H     -3.043358   -0.895764    2.557226
  H     -4.648085   -0.294066    2.053655

 Total Charge           Charge          ....    0
 Multiplicity           Mult            ....    1
 Number of Electrons    NEL             ....  174
 Basis Dimension        Dim             ....  316

ORBITAL ENERGIES
----------------

  NO   OCC          E(Eh)            E(eV)
   0   2.0000     -88.034970     -2395.5533
   1   2.0000     -87.968050     -2393.7323
   2   2.0000     -76.414881     -2079.3546
   3   2.0000     -18.818850      -512.0869
   4   2.0000     -18.808002      -511.7918
   5   2.0000     -18.778759      -510.9960
   6   2.0000     -18.776779      -510.9421
   7   2.0000     -18.745376      -510.0876
   8   2.0000     -18.743379      -510.0333
   9   2.0000     -10.017765      -272.5973
  10   2.0000     -10.017171      -272.5811
  11   2.0000      -9.956413      -270.9278
  12   2.0000      -9.954080      -270.8643
  13   2.0000      -9.942670      -270.5538
  14   2.0000      -9.940533      -270.4957
  15   2.0000      -9.932596      -270.2797
  16   2.0000      -9.918210      -269.8882
  17   2.0000      -9.895678      -269.2751
  18   2.0000      -9.893506      -269.2160
  19   2.0000      -7.679778      -208.9774
  20   2.0000      -7.613314      -207.1688
  21   2.0000      -6.411061      -174.4538
  22   2.0000      -5.707485      -155.3086
  23   2.0000      -5.704408      -155.2248
  24   2.0000      -5.696872      -155.0198
  25   2.0000      -5.642615      -153.5434
  26   2.0000      -5.633937      -153.3072
  27   2.0000      -5.633048      -153.2830
  28   2.0000      -4.633855      -126.0936
  29   2.0000      -4.633113      -126.0734
  30   2.0000      -4.631327      -126.0248
  31   2.0000      -1.026478       -27.9319
  32   2.0000      -1.016087       -27.6491
  33   2.0000      -0.973435       -26.4885
  34   2.0000      -0.928354       -25.2618
  35   2.0000      -0.923946       -25.1418
  36   2.0000      -0.922171       -25.0935
  37   2.0000      -0.764726       -20.8093
  38   2.0000      -0.716870       -19.5070
  39   2.0000      -0.714706       -19.4482
  40   2.0000      -0.688234       -18.7278
  41   2.0000      -0.658243       -17.9117
  42   2.0000      -0.625488       -17.0204
  43   2.0000      -0.620854       -16.8943
  44   2.0000      -0.608363       -16.5544
  45   2.0000      -0.599483       -16.3128
  46   2.0000      -0.562128       -15.2963
  47   2.0000      -0.519512       -14.1366
  48   2.0000      -0.505498       -13.7553
  49   2.0000      -0.502593       -13.6762
  50   2.0000      -0.476935       -12.9780
  51   2.0000      -0.470721       -12.8090
  52   2.0000      -0.462830       -12.5942
  53   2.0000      -0.449504       -12.2316
  54   2.0000      -0.443296       -12.0627
  55   2.0000      -0.432202       -11.7608
  56   2.0000      -0.423268       -11.5177
  57   2.0000      -0.416640       -11.3373
  58   2.0000      -0.412786       -11.2325
  59   2.0000      -0.408066       -11.1040
  60   2.0000      -0.402583       -10.9548
  61   2.0000      -0.395038       -10.7495
  62   2.0000      -0.390408       -10.6235
  63   2.0000      -0.381982       -10.3943
  64   2.0000      -0.379703       -10.3322
  65   2.0000      -0.368956       -10.0398
  66   2.0000      -0.366706        -9.9786
  67   2.0000      -0.357815        -9.7366
  68   2.0000      -0.351113        -9.5543
  69   2.0000      -0.342270        -9.3136
  70   2.0000      -0.336410        -9.1542
  71   2.0000      -0.329652        -8.9703
  72   2.0000      -0.325318        -8.8524
  73   2.0000      -0.312731        -8.5099
  74   2.0000      -0.308357        -8.3908
  75   2.0000      -0.300063        -8.1651
  76   2.0000      -0.289298        -7.8722
  77   2.0000      -0.285369        -7.7653
  78   2.0000      -0.273185        -7.4337
  79   2.0000      -0.265343        -7.2203
  80   2.0000      -0.260302        -7.0832
  81   2.0000      -0.248465        -6.7611
  82   2.0000      -0.234363        -6.3773
  83   2.0000      -0.229550        -6.2464
  84   2.0000      -0.217780        -5.9261
  85   2.0000      -0.189770        -5.1639
  86   2.0000      -0.181544        -4.9401
  87   0.0000      -0.042717        -1.1624
  88   0.0000      -0.024977        -0.6797
  89   0.0000      -0.021832        -0.5941
  90   0.0000       0.013121         0.3570
  91   0.0000       0.029443         0.8012

MULLIKEN ATOMIC CHARGES
-----------------------
   0 C :   -0.317599
   1 C :   -0.013838
   2 O :   -0.232118
   3 C :    0.119337
   4 O :   -0.199465
   5 C :   -0.076322
   6 C :   -0.327785
   7 H :    0.175782
   8 C :    0.223126
   9 O :   -0.187390
  10 O :   -0.220444
  11 C :   -0.030529
  12 C :   -0.290172
  13 S :   -0.111868
  14 P :    0.627089
  15 S :   -0.323524
  16 O :   -0.398453
  17 C :   -0.097495
  18 O :   -0.353506
  19 C :   -0.101011
  20 H :    0.114814
  21 H :    0.136475
  22 H :    0.117177
  23 H :    0.105014
  24 H :    0.111094
  25 H :    0.113056
  26 H :    0.128664
  27 H :    0.125574
  28 H :    0.108282
  29 H :    0.115366
  30 H :    0.117901
  31 H :    0.136868
  32 H :    0.107207
  33 H :    0.115098
  34 H :    0.119256
  35 H :    0.129055
  36 H :    0.113170
  37 H :    0.122115
Sum of atomic charges:    0.0000000

LOEWDIN ATOMIC CHARGES
----------------------
   0 C :   -0.356328
   1 C :   -0.109357
   2 O :   -0.059652
   3 C :    0.034270
   4 O :   -0.162036
   5 C :   -0.251441
   6 C :   -0.276070
   7 H :    0.151844
   8 C :    0.020859
   9 O :   -0.154037
  10 O :   -0.041546
  11 C :   -0.101711
  12 C :   -0.351603
  13 S :    0.087052
  14 P :    0.586718
  15 S :   -0.320185
  16 O :   -0.269139
  17 C :   -0.220282
  18 O :   -0.231677
  19 C :   -0.208058
  20 H :    0.132139
  21 H :    0.131053
  22 H :    0.124142
  23 H :    0.118658
  24 H :    0.121399
  25 H :    0.138153
  26 H :    0.150229
  27 H :    0.126920
  28 H :    0.118884
  29 H :    0.133660
  30 H :    0.125725
  31 H :    0.131340
  32 H :    0.104162
  33 H :    0.109256
  34 H :    0.119244
  35 H :    0.125100
  36 H :    0.107487
  37 H :    0.114826

  Mayer bond orders larger than 0.100000
B(  0-C ,  1-C ) :   1.1758 B(  0-C , 20-H ) :   0.9414 B(  0-C , 21-H ) :   0.9390
B(  0-C , 22-H ) :   0.9453 B(  1-C ,  2-O ) :   0.9130 B(  1-C , 23-H ) :   0.9373
B(  1-C , 24-H ) :   0.9132 B(  2-O ,  3-C ) :   1.2386 B(  3-C ,  4-O ) :   2.0397
B(  3-C ,  5-C ) :   1.0009 B(  5-C ,  6-C ) :   1.0468 B(  5-C , 25-H ) :   0.9066
B(  5-C , 26-H ) :   0.8763 B(  6-C ,  7-H ) :   0.8225 B(  6-C ,  8-C ) :   0.9103
B(  6-C , 13-S ) :   1.0325 B(  8-C ,  9-O ) :   1.9998 B(  8-C , 10-O ) :   1.2722
B( 10-O , 11-C ) :   0.8906 B( 11-C , 12-C ) :   1.1575 B( 11-C , 27-H ) :   0.9258
B( 11-C , 28-H ) :   0.9343 B( 12-C , 29-H ) :   0.9397 B( 12-C , 30-H ) :   0.9451
B( 12-C , 31-H ) :   0.9410 B( 13-S , 14-P ) :   0.9320 B( 13-S , 15-S ) :   0.1124
B( 14-P , 15-S ) :   1.6280 B( 14-P , 16-O ) :   1.0435 B( 14-P , 18-O ) :   1.1295
B( 16-O , 17-C ) :   0.9410 B( 17-C , 32-H ) :   0.9464 B( 17-C , 33-H ) :   0.9326
B( 17-C , 34-H ) :   0.9590 B( 18-O , 19-C ) :   0.9241 B( 19-C , 35-H ) :   0.9599
B( 19-C , 36-H ) :   0.9388 B( 19-C , 37-H ) :   0.9478

Dispersion correction           -0.050098503
FINAL SINGLE POINT ENERGY     -1979.015918164289

DIPOLE MOMENT
-------------

Method             : SCF
Type of density    : Electron Density
Multiplicity       :   1
Irrep              :   0
Energy             : -1979.1477172579402577 Eh
Relativity type    :
Basis              : AO
                                X                 Y                 Z
Electronic contribution:    -21.270931389       1.430122979      -2.926008875
Nuclear contribution   :     22.632823289      -2.785272022       3.791833791
                        -----------------------------------------
Total Dipole Moment    :      1.361891900      -1.355149044       0.865824916
                        -----------------------------------------
Magnitude (a.u.)       :      2.107327992
Magnitude (Debye)      :      5.356402075

Rotational constants in cm-1:             0.017414             0.005415             0.004845
Rotational constants in MHz :           522.049297           162.331162           145.239509

                             ****ORCA TERMINATED NORMALLY****
TOTAL RUN TIME: 0 days 0 hours 0 minutes 39 seconds 14 msec
