                         Program Version 6.0.0  -   RELEASE  -
|  1> ! pbe def2-sv(p) def2/J RI DEFGRID1 loosescf d4 GCP(DFT/SV(P)) printgap
|  2> %output
|  3>     printlevel normal
|  4> end
|  5> * xyz 0 1
|  6> C 1.7279970765 -1.597298152 -2.9028872196
|  7> C 2.2871706705 -0.2565272292 -2.4667779887
|  8> O 2.9980535768 -0.3693063191 -1.2204556219
|  9> P 2.3251837428 -0.095182242 0.1808554031
| 10> S 1.1482974293 1.4833017861 0.27266095
| 11> O 3.6799248731 0.0108466048 0.9867137432
| 12> C 3.6696094857 0.2556298184 2.4080515358
| 13> C 5.08740013 0.5851009934 2.8286416949
| 14> S 1.4882398427 -1.9281846349 0.8587867322
| 15> C -0.2554944665 -1.4802819099 1.0535629441
| 16> S -1.0868261982 -1.1360922753 -0.5288069178
| 17> P -2.180563108 0.6261699058 -0.0281552374
| 18> S -2.0632976406 1.2093770562 1.8383686363
| 19> O -3.6666214372 0.3089558303 -0.5140708875
| 20> C -4.6456480608 -0.318885839 0.3300777654
| 21> C -4.2580678243 -1.7303830552 0.7214438496
| 22> O -1.7538604461 1.7345863844 -1.0650830508
| 23> C -2.2256774171 1.8291273567 -2.4321385808
| 24> C -1.8640589941 0.6142890473 -3.260069418
| 25> H 2.5207263608 -2.3399275159 -2.9076387984
| 26> H 0.9408801995 -1.9268081709 -2.2274722105
| 27> H 1.3173490034 -1.5047573914 -3.9033182027
| 28> H 1.4975045352 0.4959057096 -2.3544820484
| 29> H 3.0344835685 0.1096452965 -3.1733760699
| 30> H 2.9853796235 1.0856369755 2.6178721599
| 31> H 3.3043695072 -0.6443942064 2.9120672107
| 32> H 5.431254649 1.4766194729 2.3120941433
| 33> H 5.1114197619 0.757550934 3.899611961
| 34> H 5.7458339703 -0.2415882178 2.579247407
| 35> H -0.3552869806 -0.5948232704 1.6871636373
| 36> H -0.7187537241 -2.3495472168 1.5139282568
| 37> H -4.7790814084 0.3012809889 1.2218505692
| 38> H -5.5541109938 -0.3030351962 -0.2738573287
| 39> H -5.0895281232 -2.1970584861 1.2397584181
| 40> H -4.0063728209 -2.3155009657 -0.1593859709
| 41> H -3.3992030219 -1.7030441156 1.3907858413
| 42> H -3.3069620558 1.9789715594 -2.4086572938
| 43> H -1.7320675217 2.7304677058 -2.7994395146
| 44> H -2.3569697781 -0.2721626104 -2.8642747373
| 45> H -2.1891659626 0.7748412276 -4.2832033693
| 46> H -0.7894086824 0.4512282261 -3.2475192004
| 47> *
| 48>
| 49>                          ****END OF INPUT****

CARTESIAN COORDINATES (ANGSTROEM)
---------------------------------
  C      1.727997   -1.597298   -2.902887
  C      2.287171   -0.256527   -2.466778
  O      2.998054   -0.369306   -1.220456
  P      2.325184   -0.095182    0.180855
  S      1.148297    1.483302    0.272661
  O      3.679925    0.010847    0.986714
  C      3.669609    0.255630    2.408052
  C      5.087400    0.585101    2.828642
  S      1.488240   -1.928185    0.858787
  C     -0.255494   -1.480282    1.053563
  S     -1.086826   -1.136092   -0.528807
  P     -2.180563    0.626170   -0.028155
  S     -2.063298    1.209377    1.838369
  O     -3.666621    0.308956   -0.514071
  C     -4.645648   -0.318886    0.330078
  C     -4.258068   -1.730383    0.721444
  O     -1.753860    1.734586   -1.065083
  C     -2.225677    1.829127   -2.432139
  C     -1.864059    0.614289   -3.260069
  H      2.520726   -2.339928   -2.907639
  H      0.940880   -1.926808   -2.227472
  H      1.317349   -1.504757   -3.903318
  H      1.497505    0.495906   -2.354482
  H      3.034484    0.109645   -3.173376
  H      2.985380    1.085637    2.617872
  H      3.304370   -0.644394    2.912067
  H      5.431255    1.476619    2.312094
  H      5.111420    0.757551    3.899612
  H      5.745834   -0.241588    2.579247
  H     -0.355287   -0.594823    1.687164
  H     -0.718754   -2.349547    1.513928
  H     -4.779081    0.301281    1.221851
  H     -5.554111   -0.303035   -0.273857
  H     -5.089528   -2.197058    1.239758
  H     -4.006373   -2.315501   -0.159386
  H     -3.399203   -1.703044    1.390786
  H     -3.306962    1.978972   -2.408657
  H     -1.732068    2.730468   -2.799440
  H     -2.356970   -0.272163   -2.864275
  H     -2.189166    0.774841   -4.283203
  H     -0.789409    0.451228   -3.247519

 Total Charge           Charge          ....    0
 Multiplicity           Mult            ....    1
 Number of Electrons    NEL             ....  202
 Basis Dimension        Dim             ....  334

ORBITAL ENERGIES
----------------

  NO   OCC          E(Eh)            E(eV)
   0   2.0000     -88.043886     -2395.7959
   1   2.0000     -88.040496     -2395.7037
   2   2.0000     -87.983073     -2394.1411
   3   2.0000     -87.980675     -2394.0759
   4   2.0000     -76.426061     -2079.6588
   5   2.0000     -76.420951     -2079.5198
   6   2.0000     -18.791182      -511.3341
   7   2.0000     -18.789163      -511.2791
   8   2.0000     -18.785728      -511.1857
   9   2.0000     -18.785565      -511.1812
  10   2.0000      -9.957258      -270.9508
  11   2.0000      -9.953333      -270.8440
  12   2.0000      -9.952728      -270.8275
  13   2.0000      -9.950162      -270.7577
  14   2.0000      -9.948706      -270.7180
  15   2.0000      -9.892931      -269.2003
  16   2.0000      -9.885583      -269.0004
  17   2.0000      -9.884034      -268.9582
  18   2.0000      -9.881034      -268.8766
  19   2.0000      -7.688849      -209.2242
  20   2.0000      -7.684674      -209.1106
  21   2.0000      -7.628229      -207.5747
  22   2.0000      -7.625100      -207.4895
  23   2.0000      -6.422932      -174.7769
  24   2.0000      -6.418509      -174.6565
  25   2.0000      -5.716773      -155.5613
  26   2.0000      -5.713054      -155.4601
  27   2.0000      -5.712594      -155.4476
  28   2.0000      -5.709359      -155.3596
  29   2.0000      -5.706118      -155.2714
  30   2.0000      -5.701573      -155.1477
  31   2.0000      -5.657305      -153.9431
  32   2.0000      -5.654017      -153.8536
  33   2.0000      -5.648673      -153.7082
  34   2.0000      -5.648360      -153.6997
  35   2.0000      -5.645759      -153.6289
  36   2.0000      -5.645337      -153.6174
  37   2.0000      -4.645930      -126.4222
  38   2.0000      -4.644378      -126.3799
  39   2.0000      -4.643414      -126.3537
  40   2.0000      -4.640712      -126.2802
  41   2.0000      -4.640616      -126.2776
  42   2.0000      -4.638850      -126.2295
  43   2.0000      -0.986829       -26.8530
  44   2.0000      -0.985659       -26.8212
  45   2.0000      -0.941703       -25.6250
  46   2.0000      -0.941367       -25.6159
  47   2.0000      -0.759080       -20.6556
  48   2.0000      -0.719323       -19.5738
  49   2.0000      -0.711452       -19.3596
  50   2.0000      -0.692061       -18.8319
  51   2.0000      -0.682183       -18.5631
  52   2.0000      -0.677458       -18.4346
  53   2.0000      -0.647420       -17.6172
  54   2.0000      -0.631093       -17.1729
  55   2.0000      -0.599666       -16.3177
  56   2.0000      -0.592327       -16.1180
  57   2.0000      -0.581147       -15.8138
  58   2.0000      -0.562218       -15.2987
  59   2.0000      -0.555991       -15.1293
  60   2.0000      -0.502194       -13.6654
  61   2.0000      -0.495136       -13.4733
  62   2.0000      -0.472156       -12.8480
  63   2.0000      -0.469113       -12.7652
  64   2.0000      -0.452360       -12.3093
  65   2.0000      -0.447054       -12.1650
  66   2.0000      -0.445099       -12.1118
  67   2.0000      -0.435057       -11.8385
  68   2.0000      -0.426461       -11.6046
  69   2.0000      -0.424784       -11.5590
  70   2.0000      -0.406249       -11.0546
  71   2.0000      -0.401662       -10.9298
  72   2.0000      -0.394026       -10.7220
  73   2.0000      -0.388451       -10.5703
  74   2.0000      -0.372939       -10.1482
  75   2.0000      -0.369117       -10.0442
  76   2.0000      -0.368311       -10.0223
  77   2.0000      -0.359789        -9.7903
  78   2.0000      -0.354007        -9.6330
  79   2.0000      -0.353408        -9.6167
  80   2.0000      -0.346684        -9.4337
  81   2.0000      -0.344910        -9.3855
  82   2.0000      -0.340046        -9.2531
  83   2.0000      -0.336617        -9.1598
  84   2.0000      -0.333198        -9.0668
  85   2.0000      -0.315796        -8.5932
  86   2.0000      -0.308766        -8.4020
  87   2.0000      -0.300077        -8.1655
  88   2.0000      -0.295992        -8.0544
  89   2.0000      -0.294821        -8.0225
  90   2.0000      -0.288330        -7.8459
  91   2.0000      -0.273189        -7.4338
  92   2.0000      -0.265343        -7.2204
  93   2.0000      -0.259224        -7.0539
  94   2.0000      -0.254830        -6.9343
  95   2.0000      -0.233528        -6.3546
  96   2.0000      -0.220973        -6.0130
  97   2.0000      -0.212645        -5.7864
  98   2.0000      -0.198628        -5.4049
  99   2.0000      -0.193522        -5.2660
 100   2.0000      -0.183744        -4.9999
 101   0.0000      -0.042956        -1.1689
 102   0.0000      -0.037310        -1.0153
 103   0.0000      -0.010675        -0.2905
 104   0.0000       0.007595         0.2067
 105   0.0000       0.008079         0.2198

MULLIKEN ATOMIC CHARGES
-----------------------
   0 C :   -0.304749
   1 C :   -0.024688
   2 O :   -0.353210
   3 P :    0.589684
   4 S :   -0.304217
   5 O :   -0.358949
   6 C :   -0.012836
   7 C :   -0.276910
   8 S :   -0.122536
   9 C :   -0.329647
  10 S :   -0.132650
  11 P :    0.631759
  12 S :   -0.295927
  13 O :   -0.389002
  14 C :    0.005886
  15 C :   -0.318701
  16 O :   -0.359260
  17 C :    0.015406
  18 C :   -0.357175
  19 H :    0.114551
  20 H :    0.132481
  21 H :    0.107312
  22 H :    0.120885
  23 H :    0.105927
  24 H :    0.107095
  25 H :    0.100630
  26 H :    0.121443
  27 H :    0.110998
  28 H :    0.116283
  29 H :    0.202341
  30 H :    0.179750
  31 H :    0.111856
  32 H :    0.102004
  33 H :    0.112672
  34 H :    0.118797
  35 H :    0.120328
  36 H :    0.109598
  37 H :    0.112544
  38 H :    0.129348
  39 H :    0.116296
  40 H :    0.144584
Sum of atomic charges:   -0.0000000

LOEWDIN ATOMIC CHARGES
----------------------
   0 C :   -0.366563
   1 C :   -0.117740
   2 O :   -0.233135
   3 P :    0.557732
   4 S :   -0.297781
   5 O :   -0.238219
   6 C :   -0.121924
   7 C :   -0.349648
   8 S :    0.069940
   9 C :   -0.480372
  10 S :    0.071655
  11 P :    0.579908
  12 S :   -0.292046
  13 O :   -0.252772
  14 C :   -0.116510
  15 C :   -0.371431
  16 O :   -0.232514
  17 C :   -0.105958
  18 C :   -0.372243
  19 H :    0.126738
  20 H :    0.111978
  21 H :    0.127033
  22 H :    0.104986
  23 H :    0.119201
  24 H :    0.110389
  25 H :    0.105760
  26 H :    0.129469
  27 H :    0.130312
  28 H :    0.127092
  29 H :    0.123457
  30 H :    0.132624
  31 H :    0.112057
  32 H :    0.117250
  33 H :    0.130600
  34 H :    0.123228
  35 H :    0.118947
  36 H :    0.114851
  37 H :    0.124396
  38 H :    0.118297
  39 H :    0.133584
  40 H :    0.127375

  Mayer bond orders larger than 0.100000
B(  0-C ,  1-C ) :   1.1675 B(  0-C , 19-H ) :   0.9443 B(  0-C , 20-H ) :   0.9303
B(  0-C , 21-H ) :   0.9380 B(  1-C ,  2-O ) :   0.9139 B(  1-C , 22-H ) :   0.8981
B(  1-C , 23-H ) :   0.9331 B(  2-O ,  3-P ) :   1.1321 B(  3-P ,  4-S ) :   1.6435
B(  3-P ,  5-O ) :   1.1266 B(  3-P ,  8-S ) :   0.9306 B(  4-S ,  8-S ) :   0.1218
B(  5-O ,  6-C ) :   0.9091 B(  6-C ,  7-C ) :   1.1619 B(  6-C , 24-H ) :   0.9125
B(  6-C , 25-H ) :   0.9234 B(  7-C , 26-H ) :   0.9511 B(  7-C , 27-H ) :   0.9422
B(  7-C , 28-H ) :   0.9507 B(  8-S ,  9-C ) :   1.0069 B(  9-C , 10-S ) :   0.9950
B(  9-C , 29-H ) :   0.8492 B(  9-C , 30-H ) :   0.9033 B( 10-S , 11-P ) :   0.9331
B( 10-S , 12-S ) :   0.1170 B( 11-P , 12-S ) :   1.6240 B( 11-P , 13-O ) :   1.0593
B( 11-P , 16-O ) :   1.1327 B( 12-S , 29-H ) :   0.1049 B( 13-O , 14-C ) :   0.9134
B( 14-C , 15-C ) :   1.1656 B( 14-C , 31-H ) :   0.9173 B( 14-C , 32-H ) :   0.9344
B( 15-C , 33-H ) :   0.9365 B( 15-C , 34-H ) :   0.9419 B( 15-C , 35-H ) :   0.9350
B( 16-O , 17-C ) :   0.9040 B( 17-C , 18-C ) :   1.1698 B( 17-C , 36-H ) :   0.9269
B( 17-C , 37-H ) :   0.9321 B( 18-C , 38-H ) :   0.9313 B( 18-C , 39-H ) :   0.9339
B( 18-C , 40-H ) :   0.9325

Dispersion correction           -0.066492739
FINAL SINGLE POINT ENERGY     -2929.515431413260

DIPOLE MOMENT
-------------

Method             : SCF
Type of density    : Electron Density
Multiplicity       :   1
Irrep              :   0
Energy             : -2929.6334351785785657 Eh
Relativity type    :
Basis              : AO
                                X                 Y                 Z
Electronic contribution:      1.774832784       5.428743619       8.018216956
Nuclear contribution   :     -2.335810748      -6.284005828      -8.891627624
                        -----------------------------------------
Total Dipole Moment    :     -0.560977964      -0.855262210      -0.873410668
                        -----------------------------------------
Magnitude (a.u.)       :      1.344996624
Magnitude (Debye)      :      3.418709729

Rotational constants in cm-1:             0.012140             0.005224             0.004727
Rotational constants in MHz :           363.939362           156.619974           141.726728

                             ****ORCA TERMINATED NORMALLY****
TOTAL RUN TIME: 0 days 0 hours 0 minutes 21 seconds 178 msec
