                         Program Version 6.0.0  -   RELEASE  -
|  1> ! wb97x-v def2-tzvp def2/J RIJCOSX DEFGRID2 scfconv7 GCP(DFT/TZ) printgap
|  2> %output
|  3>     printlevel normal
|  4> end
|  5> * xyz 0 1
|  6> C 1.8631160810280605 -1.4345229941273343 -0.00024644445495358263
|  7> C 0.5568419224856259 -0.7052374630871457 0.00017373630441313743
|  8> C -0.6579011303071997 -1.3898772376899564 0.0002601884778466924
|  9> C -1.8518825005898967 -0.6818826813065597 9.591249962006456e-05
| 10> N -1.9142499675250204 0.6566708106579294 6.258081901754347e-05
| 11> C -0.7420822069896312 1.309460904379338 0.00011933292331203076
| 12> C 0.5111045849566492 0.7003522092059604 8.62357504903092e-05
| 13> C 1.7615700661198954 1.5250767748212017 -0.00016110175767731585
| 14> H 2.4628019358706066 -1.162616642093357 0.8759998000209488
| 15> H 1.711396299217266 -2.515912734570108 0.003467435201443548
| 16> H 2.4586950892449084 -1.1683196621218592 -0.8810886141282102
| 17> H -0.6731746265075749 -2.4757486430559945 0.00042484931770496215
| 18> H -2.801067705101612 -1.2137440670209785 0.00023158580309830533
| 19> H -0.8001880573026482 2.3972869034159725 -4.342755534488768e-05
| 20> H 1.5256612924971173 2.5919687801017326 0.0004137278033188983
| 21> H 2.378495828267526 1.3078590594231823 0.8792130379272032
| 22> H 2.3776247195382276 1.308613564100327 -0.8803424834303195
| 23> *
| 24>
| 25>                          ****END OF INPUT****

CARTESIAN COORDINATES (ANGSTROEM)
---------------------------------
  C      1.863116   -1.434523   -0.000246
  C      0.556842   -0.705237    0.000174
  C     -0.657901   -1.389877    0.000260
  C     -1.851883   -0.681883    0.000096
  N     -1.914250    0.656671    0.000063
  C     -0.742082    1.309461    0.000119
  C      0.511105    0.700352    0.000086
  C      1.761570    1.525077   -0.000161
  H      2.462802   -1.162617    0.876000
  H      1.711396   -2.515913    0.003467
  H      2.458695   -1.168320   -0.881089
  H     -0.673175   -2.475749    0.000425
  H     -2.801068   -1.213744    0.000232
  H     -0.800188    2.397287   -0.000043
  H      1.525661    2.591969    0.000414
  H      2.378496    1.307859    0.879213
  H      2.377625    1.308614   -0.880342

 Total Charge           Charge          ....    0
 Multiplicity           Mult            ....    1
 Number of Electrons    NEL             ....   58
 Basis Dimension        Dim             ....  302

ORBITAL ENERGIES
----------------

  NO   OCC          E(Eh)            E(eV)
   0   2.0000     -16.519058      -449.5064
   1   2.0000     -12.077801      -328.6537
   2   2.0000     -12.077121      -328.6352
   3   2.0000     -12.075400      -328.5883
   4   2.0000     -12.062559      -328.2389
   5   2.0000     -12.055178      -328.0381
   6   2.0000     -12.052809      -327.9736
   7   2.0000     -12.051920      -327.9494
   8   2.0000      -1.511366       -41.1264
   9   2.0000      -1.362812       -37.0840
  10   2.0000      -1.304340       -35.4929
  11   2.0000      -1.235170       -33.6107
  12   2.0000      -1.206422       -32.8284
  13   2.0000      -1.127335       -30.6763
  14   2.0000      -1.104962       -30.0675
  15   2.0000      -1.003335       -27.3021
  16   2.0000      -0.959595       -26.1119
  17   2.0000      -0.916070       -24.9275
  18   2.0000      -0.877255       -23.8713
  19   2.0000      -0.870169       -23.6785
  20   2.0000      -0.863305       -23.4917
  21   2.0000      -0.851422       -23.1684
  22   2.0000      -0.835572       -22.7371
  23   2.0000      -0.830355       -22.5951
  24   2.0000      -0.813487       -22.1361
  25   2.0000      -0.812438       -22.1076
  26   2.0000      -0.759416       -20.6647
  27   2.0000      -0.682520       -18.5723
  28   2.0000      -0.642962       -17.4959
  29   0.0000      -0.288801        -7.8587
  30   0.0000      -0.241112        -6.5610
  31   0.0000      -0.097639        -2.6569
  32   0.0000      -0.062962        -1.7133
  33   0.0000      -0.025336        -0.6894

MULLIKEN ATOMIC CHARGES
-----------------------
   0 C :   -0.349789
   1 C :   -0.007818
   2 C :   -0.117558
   3 C :   -0.055752
   4 N :   -0.221356
   5 C :   -0.103998
   6 C :    0.107206
   7 C :   -0.333363
   8 H :    0.126115
   9 H :    0.121855
  10 H :    0.126339
  11 H :    0.113435
  12 H :    0.119685
  13 H :    0.110867
  14 H :    0.120818
  15 H :    0.121688
  16 H :    0.121626
Sum of atomic charges:    0.0000000

LOEWDIN ATOMIC CHARGES
----------------------
   0 C :   -0.241906
   1 C :   -0.131664
   2 C :   -0.132318
   3 C :   -0.206570
   4 N :    0.115176
   5 C :   -0.181060
   6 C :   -0.158530
   7 C :   -0.247786
   8 H :    0.130691
   9 H :    0.126515
  10 H :    0.130771
  11 H :    0.144367
  12 H :    0.133982
  13 H :    0.136158
  14 H :    0.127354
  15 H :    0.127397
  16 H :    0.127423

  Mayer bond orders larger than 0.100000
B(  0-C ,  1-C ) :   0.9500 B(  0-C ,  8-H ) :   0.9750 B(  0-C ,  9-H ) :   0.9871
B(  0-C , 10-H ) :   0.9749 B(  1-C ,  2-C ) :   1.4423 B(  1-C ,  6-C ) :   1.3399
B(  2-C ,  3-C ) :   1.4094 B(  2-C , 11-H ) :   0.9629 B(  3-C ,  4-N ) :   1.5060
B(  3-C , 12-H ) :   0.9862 B(  4-N ,  5-C ) :   1.5189 B(  5-C ,  6-C ) :   1.3998
B(  5-C , 13-H ) :   0.9982 B(  6-C ,  7-C ) :   0.9397 B(  7-C , 14-H ) :   0.9838
B(  7-C , 15-H ) :   0.9767 B(  7-C , 16-H ) :   0.9764

FINAL SINGLE POINT ENERGY      -326.930885637608

DIPOLE MOMENT
-------------

Method             : SCF
Type of density    : Electron Density
Multiplicity       :   1
Irrep              :   0
Energy             :  -326.9408053737075761 Eh
Relativity type    :
Basis              : AO
                                X                 Y                 Z
Electronic contribution:     -7.073973705       0.445647415       0.001540585
Nuclear contribution   :      8.158491936      -0.879944145      -0.001859741
                        -----------------------------------------
Total Dipole Moment    :      1.084518232      -0.434296730      -0.000319157
                        -----------------------------------------
Magnitude (a.u.)       :      1.168243787
Magnitude (Debye)      :      2.969439722

Rotational constants in cm-1:             0.108163             0.072918             0.044268
Rotational constants in MHz :          3242.649708          2186.033853          1327.129293

                             ****ORCA TERMINATED NORMALLY****
TOTAL RUN TIME: 0 days 0 hours 2 minutes 16 seconds 911 msec
