                         Program Version 6.0.0  -   RELEASE  -
|  1> ! wb97x-v def2-tzvp def2/J RIJCOSX DEFGRID2 scfconv7 GCP(DFT/TZ) printgap
|  2> %output
|  3>     printlevel normal
|  4> end
|  5> %cpcm
|  6>     smd true
|  7>     smdsolvent "water"
|  8> end
|  9> * xyz 0 1
| 10> C 1.8631160810280605 -1.4345229941273343 -0.00024644445495358263
| 11> C 0.5568419224856259 -0.7052374630871457 0.00017373630441313743
| 12> C -0.6579011303071997 -1.3898772376899564 0.0002601884778466924
| 13> C -1.8518825005898967 -0.6818826813065597 9.591249962006456e-05
| 14> N -1.9142499675250204 0.6566708106579294 6.258081901754347e-05
| 15> C -0.7420822069896312 1.309460904379338 0.00011933292331203076
| 16> C 0.5111045849566492 0.7003522092059604 8.62357504903092e-05
| 17> C 1.7615700661198954 1.5250767748212017 -0.00016110175767731585
| 18> H 2.4628019358706066 -1.162616642093357 0.8759998000209488
| 19> H 1.711396299217266 -2.515912734570108 0.003467435201443548
| 20> H 2.4586950892449084 -1.1683196621218592 -0.8810886141282102
| 21> H -0.6731746265075749 -2.4757486430559945 0.00042484931770496215
| 22> H -2.801067705101612 -1.2137440670209785 0.00023158580309830533
| 23> H -0.8001880573026482 2.3972869034159725 -4.342755534488768e-05
| 24> H 1.5256612924971173 2.5919687801017326 0.0004137278033188983
| 25> H 2.378495828267526 1.3078590594231823 0.8792130379272032
| 26> H 2.3776247195382276 1.308613564100327 -0.8803424834303195
| 27> *
| 28>
| 29>                          ****END OF INPUT****

CARTESIAN COORDINATES (ANGSTROEM)
---------------------------------
  C      1.863116   -1.434523   -0.000246
  C      0.556842   -0.705237    0.000174
  C     -0.657901   -1.389877    0.000260
  C     -1.851883   -0.681883    0.000096
  N     -1.914250    0.656671    0.000063
  C     -0.742082    1.309461    0.000119
  C      0.511105    0.700352    0.000086
  C      1.761570    1.525077   -0.000161
  H      2.462802   -1.162617    0.876000
  H      1.711396   -2.515913    0.003467
  H      2.458695   -1.168320   -0.881089
  H     -0.673175   -2.475749    0.000425
  H     -2.801068   -1.213744    0.000232
  H     -0.800188    2.397287   -0.000043
  H      1.525661    2.591969    0.000414
  H      2.378496    1.307859    0.879213
  H      2.377625    1.308614   -0.880342

 Total Charge           Charge          ....    0
 Multiplicity           Mult            ....    1
 Number of Electrons    NEL             ....   58
 Basis Dimension        Dim             ....  302

ORBITAL ENERGIES
----------------

  NO   OCC          E(Eh)            E(eV)
   0   2.0000     -16.524233      -449.6472
   1   2.0000     -12.076815      -328.6268
   2   2.0000     -12.075529      -328.5919
   3   2.0000     -12.070699      -328.4604
   4   2.0000     -12.058279      -328.1224
   5   2.0000     -12.047624      -327.8325
   6   2.0000     -12.037067      -327.5452
   7   2.0000     -12.035819      -327.5113
   8   2.0000      -1.515619       -41.2421
   9   2.0000      -1.357376       -36.9361
  10   2.0000      -1.300912       -35.3996
  11   2.0000      -1.224409       -33.3179
  12   2.0000      -1.198300       -32.6074
  13   2.0000      -1.122680       -30.5497
  14   2.0000      -1.098626       -29.8951
  15   2.0000      -0.999972       -27.2106
  16   2.0000      -0.955649       -26.0045
  17   2.0000      -0.907829       -24.7033
  18   2.0000      -0.871844       -23.7241
  19   2.0000      -0.862665       -23.4743
  20   2.0000      -0.852201       -23.1896
  21   2.0000      -0.840135       -22.8612
  22   2.0000      -0.819482       -22.2993
  23   2.0000      -0.814658       -22.1680
  24   2.0000      -0.813582       -22.1387
  25   2.0000      -0.800906       -21.7938
  26   2.0000      -0.763247       -20.7690
  27   2.0000      -0.679351       -18.4861
  28   2.0000      -0.641070       -17.4444
  29   0.0000      -0.288243        -7.8435
  30   0.0000      -0.239307        -6.5119
  31   0.0000      -0.094495        -2.5713
  32   0.0000      -0.054365        -1.4793
  33   0.0000      -0.015643        -0.4257

MULLIKEN ATOMIC CHARGES
-----------------------
   0 C :   -0.392661
   1 C :   -0.009339
   2 C :   -0.169766
   3 C :   -0.068474
   4 N :   -0.304945
   5 C :   -0.114156
   6 C :    0.083433
   7 C :   -0.376474
   8 H :    0.149249
   9 H :    0.146449
  10 H :    0.149356
  11 H :    0.162335
  12 H :    0.158794
  13 H :    0.153864
  14 H :    0.143175
  15 H :    0.144637
  16 H :    0.144524
Sum of atomic charges:    0.0000000

LOEWDIN ATOMIC CHARGES
----------------------
   0 C :   -0.240267
   1 C :   -0.126411
   2 C :   -0.131758
   3 C :   -0.221060
   4 N :    0.066423
   5 C :   -0.192779
   6 C :   -0.156788
   7 C :   -0.247374
   8 H :    0.137822
   9 H :    0.132017
  10 H :    0.137893
  11 H :    0.156438
  12 H :    0.141299
  13 H :    0.144272
  14 H :    0.131922
  15 H :    0.134172
  16 H :    0.134179

  Mayer bond orders larger than 0.100000
B(  0-C ,  1-C ) :   0.9626 B(  0-C ,  8-H ) :   0.9670 B(  0-C ,  9-H ) :   0.9814
B(  0-C , 10-H ) :   0.9668 B(  1-C ,  2-C ) :   1.4301 B(  1-C ,  6-C ) :   1.3249
B(  2-C ,  3-C ) :   1.4340 B(  2-C , 11-H ) :   0.9617 B(  3-C ,  4-N ) :   1.4922
B(  3-C , 12-H ) :   0.9670 B(  4-N ,  5-C ) :   1.5012 B(  5-C ,  6-C ) :   1.4304
B(  5-C , 13-H ) :   0.9730 B(  6-C ,  7-C ) :   0.9463 B(  7-C , 14-H ) :   0.9793
B(  7-C , 15-H ) :   0.9697 B(  7-C , 16-H ) :   0.9695

FINAL SINGLE POINT ENERGY      -326.938588526598

DIPOLE MOMENT
-------------

Method             : SCF
Type of density    : Electron Density
Multiplicity       :   1
Irrep              :   0
Energy             :  -326.9485082626976009 Eh
Relativity type    :
Basis              : AO
                                X                 Y                 Z
Electronic contribution:     -6.576201064       0.246454817       0.001486158
Nuclear contribution   :      8.158491936      -0.879944145      -0.001859741
                        -----------------------------------------
Total Dipole Moment    :      1.582290873      -0.633489328      -0.000373584
                        -----------------------------------------
Magnitude (a.u.)       :      1.704392347
Magnitude (Debye)      :      4.332221060

Rotational constants in cm-1:             0.108163             0.072918             0.044268
Rotational constants in MHz :          3242.649708          2186.033853          1327.129293

                             ****ORCA TERMINATED NORMALLY****
TOTAL RUN TIME: 0 days 0 hours 2 minutes 22 seconds 38 msec
