                         Program Version 6.0.0  -   RELEASE  -
|  1> ! r2scan-3c def2/J RI DEFGRID2 scfconv6 printgap
|  2> %output
|  3>     printlevel normal
|  4> end
|  5> * xyz 0 1
|  6> C 4.2409830537 0.1001629604 -2.1796354864
|  7> C 4.4241238884 -0.2986067763 -0.7287907334
|  8> O 3.1738761168 -0.6072023132 -0.0919521997
|  9> P 2.1102752056 0.527434266 0.2716708443
| 10> S 2.8715713963 2.2357842044 0.8495613884
| 11> O 1.1921967043 -0.2183179391 1.3240292729
| 12> C 1.4514245879 -0.1718844839 2.7399968665
| 13> C 2.6901387275 -0.9592649848 3.1113203022
| 14> S 0.7859747869 0.6015644641 -1.3732235195
| 15> C 0.4237013884 -1.1620623549 -1.5876104632
| 16> S -0.6432128459 -1.8797280032 -0.2972476632
| 17> P -2.1378680724 -0.4097900467 -0.2783539942
| 18> S -2.7018620342 0.3543476191 -1.9989476581
| 19> O -1.5908721593 0.5878611003 0.825823148
| 20> C -2.1875397202 1.8867915808 1.0431988832
| 21> C -1.3507836753 2.9738119903 0.398149335
| 22> O -3.3222489658 -1.109997047 0.5219152423
| 23> C -4.2508033092 -2.0100472498 -0.1173533159
| 24> C -5.5032563976 -2.0740455495 0.7332565854
| 25> H 5.2140470937 0.2683797626 -2.6298914826
| 26> H 3.7219896438 -0.679555349 -2.7310488052
| 27> H 3.6607466395 1.0205757169 -2.2414355846
| 28> H 4.906602921 0.5097922307 -0.1701195445
| 29> H 5.0052884487 -1.216672703 -0.6315794266
| 30> H 1.5533848558 0.8765330591 3.0390545843
| 31> H 0.5493776873 -0.5982908567 3.1817922105
| 32> H 2.7838392749 -0.9920852684 4.1923037527
| 33> H 2.6210967401 -1.9715667773 2.7216714239
| 34> H 3.573306773 -0.4775743868 2.6940434988
| 35> H 1.3443674478 -1.7403114558 -1.5747642116
| 36> H -0.0808455088 -1.2327552131 -2.5499042892
| 37> H -3.203842641 1.8882033961 0.63950653
| 38> H -2.2225503207 1.9997957107 2.1280146464
| 39> H -1.7681295474 3.9440812081 0.6472285456
| 40> H -0.3239931723 2.9255898568 0.7562659518
| 41> H -1.3446867554 2.8551331374 -0.683760388
| 42> H -4.46553131 -1.6316956898 -1.1225495759
| 43> H -3.7716398414 -2.9890986758 -0.1966038648
| 44> H -5.2526873916 -2.4065127701 1.7364551123
| 45> H -5.9676306807 -1.093746413 0.7928569159
| 46> H -6.2010398777 -2.7737373368 0.2852412092
| 47> *
| 48>
| 49>                          ****END OF INPUT****

CARTESIAN COORDINATES (ANGSTROEM)
---------------------------------
  C      4.240983    0.100163   -2.179635
  C      4.424124   -0.298607   -0.728791
  O      3.173876   -0.607202   -0.091952
  P      2.110275    0.527434    0.271671
  S      2.871571    2.235784    0.849561
  O      1.192197   -0.218318    1.324029
  C      1.451425   -0.171884    2.739997
  C      2.690139   -0.959265    3.111320
  S      0.785975    0.601564   -1.373224
  C      0.423701   -1.162062   -1.587610
  S     -0.643213   -1.879728   -0.297248
  P     -2.137868   -0.409790   -0.278354
  S     -2.701862    0.354348   -1.998948
  O     -1.590872    0.587861    0.825823
  C     -2.187540    1.886792    1.043199
  C     -1.350784    2.973812    0.398149
  O     -3.322249   -1.109997    0.521915
  C     -4.250803   -2.010047   -0.117353
  C     -5.503256   -2.074046    0.733257
  H      5.214047    0.268380   -2.629891
  H      3.721990   -0.679555   -2.731049
  H      3.660747    1.020576   -2.241436
  H      4.906603    0.509792   -0.170120
  H      5.005288   -1.216673   -0.631579
  H      1.553385    0.876533    3.039055
  H      0.549378   -0.598291    3.181792
  H      2.783839   -0.992085    4.192304
  H      2.621097   -1.971567    2.721671
  H      3.573307   -0.477574    2.694043
  H      1.344367   -1.740311   -1.574764
  H     -0.080846   -1.232755   -2.549904
  H     -3.203843    1.888203    0.639507
  H     -2.222550    1.999796    2.128015
  H     -1.768130    3.944081    0.647229
  H     -0.323993    2.925590    0.756266
  H     -1.344687    2.855133   -0.683760
  H     -4.465531   -1.631696   -1.122550
  H     -3.771640   -2.989099   -0.196604
  H     -5.252687   -2.406513    1.736455
  H     -5.967631   -1.093746    0.792857
  H     -6.201040   -2.773737    0.285241

 Total Charge           Charge          ....    0
 Multiplicity           Mult            ....    1
 Number of Electrons    NEL             ....  202
 Basis Dimension        Dim             ....  539

ORBITAL ENERGIES
----------------

  NO   OCC          E(Eh)            E(eV)
   0   2.0000     -88.574966     -2410.2473
   1   2.0000     -88.574527     -2410.2354
   2   2.0000     -88.523258     -2408.8403
   3   2.0000     -88.517139     -2408.6738
   4   2.0000     -76.913409     -2092.9203
   5   2.0000     -76.912003     -2092.8820
   6   2.0000     -18.992871      -516.8223
   7   2.0000     -18.989421      -516.7284
   8   2.0000     -18.985027      -516.6089
   9   2.0000     -18.983338      -516.5629
  10   2.0000     -10.112111      -275.1645
  11   2.0000     -10.100166      -274.8395
  12   2.0000     -10.095937      -274.7244
  13   2.0000     -10.095761      -274.7196
  14   2.0000     -10.093076      -274.6466
  15   2.0000     -10.032066      -272.9864
  16   2.0000     -10.031095      -272.9600
  17   2.0000     -10.028448      -272.8879
  18   2.0000     -10.015196      -272.5273
  19   2.0000      -7.869219      -214.1323
  20   2.0000      -7.869185      -214.1314
  21   2.0000      -7.817887      -212.7355
  22   2.0000      -7.811880      -212.5721
  23   2.0000      -6.591890      -179.3745
  24   2.0000      -6.590280      -179.3306
  25   2.0000      -5.816607      -158.2779
  26   2.0000      -5.816221      -158.2674
  27   2.0000      -5.813074      -158.1818
  28   2.0000      -5.812677      -158.1710
  29   2.0000      -5.806126      -157.9927
  30   2.0000      -5.806094      -157.9918
  31   2.0000      -5.765498      -156.8872
  32   2.0000      -5.759524      -156.7246
  33   2.0000      -5.758230      -156.6894
  34   2.0000      -5.757886      -156.6801
  35   2.0000      -5.752309      -156.5283
  36   2.0000      -5.751756      -156.5132
  37   2.0000      -4.737164      -128.9048
  38   2.0000      -4.736975      -128.8996
  39   2.0000      -4.735779      -128.8671
  40   2.0000      -4.735700      -128.8650
  41   2.0000      -4.735217      -128.8518
  42   2.0000      -4.734051      -128.8201
  43   2.0000      -1.048938       -28.5431
  44   2.0000      -1.044910       -28.4334
  45   2.0000      -1.010253       -27.4904
  46   2.0000      -1.004590       -27.3363
  47   2.0000      -0.802621       -21.8404
  48   2.0000      -0.757895       -20.6234
  49   2.0000      -0.747518       -20.3410
  50   2.0000      -0.731880       -19.9155
  51   2.0000      -0.726420       -19.7669
  52   2.0000      -0.709514       -19.3068
  53   2.0000      -0.687261       -18.7013
  54   2.0000      -0.668354       -18.1868
  55   2.0000      -0.631369       -17.1804
  56   2.0000      -0.619887       -16.8680
  57   2.0000      -0.606253       -16.4970
  58   2.0000      -0.601397       -16.3648
  59   2.0000      -0.589772       -16.0485
  60   2.0000      -0.530117       -14.4252
  61   2.0000      -0.519131       -14.1263
  62   2.0000      -0.493377       -13.4255
  63   2.0000      -0.490357       -13.3433
  64   2.0000      -0.477661       -12.9978
  65   2.0000      -0.460227       -12.5234
  66   2.0000      -0.459155       -12.4942
  67   2.0000      -0.450484       -12.2583
  68   2.0000      -0.444324       -12.0907
  69   2.0000      -0.433489       -11.7958
  70   2.0000      -0.425171       -11.5695
  71   2.0000      -0.412499       -11.2247
  72   2.0000      -0.409285       -11.1372
  73   2.0000      -0.399490       -10.8707
  74   2.0000      -0.392510       -10.6808
  75   2.0000      -0.391002       -10.6397
  76   2.0000      -0.385266       -10.4836
  77   2.0000      -0.372564       -10.1380
  78   2.0000      -0.366679        -9.9778
  79   2.0000      -0.366379        -9.9697
  80   2.0000      -0.363085        -9.8800
  81   2.0000      -0.357307        -9.7228
  82   2.0000      -0.355113        -9.6631
  83   2.0000      -0.349286        -9.5046
  84   2.0000      -0.343759        -9.3541
  85   2.0000      -0.335700        -9.1349
  86   2.0000      -0.319387        -8.6910
  87   2.0000      -0.313633        -8.5344
  88   2.0000      -0.307638        -8.3713
  89   2.0000      -0.305152        -8.3036
  90   2.0000      -0.298047        -8.1103
  91   2.0000      -0.289266        -7.8713
  92   2.0000      -0.278931        -7.5901
  93   2.0000      -0.278659        -7.5827
  94   2.0000      -0.274900        -7.4804
  95   2.0000      -0.241461        -6.5705
  96   2.0000      -0.231018        -6.2863
  97   2.0000      -0.224498        -6.1089
  98   2.0000      -0.220979        -6.0131
  99   2.0000      -0.211642        -5.7591
 100   2.0000      -0.210093        -5.7169
 101   0.0000      -0.047351        -1.2885
 102   0.0000      -0.021118        -0.5747
 103   0.0000      -0.008457        -0.2301
 104   0.0000       0.004955         0.1348
 105   0.0000       0.006698         0.1823

MULLIKEN ATOMIC CHARGES
-----------------------
   0 C :   -0.432202
   1 C :   -0.161147
   2 O :   -0.303818
   3 P :    0.675954
   4 S :   -0.472282
   5 O :   -0.227183
   6 C :   -0.174867
   7 C :   -0.434368
   8 S :   -0.111812
   9 C :   -0.252233
  10 S :   -0.125346
  11 P :    0.684293
  12 S :   -0.475788
  13 O :   -0.267649
  14 C :   -0.115559
  15 C :   -0.475805
  16 O :   -0.286621
  17 C :   -0.148838
  18 C :   -0.443748
  19 H :    0.148510
  20 H :    0.145748
  21 H :    0.175933
  22 H :    0.170696
  23 H :    0.148469
  24 H :    0.170299
  25 H :    0.158449
  26 H :    0.146679
  27 H :    0.156376
  28 H :    0.163088
  29 H :    0.187212
  30 H :    0.207226
  31 H :    0.152180
  32 H :    0.146498
  33 H :    0.142149
  34 H :    0.174355
  35 H :    0.179462
  36 H :    0.171799
  37 H :    0.148754
  38 H :    0.152867
  39 H :    0.156006
  40 H :    0.146268
Sum of atomic charges:   -0.0000000

LOEWDIN ATOMIC CHARGES
----------------------
   0 C :   -0.402888
   1 C :    0.016703
   2 O :   -0.680305
   3 P :    0.373454
   4 S :   -0.115492
   5 O :   -0.688322
   6 C :    0.023038
   7 C :   -0.398385
   8 S :    0.193027
   9 C :   -0.408650
  10 S :    0.190792
  11 P :    0.366930
  12 S :   -0.131340
  13 O :   -0.664965
  14 C :    0.027332
  15 C :   -0.403917
  16 O :   -0.666285
  17 C :    0.018126
  18 C :   -0.386868
  19 H :    0.159863
  20 H :    0.155799
  21 H :    0.167440
  22 H :    0.180365
  23 H :    0.178576
  24 H :    0.179804
  25 H :    0.182511
  26 H :    0.158926
  27 H :    0.161278
  28 H :    0.163344
  29 H :    0.186346
  30 H :    0.189982
  31 H :    0.175531
  32 H :    0.177091
  33 H :    0.156583
  34 H :    0.165999
  35 H :    0.167504
  36 H :    0.181250
  37 H :    0.170559
  38 H :    0.159329
  39 H :    0.160258
  40 H :    0.159678

  Mayer bond orders larger than 0.100000
B(  0-C ,  1-C ) :   0.9329 B(  0-C , 19-H ) :   0.9603 B(  0-C , 20-H ) :   0.9710
B(  0-C , 21-H ) :   0.9599 B(  1-C ,  2-O ) :   0.8096 B(  1-C , 22-H ) :   0.9609
B(  1-C , 23-H ) :   0.9599 B(  2-O ,  3-P ) :   1.0234 B(  3-P ,  4-S ) :   1.7949
B(  3-P ,  5-O ) :   1.1391 B(  3-P ,  8-S ) :   1.0554 B(  5-O ,  6-C ) :   0.7903
B(  6-C ,  7-C ) :   0.9214 B(  6-C , 24-H ) :   0.9618 B(  6-C , 25-H ) :   0.9639
B(  7-C , 26-H ) :   0.9628 B(  7-C , 27-H ) :   0.9734 B(  7-C , 28-H ) :   0.9614
B(  8-S ,  9-C ) :   0.9091 B(  9-C , 10-S ) :   0.9182 B(  9-C , 29-H ) :   0.9193
B(  9-C , 30-H ) :   0.9160 B( 10-S , 11-P ) :   1.0930 B( 11-P , 12-S ) :   1.7430
B( 11-P , 13-O ) :   1.1775 B( 11-P , 16-O ) :   1.0833 B( 13-O , 14-C ) :   0.7507
B( 14-C , 15-C ) :   0.9400 B( 14-C , 31-H ) :   0.9634 B( 14-C , 32-H ) :   0.9614
B( 15-C , 33-H ) :   0.9633 B( 15-C , 34-H ) :   0.9640 B( 15-C , 35-H ) :   0.9627
B( 16-O , 17-C ) :   0.7781 B( 17-C , 18-C ) :   0.9579 B( 17-C , 36-H ) :   0.9499
B( 17-C , 37-H ) :   0.9456 B( 18-C , 38-H ) :   0.9718 B( 18-C , 39-H ) :   0.9723
B( 18-C , 40-H ) :   0.9647

Dispersion correction           -0.021908453
FINAL SINGLE POINT ENERGY     -2932.459486411655

DIPOLE MOMENT
-------------

Method             : SCF
Type of density    : Electron Density
Multiplicity       :   1
Irrep              :   0
Energy             : -2932.4839632715547850 Eh
Relativity type    :
Basis              : AO
                                X                 Y                 Z
Electronic contribution:     -0.168402499       2.198584170      -7.272374067
Nuclear contribution   :      0.318483573      -3.461213186       7.896474084
                        -----------------------------------------
Total Dipole Moment    :      0.150081074      -1.262629015       0.624100016
                        -----------------------------------------
Magnitude (a.u.)       :      1.416424085
Magnitude (Debye)      :      3.600263907

Rotational constants in cm-1:             0.013141             0.004914             0.004829
Rotational constants in MHz :           393.966533           147.303629           144.774089

                             ****ORCA TERMINATED NORMALLY****
TOTAL RUN TIME: 0 days 0 hours 1 minutes 22 seconds 327 msec
