                         Program Version 6.0.0  -   RELEASE  -
|  1> ! r2scan-3c def2/J RI DEFGRID2 scfconv6 printgap
|  2> %output
|  3>     printlevel normal
|  4> end
|  5> %cpcm
|  6>     smd true
|  7>     smdsolvent "water"
|  8> end
|  9> * xyz 0 1
| 10> C 4.2409830537 0.1001629604 -2.1796354864
| 11> C 4.4241238884 -0.2986067763 -0.7287907334
| 12> O 3.1738761168 -0.6072023132 -0.0919521997
| 13> P 2.1102752056 0.527434266 0.2716708443
| 14> S 2.8715713963 2.2357842044 0.8495613884
| 15> O 1.1921967043 -0.2183179391 1.3240292729
| 16> C 1.4514245879 -0.1718844839 2.7399968665
| 17> C 2.6901387275 -0.9592649848 3.1113203022
| 18> S 0.7859747869 0.6015644641 -1.3732235195
| 19> C 0.4237013884 -1.1620623549 -1.5876104632
| 20> S -0.6432128459 -1.8797280032 -0.2972476632
| 21> P -2.1378680724 -0.4097900467 -0.2783539942
| 22> S -2.7018620342 0.3543476191 -1.9989476581
| 23> O -1.5908721593 0.5878611003 0.825823148
| 24> C -2.1875397202 1.8867915808 1.0431988832
| 25> C -1.3507836753 2.9738119903 0.398149335
| 26> O -3.3222489658 -1.109997047 0.5219152423
| 27> C -4.2508033092 -2.0100472498 -0.1173533159
| 28> C -5.5032563976 -2.0740455495 0.7332565854
| 29> H 5.2140470937 0.2683797626 -2.6298914826
| 30> H 3.7219896438 -0.679555349 -2.7310488052
| 31> H 3.6607466395 1.0205757169 -2.2414355846
| 32> H 4.906602921 0.5097922307 -0.1701195445
| 33> H 5.0052884487 -1.216672703 -0.6315794266
| 34> H 1.5533848558 0.8765330591 3.0390545843
| 35> H 0.5493776873 -0.5982908567 3.1817922105
| 36> H 2.7838392749 -0.9920852684 4.1923037527
| 37> H 2.6210967401 -1.9715667773 2.7216714239
| 38> H 3.573306773 -0.4775743868 2.6940434988
| 39> H 1.3443674478 -1.7403114558 -1.5747642116
| 40> H -0.0808455088 -1.2327552131 -2.5499042892
| 41> H -3.203842641 1.8882033961 0.63950653
| 42> H -2.2225503207 1.9997957107 2.1280146464
| 43> H -1.7681295474 3.9440812081 0.6472285456
| 44> H -0.3239931723 2.9255898568 0.7562659518
| 45> H -1.3446867554 2.8551331374 -0.683760388
| 46> H -4.46553131 -1.6316956898 -1.1225495759
| 47> H -3.7716398414 -2.9890986758 -0.1966038648
| 48> H -5.2526873916 -2.4065127701 1.7364551123
| 49> H -5.9676306807 -1.093746413 0.7928569159
| 50> H -6.2010398777 -2.7737373368 0.2852412092
| 51> *
| 52>
| 53>                          ****END OF INPUT****

CARTESIAN COORDINATES (ANGSTROEM)
---------------------------------
  C      4.240983    0.100163   -2.179635
  C      4.424124   -0.298607   -0.728791
  O      3.173876   -0.607202   -0.091952
  P      2.110275    0.527434    0.271671
  S      2.871571    2.235784    0.849561
  O      1.192197   -0.218318    1.324029
  C      1.451425   -0.171884    2.739997
  C      2.690139   -0.959265    3.111320
  S      0.785975    0.601564   -1.373224
  C      0.423701   -1.162062   -1.587610
  S     -0.643213   -1.879728   -0.297248
  P     -2.137868   -0.409790   -0.278354
  S     -2.701862    0.354348   -1.998948
  O     -1.590872    0.587861    0.825823
  C     -2.187540    1.886792    1.043199
  C     -1.350784    2.973812    0.398149
  O     -3.322249   -1.109997    0.521915
  C     -4.250803   -2.010047   -0.117353
  C     -5.503256   -2.074046    0.733257
  H      5.214047    0.268380   -2.629891
  H      3.721990   -0.679555   -2.731049
  H      3.660747    1.020576   -2.241436
  H      4.906603    0.509792   -0.170120
  H      5.005288   -1.216673   -0.631579
  H      1.553385    0.876533    3.039055
  H      0.549378   -0.598291    3.181792
  H      2.783839   -0.992085    4.192304
  H      2.621097   -1.971567    2.721671
  H      3.573307   -0.477574    2.694043
  H      1.344367   -1.740311   -1.574764
  H     -0.080846   -1.232755   -2.549904
  H     -3.203843    1.888203    0.639507
  H     -2.222550    1.999796    2.128015
  H     -1.768130    3.944081    0.647229
  H     -0.323993    2.925590    0.756266
  H     -1.344687    2.855133   -0.683760
  H     -4.465531   -1.631696   -1.122550
  H     -3.771640   -2.989099   -0.196604
  H     -5.252687   -2.406513    1.736455
  H     -5.967631   -1.093746    0.792857
  H     -6.201040   -2.773737    0.285241

 Total Charge           Charge          ....    0
 Multiplicity           Mult            ....    1
 Number of Electrons    NEL             ....  202
 Basis Dimension        Dim             ....  539

ORBITAL ENERGIES
----------------

  NO   OCC          E(Eh)            E(eV)
   0   2.0000     -88.577902     -2410.3272
   1   2.0000     -88.577342     -2410.3120
   2   2.0000     -88.529964     -2409.0228
   3   2.0000     -88.525465     -2408.9004
   4   2.0000     -76.918228     -2093.0514
   5   2.0000     -76.917513     -2093.0319
   6   2.0000     -18.993042      -516.8269
   7   2.0000     -18.992130      -516.8021
   8   2.0000     -18.989460      -516.7295
   9   2.0000     -18.987972      -516.6890
  10   2.0000     -10.107719      -275.0450
  11   2.0000     -10.089359      -274.5454
  12   2.0000     -10.088631      -274.5256
  13   2.0000     -10.088355      -274.5181
  14   2.0000     -10.088273      -274.5159
  15   2.0000     -10.019107      -272.6338
  16   2.0000     -10.018261      -272.6107
  17   2.0000     -10.018000      -272.6036
  18   2.0000     -10.015000      -272.5220
  19   2.0000      -7.872528      -214.2224
  20   2.0000      -7.871681      -214.1993
  21   2.0000      -7.824944      -212.9275
  22   2.0000      -7.820513      -212.8070
  23   2.0000      -6.596566      -179.5017
  24   2.0000      -6.596027      -179.4870
  25   2.0000      -5.819506      -158.3568
  26   2.0000      -5.819061      -158.3447
  27   2.0000      -5.816363      -158.2713
  28   2.0000      -5.815151      -158.2383
  29   2.0000      -5.809508      -158.0848
  30   2.0000      -5.808648      -158.0614
  31   2.0000      -5.772470      -157.0769
  32   2.0000      -5.768090      -156.9577
  33   2.0000      -5.765309      -156.8820
  34   2.0000      -5.764940      -156.8720
  35   2.0000      -5.760931      -156.7629
  36   2.0000      -5.760409      -156.7487
  37   2.0000      -4.742032      -129.0373
  38   2.0000      -4.741510      -129.0231
  39   2.0000      -4.741243      -129.0158
  40   2.0000      -4.741111      -129.0122
  41   2.0000      -4.740386      -128.9924
  42   2.0000      -4.739927      -128.9800
  43   2.0000      -1.050243       -28.5786
  44   2.0000      -1.048859       -28.5409
  45   2.0000      -1.010661       -27.5015
  46   2.0000      -1.008584       -27.4450
  47   2.0000      -0.802645       -21.8411
  48   2.0000      -0.755817       -20.5668
  49   2.0000      -0.742084       -20.1931
  50   2.0000      -0.722353       -19.6562
  51   2.0000      -0.721807       -19.6414
  52   2.0000      -0.708897       -19.2901
  53   2.0000      -0.691115       -18.8062
  54   2.0000      -0.674334       -18.3496
  55   2.0000      -0.628893       -17.1130
  56   2.0000      -0.618574       -16.8323
  57   2.0000      -0.598834       -16.2951
  58   2.0000      -0.596145       -16.2219
  59   2.0000      -0.588307       -16.0087
  60   2.0000      -0.528662       -14.3856
  61   2.0000      -0.514432       -13.9984
  62   2.0000      -0.491316       -13.3694
  63   2.0000      -0.488150       -13.2832
  64   2.0000      -0.476360       -12.9624
  65   2.0000      -0.457006       -12.4358
  66   2.0000      -0.454088       -12.3564
  67   2.0000      -0.446307       -12.1446
  68   2.0000      -0.442188       -12.0326
  69   2.0000      -0.431951       -11.7540
  70   2.0000      -0.421830       -11.4786
  71   2.0000      -0.407494       -11.0885
  72   2.0000      -0.404459       -11.0059
  73   2.0000      -0.399147       -10.8613
  74   2.0000      -0.392442       -10.6789
  75   2.0000      -0.387175       -10.5356
  76   2.0000      -0.382676       -10.4131
  77   2.0000      -0.366796        -9.9810
  78   2.0000      -0.364048        -9.9062
  79   2.0000      -0.356970        -9.7136
  80   2.0000      -0.354534        -9.6474
  81   2.0000      -0.352381        -9.5888
  82   2.0000      -0.347679        -9.4608
  83   2.0000      -0.346818        -9.4374
  84   2.0000      -0.341426        -9.2907
  85   2.0000      -0.332865        -9.0577
  86   2.0000      -0.316640        -8.6162
  87   2.0000      -0.311643        -8.4802
  88   2.0000      -0.305471        -8.3123
  89   2.0000      -0.301474        -8.2035
  90   2.0000      -0.298777        -8.1301
  91   2.0000      -0.290099        -7.8940
  92   2.0000      -0.279980        -7.6186
  93   2.0000      -0.277170        -7.5422
  94   2.0000      -0.275836        -7.5059
  95   2.0000      -0.245432        -6.6785
  96   2.0000      -0.236769        -6.4428
  97   2.0000      -0.232540        -6.3277
  98   2.0000      -0.228448        -6.2164
  99   2.0000      -0.218771        -5.9531
 100   2.0000      -0.217330        -5.9139
 101   0.0000      -0.050739        -1.3807
 102   0.0000      -0.025904        -0.7049
 103   0.0000      -0.011921        -0.3244
 104   0.0000       0.001352         0.0368
 105   0.0000       0.004302         0.1171

MULLIKEN ATOMIC CHARGES
-----------------------
   0 C :   -0.470952
   1 C :   -0.156398
   2 O :   -0.319748
   3 P :    0.714160
   4 S :   -0.528220
   5 O :   -0.259018
   6 C :   -0.170268
   7 C :   -0.474419
   8 S :   -0.139709
   9 C :   -0.260945
  10 S :   -0.132704
  11 P :    0.711557
  12 S :   -0.526444
  13 O :   -0.294149
  14 C :   -0.121091
  15 C :   -0.502749
  16 O :   -0.313560
  17 C :   -0.142834
  18 C :   -0.485140
  19 H :    0.170901
  20 H :    0.168824
  21 H :    0.166165
  22 H :    0.173477
  23 H :    0.174777
  24 H :    0.176709
  25 H :    0.178701
  26 H :    0.171687
  27 H :    0.169273
  28 H :    0.167111
  29 H :    0.227042
  30 H :    0.233500
  31 H :    0.168909
  32 H :    0.174759
  33 H :    0.168193
  34 H :    0.166864
  35 H :    0.173420
  36 H :    0.171644
  37 H :    0.170197
  38 H :    0.165240
  39 H :    0.166028
  40 H :    0.169209
Sum of atomic charges:    0.0000000

LOEWDIN ATOMIC CHARGES
----------------------
   0 C :   -0.406760
   1 C :    0.023275
   2 O :   -0.684155
   3 P :    0.378910
   4 S :   -0.152085
   5 O :   -0.702463
   6 C :    0.026439
   7 C :   -0.401546
   8 S :    0.179341
   9 C :   -0.396798
  10 S :    0.189251
  11 P :    0.370626
  12 S :   -0.163935
  13 O :   -0.681009
  14 C :    0.031821
  15 C :   -0.408496
  16 O :   -0.680001
  17 C :    0.022442
  18 C :   -0.390648
  19 H :    0.167642
  20 H :    0.162848
  21 H :    0.161463
  22 H :    0.180929
  23 H :    0.190160
  24 H :    0.182002
  25 H :    0.190420
  26 H :    0.168281
  27 H :    0.164294
  28 H :    0.162647
  29 H :    0.201408
  30 H :    0.199272
  31 H :    0.181045
  32 H :    0.188669
  33 H :    0.165401
  34 H :    0.162041
  35 H :    0.162981
  36 H :    0.181408
  37 H :    0.179070
  38 H :    0.162844
  39 H :    0.162260
  40 H :    0.168708

  Mayer bond orders larger than 0.100000
B(  0-C ,  1-C ) :   0.9220 B(  0-C , 19-H ) :   0.9558 B(  0-C , 20-H ) :   0.9669
B(  0-C , 21-H ) :   0.9623 B(  1-C ,  2-O ) :   0.7966 B(  1-C , 22-H ) :   0.9601
B(  1-C , 23-H ) :   0.9500 B(  2-O ,  3-P ) :   1.0398 B(  3-P ,  4-S ) :   1.7490
B(  3-P ,  5-O ) :   1.1457 B(  3-P ,  8-S ) :   1.0646 B(  5-O ,  6-C ) :   0.7816
B(  6-C ,  7-C ) :   0.9115 B(  6-C , 24-H ) :   0.9563 B(  6-C , 25-H ) :   0.9548
B(  7-C , 26-H ) :   0.9568 B(  7-C , 27-H ) :   0.9717 B(  7-C , 28-H ) :   0.9598
B(  8-S ,  9-C ) :   0.9057 B(  9-C , 10-S ) :   0.9093 B(  9-C , 29-H ) :   0.9068
B(  9-C , 30-H ) :   0.9067 B( 10-S , 11-P ) :   1.1173 B( 11-P , 12-S ) :   1.7003
B( 11-P , 13-O ) :   1.1758 B( 11-P , 16-O ) :   1.0889 B( 13-O , 14-C ) :   0.7392
B( 14-C , 15-C ) :   0.9306 B( 14-C , 31-H ) :   0.9607 B( 14-C , 32-H ) :   0.9517
B( 15-C , 33-H ) :   0.9590 B( 15-C , 34-H ) :   0.9654 B( 15-C , 35-H ) :   0.9656
B( 16-O , 17-C ) :   0.7704 B( 17-C , 18-C ) :   0.9541 B( 17-C , 36-H ) :   0.9474
B( 17-C , 37-H ) :   0.9365 B( 18-C , 38-H ) :   0.9688 B( 18-C , 39-H ) :   0.9699
B( 18-C , 40-H ) :   0.9586

Dispersion correction           -0.021908453
FINAL SINGLE POINT ENERGY     -2932.468691305851

DIPOLE MOMENT
-------------

Method             : SCF
Type of density    : Electron Density
Multiplicity       :   1
Irrep              :   0
Energy             : -2932.4931681657512854 Eh
Relativity type    :
Basis              : AO
                                X                 Y                 Z
Electronic contribution:     -0.069488478       1.600019941      -7.182649479
Nuclear contribution   :      0.318483573      -3.461213186       7.896474084
                        -----------------------------------------
Total Dipole Moment    :      0.248995096      -1.861193245       0.713824604
                        -----------------------------------------
Magnitude (a.u.)       :      2.008876407
Magnitude (Debye)      :      5.106158033

Rotational constants in cm-1:             0.013141             0.004914             0.004829
Rotational constants in MHz :           393.966533           147.303629           144.774089

                             ****ORCA TERMINATED NORMALLY****
TOTAL RUN TIME: 0 days 0 hours 1 minutes 51 seconds 690 msec
