                         Program Version 6.0.0  -   RELEASE  -
|  1> ! r2scan-3c def2/J RI DEFGRID2 scfconv6 printgap
|  2> %output
|  3>     printlevel normal
|  4> end
|  5> * xyz 0 1
|  6> C 4.9482116475 -1.6057069391 -0.747010901
|  7> C 4.440544263 -0.5073974052 -1.6574283985
|  8> O 3.0440810067 -0.2221275738 -1.4337706609
|  9> P 2.5351817246 0.4400638477 -0.0820992884
| 10> S 3.7434706749 1.7316687693 0.7577432196
| 11> O 2.1989783979 -0.8486890603 0.7978738696
| 12> C 2.1349631335 -0.8009275033 2.2311383104
| 13> C 0.9838386751 0.049195631 2.7286402526
| 14> S 0.6802848378 1.1709852967 -0.7770442977
| 15> C 0.0163756743 -0.3735300058 -1.4789456799
| 16> S -0.7941154901 -1.4418728497 -0.2631839597
| 17> P -2.5055493177 -0.2435954971 -0.0126010325
| 18> S -3.251925929 0.6125380266 -1.6178341411
| 19> O -1.9920765789 0.7096234832 1.1441646594
| 20> C -2.6895646884 1.9192582491 1.5162589201
| 21> C -2.0615733509 3.1238760724 0.8438400599
| 22> O -3.5460602857 -1.1474407873 0.7828546566
| 23> C -4.507177051 -1.9859209032 0.1180853553
| 24> C -3.8471872363 -3.1460026001 -0.5988011464
| 25> H 5.9648594377 -1.86261813 -1.02764771
| 26> H 4.9439218692 -1.2610607878 0.2861781241
| 27> H 4.3158732473 -2.4859918221 -0.8277561544
| 28> H 4.481182751 -0.7983704328 -2.707946681
| 29> H 5.0096184667 0.4148389573 -1.5041550136
| 30> H 2.0220983361 -1.8452720115 2.5245368628
| 31> H 3.0843758437 -0.4036467048 2.6047677228
| 32> H 0.9612274001 0.0261035394 3.8134457723
| 33> H 1.1201886348 1.0802327789 2.4004661475
| 34> H 0.0363044236 -0.3183599286 2.342482307
| 35> H 0.8240372741 -0.9435424876 -1.9270941273
| 36> H -0.717767416 -0.0669252108 -2.224880044
| 37> H -3.7450694146 1.8260255515 1.2461427259
| 38> H -2.5916071488 1.9714648328 2.6016453573
| 39> H -2.5510781272 4.0267981481 1.1940859404
| 40> H -1.0009862751 3.1739427603 1.0752347247
| 41> H -2.1728604937 3.0542935917 -0.2362000402
| 42> H -5.1594717614 -2.3261664253 0.9233894636
| 43> H -5.0745950758 -1.3699683479 -0.5870331223
| 44> H -3.1963043927 -3.6889908529 0.0817477156
| 45> H -4.611909934 -3.815367841 -0.9795473983
| 46> H -3.2527372451 -2.7774152852 -1.4337661858
| 47> *
| 48>
| 49>                          ****END OF INPUT****

CARTESIAN COORDINATES (ANGSTROEM)
---------------------------------
  C      4.948212   -1.605707   -0.747011
  C      4.440544   -0.507397   -1.657428
  O      3.044081   -0.222128   -1.433771
  P      2.535182    0.440064   -0.082099
  S      3.743471    1.731669    0.757743
  O      2.198978   -0.848689    0.797874
  C      2.134963   -0.800928    2.231138
  C      0.983839    0.049196    2.728640
  S      0.680285    1.170985   -0.777044
  C      0.016376   -0.373530   -1.478946
  S     -0.794115   -1.441873   -0.263184
  P     -2.505549   -0.243595   -0.012601
  S     -3.251926    0.612538   -1.617834
  O     -1.992077    0.709623    1.144165
  C     -2.689565    1.919258    1.516259
  C     -2.061573    3.123876    0.843840
  O     -3.546060   -1.147441    0.782855
  C     -4.507177   -1.985921    0.118085
  C     -3.847187   -3.146003   -0.598801
  H      5.964859   -1.862618   -1.027648
  H      4.943922   -1.261061    0.286178
  H      4.315873   -2.485992   -0.827756
  H      4.481183   -0.798370   -2.707947
  H      5.009618    0.414839   -1.504155
  H      2.022098   -1.845272    2.524537
  H      3.084376   -0.403647    2.604768
  H      0.961227    0.026104    3.813446
  H      1.120189    1.080233    2.400466
  H      0.036304   -0.318360    2.342482
  H      0.824037   -0.943542   -1.927094
  H     -0.717767   -0.066925   -2.224880
  H     -3.745069    1.826026    1.246143
  H     -2.591607    1.971465    2.601645
  H     -2.551078    4.026798    1.194086
  H     -1.000986    3.173943    1.075235
  H     -2.172860    3.054294   -0.236200
  H     -5.159472   -2.326166    0.923389
  H     -5.074595   -1.369968   -0.587033
  H     -3.196304   -3.688991    0.081748
  H     -4.611910   -3.815368   -0.979547
  H     -3.252737   -2.777415   -1.433766

 Total Charge           Charge          ....    0
 Multiplicity           Mult            ....    1
 Number of Electrons    NEL             ....  202
 Basis Dimension        Dim             ....  539

ORBITAL ENERGIES
----------------

  NO   OCC          E(Eh)            E(eV)
   0   2.0000     -88.579596     -2410.3733
   1   2.0000     -88.573128     -2410.1974
   2   2.0000     -88.525531     -2408.9022
   3   2.0000     -88.521914     -2408.8037
   4   2.0000     -76.917903     -2093.0425
   5   2.0000     -76.914237     -2092.9428
   6   2.0000     -18.996983      -516.9342
   7   2.0000     -18.991008      -516.7716
   8   2.0000     -18.990443      -516.7562
   9   2.0000     -18.989685      -516.7356
  10   2.0000     -10.108346      -275.0621
  11   2.0000     -10.101521      -274.8764
  12   2.0000     -10.099725      -274.8275
  13   2.0000     -10.099316      -274.8163
  14   2.0000     -10.094877      -274.6956
  15   2.0000     -10.032131      -272.9881
  16   2.0000     -10.030531      -272.9446
  17   2.0000     -10.022845      -272.7355
  18   2.0000     -10.019814      -272.6530
  19   2.0000      -7.874160      -214.2668
  20   2.0000      -7.867278      -214.0795
  21   2.0000      -7.820242      -212.7996
  22   2.0000      -7.816519      -212.6983
  23   2.0000      -6.596456      -179.4987
  24   2.0000      -6.592543      -179.3922
  25   2.0000      -5.821009      -158.3977
  26   2.0000      -5.818054      -158.3173
  27   2.0000      -5.814617      -158.2238
  28   2.0000      -5.811205      -158.1309
  29   2.0000      -5.810910      -158.1229
  30   2.0000      -5.804173      -157.9396
  31   2.0000      -5.767812      -156.9502
  32   2.0000      -5.764192      -156.8516
  33   2.0000      -5.760662      -156.7556
  34   2.0000      -5.760196      -156.7429
  35   2.0000      -5.756924      -156.6539
  36   2.0000      -5.756401      -156.6396
  37   2.0000      -4.741962      -129.0354
  38   2.0000      -4.741268      -129.0165
  39   2.0000      -4.740288      -128.9898
  40   2.0000      -4.737878      -128.9242
  41   2.0000      -4.737547      -128.9152
  42   2.0000      -4.736387      -128.8836
  43   2.0000      -1.052834       -28.6491
  44   2.0000      -1.048899       -28.5420
  45   2.0000      -1.012995       -27.5650
  46   2.0000      -1.010262       -27.4906
  47   2.0000      -0.803522       -21.8649
  48   2.0000      -0.760202       -20.6862
  49   2.0000      -0.748008       -20.3543
  50   2.0000      -0.731529       -19.9059
  51   2.0000      -0.728573       -19.8255
  52   2.0000      -0.712336       -19.3836
  53   2.0000      -0.691497       -18.8166
  54   2.0000      -0.670916       -18.2566
  55   2.0000      -0.633238       -17.2313
  56   2.0000      -0.625878       -17.0310
  57   2.0000      -0.608991       -16.5715
  58   2.0000      -0.604274       -16.4431
  59   2.0000      -0.590390       -16.0653
  60   2.0000      -0.527883       -14.3644
  61   2.0000      -0.518022       -14.0961
  62   2.0000      -0.492355       -13.3977
  63   2.0000      -0.490173       -13.3383
  64   2.0000      -0.481193       -13.0939
  65   2.0000      -0.463184       -12.6039
  66   2.0000      -0.460372       -12.5274
  67   2.0000      -0.456489       -12.4217
  68   2.0000      -0.446537       -12.1509
  69   2.0000      -0.432080       -11.7575
  70   2.0000      -0.427902       -11.6438
  71   2.0000      -0.415608       -11.3093
  72   2.0000      -0.412672       -11.2294
  73   2.0000      -0.410130       -11.1602
  74   2.0000      -0.397958       -10.8290
  75   2.0000      -0.394157       -10.7256
  76   2.0000      -0.381216       -10.3734
  77   2.0000      -0.372646       -10.1402
  78   2.0000      -0.369249       -10.0478
  79   2.0000      -0.367257        -9.9936
  80   2.0000      -0.361793        -9.8449
  81   2.0000      -0.357826        -9.7369
  82   2.0000      -0.356474        -9.7001
  83   2.0000      -0.352770        -9.5994
  84   2.0000      -0.343576        -9.3492
  85   2.0000      -0.333365        -9.0713
  86   2.0000      -0.322721        -8.7817
  87   2.0000      -0.313773        -8.5382
  88   2.0000      -0.309482        -8.4214
  89   2.0000      -0.305128        -8.3030
  90   2.0000      -0.301638        -8.2080
  91   2.0000      -0.294522        -8.0144
  92   2.0000      -0.288830        -7.8595
  93   2.0000      -0.283121        -7.7041
  94   2.0000      -0.272167        -7.4060
  95   2.0000      -0.244942        -6.6652
  96   2.0000      -0.230097        -6.2613
  97   2.0000      -0.225528        -6.1369
  98   2.0000      -0.222685        -6.0596
  99   2.0000      -0.219781        -5.9805
 100   2.0000      -0.215723        -5.8701
 101   0.0000      -0.044865        -1.2208
 102   0.0000      -0.023155        -0.6301
 103   0.0000      -0.017261        -0.4697
 104   0.0000       0.004184         0.1138
 105   0.0000       0.007138         0.1942

MULLIKEN ATOMIC CHARGES
-----------------------
   0 C :   -0.431543
   1 C :   -0.154777
   2 O :   -0.304335
   3 P :    0.643383
   4 S :   -0.460759
   5 O :   -0.268356
   6 C :   -0.140256
   7 C :   -0.457126
   8 S :   -0.097560
   9 C :   -0.271635
  10 S :   -0.089308
  11 P :    0.648177
  12 S :   -0.475970
  13 O :   -0.265385
  14 C :   -0.117617
  15 C :   -0.465137
  16 O :   -0.302500
  17 C :   -0.147857
  18 C :   -0.456276
  19 H :    0.147848
  20 H :    0.167015
  21 H :    0.153616
  22 H :    0.148875
  23 H :    0.173991
  24 H :    0.147173
  25 H :    0.162860
  26 H :    0.143323
  27 H :    0.167804
  28 H :    0.179037
  29 H :    0.215405
  30 H :    0.216114
  31 H :    0.151107
  32 H :    0.150637
  33 H :    0.144328
  34 H :    0.163447
  35 H :    0.179629
  36 H :    0.148614
  37 H :    0.172628
  38 H :    0.155790
  39 H :    0.148719
  40 H :    0.176877
Sum of atomic charges:   -0.0000000

LOEWDIN ATOMIC CHARGES
----------------------
   0 C :   -0.399566
   1 C :    0.023635
   2 O :   -0.693006
   3 P :    0.370379
   4 S :   -0.110817
   5 O :   -0.677891
   6 C :    0.016109
   7 C :   -0.409232
   8 S :    0.191373
   9 C :   -0.409464
  10 S :    0.181601
  11 P :    0.374642
  12 S :   -0.133825
  13 O :   -0.680446
  14 C :    0.027091
  15 C :   -0.403330
  16 O :   -0.658878
  17 C :    0.019891
  18 C :   -0.406487
  19 H :    0.159726
  20 H :    0.164807
  21 H :    0.160529
  22 H :    0.179566
  23 H :    0.180813
  24 H :    0.179923
  25 H :    0.178475
  26 H :    0.157480
  27 H :    0.165890
  28 H :    0.172125
  29 H :    0.195693
  30 H :    0.195784
  31 H :    0.175433
  32 H :    0.179206
  33 H :    0.157733
  34 H :    0.162383
  35 H :    0.167528
  36 H :    0.179756
  37 H :    0.179997
  38 H :    0.160028
  39 H :    0.159898
  40 H :    0.165446

  Mayer bond orders larger than 0.100000
B(  0-C ,  1-C ) :   0.9240 B(  0-C , 19-H ) :   0.9611 B(  0-C , 20-H ) :   0.9603
B(  0-C , 21-H ) :   0.9703 B(  1-C ,  2-O ) :   0.8115 B(  1-C , 22-H ) :   0.9621
B(  1-C , 23-H ) :   0.9665 B(  2-O ,  3-P ) :   1.1258 B(  3-P ,  4-S ) :   1.8122
B(  3-P ,  5-O ) :   1.0327 B(  3-P ,  8-S ) :   1.0866 B(  5-O ,  6-C ) :   0.7932
B(  6-C ,  7-C ) :   0.9295 B(  6-C , 24-H ) :   0.9603 B(  6-C , 25-H ) :   0.9585
B(  7-C , 26-H ) :   0.9611 B(  7-C , 27-H ) :   0.9611 B(  7-C , 28-H ) :   0.9575
B(  8-S ,  9-C ) :   0.9121 B(  9-C , 10-S ) :   0.9135 B(  9-C , 29-H ) :   0.9099
B(  9-C , 30-H ) :   0.9083 B( 10-S , 11-P ) :   1.1075 B( 11-P , 12-S ) :   1.7575
B( 11-P , 13-O ) :   1.1473 B( 11-P , 16-O ) :   1.0685 B( 13-O , 14-C ) :   0.7541
B( 14-C , 15-C ) :   0.9408 B( 14-C , 31-H ) :   0.9625 B( 14-C , 32-H ) :   0.9622
B( 15-C , 33-H ) :   0.9636 B( 15-C , 34-H ) :   0.9702 B( 15-C , 35-H ) :   0.9608
B( 16-O , 17-C ) :   0.8194 B( 17-C , 18-C ) :   0.9202 B( 17-C , 36-H ) :   0.9585
B( 17-C , 37-H ) :   0.9660 B( 18-C , 38-H ) :   0.9691 B( 18-C , 39-H ) :   0.9584
B( 18-C , 40-H ) :   0.9620

Dispersion correction           -0.021692074
FINAL SINGLE POINT ENERGY     -2932.462859045103

DIPOLE MOMENT
-------------

Method             : SCF
Type of density    : Electron Density
Multiplicity       :   1
Irrep              :   0
Energy             : -2932.4878352625269144 Eh
Relativity type    :
Basis              : AO
                                X                 Y                 Z
Electronic contribution:      0.865349341       6.735443180      -6.851246908
Nuclear contribution   :     -1.271442071      -8.129163238       7.324592706
                        -----------------------------------------
Total Dipole Moment    :     -0.406092731      -1.393720058       0.473345798
                        -----------------------------------------
Magnitude (a.u.)       :      1.526899850
Magnitude (Debye)      :      3.881070984

Rotational constants in cm-1:             0.013470             0.004634             0.004295
Rotational constants in MHz :           403.830965           138.937107           128.760332

                             ****ORCA TERMINATED NORMALLY****
TOTAL RUN TIME: 0 days 0 hours 1 minutes 19 seconds 534 msec
