                         Program Version 6.0.0  -   RELEASE  -
|  1> ! r2scan-3c def2/J RI DEFGRID2 scfconv6 printgap
|  2> %output
|  3>     printlevel normal
|  4> end
|  5> %cpcm
|  6>     smd true
|  7>     smdsolvent "water"
|  8> end
|  9> * xyz 0 1
| 10> C 4.9482116475 -1.6057069391 -0.747010901
| 11> C 4.440544263 -0.5073974052 -1.6574283985
| 12> O 3.0440810067 -0.2221275738 -1.4337706609
| 13> P 2.5351817246 0.4400638477 -0.0820992884
| 14> S 3.7434706749 1.7316687693 0.7577432196
| 15> O 2.1989783979 -0.8486890603 0.7978738696
| 16> C 2.1349631335 -0.8009275033 2.2311383104
| 17> C 0.9838386751 0.049195631 2.7286402526
| 18> S 0.6802848378 1.1709852967 -0.7770442977
| 19> C 0.0163756743 -0.3735300058 -1.4789456799
| 20> S -0.7941154901 -1.4418728497 -0.2631839597
| 21> P -2.5055493177 -0.2435954971 -0.0126010325
| 22> S -3.251925929 0.6125380266 -1.6178341411
| 23> O -1.9920765789 0.7096234832 1.1441646594
| 24> C -2.6895646884 1.9192582491 1.5162589201
| 25> C -2.0615733509 3.1238760724 0.8438400599
| 26> O -3.5460602857 -1.1474407873 0.7828546566
| 27> C -4.507177051 -1.9859209032 0.1180853553
| 28> C -3.8471872363 -3.1460026001 -0.5988011464
| 29> H 5.9648594377 -1.86261813 -1.02764771
| 30> H 4.9439218692 -1.2610607878 0.2861781241
| 31> H 4.3158732473 -2.4859918221 -0.8277561544
| 32> H 4.481182751 -0.7983704328 -2.707946681
| 33> H 5.0096184667 0.4148389573 -1.5041550136
| 34> H 2.0220983361 -1.8452720115 2.5245368628
| 35> H 3.0843758437 -0.4036467048 2.6047677228
| 36> H 0.9612274001 0.0261035394 3.8134457723
| 37> H 1.1201886348 1.0802327789 2.4004661475
| 38> H 0.0363044236 -0.3183599286 2.342482307
| 39> H 0.8240372741 -0.9435424876 -1.9270941273
| 40> H -0.717767416 -0.0669252108 -2.224880044
| 41> H -3.7450694146 1.8260255515 1.2461427259
| 42> H -2.5916071488 1.9714648328 2.6016453573
| 43> H -2.5510781272 4.0267981481 1.1940859404
| 44> H -1.0009862751 3.1739427603 1.0752347247
| 45> H -2.1728604937 3.0542935917 -0.2362000402
| 46> H -5.1594717614 -2.3261664253 0.9233894636
| 47> H -5.0745950758 -1.3699683479 -0.5870331223
| 48> H -3.1963043927 -3.6889908529 0.0817477156
| 49> H -4.611909934 -3.815367841 -0.9795473983
| 50> H -3.2527372451 -2.7774152852 -1.4337661858
| 51> *
| 52>
| 53>                          ****END OF INPUT****

CARTESIAN COORDINATES (ANGSTROEM)
---------------------------------
  C      4.948212   -1.605707   -0.747011
  C      4.440544   -0.507397   -1.657428
  O      3.044081   -0.222128   -1.433771
  P      2.535182    0.440064   -0.082099
  S      3.743471    1.731669    0.757743
  O      2.198978   -0.848689    0.797874
  C      2.134963   -0.800928    2.231138
  C      0.983839    0.049196    2.728640
  S      0.680285    1.170985   -0.777044
  C      0.016376   -0.373530   -1.478946
  S     -0.794115   -1.441873   -0.263184
  P     -2.505549   -0.243595   -0.012601
  S     -3.251926    0.612538   -1.617834
  O     -1.992077    0.709623    1.144165
  C     -2.689565    1.919258    1.516259
  C     -2.061573    3.123876    0.843840
  O     -3.546060   -1.147441    0.782855
  C     -4.507177   -1.985921    0.118085
  C     -3.847187   -3.146003   -0.598801
  H      5.964859   -1.862618   -1.027648
  H      4.943922   -1.261061    0.286178
  H      4.315873   -2.485992   -0.827756
  H      4.481183   -0.798370   -2.707947
  H      5.009618    0.414839   -1.504155
  H      2.022098   -1.845272    2.524537
  H      3.084376   -0.403647    2.604768
  H      0.961227    0.026104    3.813446
  H      1.120189    1.080233    2.400466
  H      0.036304   -0.318360    2.342482
  H      0.824037   -0.943542   -1.927094
  H     -0.717767   -0.066925   -2.224880
  H     -3.745069    1.826026    1.246143
  H     -2.591607    1.971465    2.601645
  H     -2.551078    4.026798    1.194086
  H     -1.000986    3.173943    1.075235
  H     -2.172860    3.054294   -0.236200
  H     -5.159472   -2.326166    0.923389
  H     -5.074595   -1.369968   -0.587033
  H     -3.196304   -3.688991    0.081748
  H     -4.611910   -3.815368   -0.979547
  H     -3.252737   -2.777415   -1.433766

 Total Charge           Charge          ....    0
 Multiplicity           Mult            ....    1
 Number of Electrons    NEL             ....  202
 Basis Dimension        Dim             ....  539

ORBITAL ENERGIES
----------------

  NO   OCC          E(Eh)            E(eV)
   0   2.0000     -88.580582     -2410.4002
   1   2.0000     -88.577766     -2410.3235
   2   2.0000     -88.530721     -2409.0434
   3   2.0000     -88.529387     -2409.0071
   4   2.0000     -76.919777     -2093.0935
   5   2.0000     -76.919738     -2093.0925
   6   2.0000     -18.996353      -516.9171
   7   2.0000     -18.992335      -516.8077
   8   2.0000     -18.991757      -516.7920
   9   2.0000     -18.991441      -516.7834
  10   2.0000     -10.106516      -275.0123
  11   2.0000     -10.090141      -274.5667
  12   2.0000     -10.089505      -274.5494
  13   2.0000     -10.089376      -274.5459
  14   2.0000     -10.088152      -274.5126
  15   2.0000     -10.018824      -272.6261
  16   2.0000     -10.018584      -272.6195
  17   2.0000     -10.015820      -272.5443
  18   2.0000     -10.015406      -272.5330
  19   2.0000      -7.875100      -214.2924
  20   2.0000      -7.872016      -214.2085
  21   2.0000      -7.825683      -212.9476
  22   2.0000      -7.824382      -212.9122
  23   2.0000      -6.598375      -179.5509
  24   2.0000      -6.598095      -179.5433
  25   2.0000      -5.821964      -158.4237
  26   2.0000      -5.819288      -158.3509
  27   2.0000      -5.818997      -158.3430
  28   2.0000      -5.815574      -158.2498
  29   2.0000      -5.812142      -158.1564
  30   2.0000      -5.809045      -158.0722
  31   2.0000      -5.773260      -157.0984
  32   2.0000      -5.771897      -157.0613
  33   2.0000      -5.766056      -156.9024
  34   2.0000      -5.765625      -156.8906
  35   2.0000      -5.764795      -156.8681
  36   2.0000      -5.764344      -156.8558
  37   2.0000      -4.743838      -129.0864
  38   2.0000      -4.743374      -129.0738
  39   2.0000      -4.743188      -129.0687
  40   2.0000      -4.743080      -129.0658
  41   2.0000      -4.742272      -129.0438
  42   2.0000      -4.742050      -129.0377
  43   2.0000      -1.052374       -28.6366
  44   2.0000      -1.050504       -28.5857
  45   2.0000      -1.012009       -27.5382
  46   2.0000      -1.011308       -27.5191
  47   2.0000      -0.804049       -21.8793
  48   2.0000      -0.757201       -20.6045
  49   2.0000      -0.741802       -20.1854
  50   2.0000      -0.722302       -19.6548
  51   2.0000      -0.722014       -19.6470
  52   2.0000      -0.710732       -19.3400
  53   2.0000      -0.694473       -18.8976
  54   2.0000      -0.675499       -18.3813
  55   2.0000      -0.631246       -17.1771
  56   2.0000      -0.622106       -16.9284
  57   2.0000      -0.601870       -16.3777
  58   2.0000      -0.598646       -16.2900
  59   2.0000      -0.588318       -16.0090
  60   2.0000      -0.521811       -14.1992
  61   2.0000      -0.514551       -14.0016
  62   2.0000      -0.488568       -13.2946
  63   2.0000      -0.485889       -13.2217
  64   2.0000      -0.479351       -13.0438
  65   2.0000      -0.458592       -12.4789
  66   2.0000      -0.455078       -12.3833
  67   2.0000      -0.454349       -12.3635
  68   2.0000      -0.439881       -11.9698
  69   2.0000      -0.427901       -11.6438
  70   2.0000      -0.424132       -11.5412
  71   2.0000      -0.412752       -11.2315
  72   2.0000      -0.408703       -11.1214
  73   2.0000      -0.406307       -11.0562
  74   2.0000      -0.394366       -10.7313
  75   2.0000      -0.389876       -10.6091
  76   2.0000      -0.380482       -10.3535
  77   2.0000      -0.367823       -10.0090
  78   2.0000      -0.363236        -9.8842
  79   2.0000      -0.361249        -9.8301
  80   2.0000      -0.353142        -9.6095
  81   2.0000      -0.350506        -9.5378
  82   2.0000      -0.349895        -9.5211
  83   2.0000      -0.346767        -9.4360
  84   2.0000      -0.342704        -9.3255
  85   2.0000      -0.331095        -9.0095
  86   2.0000      -0.319739        -8.7006
  87   2.0000      -0.306109        -8.3296
  88   2.0000      -0.305510        -8.3134
  89   2.0000      -0.302402        -8.2288
  90   2.0000      -0.299361        -8.1460
  91   2.0000      -0.291714        -7.9379
  92   2.0000      -0.287050        -7.8110
  93   2.0000      -0.281077        -7.6485
  94   2.0000      -0.272675        -7.4199
  95   2.0000      -0.247023        -6.7218
  96   2.0000      -0.236388        -6.4324
  97   2.0000      -0.232033        -6.3139
  98   2.0000      -0.230009        -6.2589
  99   2.0000      -0.226469        -6.1625
 100   2.0000      -0.221262        -6.0209
 101   0.0000      -0.047233        -1.2853
 102   0.0000      -0.028869        -0.7856
 103   0.0000      -0.020593        -0.5604
 104   0.0000       0.002743         0.0746
 105   0.0000       0.004021         0.1094

MULLIKEN ATOMIC CHARGES
-----------------------
   0 C :   -0.474311
   1 C :   -0.146019
   2 O :   -0.325945
   3 P :    0.671662
   4 S :   -0.516364
   5 O :   -0.283506
   6 C :   -0.140373
   7 C :   -0.490462
   8 S :   -0.128504
   9 C :   -0.278749
  10 S :   -0.090558
  11 P :    0.683411
  12 S :   -0.523996
  13 O :   -0.288117
  14 C :   -0.124589
  15 C :   -0.497550
  16 O :   -0.328370
  17 C :   -0.147800
  18 C :   -0.491461
  19 H :    0.172150
  20 H :    0.167986
  21 H :    0.168859
  22 H :    0.175299
  23 H :    0.176336
  24 H :    0.175677
  25 H :    0.171599
  26 H :    0.170736
  27 H :    0.167370
  28 H :    0.175308
  29 H :    0.246944
  30 H :    0.230545
  31 H :    0.169197
  32 H :    0.176629
  33 H :    0.168873
  34 H :    0.167363
  35 H :    0.172503
  36 H :    0.175049
  37 H :    0.177222
  38 H :    0.170420
  39 H :    0.172894
  40 H :    0.172642
Sum of atomic charges:   -0.0000000

LOEWDIN ATOMIC CHARGES
----------------------
   0 C :   -0.402766
   1 C :    0.028398
   2 O :   -0.700125
   3 P :    0.373852
   4 S :   -0.148765
   5 O :   -0.683073
   6 C :    0.021473
   7 C :   -0.412514
   8 S :    0.173203
   9 C :   -0.402110
  10 S :    0.183846
  11 P :    0.380437
  12 S :   -0.163247
  13 O :   -0.692283
  14 C :    0.031278
  15 C :   -0.408001
  16 O :   -0.670084
  17 C :    0.025084
  18 C :   -0.409409
  19 H :    0.168792
  20 H :    0.162614
  21 H :    0.164330
  22 H :    0.190769
  23 H :    0.181273
  24 H :    0.191171
  25 H :    0.181672
  26 H :    0.167127
  27 H :    0.162528
  28 H :    0.169189
  29 H :    0.206716
  30 H :    0.200493
  31 H :    0.181288
  32 H :    0.189775
  33 H :    0.166200
  34 H :    0.162109
  35 H :    0.162362
  36 H :    0.190890
  37 H :    0.181409
  38 H :    0.163802
  39 H :    0.168710
  40 H :    0.161586

  Mayer bond orders larger than 0.100000
B(  0-C ,  1-C ) :   0.9127 B(  0-C , 19-H ) :   0.9552 B(  0-C , 20-H ) :   0.9595
B(  0-C , 21-H ) :   0.9693 B(  1-C ,  2-O ) :   0.8002 B(  1-C , 22-H ) :   0.9516
B(  1-C , 23-H ) :   0.9629 B(  2-O ,  3-P ) :   1.1342 B(  3-P ,  4-S ) :   1.7753
B(  3-P ,  5-O ) :   1.0398 B(  3-P ,  8-S ) :   1.1007 B(  5-O ,  6-C ) :   0.7816
B(  6-C ,  7-C ) :   0.9152 B(  6-C , 24-H ) :   0.9512 B(  6-C , 25-H ) :   0.9570
B(  7-C , 26-H ) :   0.9561 B(  7-C , 27-H ) :   0.9634 B(  7-C , 28-H ) :   0.9583
B(  8-S ,  9-C ) :   0.9052 B(  9-C , 10-S ) :   0.9119 B(  9-C , 29-H ) :   0.8982
B(  9-C , 30-H ) :   0.9034 B( 10-S , 11-P ) :   1.1185 B( 11-P , 12-S ) :   1.7144
B( 11-P , 13-O ) :   1.1535 B( 11-P , 16-O ) :   1.0760 B( 13-O , 14-C ) :   0.7424
B( 14-C , 15-C ) :   0.9280 B( 14-C , 31-H ) :   0.9592 B( 14-C , 32-H ) :   0.9528
B( 15-C , 33-H ) :   0.9595 B( 15-C , 34-H ) :   0.9691 B( 15-C , 35-H ) :   0.9643
B( 16-O , 17-C ) :   0.8075 B( 17-C , 18-C ) :   0.9080 B( 17-C , 36-H ) :   0.9490
B( 17-C , 37-H ) :   0.9644 B( 18-C , 38-H ) :   0.9661 B( 18-C , 39-H ) :   0.9532
B( 18-C , 40-H ) :   0.9628

Dispersion correction           -0.021692074
FINAL SINGLE POINT ENERGY     -2932.470534317422

DIPOLE MOMENT
-------------

Method             : SCF
Type of density    : Electron Density
Multiplicity       :   1
Irrep              :   0
Energy             : -2932.4955105348458346 Eh
Relativity type    :
Basis              : AO
                                X                 Y                 Z
Electronic contribution:      0.741330854       6.133433842      -6.690599976
Nuclear contribution   :     -1.271442071      -8.129163238       7.324592706
                        -----------------------------------------
Total Dipole Moment    :     -0.530111217      -1.995729396       0.633992730
                        -----------------------------------------
Magnitude (a.u.)       :      2.160069560
Magnitude (Debye)      :      5.490460488

Rotational constants in cm-1:             0.013470             0.004634             0.004295
Rotational constants in MHz :           403.830965           138.937107           128.760332

                             ****ORCA TERMINATED NORMALLY****
TOTAL RUN TIME: 0 days 0 hours 1 minutes 53 seconds 35 msec
