                         Program Version 6.0.0  -   RELEASE  -
|  1> ! r2scan-3c def2/J RI DEFGRID2 scfconv6 printgap
|  2> %output
|  3>     printlevel normal
|  4> end
|  5> * xyz 0 1
|  6> C 2.9635371623 -2.7062269099 1.3631037937
|  7> C 1.6648893716 -2.2192564567 0.7529018176
|  8> O 1.576845367 -0.7861041796 0.8135339578
|  9> P 2.2995479101 0.1763599499 -0.239397327
| 10> S 3.0140843793 -0.6692581166 -1.8474092018
| 11> O 3.4362840384 0.9157013258 0.5747109548
| 12> C 3.2620157366 1.4920861424 1.8938681638
| 13> C 2.9744608768 2.9771709535 1.8056138466
| 14> S 0.7929563929 1.6427466428 -0.5332353806
| 15> C -0.0144898814 0.8321124346 -1.9327662258
| 16> S -0.6795163609 -0.8069922318 -1.530492037
| 17> P -2.1550233503 -0.1512567211 -0.1740970034
| 18> S -3.0479968921 1.5475643687 -0.5893394793
| 19> O -1.3920895634 -0.2370992037 1.2043542259
| 20> C -1.8200148407 0.4809758126 2.3867254147
| 21> C -0.606708568 1.1096810997 3.0403451065
| 22> O -3.1335101044 -1.3991526356 -0.0617698572
| 23> C -4.1620639265 -1.6602095524 -1.0380297713
| 24> C -5.2390691127 -2.4926523432 -0.371783366
| 25> H 3.0488603603 -2.3730527362 2.3939499289
| 26> H 2.9920503177 -3.7906743423 1.3310493838
| 27> H 3.8041744505 -2.3126513296 0.7924248161
| 28> H 0.7918167533 -2.567789476 1.3074021021
| 29> H 1.5853240517 -2.5357615816 -0.2921280253
| 30> H 2.4603250392 0.9606586605 2.4103125068
| 31> H 4.2145091327 1.3049797183 2.392671793
| 32> H 3.763207383 3.476953564 1.2503400571
| 33> H 2.0279339787 3.1565298071 1.2993781776
| 34> H 2.9252465237 3.3884717741 2.8089470297
| 35> H 0.708910134 0.680375126 -2.7332431339
| 36> H -0.826466716 1.4887787825 -2.2447694235
| 37> H -2.5507332113 1.2422010545 2.0935905166
| 38> H -2.2982029508 -0.2493319496 3.0425487143
| 39> H -0.9104596717 1.5989516532 3.9600054581
| 40> H 0.1290385376 0.3423676184 3.2647560599
| 41> H -0.162773594 1.8441481515 2.3727909998
| 42> H -4.5582770025 -0.7025916899 -1.3925491156
| 43> H -3.7053715743 -2.1926003431 -1.8762572634
| 44> H -4.811176017 -3.4155222494 0.0087692117
| 45> H -5.6806683896 -1.9414693284 0.4536874756
| 46> H -6.0093119024 -2.7258003341 -1.0995332572
| 47> *
| 48>
| 49>                          ****END OF INPUT****

CARTESIAN COORDINATES (ANGSTROEM)
---------------------------------
  C      2.963537   -2.706227    1.363104
  C      1.664889   -2.219256    0.752902
  O      1.576845   -0.786104    0.813534
  P      2.299548    0.176360   -0.239397
  S      3.014084   -0.669258   -1.847409
  O      3.436284    0.915701    0.574711
  C      3.262016    1.492086    1.893868
  C      2.974461    2.977171    1.805614
  S      0.792956    1.642747   -0.533235
  C     -0.014490    0.832112   -1.932766
  S     -0.679516   -0.806992   -1.530492
  P     -2.155023   -0.151257   -0.174097
  S     -3.047997    1.547564   -0.589339
  O     -1.392090   -0.237099    1.204354
  C     -1.820015    0.480976    2.386725
  C     -0.606709    1.109681    3.040345
  O     -3.133510   -1.399153   -0.061770
  C     -4.162064   -1.660210   -1.038030
  C     -5.239069   -2.492652   -0.371783
  H      3.048860   -2.373053    2.393950
  H      2.992050   -3.790674    1.331049
  H      3.804174   -2.312651    0.792425
  H      0.791817   -2.567789    1.307402
  H      1.585324   -2.535762   -0.292128
  H      2.460325    0.960659    2.410313
  H      4.214509    1.304980    2.392672
  H      3.763207    3.476954    1.250340
  H      2.027934    3.156530    1.299378
  H      2.925247    3.388472    2.808947
  H      0.708910    0.680375   -2.733243
  H     -0.826467    1.488779   -2.244769
  H     -2.550733    1.242201    2.093591
  H     -2.298203   -0.249332    3.042549
  H     -0.910460    1.598952    3.960005
  H      0.129039    0.342368    3.264756
  H     -0.162774    1.844148    2.372791
  H     -4.558277   -0.702592   -1.392549
  H     -3.705372   -2.192600   -1.876257
  H     -4.811176   -3.415522    0.008769
  H     -5.680668   -1.941469    0.453687
  H     -6.009312   -2.725800   -1.099533

 Total Charge           Charge          ....    0
 Multiplicity           Mult            ....    1
 Number of Electrons    NEL             ....  202
 Basis Dimension        Dim             ....  539

ORBITAL ENERGIES
----------------

  NO   OCC          E(Eh)            E(eV)
   0   2.0000     -88.576784     -2410.2968
   1   2.0000     -88.573245     -2410.2005
   2   2.0000     -88.521081     -2408.7811
   3   2.0000     -88.519462     -2408.7370
   4   2.0000     -76.914037     -2092.9374
   5   2.0000     -76.913828     -2092.9317
   6   2.0000     -18.993377      -516.8361
   7   2.0000     -18.992618      -516.8154
   8   2.0000     -18.990468      -516.7569
   9   2.0000     -18.986083      -516.6376
  10   2.0000     -10.107073      -275.0274
  11   2.0000     -10.105072      -274.9730
  12   2.0000     -10.100012      -274.8353
  13   2.0000     -10.098837      -274.8033
  14   2.0000     -10.093174      -274.6492
  15   2.0000     -10.036642      -273.1109
  16   2.0000     -10.033957      -273.0379
  17   2.0000     -10.033210      -273.0175
  18   2.0000     -10.027473      -272.8614
  19   2.0000      -7.871055      -214.1823
  20   2.0000      -7.867782      -214.0932
  21   2.0000      -7.815928      -212.6822
  22   2.0000      -7.814324      -212.6386
  23   2.0000      -6.592676      -179.3958
  24   2.0000      -6.592038      -179.3785
  25   2.0000      -5.817979      -158.3153
  26   2.0000      -5.814877      -158.2308
  27   2.0000      -5.814662      -158.2250
  28   2.0000      -5.811693      -158.1442
  29   2.0000      -5.808175      -158.0485
  30   2.0000      -5.804783      -157.9562
  31   2.0000      -5.763457      -156.8316
  32   2.0000      -5.762132      -156.7956
  33   2.0000      -5.756224      -156.6348
  34   2.0000      -5.756005      -156.6289
  35   2.0000      -5.754521      -156.5885
  36   2.0000      -5.754221      -156.5803
  37   2.0000      -4.738089      -128.9300
  38   2.0000      -4.737899      -128.9248
  39   2.0000      -4.737607      -128.9169
  40   2.0000      -4.736605      -128.8896
  41   2.0000      -4.736447      -128.8853
  42   2.0000      -4.735838      -128.8687
  43   2.0000      -1.050088       -28.5744
  44   2.0000      -1.047189       -28.4955
  45   2.0000      -1.010660       -27.5015
  46   2.0000      -1.007788       -27.4233
  47   2.0000      -0.803255       -21.8577
  48   2.0000      -0.762038       -20.7361
  49   2.0000      -0.753539       -20.5048
  50   2.0000      -0.735105       -20.0032
  51   2.0000      -0.733961       -19.9721
  52   2.0000      -0.710036       -19.3211
  53   2.0000      -0.685146       -18.6438
  54   2.0000      -0.669577       -18.2201
  55   2.0000      -0.629891       -17.1402
  56   2.0000      -0.619794       -16.8655
  57   2.0000      -0.612676       -16.6718
  58   2.0000      -0.603901       -16.4330
  59   2.0000      -0.590562       -16.0700
  60   2.0000      -0.535496       -14.5716
  61   2.0000      -0.524047       -14.2601
  62   2.0000      -0.500922       -13.6308
  63   2.0000      -0.497343       -13.5334
  64   2.0000      -0.473994       -12.8980
  65   2.0000      -0.464895       -12.6504
  66   2.0000      -0.460409       -12.5284
  67   2.0000      -0.453303       -12.3350
  68   2.0000      -0.449572       -12.2335
  69   2.0000      -0.432759       -11.7760
  70   2.0000      -0.421349       -11.4655
  71   2.0000      -0.414470       -11.2783
  72   2.0000      -0.408162       -11.1067
  73   2.0000      -0.399027       -10.8581
  74   2.0000      -0.394001       -10.7213
  75   2.0000      -0.391386       -10.6502
  76   2.0000      -0.386364       -10.5135
  77   2.0000      -0.374638       -10.1944
  78   2.0000      -0.373696       -10.1688
  79   2.0000      -0.373380       -10.1602
  80   2.0000      -0.368209       -10.0195
  81   2.0000      -0.364294        -9.9130
  82   2.0000      -0.359100        -9.7716
  83   2.0000      -0.356204        -9.6928
  84   2.0000      -0.349686        -9.5154
  85   2.0000      -0.334149        -9.0927
  86   2.0000      -0.323296        -8.7973
  87   2.0000      -0.318900        -8.6777
  88   2.0000      -0.315118        -8.5748
  89   2.0000      -0.305406        -8.3105
  90   2.0000      -0.296348        -8.0640
  91   2.0000      -0.294234        -8.0065
  92   2.0000      -0.286605        -7.7989
  93   2.0000      -0.278885        -7.5888
  94   2.0000      -0.273523        -7.4429
  95   2.0000      -0.245246        -6.6735
  96   2.0000      -0.228829        -6.2268
  97   2.0000      -0.227474        -6.1899
  98   2.0000      -0.220645        -6.0041
  99   2.0000      -0.213246        -5.8027
 100   2.0000      -0.212645        -5.7864
 101   0.0000      -0.047646        -1.2965
 102   0.0000      -0.024651        -0.6708
 103   0.0000      -0.000506        -0.0138
 104   0.0000       0.004095         0.1114
 105   0.0000       0.007783         0.2118

MULLIKEN ATOMIC CHARGES
-----------------------
   0 C :   -0.448433
   1 C :   -0.162622
   2 O :   -0.259992
   3 P :    0.683241
   4 S :   -0.450861
   5 O :   -0.283115
   6 C :   -0.175527
   7 C :   -0.416752
   8 S :   -0.156207
   9 C :   -0.240052
  10 S :   -0.142621
  11 P :    0.714619
  12 S :   -0.498198
  13 O :   -0.255880
  14 C :   -0.122183
  15 C :   -0.478123
  16 O :   -0.292184
  17 C :   -0.148507
  18 C :   -0.443932
  19 H :    0.145288
  20 H :    0.147008
  21 H :    0.173296
  22 H :    0.160385
  23 H :    0.177669
  24 H :    0.165364
  25 H :    0.154546
  26 H :    0.162575
  27 H :    0.153060
  28 H :    0.148690
  29 H :    0.212379
  30 H :    0.212722
  31 H :    0.169961
  32 H :    0.148588
  33 H :    0.145420
  34 H :    0.154960
  35 H :    0.167363
  36 H :    0.170425
  37 H :    0.150942
  38 H :    0.153063
  39 H :    0.156439
  40 H :    0.147186
Sum of atomic charges:    0.0000000

LOEWDIN ATOMIC CHARGES
----------------------
   0 C :   -0.398972
   1 C :    0.007413
   2 O :   -0.693219
   3 P :    0.384315
   4 S :   -0.097364
   5 O :   -0.651980
   6 C :    0.023543
   7 C :   -0.398121
   8 S :    0.147551
   9 C :   -0.419940
  10 S :    0.180088
  11 P :    0.373872
  12 S :   -0.140896
  13 O :   -0.660301
  14 C :    0.027327
  15 C :   -0.396856
  16 O :   -0.664087
  17 C :    0.020220
  18 C :   -0.386295
  19 H :    0.154666
  20 H :    0.159892
  21 H :    0.166320
  22 H :    0.180655
  23 H :    0.182697
  24 H :    0.178359
  25 H :    0.181510
  26 H :    0.164370
  27 H :    0.162526
  28 H :    0.160244
  29 H :    0.190798
  30 H :    0.191869
  31 H :    0.183055
  32 H :    0.172641
  33 H :    0.158147
  34 H :    0.159463
  35 H :    0.163820
  36 H :    0.181101
  37 H :    0.171603
  38 H :    0.159381
  39 H :    0.160496
  40 H :    0.160092

  Mayer bond orders larger than 0.100000
B(  0-C ,  1-C ) :   0.9255 B(  0-C , 19-H ) :   0.9756 B(  0-C , 20-H ) :   0.9641
B(  0-C , 21-H ) :   0.9628 B(  1-C ,  2-O ) :   0.7706 B(  1-C , 22-H ) :   0.9656
B(  1-C , 23-H ) :   0.9559 B(  2-O ,  3-P ) :   1.0344 B(  3-P ,  4-S ) :   1.8326
B(  3-P ,  5-O ) :   1.1344 B(  3-P ,  8-S ) :   1.0294 B(  5-O ,  6-C ) :   0.7557
B(  6-C ,  7-C ) :   0.9586 B(  6-C , 24-H ) :   0.9678 B(  6-C , 25-H ) :   0.9610
B(  7-C , 26-H ) :   0.9700 B(  7-C , 27-H ) :   0.9515 B(  7-C , 28-H ) :   0.9663
B(  8-S ,  9-C ) :   0.9107 B(  9-C , 10-S ) :   0.8959 B(  9-C , 29-H ) :   0.9109
B(  9-C , 30-H ) :   0.9097 B( 10-S , 11-P ) :   1.0706 B( 11-P , 12-S ) :   1.7282
B( 11-P , 13-O ) :   1.1833 B( 11-P , 16-O ) :   1.0847 B( 13-O , 14-C ) :   0.7620
B( 14-C , 15-C ) :   0.9569 B( 14-C , 31-H ) :   0.9571 B( 14-C , 32-H ) :   0.9510
B( 15-C , 33-H ) :   0.9629 B( 15-C , 34-H ) :   0.9683 B( 15-C , 35-H ) :   0.9677
B( 16-O , 17-C ) :   0.7769 B( 17-C , 18-C ) :   0.9577 B( 17-C , 36-H ) :   0.9522
B( 17-C , 37-H ) :   0.9457 B( 18-C , 38-H ) :   0.9719 B( 18-C , 39-H ) :   0.9721
B( 18-C , 40-H ) :   0.9646

Dispersion correction           -0.021877919
FINAL SINGLE POINT ENERGY     -2932.462213068261

DIPOLE MOMENT
-------------

Method             : SCF
Type of density    : Electron Density
Multiplicity       :   1
Irrep              :   0
Energy             : -2932.4868598702973941 Eh
Relativity type    :
Basis              : AO
                                X                 Y                 Z
Electronic contribution:      2.487091651       4.538917805     -19.065241549
Nuclear contribution   :     -2.996938849      -5.088089534      20.749326140
                        -----------------------------------------
Total Dipole Moment    :     -0.509847198      -0.549171729       1.684084590
                        -----------------------------------------
Magnitude (a.u.)       :      1.843278238
Magnitude (Debye)      :      4.685240938

Rotational constants in cm-1:             0.011888             0.005295             0.004930
Rotational constants in MHz :           356.400981           158.754748           147.797079

                             ****ORCA TERMINATED NORMALLY****
TOTAL RUN TIME: 0 days 0 hours 1 minutes 23 seconds 337 msec
