                         Program Version 6.0.0  -   RELEASE  -
|  1> ! r2scan-3c def2/J RI DEFGRID2 scfconv6 printgap
|  2> %output
|  3>     printlevel normal
|  4> end
|  5> %cpcm
|  6>     smd true
|  7>     smdsolvent "water"
|  8> end
|  9> * xyz 0 1
| 10> C 2.9635371623 -2.7062269099 1.3631037937
| 11> C 1.6648893716 -2.2192564567 0.7529018176
| 12> O 1.576845367 -0.7861041796 0.8135339578
| 13> P 2.2995479101 0.1763599499 -0.239397327
| 14> S 3.0140843793 -0.6692581166 -1.8474092018
| 15> O 3.4362840384 0.9157013258 0.5747109548
| 16> C 3.2620157366 1.4920861424 1.8938681638
| 17> C 2.9744608768 2.9771709535 1.8056138466
| 18> S 0.7929563929 1.6427466428 -0.5332353806
| 19> C -0.0144898814 0.8321124346 -1.9327662258
| 20> S -0.6795163609 -0.8069922318 -1.530492037
| 21> P -2.1550233503 -0.1512567211 -0.1740970034
| 22> S -3.0479968921 1.5475643687 -0.5893394793
| 23> O -1.3920895634 -0.2370992037 1.2043542259
| 24> C -1.8200148407 0.4809758126 2.3867254147
| 25> C -0.606708568 1.1096810997 3.0403451065
| 26> O -3.1335101044 -1.3991526356 -0.0617698572
| 27> C -4.1620639265 -1.6602095524 -1.0380297713
| 28> C -5.2390691127 -2.4926523432 -0.371783366
| 29> H 3.0488603603 -2.3730527362 2.3939499289
| 30> H 2.9920503177 -3.7906743423 1.3310493838
| 31> H 3.8041744505 -2.3126513296 0.7924248161
| 32> H 0.7918167533 -2.567789476 1.3074021021
| 33> H 1.5853240517 -2.5357615816 -0.2921280253
| 34> H 2.4603250392 0.9606586605 2.4103125068
| 35> H 4.2145091327 1.3049797183 2.392671793
| 36> H 3.763207383 3.476953564 1.2503400571
| 37> H 2.0279339787 3.1565298071 1.2993781776
| 38> H 2.9252465237 3.3884717741 2.8089470297
| 39> H 0.708910134 0.680375126 -2.7332431339
| 40> H -0.826466716 1.4887787825 -2.2447694235
| 41> H -2.5507332113 1.2422010545 2.0935905166
| 42> H -2.2982029508 -0.2493319496 3.0425487143
| 43> H -0.9104596717 1.5989516532 3.9600054581
| 44> H 0.1290385376 0.3423676184 3.2647560599
| 45> H -0.162773594 1.8441481515 2.3727909998
| 46> H -4.5582770025 -0.7025916899 -1.3925491156
| 47> H -3.7053715743 -2.1926003431 -1.8762572634
| 48> H -4.811176017 -3.4155222494 0.0087692117
| 49> H -5.6806683896 -1.9414693284 0.4536874756
| 50> H -6.0093119024 -2.7258003341 -1.0995332572
| 51> *
| 52>
| 53>                          ****END OF INPUT****

CARTESIAN COORDINATES (ANGSTROEM)
---------------------------------
  C      2.963537   -2.706227    1.363104
  C      1.664889   -2.219256    0.752902
  O      1.576845   -0.786104    0.813534
  P      2.299548    0.176360   -0.239397
  S      3.014084   -0.669258   -1.847409
  O      3.436284    0.915701    0.574711
  C      3.262016    1.492086    1.893868
  C      2.974461    2.977171    1.805614
  S      0.792956    1.642747   -0.533235
  C     -0.014490    0.832112   -1.932766
  S     -0.679516   -0.806992   -1.530492
  P     -2.155023   -0.151257   -0.174097
  S     -3.047997    1.547564   -0.589339
  O     -1.392090   -0.237099    1.204354
  C     -1.820015    0.480976    2.386725
  C     -0.606709    1.109681    3.040345
  O     -3.133510   -1.399153   -0.061770
  C     -4.162064   -1.660210   -1.038030
  C     -5.239069   -2.492652   -0.371783
  H      3.048860   -2.373053    2.393950
  H      2.992050   -3.790674    1.331049
  H      3.804174   -2.312651    0.792425
  H      0.791817   -2.567789    1.307402
  H      1.585324   -2.535762   -0.292128
  H      2.460325    0.960659    2.410313
  H      4.214509    1.304980    2.392672
  H      3.763207    3.476954    1.250340
  H      2.027934    3.156530    1.299378
  H      2.925247    3.388472    2.808947
  H      0.708910    0.680375   -2.733243
  H     -0.826467    1.488779   -2.244769
  H     -2.550733    1.242201    2.093591
  H     -2.298203   -0.249332    3.042549
  H     -0.910460    1.598952    3.960005
  H      0.129039    0.342368    3.264756
  H     -0.162774    1.844148    2.372791
  H     -4.558277   -0.702592   -1.392549
  H     -3.705372   -2.192600   -1.876257
  H     -4.811176   -3.415522    0.008769
  H     -5.680668   -1.941469    0.453687
  H     -6.009312   -2.725800   -1.099533

 Total Charge           Charge          ....    0
 Multiplicity           Mult            ....    1
 Number of Electrons    NEL             ....  202
 Basis Dimension        Dim             ....  539

ORBITAL ENERGIES
----------------

  NO   OCC          E(Eh)            E(eV)
   0   2.0000     -88.580940     -2410.4099
   1   2.0000     -88.578086     -2410.3323
   2   2.0000     -88.530302     -2409.0320
   3   2.0000     -88.528163     -2408.9738
   4   2.0000     -76.920770     -2093.1206
   5   2.0000     -76.918971     -2093.0716
   6   2.0000     -18.996008      -516.9077
   7   2.0000     -18.994717      -516.8725
   8   2.0000     -18.992895      -516.8229
   9   2.0000     -18.989595      -516.7331
  10   2.0000     -10.105419      -274.9824
  11   2.0000     -10.092997      -274.6444
  12   2.0000     -10.089401      -274.5466
  13   2.0000     -10.089339      -274.5449
  14   2.0000     -10.087208      -274.4869
  15   2.0000     -10.021211      -272.6910
  16   2.0000     -10.019374      -272.6410
  17   2.0000     -10.017820      -272.5987
  18   2.0000     -10.017358      -272.5862
  19   2.0000      -7.875260      -214.2967
  20   2.0000      -7.872591      -214.2241
  21   2.0000      -7.825516      -212.9431
  22   2.0000      -7.823287      -212.8825
  23   2.0000      -6.599004      -179.5680
  24   2.0000      -6.597628      -179.5306
  25   2.0000      -5.822162      -158.4291
  26   2.0000      -5.819444      -158.3551
  27   2.0000      -5.819067      -158.3449
  28   2.0000      -5.816478      -158.2744
  29   2.0000      -5.812415      -158.1638
  30   2.0000      -5.809652      -158.0887
  31   2.0000      -5.773219      -157.0973
  32   2.0000      -5.770760      -157.0304
  33   2.0000      -5.765671      -156.8919
  34   2.0000      -5.765492      -156.8870
  35   2.0000      -5.763573      -156.8348
  36   2.0000      -5.763381      -156.8296
  37   2.0000      -4.744807      -129.1127
  38   2.0000      -4.743548      -129.0785
  39   2.0000      -4.742992      -129.0634
  40   2.0000      -4.742928      -129.0616
  41   2.0000      -4.742562      -129.0517
  42   2.0000      -4.741477      -129.0221
  43   2.0000      -1.052102       -28.6292
  44   2.0000      -1.049690       -28.5635
  45   2.0000      -1.011947       -27.5365
  46   2.0000      -1.009948       -27.4821
  47   2.0000      -0.806169       -21.9370
  48   2.0000      -0.758187       -20.6313
  49   2.0000      -0.745976       -20.2990
  50   2.0000      -0.726320       -19.7642
  51   2.0000      -0.723496       -19.6873
  52   2.0000      -0.708994       -19.2927
  53   2.0000      -0.688809       -18.7434
  54   2.0000      -0.676056       -18.3964
  55   2.0000      -0.627969       -17.0879
  56   2.0000      -0.615103       -16.7378
  57   2.0000      -0.604730       -16.4555
  58   2.0000      -0.595910       -16.2155
  59   2.0000      -0.587254       -15.9800
  60   2.0000      -0.531457       -14.4617
  61   2.0000      -0.519804       -14.1446
  62   2.0000      -0.497521       -13.5382
  63   2.0000      -0.493671       -13.4335
  64   2.0000      -0.474409       -12.9093
  65   2.0000      -0.459559       -12.5052
  66   2.0000      -0.455256       -12.3882
  67   2.0000      -0.445228       -12.1153
  68   2.0000      -0.444462       -12.0944
  69   2.0000      -0.431824       -11.7505
  70   2.0000      -0.419047       -11.4029
  71   2.0000      -0.410443       -11.1687
  72   2.0000      -0.404452       -11.0057
  73   2.0000      -0.397477       -10.8159
  74   2.0000      -0.389310       -10.5937
  75   2.0000      -0.387867       -10.5544
  76   2.0000      -0.383069       -10.4238
  77   2.0000      -0.368422       -10.0253
  78   2.0000      -0.363458        -9.8902
  79   2.0000      -0.362205        -9.8561
  80   2.0000      -0.357929        -9.7398
  81   2.0000      -0.356110        -9.6903
  82   2.0000      -0.350962        -9.5502
  83   2.0000      -0.346500        -9.4287
  84   2.0000      -0.344868        -9.3843
  85   2.0000      -0.330147        -8.9837
  86   2.0000      -0.318896        -8.6776
  87   2.0000      -0.313050        -8.5185
  88   2.0000      -0.310643        -8.4530
  89   2.0000      -0.303216        -8.2509
  90   2.0000      -0.295396        -8.0381
  91   2.0000      -0.291941        -7.9441
  92   2.0000      -0.285618        -7.7721
  93   2.0000      -0.278473        -7.5776
  94   2.0000      -0.274541        -7.4706
  95   2.0000      -0.249515        -6.7896
  96   2.0000      -0.237423        -6.4606
  97   2.0000      -0.236637        -6.4392
  98   2.0000      -0.228895        -6.2286
  99   2.0000      -0.222569        -6.0564
 100   2.0000      -0.221154        -6.0179
 101   0.0000      -0.052879        -1.4389
 102   0.0000      -0.031298        -0.8517
 103   0.0000      -0.004319        -0.1175
 104   0.0000      -0.000521        -0.0142
 105   0.0000       0.006893         0.1876

MULLIKEN ATOMIC CHARGES
-----------------------
   0 C :   -0.485235
   1 C :   -0.145656
   2 O :   -0.280316
   3 P :    0.692894
   4 S :   -0.504064
   5 O :   -0.318432
   6 C :   -0.163090
   7 C :   -0.456820
   8 S :   -0.165517
   9 C :   -0.250085
  10 S :   -0.151758
  11 P :    0.740534
  12 S :   -0.541275
  13 O :   -0.285273
  14 C :   -0.116728
  15 C :   -0.512866
  16 O :   -0.318248
  17 C :   -0.141792
  18 C :   -0.484495
  19 H :    0.166574
  20 H :    0.169994
  21 H :    0.166437
  22 H :    0.180400
  23 H :    0.175901
  24 H :    0.184323
  25 H :    0.178929
  26 H :    0.172298
  27 H :    0.153804
  28 H :    0.174786
  29 H :    0.233125
  30 H :    0.233363
  31 H :    0.169775
  32 H :    0.173227
  33 H :    0.169299
  34 H :    0.171048
  35 H :    0.171246
  36 H :    0.170704
  37 H :    0.171611
  38 H :    0.165689
  39 H :    0.166235
  40 H :    0.169453
Sum of atomic charges:    0.0000000

LOEWDIN ATOMIC CHARGES
----------------------
   0 C :   -0.401112
   1 C :    0.012177
   2 O :   -0.701131
   3 P :    0.385177
   4 S :   -0.136972
   5 O :   -0.671945
   6 C :    0.032270
   7 C :   -0.400411
   8 S :    0.145223
   9 C :   -0.415420
  10 S :    0.174824
  11 P :    0.377638
  12 S :   -0.169205
  13 O :   -0.675816
  14 C :    0.031888
  15 C :   -0.397838
  16 O :   -0.676048
  17 C :    0.024677
  18 C :   -0.390022
  19 H :    0.162339
  20 H :    0.167959
  21 H :    0.162216
  22 H :    0.189147
  23 H :    0.181856
  24 H :    0.186808
  25 H :    0.192208
  26 H :    0.165365
  27 H :    0.160728
  28 H :    0.171157
  29 H :    0.196671
  30 H :    0.198126
  31 H :    0.183292
  32 H :    0.183223
  33 H :    0.167668
  34 H :    0.164019
  35 H :    0.163554
  36 H :    0.181514
  37 H :    0.179876
  38 H :    0.163022
  39 H :    0.162508
  40 H :    0.168790

  Mayer bond orders larger than 0.100000
B(  0-C ,  1-C ) :   0.9256 B(  0-C , 19-H ) :   0.9705 B(  0-C , 20-H ) :   0.9593
B(  0-C , 21-H ) :   0.9643 B(  1-C ,  2-O ) :   0.7566 B(  1-C , 22-H ) :   0.9542
B(  1-C , 23-H ) :   0.9525 B(  2-O ,  3-P ) :   1.0421 B(  3-P ,  4-S ) :   1.8100
B(  3-P ,  5-O ) :   1.1420 B(  3-P ,  8-S ) :   1.0451 B(  5-O ,  6-C ) :   0.7467
B(  6-C ,  7-C ) :   0.9459 B(  6-C , 24-H ) :   0.9567 B(  6-C , 25-H ) :   0.9512
B(  7-C , 26-H ) :   0.9700 B(  7-C , 27-H ) :   0.9514 B(  7-C , 28-H ) :   0.9593
B(  8-S ,  9-C ) :   0.8955 B(  9-C , 10-S ) :   0.8875 B(  9-C , 29-H ) :   0.9053
B(  9-C , 30-H ) :   0.9044 B( 10-S , 11-P ) :   1.0835 B( 11-P , 12-S ) :   1.6951
B( 11-P , 13-O ) :   1.1893 B( 11-P , 16-O ) :   1.0919 B( 13-O , 14-C ) :   0.7518
B( 14-C , 15-C ) :   0.9480 B( 14-C , 31-H ) :   0.9544 B( 14-C , 32-H ) :   0.9403
B( 15-C , 33-H ) :   0.9575 B( 15-C , 34-H ) :   0.9654 B( 15-C , 35-H ) :   0.9650
B( 16-O , 17-C ) :   0.7692 B( 17-C , 18-C ) :   0.9536 B( 17-C , 36-H ) :   0.9496
B( 17-C , 37-H ) :   0.9370 B( 18-C , 38-H ) :   0.9689 B( 18-C , 39-H ) :   0.9696
B( 18-C , 40-H ) :   0.9588

Dispersion correction           -0.021877919
FINAL SINGLE POINT ENERGY     -2932.472674161929

DIPOLE MOMENT
-------------

Method             : SCF
Type of density    : Electron Density
Multiplicity       :   1
Irrep              :   0
Energy             : -2932.4973209639656488 Eh
Relativity type    :
Basis              : AO
                                X                 Y                 Z
Electronic contribution:      2.236775233       4.383898564     -18.461484694
Nuclear contribution   :     -2.996938849      -5.088089534      20.749326140
                        -----------------------------------------
Total Dipole Moment    :     -0.760163617      -0.704190970       2.287841446
                        -----------------------------------------
Magnitude (a.u.)       :      2.511563682
Magnitude (Debye)      :      6.383887544

Rotational constants in cm-1:             0.011888             0.005295             0.004930
Rotational constants in MHz :           356.400981           158.754748           147.797079

                             ****ORCA TERMINATED NORMALLY****
TOTAL RUN TIME: 0 days 0 hours 1 minutes 53 seconds 315 msec
