                         Program Version 6.0.1  -  RELEASE   -
|  1> ! pbe def2-sv(p) def2/J RI DEFGRID1 loosescf d4 GCP(DFT/SV(P)) printgap
|  2> %output
|  3>     printlevel normal
|  4> end
|  5> * xyz 0 1
|  6> C 2.145755927 -3.5572991282 0.6430305562
|  7> C 3.1914522232 -2.5583231757 0.1758976096
|  8> O 2.6934405178 -1.7896673166 -0.9363328527
|  9> C 2.1599206027 -0.6107924184 -0.7185335836
| 10> O 2.0551877028 -0.0748964075 0.3672851454
| 11> C 1.7103891091 0.0580038213 -2.0016779122
| 12> C 0.4414253515 0.8707907685 -1.7521167352
| 13> H 0.2796557979 1.5729458532 -2.5736331532
| 14> C 0.5182240714 1.6553793416 -0.4568088137
| 15> O -0.3222360352 1.5481639494 0.4216481413
| 16> O 1.5022535519 2.5066311801 -0.4546732124
| 17> C 1.713178191 3.3095573519 0.7275330277
| 18> C 0.8269969398 4.5436461386 0.7173400026
| 19> S -1.0540913809 -0.1795075707 -1.7137676388
| 20> P -1.684568201 -0.4049794266 0.3019383619
| 21> S -0.5754559092 -1.057572532 1.7927544601
| 22> O -2.8024941276 0.68570607 0.6091175664
| 23> C -2.7783893289 1.5897207601 1.7132556975
| 24> O -2.7755946947 -1.5393492926 -0.0668859968
| 25> C -2.4028527977 -2.888975309 -0.3413190577
| 26> H 1.2840791002 -3.033195573 1.053516877
| 27> H 1.8230494379 -4.1782671101 -0.1879293339
| 28> H 2.5698835293 -4.185281936 1.4191761692
| 29> H 4.076968203 -3.0628516716 -0.2123787163
| 30> H 3.4608252943 -1.8734259612 0.984595805
| 31> H 1.5439999318 -0.6888310267 -2.7759172374
| 32> H 2.5110588277 0.7325242309 -2.3141082902
| 33> H 1.5198598956 2.6849245721 1.6038599717
| 34> H 2.7690369516 3.5751823783 0.6799465409
| 35> H 1.0054228371 5.1254119411 -0.1825934669
| 36> H -0.2213009133 4.2563230509 0.7539678237
| 37> H 1.0533338154 5.1506105851 1.5875331117
| 38> H -2.5466858283 2.5887170038 1.3473115508
| 39> H -2.0289457513 1.281880652 2.4447394265
| 40> H -3.7720087505 1.5619689525 2.1562166967
| 41> H -1.6877975217 -3.2385877315 0.4072543104
| 42> H -1.9677992544 -2.9661542629 -1.3383185862
| 43> H -3.3225945249 -3.4655289405 -0.2813995479
| 44> *
| 45>
| 46>                          ****END OF INPUT****

CARTESIAN COORDINATES (ANGSTROEM)
---------------------------------
  C      2.145756   -3.557299    0.643031
  C      3.191452   -2.558323    0.175898
  O      2.693441   -1.789667   -0.936333
  C      2.159921   -0.610792   -0.718534
  O      2.055188   -0.074896    0.367285
  C      1.710389    0.058004   -2.001678
  C      0.441425    0.870791   -1.752117
  H      0.279656    1.572946   -2.573633
  C      0.518224    1.655379   -0.456809
  O     -0.322236    1.548164    0.421648
  O      1.502254    2.506631   -0.454673
  C      1.713178    3.309557    0.727533
  C      0.826997    4.543646    0.717340
  S     -1.054091   -0.179508   -1.713768
  P     -1.684568   -0.404979    0.301938
  S     -0.575456   -1.057573    1.792754
  O     -2.802494    0.685706    0.609118
  C     -2.778389    1.589721    1.713256
  O     -2.775595   -1.539349   -0.066886
  C     -2.402853   -2.888975   -0.341319
  H      1.284079   -3.033196    1.053517
  H      1.823049   -4.178267   -0.187929
  H      2.569884   -4.185282    1.419176
  H      4.076968   -3.062852   -0.212379
  H      3.460825   -1.873426    0.984596
  H      1.544000   -0.688831   -2.775917
  H      2.511059    0.732524   -2.314108
  H      1.519860    2.684925    1.603860
  H      2.769037    3.575182    0.679947
  H      1.005423    5.125412   -0.182593
  H     -0.221301    4.256323    0.753968
  H      1.053334    5.150611    1.587533
  H     -2.546686    2.588717    1.347312
  H     -2.028946    1.281881    2.444739
  H     -3.772009    1.561969    2.156217
  H     -1.687798   -3.238588    0.407254
  H     -1.967799   -2.966154   -1.338319
  H     -3.322595   -3.465529   -0.281400

 Total Charge           Charge          ....    0
 Multiplicity           Mult            ....    1
 Number of Electrons    NEL             ....  174
 Basis Dimension        Dim             ....  316

ORBITAL ENERGIES
----------------

  NO   OCC          E(Eh)            E(eV)
   0   2.0000     -88.030897     -2395.4425
   1   2.0000     -87.959685     -2393.5047
   2   2.0000     -76.412500     -2079.2898
   3   2.0000     -18.818194      -512.0691
   4   2.0000     -18.809775      -511.8400
   5   2.0000     -18.768641      -510.7207
   6   2.0000     -18.762032      -510.5409
   7   2.0000     -18.761033      -510.5137
   8   2.0000     -18.745099      -510.0801
   9   2.0000     -10.032258      -272.9916
  10   2.0000     -10.016991      -272.5762
  11   2.0000      -9.956451      -270.9288
  12   2.0000      -9.953705      -270.8541
  13   2.0000      -9.946891      -270.6687
  14   2.0000      -9.926735      -270.1202
  15   2.0000      -9.923013      -270.0189
  16   2.0000      -9.919756      -269.9303
  17   2.0000      -9.894863      -269.2529
  18   2.0000      -9.877541      -268.7816
  19   2.0000      -7.675964      -208.8736
  20   2.0000      -7.604760      -206.9360
  21   2.0000      -6.407231      -174.3496
  22   2.0000      -5.704256      -155.2207
  23   2.0000      -5.700039      -155.1059
  24   2.0000      -5.692940      -154.9128
  25   2.0000      -5.633845      -153.3047
  26   2.0000      -5.625734      -153.0840
  27   2.0000      -5.624316      -153.0454
  28   2.0000      -4.629868      -125.9851
  29   2.0000      -4.629396      -125.9723
  30   2.0000      -4.627843      -125.9300
  31   2.0000      -1.031142       -28.0588
  32   2.0000      -1.016171       -27.6514
  33   2.0000      -0.961509       -26.1640
  34   2.0000      -0.937089       -25.4995
  35   2.0000      -0.923509       -25.1299
  36   2.0000      -0.915449       -24.9106
  37   2.0000      -0.767453       -20.8835
  38   2.0000      -0.714802       -19.4507
  39   2.0000      -0.707856       -19.2617
  40   2.0000      -0.682957       -18.5842
  41   2.0000      -0.651814       -17.7368
  42   2.0000      -0.627077       -17.0636
  43   2.0000      -0.611346       -16.6356
  44   2.0000      -0.602339       -16.3905
  45   2.0000      -0.595958       -16.2168
  46   2.0000      -0.566898       -15.4261
  47   2.0000      -0.513661       -13.9774
  48   2.0000      -0.502215       -13.6660
  49   2.0000      -0.498920       -13.5763
  50   2.0000      -0.488918       -13.3041
  51   2.0000      -0.463205       -12.6045
  52   2.0000      -0.456205       -12.4140
  53   2.0000      -0.447966       -12.1898
  54   2.0000      -0.435545       -11.8518
  55   2.0000      -0.431214       -11.7339
  56   2.0000      -0.429465       -11.6863
  57   2.0000      -0.420131       -11.4323
  58   2.0000      -0.405324       -11.0294
  59   2.0000      -0.398497       -10.8436
  60   2.0000      -0.396414       -10.7870
  61   2.0000      -0.392227       -10.6730
  62   2.0000      -0.387678       -10.5492
  63   2.0000      -0.384253       -10.4561
  64   2.0000      -0.376319       -10.2402
  65   2.0000      -0.366405        -9.9704
  66   2.0000      -0.362299        -9.8587
  67   2.0000      -0.355083        -9.6623
  68   2.0000      -0.347827        -9.4649
  69   2.0000      -0.341904        -9.3037
  70   2.0000      -0.338800        -9.2192
  71   2.0000      -0.328188        -8.9304
  72   2.0000      -0.321530        -8.7493
  73   2.0000      -0.308901        -8.4056
  74   2.0000      -0.297193        -8.0870
  75   2.0000      -0.293186        -7.9780
  76   2.0000      -0.284094        -7.7306
  77   2.0000      -0.281549        -7.6613
  78   2.0000      -0.268160        -7.2970
  79   2.0000      -0.261662        -7.1202
  80   2.0000      -0.255442        -6.9509
  81   2.0000      -0.239393        -6.5142
  82   2.0000      -0.235213        -6.4005
  83   2.0000      -0.232361        -6.3229
  84   2.0000      -0.218666        -5.9502
  85   2.0000      -0.181460        -4.9378
  86   2.0000      -0.169396        -4.6095
  87   0.0000      -0.041780        -1.1369
  88   0.0000      -0.030279        -0.8239
  89   0.0000      -0.026942        -0.7331
  90   0.0000       0.004953         0.1348
  91   0.0000       0.034330         0.9342

MULLIKEN ATOMIC CHARGES
-----------------------
   0 C :   -0.321516
   1 C :   -0.016558
   2 O :   -0.220604
   3 C :    0.112314
   4 O :   -0.184866
   5 C :   -0.062451
   6 C :   -0.276822
   7 H :    0.147098
   8 C :    0.235884
   9 O :   -0.213340
  10 O :   -0.224966
  11 C :   -0.006406
  12 C :   -0.317618
  13 S :   -0.112725
  14 P :    0.633748
  15 S :   -0.330179
  16 O :   -0.374258
  17 C :   -0.091280
  18 O :   -0.384905
  19 C :   -0.100562
  20 H :    0.153531
  21 H :    0.108360
  22 H :    0.108442
  23 H :    0.101835
  24 H :    0.112585
  25 H :    0.120712
  26 H :    0.127418
  27 H :    0.128814
  28 H :    0.106169
  29 H :    0.114336
  30 H :    0.135585
  31 H :    0.118339
  32 H :    0.109844
  33 H :    0.118101
  34 H :    0.116212
  35 H :    0.110151
  36 H :    0.103021
  37 H :    0.116560
Sum of atomic charges:   -0.0000000

LOEWDIN ATOMIC CHARGES
----------------------
   0 C :   -0.362947
   1 C :   -0.108875
   2 O :   -0.047225
   3 C :    0.035632
   4 O :   -0.142957
   5 C :   -0.250329
   6 C :   -0.261257
   7 H :    0.148767
   8 C :    0.033310
   9 O :   -0.150316
  10 O :   -0.038247
  11 C :   -0.102403
  12 C :   -0.357209
  13 S :    0.094157
  14 P :    0.582090
  15 S :   -0.324578
  16 O :   -0.245660
  17 C :   -0.210598
  18 O :   -0.267932
  19 C :   -0.223528
  20 H :    0.127000
  21 H :    0.122731
  22 H :    0.129749
  23 H :    0.116616
  24 H :    0.121902
  25 H :    0.138359
  26 H :    0.149641
  27 H :    0.130505
  28 H :    0.120716
  29 H :    0.125350
  30 H :    0.129874
  31 H :    0.133766
  32 H :    0.106939
  33 H :    0.109280
  34 H :    0.115986
  35 H :    0.102833
  36 H :    0.100803
  37 H :    0.118055

  Mayer bond orders larger than 0.100000
B(  0-C ,  1-C ) :   1.1798 B(  0-C , 20-H ) :   0.9190 B(  0-C , 21-H ) :   0.9483
B(  0-C , 22-H ) :   0.9409 B(  1-C ,  2-O ) :   0.9017 B(  1-C , 23-H ) :   0.9367
B(  1-C , 24-H ) :   0.9095 B(  2-O ,  3-C ) :   1.2646 B(  3-C ,  4-O ) :   1.9688
B(  3-C ,  5-C ) :   0.9944 B(  4-O ,  8-C ) :   0.1300 B(  5-C ,  6-C ) :   1.0259
B(  5-C , 25-H ) :   0.9063 B(  5-C , 26-H ) :   0.8719 B(  6-C ,  7-H ) :   0.8758
B(  6-C ,  8-C ) :   0.9124 B(  6-C , 13-S ) :   1.0250 B(  8-C ,  9-O ) :   1.8551
B(  8-C , 10-O ) :   1.2676 B(  9-O , 14-P ) :   0.1692 B( 10-O , 11-C ) :   0.8981
B( 11-C , 12-C ) :   1.1729 B( 11-C , 27-H ) :   0.9165 B( 11-C , 28-H ) :   0.9375
B( 12-C , 29-H ) :   0.9467 B( 12-C , 30-H ) :   0.9422 B( 12-C , 31-H ) :   0.9432
B( 13-S , 14-P ) :   0.9347 B( 13-S , 15-S ) :   0.1142 B( 14-P , 15-S ) :   1.5703
B( 14-P , 16-O ) :   1.1144 B( 14-P , 18-O ) :   1.0413 B( 16-O , 17-C ) :   0.9349
B( 17-C , 32-H ) :   0.9545 B( 17-C , 33-H ) :   0.9303 B( 17-C , 34-H ) :   0.9542
B( 18-O , 19-C ) :   0.9535 B( 19-C , 35-H ) :   0.9278 B( 19-C , 36-H ) :   0.9463
B( 19-C , 37-H ) :   0.9596

Dispersion correction           -0.053793241
FINAL SINGLE POINT ENERGY     -1979.007613481141

DIPOLE MOMENT
-------------

Method             : SCF
Type of density    : Electron Density
Multiplicity       :   1
Irrep              :   0
Energy             : -1979.1377004328442126 Eh
Relativity type    :
Basis              : AO
                                X                 Y                 Z
Electronic contribution:     -8.048315526      -1.309361646      -4.738669191
Nuclear contribution   :      9.391306723       2.142160086       4.016212305
                        -----------------------------------------
Total Dipole Moment    :      1.342991197       0.832798440      -0.722456886
                        -----------------------------------------
Magnitude (a.u.)       :      1.737562243
Magnitude (Debye)      :      4.416532234

Rotational constants in cm-1:             0.010489             0.010176             0.006806
Rotational constants in MHz :           314.441494           305.065812           204.050994

                             ****ORCA TERMINATED NORMALLY****
TOTAL RUN TIME: 0 days 0 hours 0 minutes 33 seconds 668 msec
