                         Program Version 6.0.0  -   RELEASE  -
|  1> ! pbe def2-sv(p) def2/J RI DEFGRID1 loosescf d4 GCP(DFT/SV(P)) printgap
|  2> %output
|  3>     printlevel normal
|  4> end
|  5> * xyz 0 1
|  6> C 5.3483754705 -0.1017533678 -2.1793839043
|  7> C 4.0135221263 -0.7567142901 -1.8902259139
|  8> O 3.334229392 0.0422702076 -0.8976285584
|  9> P 1.7895248106 -0.1614354355 -0.6061132129
| 10> S 0.6152879688 -0.0693367626 -2.1705116288
| 11> O 1.4816264738 0.9629626771 0.4464531412
| 12> C 2.376137275 1.4696088053 1.4699231684
| 13> C 2.7137645817 0.4274210535 2.5149193506
| 14> S 1.7187861904 -2.0525771799 0.3633680018
| 15> C -0.0812640103 -2.1986301161 0.4024187327
| 16> S -0.8635322127 -1.0297040782 1.5664111225
| 17> P -2.0031803889 0.2897313176 0.3543461588
| 18> S -1.3560016456 2.1226141975 0.0539071541
| 19> O -3.4273577448 0.2944712495 1.0746721603
| 20> C -3.7545186572 1.2430382959 2.0998999178
| 21> C -2.9855434179 0.9659728883 3.3751986979
| 22> O -2.2920435927 -0.6759295827 -0.8662870404
| 23> C -3.3705337838 -0.4892229767 -1.8097501002
| 24> C -3.1174970315 0.6726825487 -2.7473362494
| 25> H 5.196359649 0.9028876507 -2.5642753217
| 26> H 5.9405158378 -0.0461613622 -1.2707118756
| 27> H 5.8792955174 -0.6916769238 -2.9191287943
| 28> H 4.1394097631 -1.7641799013 -1.4853357372
| 29> H 3.3849743201 -0.8060197614 -2.7853494017
| 30> H 3.2742542004 1.8457565547 0.9776198124
| 31> H 1.8075456437 2.2999006137 1.8933035762
| 32> H 3.3274724148 -0.3610484407 2.0845130126
| 33> H 3.264802618 0.9058944578 3.3185481897
| 34> H 1.8045958641 -0.0132431879 2.9189223929
| 35> H -0.301951742 -3.2004192991 0.7603220857
| 36> H -0.4789280268 -2.02894444 -0.5968734253
| 37> H -3.5306127444 2.2476566492 1.7250656246
| 38> H -4.829934286 1.1260770525 2.238675453
| 39> H -1.9180640481 1.0901178474 3.1886850369
| 40> H -3.2941888758 1.6650670362 4.1454395952
| 41> H -3.1625700919 -0.0517356255 3.712616475
| 42> H -3.3936165505 -1.4361574118 -2.3521598887
| 43> H -4.2985474764 -0.354418788 -1.2496830381
| 44> H -2.1415484397 0.5647711553 -3.2175350665
| 45> H -3.8866264867 0.6919707247 -3.512685181
| 46> H -3.1316176367 1.6143693603 -2.2014256238
| 47> *
| 48>
| 49>                          ****END OF INPUT****

CARTESIAN COORDINATES (ANGSTROEM)
---------------------------------
  C      5.348375   -0.101753   -2.179384
  C      4.013522   -0.756714   -1.890226
  O      3.334229    0.042270   -0.897629
  P      1.789525   -0.161435   -0.606113
  S      0.615288   -0.069337   -2.170512
  O      1.481626    0.962963    0.446453
  C      2.376137    1.469609    1.469923
  C      2.713765    0.427421    2.514919
  S      1.718786   -2.052577    0.363368
  C     -0.081264   -2.198630    0.402419
  S     -0.863532   -1.029704    1.566411
  P     -2.003180    0.289731    0.354346
  S     -1.356002    2.122614    0.053907
  O     -3.427358    0.294471    1.074672
  C     -3.754519    1.243038    2.099900
  C     -2.985543    0.965973    3.375199
  O     -2.292044   -0.675930   -0.866287
  C     -3.370534   -0.489223   -1.809750
  C     -3.117497    0.672683   -2.747336
  H      5.196360    0.902888   -2.564275
  H      5.940516   -0.046161   -1.270712
  H      5.879296   -0.691677   -2.919129
  H      4.139410   -1.764180   -1.485336
  H      3.384974   -0.806020   -2.785349
  H      3.274254    1.845757    0.977620
  H      1.807546    2.299901    1.893304
  H      3.327472   -0.361048    2.084513
  H      3.264803    0.905894    3.318548
  H      1.804596   -0.013243    2.918922
  H     -0.301952   -3.200419    0.760322
  H     -0.478928   -2.028944   -0.596873
  H     -3.530613    2.247657    1.725066
  H     -4.829934    1.126077    2.238675
  H     -1.918064    1.090118    3.188685
  H     -3.294189    1.665067    4.145440
  H     -3.162570   -0.051736    3.712616
  H     -3.393617   -1.436157   -2.352160
  H     -4.298547   -0.354419   -1.249683
  H     -2.141548    0.564771   -3.217535
  H     -3.886626    0.691971   -3.512685
  H     -3.131618    1.614369   -2.201426

 Total Charge           Charge          ....    0
 Multiplicity           Mult            ....    1
 Number of Electrons    NEL             ....  202
 Basis Dimension        Dim             ....  334

ORBITAL ENERGIES
----------------

  NO   OCC          E(Eh)            E(eV)
   0   2.0000     -88.037659     -2395.6265
   1   2.0000     -88.034028     -2395.5277
   2   2.0000     -87.976110     -2393.9517
   3   2.0000     -87.972655     -2393.8576
   4   2.0000     -76.421271     -2079.5285
   5   2.0000     -76.418331     -2079.4485
   6   2.0000     -18.794887      -511.4349
   7   2.0000     -18.783562      -511.1267
   8   2.0000     -18.783483      -511.1245
   9   2.0000     -18.782444      -511.0963
  10   2.0000      -9.954674      -270.8804
  11   2.0000      -9.952961      -270.8338
  12   2.0000      -9.950035      -270.7542
  13   2.0000      -9.948821      -270.7212
  14   2.0000      -9.944803      -270.6119
  15   2.0000      -9.890111      -269.1236
  16   2.0000      -9.882080      -268.9051
  17   2.0000      -9.881025      -268.8764
  18   2.0000      -9.871058      -268.6051
  19   2.0000      -7.683022      -209.0656
  20   2.0000      -7.679155      -208.9604
  21   2.0000      -7.621245      -207.3846
  22   2.0000      -7.617572      -207.2847
  23   2.0000      -6.418636      -174.6600
  24   2.0000      -6.415544      -174.5758
  25   2.0000      -5.710719      -155.3966
  26   2.0000      -5.707581      -155.3112
  27   2.0000      -5.707484      -155.3085
  28   2.0000      -5.703532      -155.2010
  29   2.0000      -5.700088      -155.1073
  30   2.0000      -5.695756      -154.9894
  31   2.0000      -5.650121      -153.7476
  32   2.0000      -5.646534      -153.6500
  33   2.0000      -5.642020      -153.5272
  34   2.0000      -5.641219      -153.5054
  35   2.0000      -5.638382      -153.4282
  36   2.0000      -5.637518      -153.4047
  37   2.0000      -4.641751      -126.3085
  38   2.0000      -4.640335      -126.2699
  39   2.0000      -4.638653      -126.2242
  40   2.0000      -4.638500      -126.2200
  41   2.0000      -4.637377      -126.1894
  42   2.0000      -4.635614      -126.1415
  43   2.0000      -0.986242       -26.8370
  44   2.0000      -0.979891       -26.6642
  45   2.0000      -0.941328       -25.6148
  46   2.0000      -0.936744       -25.4901
  47   2.0000      -0.757458       -20.6115
  48   2.0000      -0.716801       -19.5052
  49   2.0000      -0.705630       -19.2012
  50   2.0000      -0.690529       -18.7902
  51   2.0000      -0.682049       -18.5595
  52   2.0000      -0.667963       -18.1762
  53   2.0000      -0.645788       -17.5728
  54   2.0000      -0.626527       -17.0487
  55   2.0000      -0.590348       -16.0642
  56   2.0000      -0.583940       -15.8898
  57   2.0000      -0.572163       -15.5694
  58   2.0000      -0.570378       -15.5208
  59   2.0000      -0.558162       -15.1884
  60   2.0000      -0.505262       -13.7489
  61   2.0000      -0.490815       -13.3558
  62   2.0000      -0.470143       -12.7932
  63   2.0000      -0.462731       -12.5916
  64   2.0000      -0.453440       -12.3387
  65   2.0000      -0.446225       -12.1424
  66   2.0000      -0.440118       -11.9762
  67   2.0000      -0.427514       -11.6332
  68   2.0000      -0.425542       -11.5796
  69   2.0000      -0.412967       -11.2374
  70   2.0000      -0.405790       -11.0421
  71   2.0000      -0.400786       -10.9059
  72   2.0000      -0.394812       -10.7434
  73   2.0000      -0.381354       -10.3772
  74   2.0000      -0.375730       -10.2241
  75   2.0000      -0.367076        -9.9886
  76   2.0000      -0.360226        -9.8023
  77   2.0000      -0.353754        -9.6261
  78   2.0000      -0.349513        -9.5107
  79   2.0000      -0.345836        -9.4107
  80   2.0000      -0.342257        -9.3133
  81   2.0000      -0.339108        -9.2276
  82   2.0000      -0.337359        -9.1800
  83   2.0000      -0.330880        -9.0037
  84   2.0000      -0.325597        -8.8599
  85   2.0000      -0.318634        -8.6705
  86   2.0000      -0.305505        -8.3132
  87   2.0000      -0.302476        -8.2308
  88   2.0000      -0.291626        -7.9355
  89   2.0000      -0.286914        -7.8073
  90   2.0000      -0.284597        -7.7443
  91   2.0000      -0.270226        -7.3532
  92   2.0000      -0.267610        -7.2820
  93   2.0000      -0.256709        -6.9854
  94   2.0000      -0.252290        -6.8652
  95   2.0000      -0.230636        -6.2759
  96   2.0000      -0.213808        -5.8180
  97   2.0000      -0.203027        -5.5246
  98   2.0000      -0.192304        -5.2329
  99   2.0000      -0.184398        -5.0177
 100   2.0000      -0.175790        -4.7835
 101   0.0000      -0.043553        -1.1851
 102   0.0000      -0.028859        -0.7853
 103   0.0000      -0.016398        -0.4462
 104   0.0000       0.006764         0.1841
 105   0.0000       0.020615         0.5610

MULLIKEN ATOMIC CHARGES
-----------------------
   0 C :   -0.280717
   1 C :   -0.012454
   2 O :   -0.386686
   3 P :    0.609665
   4 S :   -0.310017
   5 O :   -0.335713
   6 C :    0.009653
   7 C :   -0.320076
   8 S :   -0.115601
   9 C :   -0.352205
  10 S :   -0.118482
  11 P :    0.633142
  12 S :   -0.300578
  13 O :   -0.379354
  14 C :   -0.003370
  15 C :   -0.320121
  16 O :   -0.375239
  17 C :    0.000733
  18 C :   -0.312747
  19 H :    0.123339
  20 H :    0.114265
  21 H :    0.113435
  22 H :    0.104634
  23 H :    0.107265
  24 H :    0.107487
  25 H :    0.110331
  26 H :    0.116868
  27 H :    0.109261
  28 H :    0.130524
  29 H :    0.180032
  30 H :    0.215341
  31 H :    0.107438
  32 H :    0.100391
  33 H :    0.122278
  34 H :    0.113159
  35 H :    0.120127
  36 H :    0.103082
  37 H :    0.105892
  38 H :    0.134632
  39 H :    0.103122
  40 H :    0.127265
Sum of atomic charges:   -0.0000000

LOEWDIN ATOMIC CHARGES
----------------------
   0 C :   -0.350572
   1 C :   -0.119714
   2 O :   -0.250025
   3 P :    0.565982
   4 S :   -0.303764
   5 O :   -0.220975
   6 C :   -0.104556
   7 C :   -0.370767
   8 S :    0.060487
   9 C :   -0.476663
  10 S :    0.068731
  11 P :    0.569594
  12 S :   -0.295500
  13 O :   -0.248830
  14 C :   -0.126179
  15 C :   -0.369241
  16 O :   -0.239801
  17 C :   -0.106410
  18 C :   -0.367974
  19 H :    0.130258
  20 H :    0.125660
  21 H :    0.131799
  22 H :    0.108812
  23 H :    0.110695
  24 H :    0.113365
  25 H :    0.122605
  26 H :    0.115623
  27 H :    0.129016
  28 H :    0.124894
  29 H :    0.136904
  30 H :    0.133166
  31 H :    0.106203
  32 H :    0.116406
  33 H :    0.117157
  34 H :    0.131056
  35 H :    0.125195
  36 H :    0.118498
  37 H :    0.111247
  38 H :    0.129203
  39 H :    0.125986
  40 H :    0.122430

  Mayer bond orders larger than 0.100000
B(  0-C ,  1-C ) :   1.1600 B(  0-C , 19-H ) :   0.9505 B(  0-C , 20-H ) :   0.9510
B(  0-C , 21-H ) :   0.9416 B(  1-C ,  2-O ) :   0.9020 B(  1-C , 22-H ) :   0.9289
B(  1-C , 23-H ) :   0.9096 B(  2-O ,  3-P ) :   1.0772 B(  3-P ,  4-S ) :   1.6521
B(  3-P ,  5-O ) :   1.1627 B(  3-P ,  8-S ) :   0.9324 B(  4-S ,  8-S ) :   0.1076
B(  5-O ,  6-C ) :   0.8938 B(  6-C ,  7-C ) :   1.1697 B(  6-C , 24-H ) :   0.9297
B(  6-C , 25-H ) :   0.9303 B(  7-C , 26-H ) :   0.9405 B(  7-C , 27-H ) :   0.9359
B(  7-C , 28-H ) :   0.9377 B(  8-S ,  9-C ) :   1.0076 B(  9-C , 10-S ) :   0.9981
B(  9-C , 29-H ) :   0.9113 B(  9-C , 30-H ) :   0.8587 B( 10-S , 11-P ) :   0.9395
B( 10-S , 12-S ) :   0.1072 B( 11-P , 12-S ) :   1.6503 B( 11-P , 13-O ) :   1.0625
B( 11-P , 16-O ) :   1.1097 B( 13-O , 14-C ) :   0.9199 B( 14-C , 15-C ) :   1.1631
B( 14-C , 31-H ) :   0.9060 B( 14-C , 32-H ) :   0.9310 B( 15-C , 33-H ) :   0.9309
B( 15-C , 34-H ) :   0.9393 B( 15-C , 35-H ) :   0.9442 B( 16-O , 17-C ) :   0.9021
B( 17-C , 18-C ) :   1.1674 B( 17-C , 36-H ) :   0.9360 B( 17-C , 37-H ) :   0.9270
B( 18-C , 38-H ) :   0.9400 B( 18-C , 39-H ) :   0.9367 B( 18-C , 40-H ) :   0.9329

Dispersion correction           -0.067731515
FINAL SINGLE POINT ENERGY     -2929.505638668928

DIPOLE MOMENT
-------------

Method             : SCF
Type of density    : Electron Density
Multiplicity       :   1
Irrep              :   0
Energy             : -2929.6235477841105421 Eh
Relativity type    :
Basis              : AO
                                X                 Y                 Z
Electronic contribution:     -3.263067429      -4.473967986      -2.317567616
Nuclear contribution   :      3.599488592       3.865148891       2.861667954
                        -----------------------------------------
Total Dipole Moment    :      0.336421163      -0.608819095       0.544100338
                        -----------------------------------------
Magnitude (a.u.)       :      0.883111016
Magnitude (Debye)      :      2.244689815

Rotational constants in cm-1:             0.012494             0.005598             0.004943
Rotational constants in MHz :           374.572442           167.816005           148.189381

                             ****ORCA TERMINATED NORMALLY****
TOTAL RUN TIME: 0 days 0 hours 0 minutes 21 seconds 555 msec
