                         Program Version 6.0.0  -   RELEASE  -
|  1> ! pbe def2-sv(p) def2/J RI DEFGRID1 loosescf d4 GCP(DFT/SV(P)) printgap
|  2> %output
|  3>     printlevel normal
|  4> end
|  5> * xyz 0 1
|  6> C 3.5920775305 -2.1957754531 1.3014028307
|  7> C 4.5574594355 -1.1185966684 0.8516574683
|  8> O 3.8941188456 0.1260214599 0.558184595
|  9> P 2.8514001977 0.2778092498 -0.6325799846
| 10> S 3.2798411445 -0.6586604855 -2.2926185578
| 11> O 2.8136974311 1.8399451395 -0.8445646622
| 12> C 2.5282284854 2.7802234282 0.2250791364
| 13> C 1.2446864488 3.5272101212 -0.0764863944
| 14> S 0.9840945108 -0.2085458693 0.2754410319
| 15> C 0.0413847764 -0.4050315552 -1.269692526
| 16> S -1.3213205624 -1.5664145199 -1.0560314957
| 17> P -2.4113321046 -0.3622610707 0.3037357239
| 18> S -2.3272326583 1.5727727776 -0.0285169498
| 19> O -1.8342767433 -0.8350517912 1.695894463
| 20> C -1.7823203971 0.0300085486 2.8480610219
| 21> C -3.1632396442 0.240692069 3.4320126108
| 22> O -3.842310327 -1.0483509405 0.3287814935
| 23> C -4.7252987892 -1.117444213 -0.8076660744
| 24> C -5.5739839739 0.133555445 -0.9320775862
| 25> H 2.9435394541 -2.4843575097 0.4752131872
| 26> H 4.1534401514 -3.0663698747 1.625175045
| 27> H 2.9767446479 -1.8363973466 2.1226011097
| 28> H 5.0993857332 -1.4379238663 -0.0435425859
| 29> H 5.2635264795 -0.8540079132 1.6400263072
| 30> H 2.4634992276 2.2382576137 1.1712518746
| 31> H 3.3837802782 3.4566355624 0.2477263607
| 32> H 1.3010113492 3.9816671473 -1.0616124579
| 33> H 0.385332378 2.8599630099 -0.0507064834
| 34> H 1.1020997178 4.3042572732 0.6675719389
| 35> H 0.7018504842 -0.81221808 -2.0373060426
| 36> H -0.3646700236 0.5631306906 -1.5675412164
| 37> H -1.1182729847 -0.4904624367 3.5384744168
| 38> H -1.3355201674 0.9838828091 2.5498516911
| 39> H -3.7900793163 0.7597935296 2.707461992
| 40> H -3.6208846688 -0.7161767139 3.6678769594
| 41> H -3.0897682677 0.8416492379 4.3328122288
| 42> H -4.1329886902 -1.2855811253 -1.7119210264
| 43> H -5.3423071026 -1.9960135185 -0.6098407285
| 44> H -6.2637493758 0.0156262276 -1.7615741513
| 45> H -6.1377805722 0.296151388 -0.0175321047
| 46> H -4.9468843532 1.0034112053 -1.1147415811
| 47> *
| 48>
| 49>                          ****END OF INPUT****

CARTESIAN COORDINATES (ANGSTROEM)
---------------------------------
  C      3.592078   -2.195775    1.301403
  C      4.557459   -1.118597    0.851657
  O      3.894119    0.126021    0.558185
  P      2.851400    0.277809   -0.632580
  S      3.279841   -0.658660   -2.292619
  O      2.813697    1.839945   -0.844565
  C      2.528228    2.780223    0.225079
  C      1.244686    3.527210   -0.076486
  S      0.984095   -0.208546    0.275441
  C      0.041385   -0.405032   -1.269693
  S     -1.321321   -1.566415   -1.056031
  P     -2.411332   -0.362261    0.303736
  S     -2.327233    1.572773   -0.028517
  O     -1.834277   -0.835052    1.695894
  C     -1.782320    0.030009    2.848061
  C     -3.163240    0.240692    3.432013
  O     -3.842310   -1.048351    0.328781
  C     -4.725299   -1.117444   -0.807666
  C     -5.573984    0.133555   -0.932078
  H      2.943539   -2.484358    0.475213
  H      4.153440   -3.066370    1.625175
  H      2.976745   -1.836397    2.122601
  H      5.099386   -1.437924   -0.043543
  H      5.263526   -0.854008    1.640026
  H      2.463499    2.238258    1.171252
  H      3.383780    3.456636    0.247726
  H      1.301011    3.981667   -1.061612
  H      0.385332    2.859963   -0.050706
  H      1.102100    4.304257    0.667572
  H      0.701850   -0.812218   -2.037306
  H     -0.364670    0.563131   -1.567541
  H     -1.118273   -0.490462    3.538474
  H     -1.335520    0.983883    2.549852
  H     -3.790079    0.759794    2.707462
  H     -3.620885   -0.716177    3.667877
  H     -3.089768    0.841649    4.332812
  H     -4.132989   -1.285581   -1.711921
  H     -5.342307   -1.996014   -0.609841
  H     -6.263749    0.015626   -1.761574
  H     -6.137781    0.296151   -0.017532
  H     -4.946884    1.003411   -1.114742

 Total Charge           Charge          ....    0
 Multiplicity           Mult            ....    1
 Number of Electrons    NEL             ....  202
 Basis Dimension        Dim             ....  334

ORBITAL ENERGIES
----------------

  NO   OCC          E(Eh)            E(eV)
   0   2.0000     -88.048179     -2395.9128
   1   2.0000     -88.040183     -2395.6952
   2   2.0000     -87.994783     -2394.4598
   3   2.0000     -87.986132     -2394.2244
   4   2.0000     -76.431957     -2079.8193
   5   2.0000     -76.425110     -2079.6330
   6   2.0000     -18.798581      -511.5354
   7   2.0000     -18.794887      -511.4349
   8   2.0000     -18.794603      -511.4272
   9   2.0000     -18.788578      -511.2632
  10   2.0000      -9.960597      -271.0416
  11   2.0000      -9.954450      -270.8744
  12   2.0000      -9.954128      -270.8656
  13   2.0000      -9.953252      -270.8418
  14   2.0000      -9.950700      -270.7723
  15   2.0000      -9.886354      -269.0214
  16   2.0000      -9.885375      -268.9947
  17   2.0000      -9.884036      -268.9583
  18   2.0000      -9.879473      -268.8341
  19   2.0000      -7.693473      -209.3500
  20   2.0000      -7.684665      -209.1104
  21   2.0000      -7.639343      -207.8771
  22   2.0000      -7.631458      -207.6625
  23   2.0000      -6.429528      -174.9564
  24   2.0000      -6.422800      -174.7733
  25   2.0000      -5.721192      -155.6816
  26   2.0000      -5.718175      -155.5995
  27   2.0000      -5.712466      -155.4441
  28   2.0000      -5.710410      -155.3882
  29   2.0000      -5.709374      -155.3600
  30   2.0000      -5.701645      -155.1496
  31   2.0000      -5.668029      -154.2349
  32   2.0000      -5.660457      -154.0289
  33   2.0000      -5.660043      -154.0176
  34   2.0000      -5.659680      -154.0077
  35   2.0000      -5.652005      -153.7989
  36   2.0000      -5.651552      -153.7865
  37   2.0000      -4.651925      -126.5853
  38   2.0000      -4.651373      -126.5703
  39   2.0000      -4.650062      -126.5346
  40   2.0000      -4.645665      -126.4150
  41   2.0000      -4.644426      -126.3813
  42   2.0000      -4.643115      -126.3456
  43   2.0000      -0.992766       -27.0145
  44   2.0000      -0.987355       -26.8673
  45   2.0000      -0.951339       -25.8873
  46   2.0000      -0.943946       -25.6861
  47   2.0000      -0.765024       -20.8174
  48   2.0000      -0.723052       -19.6753
  49   2.0000      -0.710990       -19.3470
  50   2.0000      -0.690275       -18.7834
  51   2.0000      -0.688054       -18.7229
  52   2.0000      -0.678165       -18.4538
  53   2.0000      -0.654932       -17.8216
  54   2.0000      -0.638065       -17.3626
  55   2.0000      -0.602428       -16.3929
  56   2.0000      -0.593438       -16.1483
  57   2.0000      -0.574684       -15.6380
  58   2.0000      -0.571596       -15.5539
  59   2.0000      -0.559777       -15.2323
  60   2.0000      -0.504462       -13.7271
  61   2.0000      -0.499937       -13.6040
  62   2.0000      -0.480311       -13.0699
  63   2.0000      -0.471787       -12.8380
  64   2.0000      -0.454889       -12.3781
  65   2.0000      -0.445891       -12.1333
  66   2.0000      -0.443103       -12.0575
  67   2.0000      -0.440651       -11.9907
  68   2.0000      -0.431282       -11.7358
  69   2.0000      -0.423268       -11.5177
  70   2.0000      -0.409743       -11.1497
  71   2.0000      -0.400475       -10.8975
  72   2.0000      -0.395148       -10.7525
  73   2.0000      -0.389740       -10.6054
  74   2.0000      -0.382322       -10.4035
  75   2.0000      -0.371795       -10.1171
  76   2.0000      -0.366859        -9.9827
  77   2.0000      -0.355709        -9.6793
  78   2.0000      -0.353283        -9.6133
  79   2.0000      -0.352285        -9.5862
  80   2.0000      -0.348373        -9.4797
  81   2.0000      -0.345745        -9.4082
  82   2.0000      -0.341291        -9.2870
  83   2.0000      -0.338036        -9.1984
  84   2.0000      -0.336347        -9.1525
  85   2.0000      -0.321736        -8.7549
  86   2.0000      -0.310718        -8.4551
  87   2.0000      -0.301739        -8.2107
  88   2.0000      -0.298664        -8.1271
  89   2.0000      -0.294935        -8.0256
  90   2.0000      -0.290848        -7.9144
  91   2.0000      -0.281196        -7.6517
  92   2.0000      -0.270886        -7.3712
  93   2.0000      -0.266645        -7.2558
  94   2.0000      -0.258893        -7.0448
  95   2.0000      -0.231558        -6.3010
  96   2.0000      -0.224668        -6.1135
  97   2.0000      -0.212994        -5.7959
  98   2.0000      -0.209415        -5.6985
  99   2.0000      -0.206627        -5.6226
 100   2.0000      -0.198392        -5.3985
 101   0.0000      -0.044797        -1.2190
 102   0.0000      -0.032038        -0.8718
 103   0.0000      -0.011980        -0.3260
 104   0.0000       0.005026         0.1368
 105   0.0000       0.016134         0.4390

MULLIKEN ATOMIC CHARGES
-----------------------
   0 C :   -0.317995
   1 C :   -0.000652
   2 O :   -0.381259
   3 P :    0.601050
   4 S :   -0.311899
   5 O :   -0.359411
   6 C :   -0.006876
   7 C :   -0.304656
   8 S :   -0.105304
   9 C :   -0.362706
  10 S :   -0.069066
  11 P :    0.601536
  12 S :   -0.322702
  13 O :   -0.357191
  14 C :   -0.005413
  15 C :   -0.303769
  16 O :   -0.367014
  17 C :   -0.015197
  18 C :   -0.300287
  19 H :    0.132219
  20 H :    0.114058
  21 H :    0.116565
  22 H :    0.114113
  23 H :    0.105250
  24 H :    0.101214
  25 H :    0.109339
  26 H :    0.117699
  27 H :    0.140138
  28 H :    0.105745
  29 H :    0.187080
  30 H :    0.195373
  31 H :    0.106508
  32 H :    0.113589
  33 H :    0.123011
  34 H :    0.117934
  35 H :    0.112285
  36 H :    0.107840
  37 H :    0.111164
  38 H :    0.110263
  39 H :    0.115756
  40 H :    0.131667
Sum of atomic charges:    0.0000000

LOEWDIN ATOMIC CHARGES
----------------------
   0 C :   -0.371057
   1 C :   -0.115111
   2 O :   -0.249200
   3 P :    0.570756
   4 S :   -0.307248
   5 O :   -0.241741
   6 C :   -0.112516
   7 C :   -0.362075
   8 S :    0.068031
   9 C :   -0.484580
  10 S :    0.097559
  11 P :    0.565864
  12 S :   -0.305900
  13 O :   -0.234567
  14 C :   -0.118141
  15 C :   -0.363489
  16 O :   -0.241079
  17 C :   -0.114947
  18 C :   -0.365032
  19 H :    0.123607
  20 H :    0.131614
  21 H :    0.122928
  22 H :    0.114076
  23 H :    0.118850
  24 H :    0.105487
  25 H :    0.120145
  26 H :    0.128680
  27 H :    0.122127
  28 H :    0.128841
  29 H :    0.126571
  30 H :    0.123002
  31 H :    0.119669
  32 H :    0.108807
  33 H :    0.122791
  34 H :    0.127083
  35 H :    0.130595
  36 H :    0.107316
  37 H :    0.121039
  38 H :    0.130144
  39 H :    0.126655
  40 H :    0.124445

  Mayer bond orders larger than 0.100000
B(  0-C ,  1-C ) :   1.1662 B(  0-C , 19-H ) :   0.9338 B(  0-C , 20-H ) :   0.9368
B(  0-C , 21-H ) :   0.9436 B(  1-C ,  2-O ) :   0.9040 B(  1-C , 22-H ) :   0.9198
B(  1-C , 23-H ) :   0.9344 B(  2-O ,  3-P ) :   1.0955 B(  3-P ,  4-S ) :   1.6272
B(  3-P ,  5-O ) :   1.1427 B(  3-P ,  8-S ) :   0.9487 B(  4-S ,  8-S ) :   0.1094
B(  4-S , 29-H ) :   0.1034 B(  5-O ,  6-C ) :   0.8854 B(  6-C ,  7-C ) :   1.1650
B(  6-C , 24-H ) :   0.9165 B(  6-C , 25-H ) :   0.9331 B(  7-C , 26-H ) :   0.9458
B(  7-C , 27-H ) :   0.9281 B(  7-C , 28-H ) :   0.9392 B(  8-S ,  9-C ) :   0.9829
B(  9-C , 10-S ) :   1.0178 B(  9-C , 29-H ) :   0.8624 B(  9-C , 30-H ) :   0.8743
B( 10-S , 11-P ) :   0.9617 B( 10-S , 12-S ) :   0.1149 B( 11-P , 12-S ) :   1.5907
B( 11-P , 13-O ) :   1.1316 B( 11-P , 16-O ) :   1.1208 B( 13-O , 14-C ) :   0.8988
B( 14-C , 15-C ) :   1.1646 B( 14-C , 31-H ) :   0.9337 B( 14-C , 32-H ) :   0.9132
B( 15-C , 33-H ) :   0.9360 B( 15-C , 34-H ) :   0.9464 B( 15-C , 35-H ) :   0.9398
B( 16-O , 17-C ) :   0.9067 B( 17-C , 18-C ) :   1.1654 B( 17-C , 36-H ) :   0.9181
B( 17-C , 37-H ) :   0.9356 B( 18-C , 38-H ) :   0.9384 B( 18-C , 39-H ) :   0.9474
B( 18-C , 40-H ) :   0.9318

Dispersion correction           -0.062871462
FINAL SINGLE POINT ENERGY     -2929.521559169404

DIPOLE MOMENT
-------------

Method             : SCF
Type of density    : Electron Density
Multiplicity       :   1
Irrep              :   0
Energy             : -2929.6422059334668120 Eh
Relativity type    :
Basis              : AO
                                X                 Y                 Z
Electronic contribution:      9.495560928      -6.066945035     -12.846401220
Nuclear contribution   :    -10.123361855       6.035459102      14.265894250
                        -----------------------------------------
Total Dipole Moment    :     -0.627800927      -0.031485934       1.419493030
                        -----------------------------------------
Magnitude (a.u.)       :      1.552445113
Magnitude (Debye)      :      3.946001884

Rotational constants in cm-1:             0.012704             0.004257             0.004174
Rotational constants in MHz :           380.850578           127.608060           125.129433

                             ****ORCA TERMINATED NORMALLY****
TOTAL RUN TIME: 0 days 0 hours 0 minutes 20 seconds 512 msec
