                         Program Version 6.0.1  -  RELEASE   -
|  1> ! pbe def2-sv(p) def2/J RI DEFGRID1 loosescf d4 GCP(DFT/SV(P)) printgap
|  2> %output
|  3>     printlevel normal
|  4> end
|  5> * xyz 0 1
|  6> C 4.5314814987 -3.1069279668 -1.7938829604
|  7> C 3.0327362757 -2.9252246954 -1.9762160913
|  8> O 2.5796581231 -1.7208899383 -1.3301138355
|  9> C 2.2451494023 -1.7783934719 -0.057356373
| 10> O 2.2861434751 -2.7790316845 0.6226693336
| 11> C 1.8053615878 -0.4273281154 0.478184199
| 12> C 1.0606124329 0.395532255 -0.5716005944
| 13> H 1.7127573044 0.593979435 -1.4249395787
| 14> C 0.5661333247 1.699372853 0.0183523375
| 15> O -0.6207888206 1.9604859281 0.1002732377
| 16> O 1.5334889444 2.4587668299 0.4343706253
| 17> C 1.2038217719 3.7250064417 1.0525864285
| 18> C 0.9893058147 4.8006638876 0.0015059722
| 19> S -0.382902205 -0.4889370395 -1.2592463665
| 20> P -1.8278880594 -0.1656929714 0.247512802
| 21> S -1.4390711349 0.0379845359 2.1714184045
| 22> O -3.0424362248 0.7187927533 -0.2981262304
| 23> C -3.3710793345 2.0473823952 0.1067352586
| 24> O -2.4550563567 -1.6167339345 -0.0570171853
| 25> C -3.5931854065 -2.101351057 0.6582664369
| 26> H 4.8562879064 -3.9816003364 -2.3474777676
| 27> H 5.0619102553 -2.2327531915 -2.1607131075
| 28> H 4.7647119356 -3.2496362165 -0.7412002206
| 29> H 2.484506885 -3.773643024 -1.5574443043
| 30> H 2.7708120309 -2.7848543344 -3.0248714396
| 31> H 2.6961817533 0.121167129 0.7940958514
| 32> H 1.182169051 -0.6046084919 1.3583585568
| 33> H 0.3105014163 3.5887795413 1.6676799254
| 34> H 2.0673804719 3.9452066169 1.679492026
| 35> H 1.8703971349 4.8911073338 -0.6273574681
| 36> H 0.1319702379 4.555577146 -0.6208542766
| 37> H 0.8040995018 5.7484583975 0.4957423465
| 38> H -3.0368691767 2.2216610676 1.1303121209
| 39> H -4.4546701882 2.1182899096 0.0409658155
| 40> H -2.8943698597 2.7597062111 -0.562894106
| 41> H -3.6454603275 -3.1657837144 0.4435424876
| 42> H -4.494596021 -1.5947868887 0.3145795412
| 43> H -3.4608311682 -1.9368610952 1.7301179905
| 44> *
| 45>
| 46>                          ****END OF INPUT****

CARTESIAN COORDINATES (ANGSTROEM)
---------------------------------
  C      4.531481   -3.106928   -1.793883
  C      3.032736   -2.925225   -1.976216
  O      2.579658   -1.720890   -1.330114
  C      2.245149   -1.778393   -0.057356
  O      2.286143   -2.779032    0.622669
  C      1.805362   -0.427328    0.478184
  C      1.060612    0.395532   -0.571601
  H      1.712757    0.593979   -1.424940
  C      0.566133    1.699373    0.018352
  O     -0.620789    1.960486    0.100273
  O      1.533489    2.458767    0.434371
  C      1.203822    3.725006    1.052586
  C      0.989306    4.800664    0.001506
  S     -0.382902   -0.488937   -1.259246
  P     -1.827888   -0.165693    0.247513
  S     -1.439071    0.037985    2.171418
  O     -3.042436    0.718793   -0.298126
  C     -3.371079    2.047382    0.106735
  O     -2.455056   -1.616734   -0.057017
  C     -3.593185   -2.101351    0.658266
  H      4.856288   -3.981600   -2.347478
  H      5.061910   -2.232753   -2.160713
  H      4.764712   -3.249636   -0.741200
  H      2.484507   -3.773643   -1.557444
  H      2.770812   -2.784854   -3.024871
  H      2.696182    0.121167    0.794096
  H      1.182169   -0.604608    1.358359
  H      0.310501    3.588780    1.667680
  H      2.067380    3.945207    1.679492
  H      1.870397    4.891107   -0.627357
  H      0.131970    4.555577   -0.620854
  H      0.804100    5.748458    0.495742
  H     -3.036869    2.221661    1.130312
  H     -4.454670    2.118290    0.040966
  H     -2.894370    2.759706   -0.562894
  H     -3.645460   -3.165784    0.443542
  H     -4.494596   -1.594787    0.314580
  H     -3.460831   -1.936861    1.730118

 Total Charge           Charge          ....    0
 Multiplicity           Mult            ....    1
 Number of Electrons    NEL             ....  174
 Basis Dimension        Dim             ....  316

ORBITAL ENERGIES
----------------

  NO   OCC          E(Eh)            E(eV)
   0   2.0000     -88.032512     -2395.4864
   1   2.0000     -87.968508     -2393.7448
   2   2.0000     -76.416043     -2079.3862
   3   2.0000     -18.832215      -512.4506
   4   2.0000     -18.803412      -511.6668
   5   2.0000     -18.779250      -511.0094
   6   2.0000     -18.767851      -510.6992
   7   2.0000     -18.766263      -510.6560
   8   2.0000     -18.733746      -509.7711
   9   2.0000     -10.036077      -273.0955
  10   2.0000     -10.007903      -272.3289
  11   2.0000      -9.966148      -271.1927
  12   2.0000      -9.951507      -270.7943
  13   2.0000      -9.947885      -270.6957
  14   2.0000      -9.932086      -270.2658
  15   2.0000      -9.926080      -270.1024
  16   2.0000      -9.907196      -269.5885
  17   2.0000      -9.902135      -269.4508
  18   2.0000      -9.887830      -269.0615
  19   2.0000      -7.677611      -208.9184
  20   2.0000      -7.613588      -207.1763
  21   2.0000      -6.411649      -174.4699
  22   2.0000      -5.705886      -155.2650
  23   2.0000      -5.702302      -155.1675
  24   2.0000      -5.693956      -154.9404
  25   2.0000      -5.642726      -153.5464
  26   2.0000      -5.634526      -153.3233
  27   2.0000      -5.633186      -153.2868
  28   2.0000      -4.634333      -126.1066
  29   2.0000      -4.633662      -126.0884
  30   2.0000      -4.632249      -126.0499
  31   2.0000      -1.042175       -28.3590
  32   2.0000      -1.010360       -27.4933
  33   2.0000      -0.967076       -26.3155
  34   2.0000      -0.946450       -25.7542
  35   2.0000      -0.921198       -25.0671
  36   2.0000      -0.911826       -24.8120
  37   2.0000      -0.768542       -20.9131
  38   2.0000      -0.722745       -19.6669
  39   2.0000      -0.707982       -19.2652
  40   2.0000      -0.685948       -18.6656
  41   2.0000      -0.649320       -17.6689
  42   2.0000      -0.632905       -17.2222
  43   2.0000      -0.618263       -16.8238
  44   2.0000      -0.613524       -16.6948
  45   2.0000      -0.596188       -16.2231
  46   2.0000      -0.570201       -15.5160
  47   2.0000      -0.517518       -14.0824
  48   2.0000      -0.506204       -13.7745
  49   2.0000      -0.498346       -13.5607
  50   2.0000      -0.486612       -13.2414
  51   2.0000      -0.467045       -12.7089
  52   2.0000      -0.459376       -12.5003
  53   2.0000      -0.450895       -12.2695
  54   2.0000      -0.446103       -12.1391
  55   2.0000      -0.430794       -11.7225
  56   2.0000      -0.428713       -11.6659
  57   2.0000      -0.417043       -11.3483
  58   2.0000      -0.408645       -11.1198
  59   2.0000      -0.403749       -10.9866
  60   2.0000      -0.398641       -10.8476
  61   2.0000      -0.396993       -10.8027
  62   2.0000      -0.386645       -10.5211
  63   2.0000      -0.386290       -10.5115
  64   2.0000      -0.378661       -10.3039
  65   2.0000      -0.370113       -10.0713
  66   2.0000      -0.361281        -9.8310
  67   2.0000      -0.359973        -9.7953
  68   2.0000      -0.351812        -9.5733
  69   2.0000      -0.343535        -9.3481
  70   2.0000      -0.341913        -9.3039
  71   2.0000      -0.329084        -8.9548
  72   2.0000      -0.324547        -8.8314
  73   2.0000      -0.314572        -8.5600
  74   2.0000      -0.301979        -8.2173
  75   2.0000      -0.294779        -8.0213
  76   2.0000      -0.291825        -7.9410
  77   2.0000      -0.289388        -7.8746
  78   2.0000      -0.273723        -7.4484
  79   2.0000      -0.261502        -7.1158
  80   2.0000      -0.259048        -7.0491
  81   2.0000      -0.256115        -6.9692
  82   2.0000      -0.245418        -6.6782
  83   2.0000      -0.217169        -5.9095
  84   2.0000      -0.210824        -5.7368
  85   2.0000      -0.189325        -5.1518
  86   2.0000      -0.181589        -4.9413
  87   0.0000      -0.050522        -1.3748
  88   0.0000      -0.037384        -1.0173
  89   0.0000      -0.016449        -0.4476
  90   0.0000       0.008587         0.2337
  91   0.0000       0.030323         0.8251

MULLIKEN ATOMIC CHARGES
-----------------------
   0 C :   -0.304950
   1 C :   -0.008890
   2 O :   -0.242370
   3 C :    0.143258
   4 O :   -0.188963
   5 C :   -0.113969
   6 C :   -0.306307
   7 H :    0.147436
   8 C :    0.238443
   9 O :   -0.201928
  10 O :   -0.214589
  11 C :   -0.012085
  12 C :   -0.312858
  13 S :   -0.060631
  14 P :    0.648058
  15 S :   -0.355806
  16 O :   -0.390586
  17 C :   -0.084848
  18 O :   -0.393452
  19 C :   -0.095072
  20 H :    0.114286
  21 H :    0.110442
  22 H :    0.127936
  23 H :    0.115205
  24 H :    0.103303
  25 H :    0.124189
  26 H :    0.129415
  27 H :    0.124840
  28 H :    0.112816
  29 H :    0.119437
  30 H :    0.131191
  31 H :    0.121862
  32 H :    0.112524
  33 H :    0.114344
  34 H :    0.111325
  35 H :    0.119974
  36 H :    0.104694
  37 H :    0.112324
Sum of atomic charges:   -0.0000000

LOEWDIN ATOMIC CHARGES
----------------------
   0 C :   -0.356177
   1 C :   -0.109190
   2 O :   -0.063310
   3 C :    0.029052
   4 O :   -0.156357
   5 C :   -0.256000
   6 C :   -0.267394
   7 H :    0.149317
   8 C :    0.032355
   9 O :   -0.153586
  10 O :   -0.030489
  11 C :   -0.104516
  12 C :   -0.355836
  13 S :    0.126340
  14 P :    0.589953
  15 S :   -0.347980
  16 O :   -0.252563
  17 C :   -0.212183
  18 O :   -0.271150
  19 C :   -0.216360
  20 H :    0.131323
  21 H :    0.123121
  22 H :    0.131106
  23 H :    0.123773
  24 H :    0.118002
  25 H :    0.146214
  26 H :    0.140295
  27 H :    0.127714
  28 H :    0.123573
  29 H :    0.127655
  30 H :    0.130961
  31 H :    0.135518
  32 H :    0.107404
  33 H :    0.114888
  34 H :    0.110087
  35 H :    0.119663
  36 H :    0.107521
  37 H :    0.107257

  Mayer bond orders larger than 0.100000
B(  0-C ,  1-C ) :   1.1747 B(  0-C , 20-H ) :   0.9445 B(  0-C , 21-H ) :   0.9490
B(  0-C , 22-H ) :   0.9459 B(  1-C ,  2-O ) :   0.9115 B(  1-C , 23-H ) :   0.9136
B(  1-C , 24-H ) :   0.9375 B(  2-O ,  3-C ) :   1.2067 B(  3-C ,  4-O ) :   2.0754
B(  3-C ,  5-C ) :   1.0201 B(  5-C ,  6-C ) :   1.0352 B(  5-C , 25-H ) :   0.8724
B(  5-C , 26-H ) :   0.8790 B(  6-C ,  7-H ) :   0.8561 B(  6-C ,  8-C ) :   0.9216
B(  6-C , 13-S ) :   1.0390 B(  8-C ,  9-O ) :   1.8920 B(  8-C , 10-O ) :   1.2924
B(  9-O , 14-P ) :   0.1356 B( 10-O , 11-C ) :   0.8940 B( 11-C , 12-C ) :   1.1737
B( 11-C , 27-H ) :   0.9156 B( 11-C , 28-H ) :   0.9358 B( 12-C , 29-H ) :   0.9471
B( 12-C , 30-H ) :   0.9452 B( 12-C , 31-H ) :   0.9429 B( 13-S , 14-P ) :   0.9317
B( 13-S , 15-S ) :   0.1089 B( 14-P , 15-S ) :   1.5489 B( 14-P , 16-O ) :   1.0903
B( 14-P , 18-O ) :   1.0715 B( 16-O , 17-C ) :   0.9339 B( 17-C , 32-H ) :   0.9343
B( 17-C , 33-H ) :   0.9544 B( 17-C , 34-H ) :   0.9536 B( 18-O , 19-C ) :   0.9430
B( 19-C , 35-H ) :   0.9609 B( 19-C , 36-H ) :   0.9510 B( 19-C , 37-H ) :   0.9325

Dispersion correction           -0.051030482
FINAL SINGLE POINT ENERGY     -1979.011903583139

DIPOLE MOMENT
-------------

Method             : SCF
Type of density    : Electron Density
Multiplicity       :   1
Irrep              :   0
Energy             : -1979.1431535587694270 Eh
Relativity type    :
Basis              : AO
                                X                 Y                 Z
Electronic contribution:     -9.137896248      -5.295280595       2.513317656
Nuclear contribution   :      9.877452536       6.919648287      -3.457232193
                        -----------------------------------------
Total Dipole Moment    :      0.739556289       1.624367692      -0.943914537
                        -----------------------------------------
Magnitude (a.u.)       :      2.019031589
Magnitude (Debye)      :      5.131970454

Rotational constants in cm-1:             0.011448             0.007437             0.005313
Rotational constants in MHz :           343.194203           222.970187           159.270541

                             ****ORCA TERMINATED NORMALLY****
TOTAL RUN TIME: 0 days 0 hours 0 minutes 32 seconds 131 msec
