                         Program Version 6.0.1  -  RELEASE   -
|  1> ! pbe def2-sv(p) def2/J RI DEFGRID1 loosescf d4 GCP(DFT/SV(P)) printgap
|  2> %output
|  3>     printlevel normal
|  4> end
|  5> * xyz 0 1
|  6> C 3.787373999 -3.6507917896 -0.4545363484
|  7> C 4.304333152 -2.3627177532 -1.0750445836
|  8> O 3.2663842707 -1.705386109 -1.830075257
|  9> C 2.4345169971 -0.911980465 -1.1929866361
| 10> O 2.4882429705 -0.6603094017 -0.0066950676
| 11> C 1.3986257013 -0.3156437331 -2.1230282411
| 12> C 0.3036531035 0.3489110247 -1.3001912916
| 13> H -0.362846454 0.9367601437 -1.9401789667
| 14> C 0.9257862534 1.3016844945 -0.291686705
| 15> O 1.7884467429 2.0907544368 -0.6052782745
| 16> O 0.3611973907 1.2223103062 0.8949769868
| 17> C 0.8629596016 2.051055124 1.9614347775
| 18> C 1.7747024665 1.2361310258 2.8627087098
| 19> S -0.7122147977 -0.9222969627 -0.4761746054
| 20> P -2.1967843981 0.3494258666 0.3562061057
| 21> S -2.4272209398 2.1034050193 -0.4841953568
| 22> O -3.4976979695 -0.5845578924 0.2713586413
| 23> C -4.0994798608 -0.9063915461 -0.9871892638
| 24> O -2.026946809 0.4223973899 1.9246173835
| 25> C -1.85912458 -0.7588248441 2.7326822897
| 26> H 2.9987924847 -3.4300364683 0.2613311029
| 27> H 3.3914745825 -4.3046835574 -1.2263711063
| 28> H 4.6005557999 -4.1527636788 0.0591376562
| 29> H 5.0887561542 -2.5576662569 -1.8061433638
| 30> H 4.6638333312 -1.6755097854 -0.3039162935
| 31> H 0.9956303676 -1.0910462337 -2.7731536336
| 32> H 1.8966970853 0.4385883264 -2.7364514518
| 33> H 1.3947916297 2.8944785669 1.5122981614
| 34> H -0.0259624789 2.402703274 2.4886609649
| 35> H 2.580999346 0.8063302888 2.2721160082
| 36> H 2.1922339279 1.8815347512 3.6280520713
| 37> H 1.2190164356 0.4296742811 3.3323174785
| 38> H -3.4621361727 -1.6000098792 -1.5352455288
| 39> H -4.2534347438 0.0020016751 -1.5717896455
| 40> H -5.0532115941 -1.368479882 -0.745670756
| 41> H -0.9580278533 -1.2906122927 2.4265616462
| 42> H -2.7279427029 -1.4063530998 2.6320162237
| 43> H -1.7652337514 -0.3941739655 3.7523258735
| 44> *
| 45>
| 46>                          ****END OF INPUT****

CARTESIAN COORDINATES (ANGSTROEM)
---------------------------------
  C      3.787374   -3.650792   -0.454536
  C      4.304333   -2.362718   -1.075045
  O      3.266384   -1.705386   -1.830075
  C      2.434517   -0.911980   -1.192987
  O      2.488243   -0.660309   -0.006695
  C      1.398626   -0.315644   -2.123028
  C      0.303653    0.348911   -1.300191
  H     -0.362846    0.936760   -1.940179
  C      0.925786    1.301684   -0.291687
  O      1.788447    2.090754   -0.605278
  O      0.361197    1.222310    0.894977
  C      0.862960    2.051055    1.961435
  C      1.774702    1.236131    2.862709
  S     -0.712215   -0.922297   -0.476175
  P     -2.196784    0.349426    0.356206
  S     -2.427221    2.103405   -0.484195
  O     -3.497698   -0.584558    0.271359
  C     -4.099480   -0.906392   -0.987189
  O     -2.026947    0.422397    1.924617
  C     -1.859125   -0.758825    2.732682
  H      2.998792   -3.430036    0.261331
  H      3.391475   -4.304684   -1.226371
  H      4.600556   -4.152764    0.059138
  H      5.088756   -2.557666   -1.806143
  H      4.663833   -1.675510   -0.303916
  H      0.995630   -1.091046   -2.773154
  H      1.896697    0.438588   -2.736451
  H      1.394792    2.894479    1.512298
  H     -0.025962    2.402703    2.488661
  H      2.580999    0.806330    2.272116
  H      2.192234    1.881535    3.628052
  H      1.219016    0.429674    3.332317
  H     -3.462136   -1.600010   -1.535246
  H     -4.253435    0.002002   -1.571790
  H     -5.053212   -1.368480   -0.745671
  H     -0.958028   -1.290612    2.426562
  H     -2.727943   -1.406353    2.632016
  H     -1.765234   -0.394174    3.752326

 Total Charge           Charge          ....    0
 Multiplicity           Mult            ....    1
 Number of Electrons    NEL             ....  174
 Basis Dimension        Dim             ....  316

ORBITAL ENERGIES
----------------

  NO   OCC          E(Eh)            E(eV)
   0   2.0000     -88.037576     -2395.6242
   1   2.0000     -87.979014     -2394.0307
   2   2.0000     -76.423427     -2079.5872
   3   2.0000     -18.812210      -511.9062
   4   2.0000     -18.796651      -511.4829
   5   2.0000     -18.792277      -511.3639
   6   2.0000     -18.788661      -511.2655
   7   2.0000     -18.752795      -510.2895
   8   2.0000     -18.725281      -509.5408
   9   2.0000     -10.020866      -272.6816
  10   2.0000     -10.007338      -272.3135
  11   2.0000      -9.956264      -270.9237
  12   2.0000      -9.949484      -270.7392
  13   2.0000      -9.942677      -270.5540
  14   2.0000      -9.942447      -270.5477
  15   2.0000      -9.935875      -270.3689
  16   2.0000      -9.918608      -269.8990
  17   2.0000      -9.894264      -269.2366
  18   2.0000      -9.877332      -268.7759
  19   2.0000      -7.682155      -209.0421
  20   2.0000      -7.624241      -207.4661
  21   2.0000      -6.420175      -174.7018
  22   2.0000      -5.709846      -155.3728
  23   2.0000      -5.706850      -155.2913
  24   2.0000      -5.699225      -155.0838
  25   2.0000      -5.653406      -153.8370
  26   2.0000      -5.644712      -153.6004
  27   2.0000      -5.644273      -153.5885
  28   2.0000      -4.642928      -126.3405
  29   2.0000      -4.642097      -126.3179
  30   2.0000      -4.640482      -126.2739
  31   2.0000      -1.022008       -27.8102
  32   2.0000      -1.003586       -27.3090
  33   2.0000      -0.984740       -26.7961
  34   2.0000      -0.940262       -25.5858
  35   2.0000      -0.929034       -25.2803
  36   2.0000      -0.907371       -24.6908
  37   2.0000      -0.764431       -20.8012
  38   2.0000      -0.719529       -19.5794
  39   2.0000      -0.696777       -18.9603
  40   2.0000      -0.692317       -18.8389
  41   2.0000      -0.660535       -17.9741
  42   2.0000      -0.635074       -17.2812
  43   2.0000      -0.620814       -16.8932
  44   2.0000      -0.613018       -16.6811
  45   2.0000      -0.598056       -16.2739
  46   2.0000      -0.561520       -15.2797
  47   2.0000      -0.513305       -13.9678
  48   2.0000      -0.507299       -13.8043
  49   2.0000      -0.492419       -13.3994
  50   2.0000      -0.481720       -13.1083
  51   2.0000      -0.472965       -12.8700
  52   2.0000      -0.465185       -12.6583
  53   2.0000      -0.444412       -12.0931
  54   2.0000      -0.439933       -11.9712
  55   2.0000      -0.431009       -11.7284
  56   2.0000      -0.425800       -11.5866
  57   2.0000      -0.424865       -11.5612
  58   2.0000      -0.414606       -11.2820
  59   2.0000      -0.408449       -11.1145
  60   2.0000      -0.400342       -10.8939
  61   2.0000      -0.394173       -10.7260
  62   2.0000      -0.392608       -10.6834
  63   2.0000      -0.381640       -10.3850
  64   2.0000      -0.374995       -10.2041
  65   2.0000      -0.370194       -10.0735
  66   2.0000      -0.364743        -9.9252
  67   2.0000      -0.349603        -9.5132
  68   2.0000      -0.348323        -9.4783
  69   2.0000      -0.336888        -9.1672
  70   2.0000      -0.331586        -9.0229
  71   2.0000      -0.325749        -8.8641
  72   2.0000      -0.321020        -8.7354
  73   2.0000      -0.317831        -8.6486
  74   2.0000      -0.303406        -8.2561
  75   2.0000      -0.301423        -8.2021
  76   2.0000      -0.295963        -8.0536
  77   2.0000      -0.286048        -7.7838
  78   2.0000      -0.272317        -7.4101
  79   2.0000      -0.267975        -7.2920
  80   2.0000      -0.257929        -7.0186
  81   2.0000      -0.250093        -6.8054
  82   2.0000      -0.239379        -6.5138
  83   2.0000      -0.232984        -6.3398
  84   2.0000      -0.205327        -5.5872
  85   2.0000      -0.198579        -5.4036
  86   2.0000      -0.195011        -5.3065
  87   0.0000      -0.040683        -1.1071
  88   0.0000      -0.027716        -0.7542
  89   0.0000      -0.011857        -0.3226
  90   0.0000       0.008313         0.2262
  91   0.0000       0.020969         0.5706

MULLIKEN ATOMIC CHARGES
-----------------------
   0 C :   -0.307024
   1 C :   -0.013157
   2 O :   -0.224318
   3 C :    0.119808
   4 O :   -0.195307
   5 C :   -0.097924
   6 C :   -0.306682
   7 H :    0.152038
   8 C :    0.237756
   9 O :   -0.206477
  10 O :   -0.235750
  11 C :   -0.011634
  12 C :   -0.301242
  13 S :   -0.106092
  14 P :    0.624520
  15 S :   -0.320404
  16 O :   -0.390782
  17 C :   -0.098153
  18 O :   -0.363045
  19 C :   -0.115007
  20 H :    0.128631
  21 H :    0.116267
  22 H :    0.116348
  23 H :    0.107517
  24 H :    0.113385
  25 H :    0.127632
  26 H :    0.146542
  27 H :    0.112583
  28 H :    0.107274
  29 H :    0.132021
  30 H :    0.106981
  31 H :    0.105432
  32 H :    0.111123
  33 H :    0.117309
  34 H :    0.123750
  35 H :    0.130176
  36 H :    0.125182
  37 H :    0.130724
Sum of atomic charges:   -0.0000000

LOEWDIN ATOMIC CHARGES
----------------------
   0 C :   -0.355890
   1 C :   -0.108593
   2 O :   -0.053115
   3 C :    0.041032
   4 O :   -0.151163
   5 C :   -0.248957
   6 C :   -0.267638
   7 H :    0.143104
   8 C :    0.019017
   9 O :   -0.169581
  10 O :   -0.055089
  11 C :   -0.108120
  12 C :   -0.354181
  13 S :    0.085273
  14 P :    0.579553
  15 S :   -0.315516
  16 O :   -0.263426
  17 C :   -0.217419
  18 O :   -0.235073
  19 C :   -0.212403
  20 H :    0.131061
  21 H :    0.125987
  22 H :    0.132303
  23 H :    0.120266
  24 H :    0.121891
  25 H :    0.142382
  26 H :    0.161608
  27 H :    0.121367
  28 H :    0.118179
  29 H :    0.133252
  30 H :    0.127200
  31 H :    0.119545
  32 H :    0.106434
  33 H :    0.111484
  34 H :    0.121607
  35 H :    0.112858
  36 H :    0.115805
  37 H :    0.124956

  Mayer bond orders larger than 0.100000
B(  0-C ,  1-C ) :   1.1735 B(  0-C , 20-H ) :   0.9458 B(  0-C , 21-H ) :   0.9485
B(  0-C , 22-H ) :   0.9438 B(  1-C ,  2-O ) :   0.9095 B(  1-C , 23-H ) :   0.9369
B(  1-C , 24-H ) :   0.9158 B(  2-O ,  3-C ) :   1.2536 B(  3-C ,  4-O ) :   1.9795
B(  3-C ,  5-C ) :   0.9969 B(  5-C ,  6-C ) :   1.0649 B(  5-C , 25-H ) :   0.9025
B(  5-C , 26-H ) :   0.8700 B(  6-C ,  7-H ) :   0.8485 B(  6-C ,  8-C ) :   0.8643
B(  6-C , 13-S ) :   1.0196 B(  8-C ,  9-O ) :   2.0588 B(  8-C , 10-O ) :   1.2319
B( 10-O , 11-C ) :   0.9011 B( 11-C , 12-C ) :   1.1780 B( 11-C , 27-H ) :   0.9101
B( 11-C , 28-H ) :   0.9306 B( 12-C , 29-H ) :   0.9394 B( 12-C , 30-H ) :   0.9445
B( 12-C , 31-H ) :   0.9499 B( 13-S , 14-P ) :   0.9577 B( 13-S , 15-S ) :   0.1137
B( 14-P , 15-S ) :   1.6385 B( 14-P , 16-O ) :   1.0654 B( 14-P , 18-O ) :   1.1172
B( 16-O , 17-C ) :   0.9344 B( 17-C , 32-H ) :   0.9455 B( 17-C , 33-H ) :   0.9354
B( 17-C , 34-H ) :   0.9587 B( 18-O , 19-C ) :   0.9191 B( 19-C , 35-H ) :   0.9353
B( 19-C , 36-H ) :   0.9454 B( 19-C , 37-H ) :   0.9583

Dispersion correction           -0.052959868
FINAL SINGLE POINT ENERGY     -1979.021914807305

DIPOLE MOMENT
-------------

Method             : SCF
Type of density    : Electron Density
Multiplicity       :   1
Irrep              :   0
Energy             : -1979.1522604184119700 Eh
Relativity type    :
Basis              : AO
                                X                 Y                 Z
Electronic contribution:    -13.244850274      10.954379115      -6.734434029
Nuclear contribution   :     13.735411258     -12.980635754       6.967353980
                        -----------------------------------------
Total Dipole Moment    :      0.490560984      -2.026256639       0.232919951
                        -----------------------------------------
Magnitude (a.u.)       :      2.097764942
Magnitude (Debye)      :      5.332094733

Rotational constants in cm-1:             0.014537             0.006563             0.005996
Rotational constants in MHz :           435.806441           196.767310           179.762604

                             ****ORCA TERMINATED NORMALLY****
TOTAL RUN TIME: 0 days 0 hours 0 minutes 45 seconds 976 msec
