                         Program Version 6.0.0  -   RELEASE  -
|  1> ! pbe def2-sv(p) def2/J RI DEFGRID1 loosescf d4 GCP(DFT/SV(P)) printgap
|  2> %output
|  3>     printlevel normal
|  4> end
|  5> * xyz 0 1
|  6> C 2.6726970508 0.4160414289 3.619003165
|  7> C 1.9409695489 0.3013696141 2.2973988429
|  8> O 2.7195183136 -0.5536758193 1.4386435215
|  9> P 2.1427846018 -1.1696955701 0.0907934683
| 10> S 0.4080523233 -2.0670347771 0.2515031241
| 11> O 3.2752962141 -2.1773462124 -0.3223612795
| 12> C 4.6974839479 -1.9803192108 -0.1129434501
| 13> C 5.2323583186 -0.7773906875 -0.8587814999
| 14> S 2.2199085096 0.426427121 -1.3353119235
| 15> C 0.4635668909 0.6821812171 -1.6194659012
| 16> S -0.3577023867 1.3863023723 -0.1513160711
| 17> P -2.3494055983 0.7416795981 -0.5715367804
| 18> S -2.5309135587 -0.7372118381 -1.8373484823
| 19> O -3.0847906392 2.0215580219 -1.1187094791
| 20> C -3.1285701403 3.2899639726 -0.4170710495
| 21> C -4.4027793229 3.4169577177 0.3920376075
| 22> O -2.975810524 0.5818815357 0.8798615479
| 23> C -2.6612233746 -0.5134268379 1.7616191304
| 24> C -3.6831076114 -1.6238481708 1.6212129039
| 25> H 2.7738626691 -0.5641488412 4.0762569082
| 26> H 3.661265109 0.8368293104 3.4615153281
| 27> H 2.1080345961 1.063883623 4.2810583681
| 28> H 1.8314845706 1.2754093205 1.8114437859
| 29> H 0.9482534997 -0.1426370052 2.4237616335
| 30> H 4.8723503019 -1.8878248237 0.9600191998
| 31> H 5.1307418557 -2.9104679857 -0.4835178573
| 32> H 6.3097254895 -0.7333460561 -0.7328856096
| 33> H 4.9979941937 -0.8503761224 -1.9176537569
| 34> H 4.791942472 0.1380934083 -0.4677892135
| 35> H -0.0253709707 -0.2661432746 -1.8585495259
| 36> H 0.3883468903 1.3838070923 -2.4468982496
| 37> H -2.2423283415 3.3723096993 0.218846182
| 38> H -3.0858389934 4.0377309893 -1.210949198
| 39> H -4.4324286681 2.661000712 1.1716309444
| 40> H -4.4377434954 4.4026934897 0.8452464952
| 41> H -5.2669012763 3.2874993308 -0.2536974839
| 42> H -1.6584723272 -0.8886548169 1.5401325308
| 43> H -2.6796204585 -0.0768939648 2.7618798782
| 44> H -4.6834722997 -1.241944935 1.8044424855
| 45> H -3.642864134 -2.0414176379 0.6170756362
| 46> H -3.4565698532 -2.4092554509 2.334906
| 47> *
| 48>
| 49>                          ****END OF INPUT****

CARTESIAN COORDINATES (ANGSTROEM)
---------------------------------
  C      2.672697    0.416041    3.619003
  C      1.940970    0.301370    2.297399
  O      2.719518   -0.553676    1.438644
  P      2.142785   -1.169696    0.090793
  S      0.408052   -2.067035    0.251503
  O      3.275296   -2.177346   -0.322361
  C      4.697484   -1.980319   -0.112943
  C      5.232358   -0.777391   -0.858781
  S      2.219909    0.426427   -1.335312
  C      0.463567    0.682181   -1.619466
  S     -0.357702    1.386302   -0.151316
  P     -2.349406    0.741680   -0.571537
  S     -2.530914   -0.737212   -1.837348
  O     -3.084791    2.021558   -1.118709
  C     -3.128570    3.289964   -0.417071
  C     -4.402779    3.416958    0.392038
  O     -2.975811    0.581882    0.879862
  C     -2.661223   -0.513427    1.761619
  C     -3.683108   -1.623848    1.621213
  H      2.773863   -0.564149    4.076257
  H      3.661265    0.836829    3.461515
  H      2.108035    1.063884    4.281058
  H      1.831485    1.275409    1.811444
  H      0.948253   -0.142637    2.423762
  H      4.872350   -1.887825    0.960019
  H      5.130742   -2.910468   -0.483518
  H      6.309725   -0.733346   -0.732886
  H      4.997994   -0.850376   -1.917654
  H      4.791942    0.138093   -0.467789
  H     -0.025371   -0.266143   -1.858550
  H      0.388347    1.383807   -2.446898
  H     -2.242328    3.372310    0.218846
  H     -3.085839    4.037731   -1.210949
  H     -4.432429    2.661001    1.171631
  H     -4.437743    4.402693    0.845246
  H     -5.266901    3.287499   -0.253697
  H     -1.658472   -0.888655    1.540133
  H     -2.679620   -0.076894    2.761880
  H     -4.683472   -1.241945    1.804442
  H     -3.642864   -2.041418    0.617076
  H     -3.456570   -2.409255    2.334906

 Total Charge           Charge          ....    0
 Multiplicity           Mult            ....    1
 Number of Electrons    NEL             ....  202
 Basis Dimension        Dim             ....  334

ORBITAL ENERGIES
----------------

  NO   OCC          E(Eh)            E(eV)
   0   2.0000     -88.045339     -2395.8355
   1   2.0000     -88.037372     -2395.6187
   2   2.0000     -87.982033     -2394.1128
   3   2.0000     -87.980005     -2394.0577
   4   2.0000     -76.426811     -2079.6793
   5   2.0000     -76.421891     -2079.5454
   6   2.0000     -18.794838      -511.4336
   7   2.0000     -18.794639      -511.4281
   8   2.0000     -18.791049      -511.3304
   9   2.0000     -18.787197      -511.2256
  10   2.0000      -9.961287      -271.0604
  11   2.0000      -9.954742      -270.8823
  12   2.0000      -9.954634      -270.8794
  13   2.0000      -9.949501      -270.7397
  14   2.0000      -9.947413      -270.6829
  15   2.0000      -9.894673      -269.2478
  16   2.0000      -9.891893      -269.1721
  17   2.0000      -9.885075      -268.9866
  18   2.0000      -9.875205      -268.7180
  19   2.0000      -7.690077      -209.2576
  20   2.0000      -7.682028      -209.0386
  21   2.0000      -7.626880      -207.5380
  22   2.0000      -7.625254      -207.4937
  23   2.0000      -6.424295      -174.8139
  24   2.0000      -6.419378      -174.6802
  25   2.0000      -5.718070      -155.5966
  26   2.0000      -5.714381      -155.4962
  27   2.0000      -5.709848      -155.3728
  28   2.0000      -5.707258      -155.3024
  29   2.0000      -5.706664      -155.2862
  30   2.0000      -5.699019      -155.0782
  31   2.0000      -5.655988      -153.9072
  32   2.0000      -5.654274      -153.8606
  33   2.0000      -5.647316      -153.6713
  34   2.0000      -5.647016      -153.6631
  35   2.0000      -5.645712      -153.6276
  36   2.0000      -5.645415      -153.6195
  37   2.0000      -4.647235      -126.4577
  38   2.0000      -4.645919      -126.4219
  39   2.0000      -4.644534      -126.3842
  40   2.0000      -4.642200      -126.3207
  41   2.0000      -4.641162      -126.2924
  42   2.0000      -4.639614      -126.2503
  43   2.0000      -0.991228       -26.9727
  44   2.0000      -0.985252       -26.8101
  45   2.0000      -0.946936       -25.7674
  46   2.0000      -0.942057       -25.6347
  47   2.0000      -0.759861       -20.6769
  48   2.0000      -0.722533       -19.6611
  49   2.0000      -0.712343       -19.3838
  50   2.0000      -0.697521       -18.9805
  51   2.0000      -0.686644       -18.6845
  52   2.0000      -0.673634       -18.3305
  53   2.0000      -0.648458       -17.6454
  54   2.0000      -0.633425       -17.2364
  55   2.0000      -0.595763       -16.2115
  56   2.0000      -0.584564       -15.9068
  57   2.0000      -0.577299       -15.7091
  58   2.0000      -0.570369       -15.5205
  59   2.0000      -0.562121       -15.2961
  60   2.0000      -0.510135       -13.8815
  61   2.0000      -0.499231       -13.5848
  62   2.0000      -0.478920       -13.0321
  63   2.0000      -0.476268       -12.9599
  64   2.0000      -0.448698       -12.2097
  65   2.0000      -0.448156       -12.1949
  66   2.0000      -0.445592       -12.1252
  67   2.0000      -0.436413       -11.8754
  68   2.0000      -0.429100       -11.6764
  69   2.0000      -0.422968       -11.5096
  70   2.0000      -0.413173       -11.2430
  71   2.0000      -0.397663       -10.8210
  72   2.0000      -0.393002       -10.6941
  73   2.0000      -0.383120       -10.4252
  74   2.0000      -0.381131       -10.3711
  75   2.0000      -0.370288       -10.0760
  76   2.0000      -0.361836        -9.8461
  77   2.0000      -0.360532        -9.8106
  78   2.0000      -0.356175        -9.6920
  79   2.0000      -0.353798        -9.6273
  80   2.0000      -0.350030        -9.5248
  81   2.0000      -0.347367        -9.4523
  82   2.0000      -0.340903        -9.2764
  83   2.0000      -0.340116        -9.2550
  84   2.0000      -0.331307        -9.0153
  85   2.0000      -0.316722        -8.6185
  86   2.0000      -0.311783        -8.4841
  87   2.0000      -0.304482        -8.2854
  88   2.0000      -0.297555        -8.0969
  89   2.0000      -0.290727        -7.9111
  90   2.0000      -0.288640        -7.8543
  91   2.0000      -0.277512        -7.5515
  92   2.0000      -0.272157        -7.4058
  93   2.0000      -0.262429        -7.1410
  94   2.0000      -0.256490        -6.9795
  95   2.0000      -0.237635        -6.4664
  96   2.0000      -0.218564        -5.9474
  97   2.0000      -0.208048        -5.6613
  98   2.0000      -0.196432        -5.3452
  99   2.0000      -0.193367        -5.2618
 100   2.0000      -0.188884        -5.1398
 101   0.0000      -0.043397        -1.1809
 102   0.0000      -0.030651        -0.8340
 103   0.0000      -0.011743        -0.3195
 104   0.0000       0.005803         0.1579
 105   0.0000       0.012956         0.3526

MULLIKEN ATOMIC CHARGES
-----------------------
   0 C :   -0.273217
   1 C :   -0.022931
   2 O :   -0.388967
   3 P :    0.611060
   4 S :   -0.298555
   5 O :   -0.358518
   6 C :    0.005840
   7 C :   -0.336203
   8 S :   -0.130895
   9 C :   -0.326528
  10 S :   -0.139990
  11 P :    0.605610
  12 S :   -0.293559
  13 O :   -0.355324
  14 C :   -0.010590
  15 C :   -0.289833
  16 O :   -0.382808
  17 C :   -0.045768
  18 C :   -0.287353
  19 H :    0.118566
  20 H :    0.113188
  21 H :    0.111452
  22 H :    0.107576
  23 H :    0.113045
  24 H :    0.112053
  25 H :    0.114216
  26 H :    0.119668
  27 H :    0.132466
  28 H :    0.130957
  29 H :    0.214731
  30 H :    0.179985
  31 H :    0.098998
  32 H :    0.108647
  33 H :    0.122363
  34 H :    0.107421
  35 H :    0.120281
  36 H :    0.148037
  37 H :    0.097648
  38 H :    0.108684
  39 H :    0.130672
  40 H :    0.107879
Sum of atomic charges:   -0.0000000

LOEWDIN ATOMIC CHARGES
----------------------
   0 C :   -0.350601
   1 C :   -0.121888
   2 O :   -0.251932
   3 P :    0.567603
   4 S :   -0.289538
   5 O :   -0.234448
   6 C :   -0.107380
   7 C :   -0.372396
   8 S :    0.071465
   9 C :   -0.480797
  10 S :    0.048756
  11 P :    0.565462
  12 S :   -0.286092
  13 O :   -0.238282
  14 C :   -0.114710
  15 C :   -0.360008
  16 O :   -0.246084
  17 C :   -0.123740
  18 C :   -0.359828
  19 H :    0.127996
  20 H :    0.125204
  21 H :    0.130909
  22 H :    0.103728
  23 H :    0.108135
  24 H :    0.115591
  25 H :    0.124611
  26 H :    0.134842
  27 H :    0.130294
  28 H :    0.117866
  29 H :    0.124927
  30 H :    0.134780
  31 H :    0.101441
  32 H :    0.120743
  33 H :    0.126011
  34 H :    0.128234
  35 H :    0.129168
  36 H :    0.106147
  37 H :    0.113674
  38 H :    0.122943
  39 H :    0.127644
  40 H :    0.129549

  Mayer bond orders larger than 0.100000
B(  0-C ,  1-C ) :   1.1564 B(  0-C , 19-H ) :   0.9502 B(  0-C , 20-H ) :   0.9508
B(  0-C , 21-H ) :   0.9421 B(  1-C ,  2-O ) :   0.9039 B(  1-C , 22-H ) :   0.9208
B(  1-C , 23-H ) :   0.9145 B(  2-O ,  3-P ) :   1.0651 B(  3-P ,  4-S ) :   1.6641
B(  3-P ,  5-O ) :   1.1504 B(  3-P ,  8-S ) :   0.9263 B(  4-S ,  8-S ) :   0.1147
B(  5-O ,  6-C ) :   0.8965 B(  6-C ,  7-C ) :   1.1702 B(  6-C , 24-H ) :   0.9271
B(  6-C , 25-H ) :   0.9334 B(  7-C , 26-H ) :   0.9350 B(  7-C , 27-H ) :   0.9417
B(  7-C , 28-H ) :   0.9305 B(  8-S ,  9-C ) :   1.0134 B(  9-C , 10-S ) :   0.9788
B(  9-C , 29-H ) :   0.8469 B(  9-C , 30-H ) :   0.9081 B( 10-S , 11-P ) :   0.9418
B( 10-S , 12-S ) :   0.1175 B( 11-P , 12-S ) :   1.6616 B( 11-P , 13-O ) :   1.1371
B( 11-P , 16-O ) :   1.0867 B( 13-O , 14-C ) :   0.8980 B( 14-C , 15-C ) :   1.1633
B( 14-C , 31-H ) :   0.9123 B( 14-C , 32-H ) :   0.9367 B( 15-C , 33-H ) :   0.9415
B( 15-C , 34-H ) :   0.9398 B( 15-C , 35-H ) :   0.9468 B( 16-O , 17-C ) :   0.8915
B( 17-C , 18-C ) :   1.1712 B( 17-C , 36-H ) :   0.8903 B( 17-C , 37-H ) :   0.9361
B( 18-C , 38-H ) :   0.9484 B( 18-C , 39-H ) :   0.9330 B( 18-C , 40-H ) :   0.9394

Dispersion correction           -0.063689647
FINAL SINGLE POINT ENERGY     -2929.514812362653

DIPOLE MOMENT
-------------

Method             : SCF
Type of density    : Electron Density
Multiplicity       :   1
Irrep              :   0
Energy             : -2929.6355393302269476 Eh
Relativity type    :
Basis              : AO
                                X                 Y                 Z
Electronic contribution:     -1.052058902      -6.958297477     -16.888840956
Nuclear contribution   :      2.257408933       8.333182755      18.296960027
                        -----------------------------------------
Total Dipole Moment    :      1.205350030       1.374885277       1.408119071
                        -----------------------------------------
Magnitude (a.u.)       :      2.307807951
Magnitude (Debye)      :      5.865981635

Rotational constants in cm-1:             0.012960             0.004438             0.004373
Rotational constants in MHz :           388.523942           133.038252           131.104747

                             ****ORCA TERMINATED NORMALLY****
TOTAL RUN TIME: 0 days 0 hours 0 minutes 20 seconds 784 msec
