                         Program Version 6.0.0  -   RELEASE  -
|  1> ! pbe def2-sv(p) def2/J RI DEFGRID1 loosescf d4 GCP(DFT/SV(P)) printgap
|  2> %output
|  3>     printlevel normal
|  4> end
|  5> * xyz 0 1
|  6> C -1.7177830021 -0.713425504 -0.4879461258
|  7> C -0.8508893484 -0.1236355013 0.6191336735
|  8> N 0.4792088413 0.1901478109 0.1025746966
|  9> O 0.8857705662 1.3284113637 0.2249797558
| 10> O 1.1133495481 -0.6998691385 -0.4240132817
| 11> H -1.2236246628 -1.5752660436 -0.9289999304
| 12> H -2.6688016055 -1.0266722372 -0.0707761226
| 13> H -1.9025779187 0.0226305819 -1.2658872359
| 14> H -0.7178676082 -0.8629877294 1.4125490746
| 15> H -1.2705450292 0.7973712548 1.0237846167
| 16> *
| 17>
| 18>                          ****END OF INPUT****

CARTESIAN COORDINATES (ANGSTROEM)
---------------------------------
  C     -1.717783   -0.713426   -0.487946
  C     -0.850889   -0.123636    0.619134
  N      0.479209    0.190148    0.102575
  O      0.885771    1.328411    0.224980
  O      1.113350   -0.699869   -0.424013
  H     -1.223625   -1.575266   -0.929000
  H     -2.668802   -1.026672   -0.070776
  H     -1.902578    0.022631   -1.265887
  H     -0.717868   -0.862988    1.412549
  H     -1.270545    0.797371    1.023785

 Total Charge           Charge          ....    0
 Multiplicity           Mult            ....    1
 Number of Electrons    NEL             ....   40
 Basis Dimension        Dim             ....   80

ORBITAL ENERGIES
----------------

  NO   OCC          E(Eh)            E(eV)
   0   2.0000     -18.781990      -511.0839
   1   2.0000     -18.781917      -511.0820
   2   2.0000     -14.206982      -386.5916
   3   2.0000      -9.951682      -270.7990
   4   2.0000      -9.907434      -269.5950
   5   2.0000      -1.134620       -30.8746
   6   2.0000      -0.963839       -26.2274
   7   2.0000      -0.764869       -20.8132
   8   2.0000      -0.641351       -17.4520
   9   2.0000      -0.533609       -14.5202
  10   2.0000      -0.497062       -13.5257
  11   2.0000      -0.476896       -12.9770
  12   2.0000      -0.456309       -12.4168
  13   2.0000      -0.422098       -11.4859
  14   2.0000      -0.378136       -10.2896
  15   2.0000      -0.359561        -9.7841
  16   2.0000      -0.341187        -9.2842
  17   2.0000      -0.274700        -7.4750
  18   2.0000      -0.255467        -6.9516
  19   2.0000      -0.233808        -6.3622
  20   0.0000      -0.096476        -2.6252
  21   0.0000       0.033943         0.9236
  22   0.0000       0.069711         1.8969
  23   0.0000       0.074956         2.0397
  24   0.0000       0.097271         2.6469

MULLIKEN ATOMIC CHARGES
-----------------------
   0 C :   -0.309500
   1 C :   -0.068919
   2 N :    0.177302
   3 O :   -0.218428
   4 O :   -0.217180
   5 H :    0.136992
   6 H :    0.123862
   7 H :    0.126211
   8 H :    0.133004
   9 H :    0.116656
Sum of atomic charges:   -0.0000000

LOEWDIN ATOMIC CHARGES
----------------------
   0 C :   -0.346559
   1 C :   -0.188605
   2 N :    0.238282
   3 O :   -0.186986
   4 O :   -0.189922
   5 H :    0.134344
   6 H :    0.133940
   7 H :    0.130808
   8 H :    0.142341
   9 H :    0.132357

  Mayer bond orders larger than 0.100000
B(  0-C ,  1-C ) :   1.1490 B(  0-C ,  5-H ) :   0.9393 B(  0-C ,  6-H ) :   0.9454
B(  0-C ,  7-H ) :   0.9498 B(  1-C ,  2-N ) :   0.9032 B(  1-C ,  8-H ) :   0.9129
B(  1-C ,  9-H ) :   0.9208 B(  2-N ,  3-O ) :   1.5578 B(  2-N ,  4-O ) :   1.5386
B(  3-O ,  4-O ) :   0.3113

Dispersion correction           -0.005807159
FINAL SINGLE POINT ENERGY      -283.756338111243

DIPOLE MOMENT
-------------

Method             : SCF
Type of density    : Electron Density
Multiplicity       :   1
Irrep              :   0
Energy             :  -283.7964868558277658 Eh
Relativity type    :
Basis              : AO
                                X                 Y                 Z
Electronic contribution:      6.030037834       2.118845249       0.225871609
Nuclear contribution   :     -7.269899932      -2.471026452       0.157730415
                        -----------------------------------------
Total Dipole Moment    :     -1.239862098      -0.352181203       0.383602025
                        -----------------------------------------
Magnitude (a.u.)       :      1.344782561
Magnitude (Debye)      :      3.418165624

Rotational constants in cm-1:             0.330543             0.142701             0.113381
Rotational constants in MHz :          9909.418090          4278.063451          3399.069131

                             ****ORCA TERMINATED NORMALLY****
TOTAL RUN TIME: 0 days 0 hours 0 minutes 5 seconds 605 msec
