                         Program Version 6.0.1  -  RELEASE   -
|  1> ! pbe def2-sv(p) def2/J RI DEFGRID1 loosescf d4 GCP(DFT/SV(P)) printgap
|  2> %output
|  3>     printlevel normal
|  4> end
|  5> * xyz 0 1
|  6> C 4.2833784361 -1.9300570992 1.0761400963
|  7> C 2.8092606199 -1.9162518725 0.7244645732
|  8> O 2.6111947168 -0.9660107026 -0.3414210496
|  9> C 1.49830704 -1.0187538949 -1.036228849
| 10> O 0.5952573424 -1.808301105 -0.8301944261
| 11> C 1.4604302893 0.0282961592 -2.129515035
| 12> C 0.2760104298 0.9774389833 -1.9192820339
| 13> H 0.2171417359 1.6767479537 -2.7574299008
| 14> C 0.3972651204 1.76250186 -0.6272402479
| 15> O -0.5161269008 1.8192003538 0.1782476075
| 16> O 1.5529375709 2.3412382933 -0.4993184253
| 17> C 1.8545898439 3.0430155851 0.7291153786
| 18> C 2.4375240761 2.0817217621 1.7510898489
| 19> S -1.3384290303 0.1230109153 -1.8983896466
| 20> P -1.6378558661 -0.3595271707 0.1445685103
| 21> S -0.4584427045 -0.5888955584 1.7120312634
| 22> O -2.9663533054 0.4500088861 0.5462214957
| 23> C -3.0304496249 1.564367595 1.4323834497
| 24> O -2.333512989 -1.7409834495 -0.2774593492
| 25> C -2.8678286866 -2.6479194999 0.6868035672
| 26> H 4.5958013033 -0.9465631878 1.4127701587
| 27> H 4.4505343417 -2.6478654919 1.8719469504
| 28> H 4.8722605951 -2.2116111996 0.2082296111
| 29> H 2.1886854374 -1.6096807868 1.5726330421
| 30> H 2.4577314614 -2.8944127199 0.3813609571
| 31> H 1.3266480114 -0.4811717562 -3.0840930852
| 32> H 2.3924094612 0.5924894091 -2.1205544624
| 33> H 2.5799881827 3.7997867223 0.4314421434
| 34> H 0.9402875038 3.5082829568 1.1047745967
| 35> H 2.71877002 2.6309336946 2.6431060571
| 36> H 1.7026876223 1.3249831018 2.023308605
| 37> H 3.31300207 1.5866556225 1.3402269513
| 38> H -2.2634717542 1.4733829077 2.203597674
| 39> H -4.0237490508 1.5359348144 1.874580434
| 40> H -2.8801218896 2.4857565545 0.8730398456
| 41> H -2.161739808 -2.7820955691 1.5096814678
| 42> H -3.014028395 -3.5866876915 0.1585127774
| 43> H -3.8149288066 -2.2681526247 1.0709308696
| 44> *
| 45>
| 46>                          ****END OF INPUT****

CARTESIAN COORDINATES (ANGSTROEM)
---------------------------------
  C      4.283378   -1.930057    1.076140
  C      2.809261   -1.916252    0.724465
  O      2.611195   -0.966011   -0.341421
  C      1.498307   -1.018754   -1.036229
  O      0.595257   -1.808301   -0.830194
  C      1.460430    0.028296   -2.129515
  C      0.276010    0.977439   -1.919282
  H      0.217142    1.676748   -2.757430
  C      0.397265    1.762502   -0.627240
  O     -0.516127    1.819200    0.178248
  O      1.552938    2.341238   -0.499318
  C      1.854590    3.043016    0.729115
  C      2.437524    2.081722    1.751090
  S     -1.338429    0.123011   -1.898390
  P     -1.637856   -0.359527    0.144569
  S     -0.458443   -0.588896    1.712031
  O     -2.966353    0.450009    0.546221
  C     -3.030450    1.564368    1.432383
  O     -2.333513   -1.740983   -0.277459
  C     -2.867829   -2.647919    0.686804
  H      4.595801   -0.946563    1.412770
  H      4.450534   -2.647865    1.871947
  H      4.872261   -2.211611    0.208230
  H      2.188685   -1.609681    1.572633
  H      2.457731   -2.894413    0.381361
  H      1.326648   -0.481172   -3.084093
  H      2.392409    0.592489   -2.120554
  H      2.579988    3.799787    0.431442
  H      0.940288    3.508283    1.104775
  H      2.718770    2.630934    2.643106
  H      1.702688    1.324983    2.023309
  H      3.313002    1.586656    1.340227
  H     -2.263472    1.473383    2.203598
  H     -4.023749    1.535935    1.874580
  H     -2.880122    2.485757    0.873040
  H     -2.161740   -2.782096    1.509681
  H     -3.014028   -3.586688    0.158513
  H     -3.814929   -2.268153    1.070931

 Total Charge           Charge          ....    0
 Multiplicity           Mult            ....    1
 Number of Electrons    NEL             ....  174
 Basis Dimension        Dim             ....  316

ORBITAL ENERGIES
----------------

  NO   OCC          E(Eh)            E(eV)
   0   2.0000     -88.025060     -2395.2837
   1   2.0000     -87.965308     -2393.6577
   2   2.0000     -76.412562     -2079.2915
   3   2.0000     -18.827091      -512.3112
   4   2.0000     -18.802331      -511.6374
   5   2.0000     -18.767333      -510.6851
   6   2.0000     -18.765711      -510.6410
   7   2.0000     -18.760938      -510.5111
   8   2.0000     -18.731004      -509.6965
   9   2.0000     -10.033382      -273.0222
  10   2.0000     -10.006593      -272.2932
  11   2.0000      -9.961368      -271.0626
  12   2.0000      -9.955270      -270.8967
  13   2.0000      -9.939965      -270.4802
  14   2.0000      -9.922377      -270.0016
  15   2.0000      -9.921271      -269.9715
  16   2.0000      -9.913807      -269.7684
  17   2.0000      -9.888985      -269.0930
  18   2.0000      -9.886978      -269.0384
  19   2.0000      -7.670426      -208.7229
  20   2.0000      -7.610174      -207.0834
  21   2.0000      -6.407272      -174.3507
  22   2.0000      -5.698949      -155.0763
  23   2.0000      -5.695377      -154.9791
  24   2.0000      -5.686175      -154.7287
  25   2.0000      -5.639331      -153.4540
  26   2.0000      -5.630909      -153.2248
  27   2.0000      -5.629892      -153.1972
  28   2.0000      -4.629999      -125.9887
  29   2.0000      -4.629493      -125.9749
  30   2.0000      -4.627812      -125.9292
  31   2.0000      -1.038357       -28.2551
  32   2.0000      -1.008106       -27.4319
  33   2.0000      -0.958400       -26.0794
  34   2.0000      -0.943540       -25.6750
  35   2.0000      -0.913827       -24.8665
  36   2.0000      -0.909325       -24.7440
  37   2.0000      -0.766821       -20.8663
  38   2.0000      -0.715312       -19.4646
  39   2.0000      -0.709311       -19.3013
  40   2.0000      -0.683120       -18.5886
  41   2.0000      -0.647802       -17.6276
  42   2.0000      -0.624129       -16.9834
  43   2.0000      -0.611811       -16.6482
  44   2.0000      -0.609006       -16.5719
  45   2.0000      -0.588629       -16.0174
  46   2.0000      -0.564192       -15.3525
  47   2.0000      -0.512938       -13.9577
  48   2.0000      -0.506420       -13.7804
  49   2.0000      -0.499058       -13.5801
  50   2.0000      -0.486404       -13.2357
  51   2.0000      -0.461859       -12.5678
  52   2.0000      -0.456200       -12.4138
  53   2.0000      -0.449752       -12.2384
  54   2.0000      -0.442031       -12.0283
  55   2.0000      -0.427309       -11.6277
  56   2.0000      -0.421780       -11.4772
  57   2.0000      -0.410142       -11.1605
  58   2.0000      -0.402773       -10.9600
  59   2.0000      -0.401894       -10.9361
  60   2.0000      -0.397657       -10.8208
  61   2.0000      -0.390470       -10.6252
  62   2.0000      -0.381755       -10.3881
  63   2.0000      -0.379273       -10.3205
  64   2.0000      -0.368877       -10.0377
  65   2.0000      -0.366031        -9.9602
  66   2.0000      -0.362470        -9.8633
  67   2.0000      -0.355540        -9.6747
  68   2.0000      -0.348865        -9.4931
  69   2.0000      -0.343396        -9.3443
  70   2.0000      -0.337057        -9.1718
  71   2.0000      -0.334609        -9.1052
  72   2.0000      -0.312992        -8.5170
  73   2.0000      -0.311294        -8.4708
  74   2.0000      -0.298514        -8.1230
  75   2.0000      -0.293981        -7.9996
  76   2.0000      -0.284081        -7.7302
  77   2.0000      -0.281850        -7.6695
  78   2.0000      -0.267583        -7.2813
  79   2.0000      -0.258098        -7.0232
  80   2.0000      -0.254063        -6.9134
  81   2.0000      -0.247919        -6.7462
  82   2.0000      -0.239962        -6.5297
  83   2.0000      -0.222419        -6.0523
  84   2.0000      -0.193193        -5.2570
  85   2.0000      -0.181486        -4.9385
  86   2.0000      -0.173776        -4.7287
  87   0.0000      -0.051105        -1.3906
  88   0.0000      -0.044614        -1.2140
  89   0.0000      -0.026239        -0.7140
  90   0.0000       0.011181         0.3043
  91   0.0000       0.031095         0.8461

MULLIKEN ATOMIC CHARGES
-----------------------
   0 C :   -0.281133
   1 C :   -0.037170
   2 O :   -0.228423
   3 C :    0.080371
   4 O :   -0.188979
   5 C :   -0.014024
   6 C :   -0.337800
   7 H :    0.154831
   8 C :    0.224106
   9 O :   -0.194347
  10 O :   -0.213191
  11 C :   -0.011196
  12 C :   -0.335289
  13 S :   -0.049311
  14 P :    0.660667
  15 S :   -0.356029
  16 O :   -0.392461
  17 C :   -0.083371
  18 O :   -0.385267
  19 C :   -0.091627
  20 H :    0.115827
  21 H :    0.112267
  22 H :    0.110649
  23 H :    0.127636
  24 H :    0.108396
  25 H :    0.124078
  26 H :    0.111962
  27 H :    0.107973
  28 H :    0.115401
  29 H :    0.112788
  30 H :    0.153300
  31 H :    0.123039
  32 H :    0.107858
  33 H :    0.110035
  34 H :    0.105210
  35 H :    0.112765
  36 H :    0.117099
  37 H :    0.103363
Sum of atomic charges:    0.0000000

LOEWDIN ATOMIC CHARGES
----------------------
   0 C :   -0.351422
   1 C :   -0.111912
   2 O :   -0.052837
   3 C :    0.015435
   4 O :   -0.161972
   5 C :   -0.248605
   6 C :   -0.264043
   7 H :    0.152107
   8 C :    0.023025
   9 O :   -0.149766
  10 O :   -0.030479
  11 C :   -0.102874
  12 C :   -0.364202
  13 S :    0.131287
  14 P :    0.603738
  15 S :   -0.321206
  16 O :   -0.261696
  17 C :   -0.215150
  18 O :   -0.258395
  19 C :   -0.214656
  20 H :    0.123462
  21 H :    0.131335
  22 H :    0.124357
  23 H :    0.116310
  24 H :    0.118888
  25 H :    0.147372
  26 H :    0.136217
  27 H :    0.120560
  28 H :    0.123120
  29 H :    0.131670
  30 H :    0.129505
  31 H :    0.124770
  32 H :    0.103346
  33 H :    0.113037
  34 H :    0.107494
  35 H :    0.106572
  36 H :    0.118327
  37 H :    0.107280

  Mayer bond orders larger than 0.100000
B(  0-C ,  1-C ) :   1.1505 B(  0-C , 20-H ) :   0.9482 B(  0-C , 21-H ) :   0.9441
B(  0-C , 22-H ) :   0.9499 B(  1-C ,  2-O ) :   0.8913 B(  1-C , 23-H ) :   0.9195
B(  1-C , 24-H ) :   0.9242 B(  2-O ,  3-C ) :   1.2424 B(  3-C ,  4-O ) :   2.0016
B(  3-C ,  5-C ) :   1.0007 B(  5-C ,  6-C ) :   1.0110 B(  5-C , 25-H ) :   0.8885
B(  5-C , 26-H ) :   0.8866 B(  6-C ,  7-H ) :   0.8730 B(  6-C ,  8-C ) :   0.9008
B(  6-C , 13-S ) :   1.0691 B(  8-C ,  9-O ) :   1.9085 B(  8-C , 10-O ) :   1.2880
B(  9-O , 14-P ) :   0.1309 B( 10-O , 11-C ) :   0.8914 B( 11-C , 12-C ) :   1.1790
B( 11-C , 27-H ) :   0.9362 B( 11-C , 28-H ) :   0.9147 B( 12-C , 29-H ) :   0.9385
B( 12-C , 30-H ) :   0.9216 B( 12-C , 31-H ) :   0.9404 B( 13-S , 14-P ) :   0.9151
B( 13-S , 15-S ) :   0.1153 B( 14-P , 15-S ) :   1.4924 B( 14-P , 16-O ) :   1.0821
B( 14-P , 18-O ) :   1.0860 B( 16-O , 17-C ) :   0.9427 B( 17-C , 32-H ) :   0.9297
B( 17-C , 33-H ) :   0.9564 B( 17-C , 34-H ) :   0.9525 B( 18-O , 19-C ) :   0.9438
B( 19-C , 35-H ) :   0.9312 B( 19-C , 36-H ) :   0.9602 B( 19-C , 37-H ) :   0.9513

Dispersion correction           -0.056181121
FINAL SINGLE POINT ENERGY     -1978.997206166634

DIPOLE MOMENT
-------------

Method             : SCF
Type of density    : Electron Density
Multiplicity       :   1
Irrep              :   0
Energy             : -1979.1256967337767492 Eh
Relativity type    :
Basis              : AO
                                X                 Y                 Z
Electronic contribution:    -14.842756392      -0.421306578     -11.750093609
Nuclear contribution   :     16.133313704       1.449475740      11.789819016
                        -----------------------------------------
Total Dipole Moment    :      1.290557311       1.028169162       0.039725406
                        -----------------------------------------
Magnitude (a.u.)       :      1.650529645
Magnitude (Debye)      :      4.195312950

Rotational constants in cm-1:             0.012947             0.008872             0.007660
Rotational constants in MHz :           388.156273           265.970202           229.627852

                             ****ORCA TERMINATED NORMALLY****
TOTAL RUN TIME: 0 days 0 hours 1 minutes 35 seconds 427 msec
