                         Program Version 6.0.0  -   RELEASE  -
|  1> ! r2scan-3c def2/J RI DEFGRID2 scfconv6 printgap
|  2> %output
|  3>     printlevel normal
|  4> end
|  5> %cpcm
|  6>     smd true
|  7>     smdsolvent "water"
|  8> end
|  9> * xyz 0 1
| 10> C -1.7661016345 0.6793869738 -0.0010163407
| 11> C -0.4699736115 -0.0952096375 0.0017414829
| 12> O -0.4446954989 -1.3256392175 -5.69992e-05
| 13> N 0.6441071457 0.649045698 0.0014765637
| 14> C 1.9762051368 0.0887354205 -0.000916902
| 15> H -2.3078676151 0.4456902189 -0.9145009818
| 16> H -2.3744242081 0.3429561312 0.834875538
| 17> H -1.605545503 1.7494092255 0.0665581038
| 18> H 0.5712220943 1.6544498145 -0.0004850953
| 19> H 2.5193934038 0.4041468383 -0.891553192
| 20> H 1.8808907972 -0.9958286516 -0.0011023822
| 21> H 2.5210417009 0.4036486604 0.8888789543
| 22> *
| 23>
| 24>                          ****END OF INPUT****

CARTESIAN COORDINATES (ANGSTROEM)
---------------------------------
  C     -1.766102    0.679387   -0.001016
  C     -0.469974   -0.095210    0.001741
  O     -0.444695   -1.325639   -0.000057
  N      0.644107    0.649046    0.001477
  C      1.976205    0.088735   -0.000917
  H     -2.307868    0.445690   -0.914501
  H     -2.374424    0.342956    0.834876
  H     -1.605546    1.749409    0.066558
  H      0.571222    1.654450   -0.000485
  H      2.519393    0.404147   -0.891553
  H      1.880891   -0.995829   -0.001102
  H      2.521042    0.403649    0.888879

 Total Charge           Charge          ....    0
 Multiplicity           Mult            ....    1
 Number of Electrons    NEL             ....   40
 Basis Dimension        Dim             ....  140

ORBITAL ENERGIES
----------------

  NO   OCC          E(Eh)            E(eV)
   0   2.0000     -18.918804      -514.8068
   1   2.0000     -14.185622      -386.0104
   2   2.0000     -10.131535      -275.6931
   3   2.0000     -10.051126      -273.5050
   4   2.0000     -10.023963      -272.7659
   5   2.0000      -1.005079       -27.3496
   6   2.0000      -0.889176       -24.1957
   7   2.0000      -0.715174       -19.4609
   8   2.0000      -0.648184       -17.6380
   9   2.0000      -0.550200       -14.9717
  10   2.0000      -0.467769       -12.7287
  11   2.0000      -0.439154       -11.9500
  12   2.0000      -0.427452       -11.6316
  13   2.0000      -0.386605       -10.5201
  14   2.0000      -0.376203       -10.2370
  15   2.0000      -0.357627        -9.7315
  16   2.0000      -0.351287        -9.5590
  17   2.0000      -0.326077        -8.8730
  18   2.0000      -0.233027        -6.3410
  19   2.0000      -0.232547        -6.3279
  20   0.0000       0.001305         0.0355
  21   0.0000       0.078391         2.1331
  22   0.0000       0.122794         3.3414
  23   0.0000       0.129855         3.5335
  24   0.0000       0.142930         3.8893

MULLIKEN ATOMIC CHARGES
-----------------------
   0 C :   -0.556292
   1 C :    0.366723
   2 O :   -0.581656
   3 N :   -0.174550
   4 C :   -0.429768
   5 H :    0.190806
   6 H :    0.187324
   7 H :    0.173015
   8 H :    0.300777
   9 H :    0.169532
  10 H :    0.184494
  11 H :    0.169594
Sum of atomic charges:    0.0000000

LOEWDIN ATOMIC CHARGES
----------------------
   0 C :   -0.347613
   1 C :    0.313515
   2 O :   -0.587136
   3 N :   -0.641999
   4 C :   -0.120872
   5 H :    0.183134
   6 H :    0.181722
   7 H :    0.172041
   8 H :    0.286942
   9 H :    0.181022
  10 H :    0.198170
  11 H :    0.181072

  Mayer bond orders larger than 0.100000
B(  0-C ,  1-C ) :   0.9218 B(  0-C ,  5-H ) :   0.9443 B(  0-C ,  6-H ) :   0.9511
B(  0-C ,  7-H ) :   0.9736 B(  1-C ,  2-O ) :   1.7149 B(  1-C ,  3-N ) :   1.2372
B(  3-N ,  4-C ) :   0.8878 B(  3-N ,  8-H ) :   0.8960 B(  4-C ,  9-H ) :   0.9530
B(  4-C , 10-H ) :   0.9599 B(  4-C , 11-H ) :   0.9532

Dispersion correction           -0.002388162
FINAL SINGLE POINT ENERGY      -248.477115674234

DIPOLE MOMENT
-------------

Method             : SCF
Type of density    : Electron Density
Multiplicity       :   1
Irrep              :   0
Energy             :  -248.4853557840746419 Eh
Relativity type    :
Basis              : AO
                                X                 Y                 Z
Electronic contribution:     -0.529225327      -1.517155217       0.010132573
Nuclear contribution   :      1.127167576       3.740767074      -0.016250367
                        -----------------------------------------
Total Dipole Moment    :      0.597942249       2.223611856      -0.006117794
                        -----------------------------------------
Magnitude (a.u.)       :      2.302612006
Magnitude (Debye)      :      5.852774591

Rotational constants in cm-1:             0.334462             0.130178             0.097104
Rotational constants in MHz :         10026.906319          3902.637642          2911.111244

                             ****ORCA TERMINATED NORMALLY****
TOTAL RUN TIME: 0 days 0 hours 0 minutes 16 seconds 659 msec
