                         Program Version 6.0.0  -   RELEASE  -
|  1> ! wb97x-v def2-tzvp def2/J RIJCOSX DEFGRID2 scfconv7 GCP(DFT/TZ) printgap
|  2> %output
|  3>     printlevel normal
|  4> end
|  5> * xyz 0 1
|  6> C -1.9412883640458871 -1.2105640290878816 2.928150870359275e-05
|  7> C -0.551182568472314 -1.2118682656065745 0.0001512820122390692
|  8> C 0.12905267447577148 7.145963761668574e-05 0.00018834502260679193
|  9> C -0.5497145538627536 1.2114091581049358 0.00010690097226710971
| 10> C -1.941037638328098 1.2091958436419277 -1.5447851218613777e-05
| 11> C -2.634521332084014 -0.0006315120375768081 -4.819475233636572e-05
| 12> O -4.007337532851814 -0.05606227415643265 -0.00017998561658642335
| 13> Br 2.049491888902385 -0.00015306374371573187 0.00039796603570149615
| 14> H -2.489714774766581 -2.146459098974266 5.709454272050163e-07
| 15> H -0.013362370915723214 -2.1526877926249175 0.00023229304474141707
| 16> H -0.013149882452855232 2.1529791753466423 0.00014545633066982445
| 17> H -2.4869864621112 2.1481575678711815 -8.415828601695918e-05
| 18> H -4.3584303098170425 0.8456877959048485 -0.00021361621558901848
| 19> *
| 20>
| 21>                          ****END OF INPUT****

CARTESIAN COORDINATES (ANGSTROEM)
---------------------------------
  C     -1.941288   -1.210564    0.000029
  C     -0.551183   -1.211868    0.000151
  C      0.129053    0.000071    0.000188
  C     -0.549715    1.211409    0.000107
  C     -1.941038    1.209196   -0.000015
  C     -2.634521   -0.000632   -0.000048
  O     -4.007338   -0.056062   -0.000180
  Br     2.049492   -0.000153    0.000398
  H     -2.489715   -2.146459    0.000001
  H     -0.013362   -2.152688    0.000232
  H     -0.013150    2.152979    0.000145
  H     -2.486986    2.148158   -0.000084
  H     -4.358430    0.845688   -0.000214

 Total Charge           Charge          ....    0
 Multiplicity           Mult            ....    1
 Number of Electrons    NEL             ....   84
 Basis Dimension        Dim             ....  295

ORBITAL ENERGIES
----------------

  NO   OCC          E(Eh)            E(eV)
   0   2.0000    -494.721558    -13462.0580
   1   2.0000     -66.890763     -1820.1902
   2   2.0000     -60.947433     -1658.4640
   3   2.0000     -60.946141     -1658.4288
   4   2.0000     -60.946087     -1658.4273
   5   2.0000     -21.715363      -590.9051
   6   2.0000     -12.128713      -330.0391
   7   2.0000     -12.110010      -329.5301
   8   2.0000     -12.074982      -328.5770
   9   2.0000     -12.072912      -328.5206
  10   2.0000     -12.068966      -328.4133
  11   2.0000     -12.063457      -328.2633
  12   2.0000     -10.642538      -289.5982
  13   2.0000      -8.422307      -229.1826
  14   2.0000      -8.415569      -228.9993
  15   2.0000      -8.415559      -228.9990
  16   2.0000      -4.407459      -119.9331
  17   2.0000      -4.404850      -119.8621
  18   2.0000      -4.404683      -119.8575
  19   2.0000      -4.397351      -119.6580
  20   2.0000      -4.397321      -119.6572
  21   2.0000      -1.729464       -47.0611
  22   2.0000      -1.411287       -38.4031
  23   2.0000      -1.344043       -36.5733
  24   2.0000      -1.298580       -35.3362
  25   2.0000      -1.276737       -34.7418
  26   2.0000      -1.166209       -31.7342
  27   2.0000      -1.136703       -30.9313
  28   2.0000      -1.074894       -29.2494
  29   2.0000      -1.021164       -27.7873
  30   2.0000      -0.961377       -26.1604
  31   2.0000      -0.960062       -26.1246
  32   2.0000      -0.950062       -25.8525
  33   2.0000      -0.919887       -25.0314
  34   2.0000      -0.896968       -24.4077
  35   2.0000      -0.843274       -22.9466
  36   2.0000      -0.832725       -22.6596
  37   2.0000      -0.800385       -21.7796
  38   2.0000      -0.735647       -20.0180
  39   2.0000      -0.729347       -19.8465
  40   2.0000      -0.661151       -17.9908
  41   2.0000      -0.651367       -17.7246
  42   0.0000      -0.290655        -7.9091
  43   0.0000      -0.267915        -7.2903
  44   0.0000      -0.257390        -7.0039
  45   0.0000      -0.155824        -4.2402
  46   0.0000      -0.090604        -2.4655

MULLIKEN ATOMIC CHARGES
-----------------------
   0 C :   -0.195720
   1 C :   -0.132617
   2 C :    0.057125
   3 C :   -0.164353
   4 C :   -0.195963
   5 C :    0.249367
   6 O :   -0.385092
   7 Br:   -0.079687
   8 H :    0.130900
   9 H :    0.141591
  10 H :    0.142224
  11 H :    0.117463
  12 H :    0.314762
Sum of atomic charges:   -0.0000000

LOEWDIN ATOMIC CHARGES
----------------------
   0 C :   -0.111394
   1 C :   -0.134659
   2 C :   -0.379841
   3 C :   -0.138212
   4 C :   -0.137607
   5 C :   -0.259723
   6 O :    0.070657
   7 Br:    0.311231
   8 H :    0.151130
   9 H :    0.149406
  10 H :    0.149035
  11 H :    0.142958
  12 H :    0.187019

  Mayer bond orders larger than 0.100000
B(  0-C ,  1-C ) :   1.4252 B(  0-C ,  5-C ) :   1.4064 B(  0-C ,  8-H ) :   0.9708
B(  1-C ,  2-C ) :   1.3789 B(  1-C ,  9-H ) :   0.9676 B(  2-C ,  3-C ) :   1.4032
B(  2-C ,  7-Br) :   1.0418 B(  3-C ,  4-C ) :   1.4084 B(  3-C , 10-H ) :   0.9546
B(  4-C ,  5-C ) :   1.3691 B(  4-C , 11-H ) :   0.9556 B(  5-C ,  6-O ) :   1.1541
B(  6-O , 12-H ) :   0.8887

FINAL SINGLE POINT ENERGY     -2880.805217267828

DIPOLE MOMENT
-------------

Method             : SCF
Type of density    : Electron Density
Multiplicity       :   1
Irrep              :   0
Energy             : -2880.8129938256279274 Eh
Relativity type    :
Basis              : AO
                                X                 Y                 Z
Electronic contribution:     27.101528278      -0.268156012       0.002656785
Nuclear contribution   :    -27.864856671       0.793656093      -0.002723587
                        -----------------------------------------
Total Dipole Moment    :     -0.763328393       0.525500081      -0.000066802
                        -----------------------------------------
Magnitude (a.u.)       :      0.926725728
Magnitude (Debye)      :      2.355549603

Rotational constants in cm-1:             0.187641             0.020927             0.018828
Rotational constants in MHz :          5625.333262           627.388300           564.437139

                             ****ORCA TERMINATED NORMALLY****
TOTAL RUN TIME: 0 days 0 hours 2 minutes 40 seconds 208 msec
