                         Program Version 6.0.0  -   RELEASE  -
|  1> ! wb97x-v def2-tzvp def2/J RIJCOSX DEFGRID2 scfconv7 GCP(DFT/TZ) printgap
|  2> %output
|  3>     printlevel normal
|  4> end
|  5> %cpcm
|  6>     smd true
|  7>     smdsolvent "water"
|  8> end
|  9> * xyz 0 1
| 10> C -1.9412883640458871 -1.2105640290878816 2.928150870359275e-05
| 11> C -0.551182568472314 -1.2118682656065745 0.0001512820122390692
| 12> C 0.12905267447577148 7.145963761668574e-05 0.00018834502260679193
| 13> C -0.5497145538627536 1.2114091581049358 0.00010690097226710971
| 14> C -1.941037638328098 1.2091958436419277 -1.5447851218613777e-05
| 15> C -2.634521332084014 -0.0006315120375768081 -4.819475233636572e-05
| 16> O -4.007337532851814 -0.05606227415643265 -0.00017998561658642335
| 17> Br 2.049491888902385 -0.00015306374371573187 0.00039796603570149615
| 18> H -2.489714774766581 -2.146459098974266 5.709454272050163e-07
| 19> H -0.013362370915723214 -2.1526877926249175 0.00023229304474141707
| 20> H -0.013149882452855232 2.1529791753466423 0.00014545633066982445
| 21> H -2.4869864621112 2.1481575678711815 -8.415828601695918e-05
| 22> H -4.3584303098170425 0.8456877959048485 -0.00021361621558901848
| 23> *
| 24>
| 25>                          ****END OF INPUT****

CARTESIAN COORDINATES (ANGSTROEM)
---------------------------------
  C     -1.941288   -1.210564    0.000029
  C     -0.551183   -1.211868    0.000151
  C      0.129053    0.000071    0.000188
  C     -0.549715    1.211409    0.000107
  C     -1.941038    1.209196   -0.000015
  C     -2.634521   -0.000632   -0.000048
  O     -4.007338   -0.056062   -0.000180
  Br     2.049492   -0.000153    0.000398
  H     -2.489715   -2.146459    0.000001
  H     -0.013362   -2.152688    0.000232
  H     -0.013150    2.152979    0.000145
  H     -2.486986    2.148158   -0.000084
  H     -4.358430    0.845688   -0.000214

 Total Charge           Charge          ....    0
 Multiplicity           Mult            ....    1
 Number of Electrons    NEL             ....   84
 Basis Dimension        Dim             ....  295

ORBITAL ENERGIES
----------------

  NO   OCC          E(Eh)            E(eV)
   0   2.0000    -494.722624    -13462.0870
   1   2.0000     -66.891900     -1820.2211
   2   2.0000     -60.948547     -1658.4943
   3   2.0000     -60.947295     -1658.4602
   4   2.0000     -60.947239     -1658.4587
   5   2.0000     -21.705083      -590.6253
   6   2.0000     -12.120706      -329.8212
   7   2.0000     -12.105746      -329.4141
   8   2.0000     -12.066430      -328.3442
   9   2.0000     -12.065818      -328.3276
  10   2.0000     -12.057186      -328.0927
  11   2.0000     -12.055502      -328.0469
  12   2.0000     -10.643742      -289.6309
  13   2.0000      -8.423415      -229.2128
  14   2.0000      -8.416879      -229.0349
  15   2.0000      -8.416852      -229.0342
  16   2.0000      -4.408533      -119.9623
  17   2.0000      -4.406023      -119.8940
  18   2.0000      -4.405826      -119.8886
  19   2.0000      -4.398702      -119.6948
  20   2.0000      -4.398673      -119.6940
  21   2.0000      -1.719344       -46.7857
  22   2.0000      -1.405546       -38.2468
  23   2.0000      -1.342014       -36.5181
  24   2.0000      -1.290492       -35.1161
  25   2.0000      -1.271827       -34.6082
  26   2.0000      -1.157122       -31.4869
  27   2.0000      -1.128937       -30.7199
  28   2.0000      -1.065964       -29.0064
  29   2.0000      -1.014563       -27.6077
  30   2.0000      -0.954379       -25.9700
  31   2.0000      -0.952263       -25.9124
  32   2.0000      -0.941763       -25.6267
  33   2.0000      -0.909298       -24.7433
  34   2.0000      -0.886408       -24.1204
  35   2.0000      -0.839482       -22.8435
  36   2.0000      -0.822119       -22.3710
  37   2.0000      -0.796271       -21.6676
  38   2.0000      -0.735119       -20.0036
  39   2.0000      -0.730600       -19.8806
  40   2.0000      -0.653880       -17.7930
  41   2.0000      -0.647130       -17.6093
  42   0.0000      -0.289277        -7.8716
  43   0.0000      -0.262617        -7.1462
  44   0.0000      -0.249904        -6.8002
  45   0.0000      -0.145438        -3.9576
  46   0.0000      -0.083680        -2.2770

MULLIKEN ATOMIC CHARGES
-----------------------
   0 C :   -0.250600
   1 C :   -0.173745
   2 C :    0.072965
   3 C :   -0.180866
   4 C :   -0.252708
   5 C :    0.273537
   6 O :   -0.462533
   7 Br:   -0.096477
   8 H :    0.163377
   9 H :    0.173692
  10 H :    0.175880
  11 H :    0.176773
  12 H :    0.380707
Sum of atomic charges:   -0.0000000

LOEWDIN ATOMIC CHARGES
----------------------
   0 C :   -0.120422
   1 C :   -0.142944
   2 C :   -0.391249
   3 C :   -0.143040
   4 C :   -0.125810
   5 C :   -0.265053
   6 O :    0.047403
   7 Br:    0.294717
   8 H :    0.158743
   9 H :    0.156912
  10 H :    0.157099
  11 H :    0.160857
  12 H :    0.212785

  Mayer bond orders larger than 0.100000
B(  0-C ,  1-C ) :   1.4346 B(  0-C ,  5-C ) :   1.3777 B(  0-C ,  8-H ) :   0.9761
B(  1-C ,  2-C ) :   1.3449 B(  1-C ,  9-H ) :   0.9720 B(  2-C ,  3-C ) :   1.3498
B(  2-C ,  7-Br) :   1.0438 B(  3-C ,  4-C ) :   1.3848 B(  3-C , 10-H ) :   0.9626
B(  4-C ,  5-C ) :   1.3650 B(  4-C , 11-H ) :   0.9652 B(  5-C ,  6-O ) :   1.1128
B(  6-O , 12-H ) :   0.8470

FINAL SINGLE POINT ENERGY     -2880.816002883257

DIPOLE MOMENT
-------------

Method             : SCF
Type of density    : Electron Density
Multiplicity       :   1
Irrep              :   0
Energy             : -2880.8237794410565584 Eh
Relativity type    :
Basis              : AO
                                X                 Y                 Z
Electronic contribution:     26.843034542      -0.009203339       0.002635567
Nuclear contribution   :    -27.864856671       0.793656093      -0.002723587
                        -----------------------------------------
Total Dipole Moment    :     -1.021822130       0.784452754      -0.000088020
                        -----------------------------------------
Magnitude (a.u.)       :      1.288210618
Magnitude (Debye)      :      3.274371171

Rotational constants in cm-1:             0.187641             0.020927             0.018828
Rotational constants in MHz :          5625.333262           627.388300           564.437139

                             ****ORCA TERMINATED NORMALLY****
TOTAL RUN TIME: 0 days 0 hours 2 minutes 50 seconds 843 msec
