                         Program Version 6.0.1  -  RELEASE   -
|  1> ! pbe def2-sv(p) def2/J RI DEFGRID1 loosescf d4 GCP(DFT/SV(P)) printgap
|  2> %output
|  3>     printlevel normal
|  4> end
|  5> * xyz 0 1
|  6> C 4.1979680326 -2.3476913859 1.263882025
|  7> C 2.8616474669 -1.6354347043 1.3205889118
|  8> O 2.5027453352 -1.2539886295 -0.0209248009
|  9> C 1.5423983738 -0.3856947191 -0.1878486575
| 10> O 0.9625196042 0.1962959525 0.7164415039
| 11> C 1.2547905516 -0.103473815 -1.6447380682
| 12> C 0.1722985116 0.9600523521 -1.7482272294
| 13> H 0.1589298231 1.3940241488 -2.7519471558
| 14> C 0.3890311308 2.0890485173 -0.7459233772
| 15> O -0.4966851455 2.590378986 -0.0927276391
| 16> O 1.6372859302 2.5100612425 -0.7870513198
| 17> C 2.0321731097 3.5765118399 0.1005167953
| 18> C 2.6674872523 3.0104122491 1.3598356747
| 19> S -1.5275871478 0.3247439768 -1.5706186014
| 20> P -1.6417622182 -0.8834538783 0.1733892537
| 21> S -0.5408698756 -2.5006506121 0.2838299156
| 22> O -1.6502443956 -0.037340438 1.5045807374
| 23> C -2.5507635367 1.0602489591 1.7511693744
| 24> O -3.2009439039 -1.2425305663 0.0640950857
| 25> C -3.6954976883 -2.1419777376 -0.9336887526
| 26> H 4.9611746904 -1.6830339716 0.870444516
| 27> H 4.4761764195 -2.6635777091 2.2635898038
| 28> H 4.1210297724 -3.2184725147 0.6203919828
| 29> H 2.8972864481 -0.7339572027 1.940822846
| 30> H 2.0688169499 -2.288117628 1.7010148088
| 31> H 0.9557166875 -1.0296862145 -2.1386795066
| 32> H 2.1770750573 0.2503089672 -2.1087419839
| 33> H 2.7441633756 4.1677326858 -0.4762920006
| 34> H 1.1471477634 4.171190108 0.3426317944
| 35> H 1.9674570208 2.338545342 1.8541211466
| 36> H 3.5678617426 2.4550503667 1.1109044331
| 37> H 2.9195911632 3.821528849 2.0346414235
| 38> H -3.5609895509 0.7941323297 1.4470601322
| 39> H -2.2025508893 1.939330015 1.2092847389
| 40> H -2.499011794 1.228048519 2.8237147244
| 41> H -4.6905066893 -2.4279866902 -0.6021926453
| 42> H -3.0490286481 -3.0187073957 -0.9989863365
| 43> H -3.7389584656 -1.6366760325 -1.8975619409
| 44> *
| 45>
| 46>                          ****END OF INPUT****

CARTESIAN COORDINATES (ANGSTROEM)
---------------------------------
  C      4.197968   -2.347691    1.263882
  C      2.861647   -1.635435    1.320589
  O      2.502745   -1.253989   -0.020925
  C      1.542398   -0.385695   -0.187849
  O      0.962520    0.196296    0.716442
  C      1.254791   -0.103474   -1.644738
  C      0.172299    0.960052   -1.748227
  H      0.158930    1.394024   -2.751947
  C      0.389031    2.089049   -0.745923
  O     -0.496685    2.590379   -0.092728
  O      1.637286    2.510061   -0.787051
  C      2.032173    3.576512    0.100517
  C      2.667487    3.010412    1.359836
  S     -1.527587    0.324744   -1.570619
  P     -1.641762   -0.883454    0.173389
  S     -0.540870   -2.500651    0.283830
  O     -1.650244   -0.037340    1.504581
  C     -2.550764    1.060249    1.751169
  O     -3.200944   -1.242531    0.064095
  C     -3.695498   -2.141978   -0.933689
  H      4.961175   -1.683034    0.870445
  H      4.476176   -2.663578    2.263590
  H      4.121030   -3.218473    0.620392
  H      2.897286   -0.733957    1.940823
  H      2.068817   -2.288118    1.701015
  H      0.955717   -1.029686   -2.138680
  H      2.177075    0.250309   -2.108742
  H      2.744163    4.167733   -0.476292
  H      1.147148    4.171190    0.342632
  H      1.967457    2.338545    1.854121
  H      3.567862    2.455050    1.110904
  H      2.919591    3.821529    2.034641
  H     -3.560990    0.794132    1.447060
  H     -2.202551    1.939330    1.209285
  H     -2.499012    1.228049    2.823715
  H     -4.690507   -2.427987   -0.602193
  H     -3.049029   -3.018707   -0.998986
  H     -3.738958   -1.636676   -1.897562

 Total Charge           Charge          ....    0
 Multiplicity           Mult            ....    1
 Number of Electrons    NEL             ....  174
 Basis Dimension        Dim             ....  316

ORBITAL ENERGIES
----------------

  NO   OCC          E(Eh)            E(eV)
   0   2.0000     -88.032846     -2395.4955
   1   2.0000     -87.972568     -2393.8553
   2   2.0000     -76.419250     -2079.4735
   3   2.0000     -18.804299      -511.6910
   4   2.0000     -18.803889      -511.6798
   5   2.0000     -18.785067      -511.1677
   6   2.0000     -18.779848      -511.0256
   7   2.0000     -18.741270      -509.9759
   8   2.0000     -18.735429      -509.8169
   9   2.0000     -10.014573      -272.5104
  10   2.0000     -10.014518      -272.5089
  11   2.0000      -9.949003      -270.7261
  12   2.0000      -9.947775      -270.6927
  13   2.0000      -9.943011      -270.5631
  14   2.0000      -9.938298      -270.4348
  15   2.0000      -9.927532      -270.1419
  16   2.0000      -9.912000      -269.7192
  17   2.0000      -9.886423      -269.0232
  18   2.0000      -9.884146      -268.9613
  19   2.0000      -7.677683      -208.9204
  20   2.0000      -7.617978      -207.2957
  21   2.0000      -6.415854      -174.5843
  22   2.0000      -5.705811      -155.2630
  23   2.0000      -5.702121      -155.1626
  24   2.0000      -5.694465      -154.9543
  25   2.0000      -5.647053      -153.6641
  26   2.0000      -5.638285      -153.4255
  27   2.0000      -5.638144      -153.4217
  28   2.0000      -4.638887      -126.2305
  29   2.0000      -4.637799      -126.2009
  30   2.0000      -4.635962      -126.1509
  31   2.0000      -1.015788       -27.6410
  32   2.0000      -1.009554       -27.4714
  33   2.0000      -0.976388       -26.5689
  34   2.0000      -0.931682       -25.3524
  35   2.0000      -0.919031       -25.0081
  36   2.0000      -0.915368       -24.9084
  37   2.0000      -0.762049       -20.7364
  38   2.0000      -0.711802       -19.3691
  39   2.0000      -0.703846       -19.1526
  40   2.0000      -0.687114       -18.6973
  41   2.0000      -0.655430       -17.8352
  42   2.0000      -0.628403       -17.0997
  43   2.0000      -0.620369       -16.8811
  44   2.0000      -0.607742       -16.5375
  45   2.0000      -0.587827       -15.9956
  46   2.0000      -0.562009       -15.2930
  47   2.0000      -0.509253       -13.8575
  48   2.0000      -0.507457       -13.8086
  49   2.0000      -0.495707       -13.4889
  50   2.0000      -0.483066       -13.1449
  51   2.0000      -0.464911       -12.6509
  52   2.0000      -0.453304       -12.3350
  53   2.0000      -0.446633       -12.1535
  54   2.0000      -0.432688       -11.7741
  55   2.0000      -0.424569       -11.5531
  56   2.0000      -0.421673       -11.4743
  57   2.0000      -0.416330       -11.3289
  58   2.0000      -0.414621       -11.2824
  59   2.0000      -0.406108       -11.0508
  60   2.0000      -0.401447       -10.9239
  61   2.0000      -0.392557       -10.6820
  62   2.0000      -0.386170       -10.5082
  63   2.0000      -0.382462       -10.4073
  64   2.0000      -0.376484       -10.2447
  65   2.0000      -0.359335        -9.7780
  66   2.0000      -0.357755        -9.7350
  67   2.0000      -0.355529        -9.6744
  68   2.0000      -0.341856        -9.3024
  69   2.0000      -0.333996        -9.0885
  70   2.0000      -0.331056        -9.0085
  71   2.0000      -0.326335        -8.8800
  72   2.0000      -0.317717        -8.6455
  73   2.0000      -0.308421        -8.3926
  74   2.0000      -0.299521        -8.1504
  75   2.0000      -0.295705        -8.0465
  76   2.0000      -0.293526        -7.9872
  77   2.0000      -0.285445        -7.7673
  78   2.0000      -0.264193        -7.1890
  79   2.0000      -0.258976        -7.0471
  80   2.0000      -0.252976        -6.8838
  81   2.0000      -0.249404        -6.7866
  82   2.0000      -0.230796        -6.2803
  83   2.0000      -0.227995        -6.2041
  84   2.0000      -0.218551        -5.9471
  85   2.0000      -0.192146        -5.2286
  86   2.0000      -0.185755        -5.0546
  87   0.0000      -0.035583        -0.9683
  88   0.0000      -0.020742        -0.5644
  89   0.0000      -0.018924        -0.5150
  90   0.0000      -0.005444        -0.1481
  91   0.0000       0.031250         0.8504

MULLIKEN ATOMIC CHARGES
-----------------------
   0 C :   -0.275740
   1 C :   -0.034680
   2 O :   -0.210749
   3 C :    0.123980
   4 O :   -0.218515
   5 C :   -0.070006
   6 C :   -0.293386
   7 H :    0.144160
   8 C :    0.212634
   9 O :   -0.179063
  10 O :   -0.247634
  11 C :   -0.015249
  12 C :   -0.311878
  13 S :   -0.099527
  14 P :    0.632402
  15 S :   -0.342745
  16 O :   -0.349824
  17 C :   -0.124781
  18 O :   -0.392787
  19 C :   -0.103238
  20 H :    0.109801
  21 H :    0.112140
  22 H :    0.118570
  23 H :    0.108728
  24 H :    0.121785
  25 H :    0.139206
  26 H :    0.123132
  27 H :    0.101026
  28 H :    0.111183
  29 H :    0.147480
  30 H :    0.108347
  31 H :    0.110096
  32 H :    0.114555
  33 H :    0.152804
  34 H :    0.119560
  35 H :    0.122940
  36 H :    0.117796
  37 H :    0.117477
Sum of atomic charges:   -0.0000000

LOEWDIN ATOMIC CHARGES
----------------------
   0 C :   -0.350727
   1 C :   -0.108608
   2 O :   -0.039336
   3 C :    0.020955
   4 O :   -0.161414
   5 C :   -0.256769
   6 C :   -0.262312
   7 H :    0.151364
   8 C :    0.016422
   9 O :   -0.159458
  10 O :   -0.064317
  11 C :   -0.108316
  12 C :   -0.358588
  13 S :    0.102886
  14 P :    0.579042
  15 S :   -0.316702
  16 O :   -0.224720
  17 C :   -0.214975
  18 O :   -0.260706
  19 C :   -0.217611
  20 H :    0.123700
  21 H :    0.131172
  22 H :    0.128506
  23 H :    0.116325
  24 H :    0.119276
  25 H :    0.148076
  26 H :    0.148289
  27 H :    0.115982
  28 H :    0.120778
  29 H :    0.136364
  30 H :    0.121323
  31 H :    0.128819
  32 H :    0.110258
  33 H :    0.123389
  34 H :    0.121643
  35 H :    0.121296
  36 H :    0.109845
  37 H :    0.108847

  Mayer bond orders larger than 0.100000
B(  0-C ,  1-C ) :   1.1543 B(  0-C , 20-H ) :   0.9519 B(  0-C , 21-H ) :   0.9442
B(  0-C , 22-H ) :   0.9482 B(  1-C ,  2-O ) :   0.8989 B(  1-C , 23-H ) :   0.9257
B(  1-C , 24-H ) :   0.9211 B(  2-O ,  3-C ) :   1.2770 B(  3-C ,  4-O ) :   1.8880
B(  3-C ,  5-C ) :   1.0104 B(  5-C ,  6-C ) :   1.0371 B(  5-C , 25-H ) :   0.8859
B(  5-C , 26-H ) :   0.8724 B(  6-C ,  7-H ) :   0.8655 B(  6-C ,  8-C ) :   0.8652
B(  6-C , 13-S ) :   1.0567 B(  8-C ,  9-O ) :   2.0500 B(  8-C , 10-O ) :   1.2202
B( 10-O , 11-C ) :   0.9134 B( 11-C , 12-C ) :   1.1777 B( 11-C , 27-H ) :   0.9377
B( 11-C , 28-H ) :   0.9095 B( 12-C , 29-H ) :   0.9355 B( 12-C , 30-H ) :   0.9498
B( 12-C , 31-H ) :   0.9423 B( 13-S , 14-P ) :   0.9723 B( 13-S , 15-S ) :   0.1137
B( 14-P , 15-S ) :   1.5946 B( 14-P , 16-O ) :   1.1545 B( 14-P , 18-O ) :   1.0507
B( 16-O , 17-C ) :   0.9097 B( 17-C , 32-H ) :   0.9428 B( 17-C , 33-H ) :   0.9237
B( 17-C , 34-H ) :   0.9589 B( 18-O , 19-C ) :   0.9345 B( 19-C , 35-H ) :   0.9586
B( 19-C , 36-H ) :   0.9305 B( 19-C , 37-H ) :   0.9493

Dispersion correction           -0.054698612
FINAL SINGLE POINT ENERGY     -1979.013258659061

DIPOLE MOMENT
-------------

Method             : SCF
Type of density    : Electron Density
Multiplicity       :   1
Irrep              :   0
Energy             : -1979.1437701136192118 Eh
Relativity type    :
Basis              : AO
                                X                 Y                 Z
Electronic contribution:    -14.306104230      -3.864652479      -7.093280214
Nuclear contribution   :     15.052897189       4.514317300       6.699150048
                        -----------------------------------------
Total Dipole Moment    :      0.746792959       0.649664821      -0.394130165
                        -----------------------------------------
Magnitude (a.u.)       :      1.065411981
Magnitude (Debye)      :      2.708062044

Rotational constants in cm-1:             0.012428             0.008765             0.006516
Rotational constants in MHz :           372.579015           262.779131           195.357919

                             ****ORCA TERMINATED NORMALLY****
TOTAL RUN TIME: 0 days 0 hours 0 minutes 37 seconds 749 msec
