                         Program Version 6.0.0  -   RELEASE  -
|  1> ! pbe def2-sv(p) def2/J RI DEFGRID1 loosescf d4 GCP(DFT/SV(P)) printgap
|  2> %output
|  3>     printlevel normal
|  4> end
|  5> * xyz 0 1
|  6> C 4.7165950981 1.071086473 -1.8896555517
|  7> C 4.1532534318 -0.0522685561 -1.043934976
|  8> O 3.2438327025 0.5330523192 -0.0733146894
|  9> P 2.1315620611 -0.2897540382 0.6802673388
| 10> S 1.3621396519 0.8061995996 2.105156428
| 11> O 2.9315147046 -1.5841505412 1.1470974531
| 12> C 2.3361663106 -2.8482630044 1.4916685206
| 13> C 1.1811257945 -2.7077322561 2.4603536749
| 14> S 0.8942317894 -1.1068945918 -0.8754356854
| 15> C 0.5390056882 0.409125973 -1.7993608969
| 16> S -0.3718118663 1.6602341226 -0.8491352941
| 17> P -2.0427512844 0.4503354324 -0.3962587218
| 18> S -2.6354914365 -0.7433064872 -1.8398199495
| 19> O -3.1608245314 1.4509361317 0.1248159844
| 20> C -4.127452556 2.0420827581 -0.7622323868
| 21> C -3.4989488869 3.0714260085 -1.6784774751
| 22> O -1.5378783668 -0.2033621927 0.9552826474
| 23> C -2.3961846086 -0.753114653 1.9781156995
| 24> C -2.9777770406 -2.0899946209 1.5653663462
| 25> H 5.2193254008 1.7954075746 -1.2553026938
| 26> H 5.4273698929 0.6592047899 -2.5988306945
| 27> H 3.924146675 1.5792030655 -2.4328306185
| 28> H 4.9391159575 -0.5657674244 -0.4876432569
| 29> H 3.6067293887 -0.7820755597 -1.6482962189
| 30> H 2.0062388174 -3.3292760836 0.5660764637
| 31> H 3.1613890229 -3.4120792163 1.9301447052
| 32> H 0.3810521587 -2.1310006792 1.9966437231
| 33> H 0.805326985 -3.6912689878 2.7236571455
| 34> H 1.5009074209 -2.1871803277 3.3601615424
| 35> H -0.0613313987 0.0917392467 -2.6523836143
| 36> H 1.4621973066 0.8851132155 -2.120277401
| 37> H -4.5947821577 1.2419741263 -1.34552667
| 38> H -4.859602639 2.4917882941 -0.0903036337
| 39> H -2.8179561629 2.5829299375 -2.374198639
| 40> H -4.2780909974 3.574650561 -2.2417947388
| 41> H -2.9408608272 3.8025909609 -1.0987215213
| 42> H -1.7332010615 -0.845346114 2.8411811101
| 43> H -3.1823948897 -0.0278824384 2.1985722782
| 44> H -2.1834872785 -2.7787624395 1.2875983918
| 45> H -3.5410620977 -2.5060487987 2.3944754232
| 46> H -3.6399150717 -1.9657874919 0.7100432388
| 47> *
| 48>
| 49>                          ****END OF INPUT****

CARTESIAN COORDINATES (ANGSTROEM)
---------------------------------
  C      4.716595    1.071086   -1.889656
  C      4.153253   -0.052269   -1.043935
  O      3.243833    0.533052   -0.073315
  P      2.131562   -0.289754    0.680267
  S      1.362140    0.806200    2.105156
  O      2.931515   -1.584151    1.147097
  C      2.336166   -2.848263    1.491669
  C      1.181126   -2.707732    2.460354
  S      0.894232   -1.106895   -0.875436
  C      0.539006    0.409126   -1.799361
  S     -0.371812    1.660234   -0.849135
  P     -2.042751    0.450335   -0.396259
  S     -2.635491   -0.743306   -1.839820
  O     -3.160825    1.450936    0.124816
  C     -4.127453    2.042083   -0.762232
  C     -3.498949    3.071426   -1.678477
  O     -1.537878   -0.203362    0.955283
  C     -2.396185   -0.753115    1.978116
  C     -2.977777   -2.089995    1.565366
  H      5.219325    1.795408   -1.255303
  H      5.427370    0.659205   -2.598831
  H      3.924147    1.579203   -2.432831
  H      4.939116   -0.565767   -0.487643
  H      3.606729   -0.782076   -1.648296
  H      2.006239   -3.329276    0.566076
  H      3.161389   -3.412079    1.930145
  H      0.381052   -2.131001    1.996644
  H      0.805327   -3.691269    2.723657
  H      1.500907   -2.187180    3.360162
  H     -0.061331    0.091739   -2.652384
  H      1.462197    0.885113   -2.120277
  H     -4.594782    1.241974   -1.345527
  H     -4.859603    2.491788   -0.090304
  H     -2.817956    2.582930   -2.374199
  H     -4.278091    3.574651   -2.241795
  H     -2.940861    3.802591   -1.098722
  H     -1.733201   -0.845346    2.841181
  H     -3.182395   -0.027882    2.198572
  H     -2.183487   -2.778762    1.287598
  H     -3.541062   -2.506049    2.394475
  H     -3.639915   -1.965787    0.710043

 Total Charge           Charge          ....    0
 Multiplicity           Mult            ....    1
 Number of Electrons    NEL             ....  202
 Basis Dimension        Dim             ....  334

ORBITAL ENERGIES
----------------

  NO   OCC          E(Eh)            E(eV)
   0   2.0000     -88.040301     -2395.6984
   1   2.0000     -88.037501     -2395.6222
   2   2.0000     -87.984524     -2394.1806
   3   2.0000     -87.971776     -2393.8337
   4   2.0000     -76.424857     -2079.6261
   5   2.0000     -76.420633     -2079.5112
   6   2.0000     -18.794769      -511.4317
   7   2.0000     -18.790149      -511.3059
   8   2.0000     -18.789019      -511.2752
   9   2.0000     -18.782000      -511.0842
  10   2.0000      -9.959213      -271.0040
  11   2.0000      -9.958487      -270.9842
  12   2.0000      -9.955917      -270.9143
  13   2.0000      -9.952060      -270.8093
  14   2.0000      -9.948109      -270.7018
  15   2.0000      -9.892744      -269.1952
  16   2.0000      -9.884337      -268.9665
  17   2.0000      -9.883243      -268.9367
  18   2.0000      -9.878851      -268.8172
  19   2.0000      -7.684623      -209.1092
  20   2.0000      -7.682788      -209.0593
  21   2.0000      -7.629551      -207.6106
  22   2.0000      -7.617130      -207.2726
  23   2.0000      -6.422068      -174.7534
  24   2.0000      -6.417678      -174.6339
  25   2.0000      -5.712428      -155.4431
  26   2.0000      -5.710793      -155.3986
  27   2.0000      -5.709147      -155.3538
  28   2.0000      -5.707463      -155.3080
  29   2.0000      -5.701764      -155.1529
  30   2.0000      -5.699366      -155.0876
  31   2.0000      -5.658302      -153.9702
  32   2.0000      -5.650374      -153.7545
  33   2.0000      -5.649695      -153.7360
  34   2.0000      -5.646345      -153.6449
  35   2.0000      -5.637544      -153.4054
  36   2.0000      -5.637168      -153.3951
  37   2.0000      -4.645054      -126.3983
  38   2.0000      -4.643580      -126.3582
  39   2.0000      -4.642448      -126.3274
  40   2.0000      -4.640863      -126.2843
  41   2.0000      -4.639787      -126.2550
  42   2.0000      -4.637313      -126.1877
  43   2.0000      -0.985614       -26.8199
  44   2.0000      -0.985232       -26.8095
  45   2.0000      -0.942675       -25.6515
  46   2.0000      -0.940666       -25.5968
  47   2.0000      -0.762668       -20.7533
  48   2.0000      -0.719562       -19.5803
  49   2.0000      -0.709196       -19.2982
  50   2.0000      -0.691409       -18.8142
  51   2.0000      -0.685867       -18.6634
  52   2.0000      -0.671388       -18.2694
  53   2.0000      -0.648113       -17.6361
  54   2.0000      -0.636537       -17.3211
  55   2.0000      -0.594379       -16.1739
  56   2.0000      -0.584547       -15.9063
  57   2.0000      -0.575078       -15.6487
  58   2.0000      -0.572294       -15.5729
  59   2.0000      -0.562199       -15.2982
  60   2.0000      -0.508213       -13.8292
  61   2.0000      -0.495711       -13.4890
  62   2.0000      -0.473527       -12.8853
  63   2.0000      -0.469024       -12.7628
  64   2.0000      -0.462277       -12.5792
  65   2.0000      -0.446493       -12.1497
  66   2.0000      -0.437565       -11.9068
  67   2.0000      -0.432742       -11.7755
  68   2.0000      -0.425219       -11.5708
  69   2.0000      -0.416374       -11.3301
  70   2.0000      -0.409469       -11.1422
  71   2.0000      -0.402433       -10.9508
  72   2.0000      -0.394527       -10.7356
  73   2.0000      -0.387290       -10.5387
  74   2.0000      -0.375702       -10.2234
  75   2.0000      -0.370536       -10.0828
  76   2.0000      -0.363837        -9.9005
  77   2.0000      -0.359052        -9.7703
  78   2.0000      -0.352455        -9.5908
  79   2.0000      -0.349869        -9.5204
  80   2.0000      -0.346043        -9.4163
  81   2.0000      -0.343009        -9.3337
  82   2.0000      -0.340430        -9.2636
  83   2.0000      -0.338793        -9.2190
  84   2.0000      -0.332892        -9.0584
  85   2.0000      -0.321733        -8.7548
  86   2.0000      -0.311373        -8.4729
  87   2.0000      -0.296334        -8.0637
  88   2.0000      -0.295008        -8.0276
  89   2.0000      -0.294012        -8.0005
  90   2.0000      -0.285620        -7.7721
  91   2.0000      -0.274669        -7.4741
  92   2.0000      -0.272288        -7.4093
  93   2.0000      -0.258935        -7.0460
  94   2.0000      -0.254693        -6.9305
  95   2.0000      -0.238540        -6.4910
  96   2.0000      -0.213472        -5.8089
  97   2.0000      -0.204884        -5.5752
  98   2.0000      -0.198641        -5.4053
  99   2.0000      -0.187661        -5.1065
 100   2.0000      -0.179389        -4.8814
 101   0.0000      -0.047231        -1.2852
 102   0.0000      -0.023010        -0.6261
 103   0.0000      -0.012030        -0.3273
 104   0.0000       0.000472         0.0129
 105   0.0000       0.021358         0.5812

MULLIKEN ATOMIC CHARGES
-----------------------
   0 C :   -0.289758
   1 C :   -0.014893
   2 O :   -0.365029
   3 P :    0.587613
   4 S :   -0.287750
   5 O :   -0.385464
   6 C :   -0.006458
   7 C :   -0.353316
   8 S :   -0.115903
   9 C :   -0.357921
  10 S :   -0.063384
  11 P :    0.636711
  12 S :   -0.343887
  13 O :   -0.378259
  14 C :   -0.005003
  15 C :   -0.315158
  16 O :   -0.355177
  17 C :   -0.004312
  18 C :   -0.309269
  19 H :    0.126023
  20 H :    0.112519
  21 H :    0.121658
  22 H :    0.110982
  23 H :    0.099741
  24 H :    0.113199
  25 H :    0.109852
  26 H :    0.164449
  27 H :    0.111695
  28 H :    0.129315
  29 H :    0.192256
  30 H :    0.189602
  31 H :    0.111621
  32 H :    0.104645
  33 H :    0.124958
  34 H :    0.112889
  35 H :    0.120195
  36 H :    0.113994
  37 H :    0.108733
  38 H :    0.117797
  39 H :    0.106328
  40 H :    0.124166
Sum of atomic charges:    0.0000000

LOEWDIN ATOMIC CHARGES
----------------------
   0 C :   -0.350406
   1 C :   -0.118907
   2 O :   -0.241564
   3 P :    0.560799
   4 S :   -0.299644
   5 O :   -0.251441
   6 C :   -0.114146
   7 C :   -0.375008
   8 S :    0.067882
   9 C :   -0.477075
  10 S :    0.101414
  11 P :    0.575280
  12 S :   -0.329758
  13 O :   -0.242235
  14 C :   -0.120443
  15 C :   -0.369056
  16 O :   -0.233824
  17 C :   -0.111115
  18 C :   -0.365162
  19 H :    0.132262
  20 H :    0.131165
  21 H :    0.123410
  22 H :    0.117894
  23 H :    0.102081
  24 H :    0.108102
  25 H :    0.121556
  26 H :    0.125083
  27 H :    0.129310
  28 H :    0.131066
  29 H :    0.131855
  30 H :    0.128630
  31 H :    0.109864
  32 H :    0.118124
  33 H :    0.120485
  34 H :    0.131173
  35 H :    0.125954
  36 H :    0.119414
  37 H :    0.111689
  38 H :    0.125961
  39 H :    0.127335
  40 H :    0.121997

  Mayer bond orders larger than 0.100000
B(  0-C ,  1-C ) :   1.1591 B(  0-C , 19-H ) :   0.9467 B(  0-C , 20-H ) :   0.9405
B(  0-C , 21-H ) :   0.9496 B(  1-C ,  2-O ) :   0.8870 B(  1-C , 22-H ) :   0.9308
B(  1-C , 23-H ) :   0.9107 B(  2-O ,  3-P ) :   1.1130 B(  3-P ,  4-S ) :   1.7086
B(  3-P ,  5-O ) :   1.0685 B(  3-P ,  8-S ) :   0.9224 B(  4-S ,  8-S ) :   0.1152
B(  5-O ,  6-C ) :   0.9206 B(  6-C ,  7-C ) :   1.1675 B(  6-C , 24-H ) :   0.9245
B(  6-C , 25-H ) :   0.9334 B(  7-C , 26-H ) :   0.9184 B(  7-C , 27-H ) :   0.9334
B(  7-C , 28-H ) :   0.9389 B(  8-S ,  9-C ) :   1.0060 B(  9-C , 10-S ) :   1.0119
B(  9-C , 29-H ) :   0.8851 B(  9-C , 30-H ) :   0.8935 B( 10-S , 11-P ) :   0.9572
B( 10-S , 12-S ) :   0.1169 B( 11-P , 12-S ) :   1.5936 B( 11-P , 13-O ) :   1.0960
B( 11-P , 16-O ) :   1.1323 B( 13-O , 14-C ) :   0.9058 B( 14-C , 15-C ) :   1.1661
B( 14-C , 31-H ) :   0.9128 B( 14-C , 32-H ) :   0.9328 B( 15-C , 33-H ) :   0.9344
B( 15-C , 34-H ) :   0.9380 B( 15-C , 35-H ) :   0.9453 B( 16-O , 17-C ) :   0.8999
B( 17-C , 18-C ) :   1.1677 B( 17-C , 36-H ) :   0.9252 B( 17-C , 37-H ) :   0.9278
B( 18-C , 38-H ) :   0.9484 B( 18-C , 39-H ) :   0.9383 B( 18-C , 40-H ) :   0.9343

Dispersion correction           -0.067044006
FINAL SINGLE POINT ENERGY     -2929.510185028440

DIPOLE MOMENT
-------------

Method             : SCF
Type of density    : Electron Density
Multiplicity       :   1
Irrep              :   0
Energy             : -2929.6277909466462006 Eh
Relativity type    :
Basis              : AO
                                X                 Y                 Z
Electronic contribution:      1.546001662       4.833305224       0.130866542
Nuclear contribution   :     -1.348141186      -5.335122355      -0.496308134
                        -----------------------------------------
Total Dipole Moment    :      0.197860476      -0.501817131      -0.365441592
                        -----------------------------------------
Magnitude (a.u.)       :      0.651549505
Magnitude (Debye)      :      1.656107230

Rotational constants in cm-1:             0.011710             0.005670             0.004764
Rotational constants in MHz :           351.062787           169.971394           142.829976

                             ****ORCA TERMINATED NORMALLY****
TOTAL RUN TIME: 0 days 0 hours 0 minutes 21 seconds 362 msec
