                         Program Version 6.0.0  -   RELEASE  -
|  1> ! pbe def2-sv(p) def2/J RI DEFGRID1 loosescf d4 GCP(DFT/SV(P)) printgap
|  2> %output
|  3>     printlevel normal
|  4> end
|  5> * xyz 0 1
|  6> C 4.1877784275 -2.1776689497 0.9017799761
|  7> C 4.2908193903 -0.8877494123 0.1115037602
|  8> O 3.1942018295 -0.7752730014 -0.8328338338
|  9> P 1.9584487327 0.187213942 -0.6709851754
| 10> S 0.9021378131 0.1266917991 -2.3156130117
| 11> O 2.6642958923 1.5514751126 -0.2710053726
| 12> C 2.0100038939 2.7857024209 0.0777811129
| 13> C 1.5800089161 3.5574784983 -1.1527311029
| 14> S 1.0499736179 -0.3764484433 1.1827569638
| 15> C 0.3594979814 -1.9691313333 0.6837465176
| 16> S -1.0906359027 -1.8786694531 -0.4280049222
| 17> P -2.0735478402 -0.1743438405 0.3288343032
| 18> S -1.4479825369 1.6707638515 0.0545633372
| 19> O -2.2264098786 -0.6287008228 1.83356486
| 20> C -2.376131083 0.2754254786 2.9524365051
| 21> C -1.4029036945 -0.1297514778 4.041266326
| 22> O -3.5487813209 -0.3826275709 -0.2348808357
| 23> C -3.9818332621 0.1748117783 -1.4856348285
| 24> C -3.272071109 -0.4603157572 -2.6645142751
| 25> H 4.0847065634 -3.0216137834 0.2249861399
| 26> H 5.0933628238 -2.3020186539 1.487157633
| 27> H 3.3347711158 -2.1511322339 1.5750567073
| 28> H 5.1856761584 -0.8773080201 -0.5126570851
| 29> H 4.2907964275 -0.0152922235 0.7665268227
| 30> H 1.1499098161 2.5744849797 0.7182234163
| 31> H 2.7676709156 3.3306487136 0.6441706053
| 32> H 0.7957258938 3.0172756459 -1.6792599317
| 33> H 1.1907323988 4.5235903737 -0.8487255666
| 34> H 2.4228035127 3.6974528976 -1.824320479
| 35> H 0.0620845377 -2.4691654754 1.6028269618
| 36> H 1.1078056539 -2.5458449958 0.1419419952
| 37> H -2.1869767228 1.2979821128 2.6084356093
| 38> H -3.4121128903 0.1899666478 3.2856183556
| 39> H -0.3804294939 -0.0435879163 3.6800171739
| 40> H -1.5368960112 0.5244760101 4.8964104325
| 41> H -1.5875714044 -1.1569007343 4.3418267436
| 42> H -5.05434732 -0.0228585387 -1.5049923355
| 43> H -3.8012548764 1.2548818832 -1.4654040043
| 44> H -3.3794458175 -1.5419916763 -2.6336966749
| 45> H -3.6938907294 -0.0808612604 -3.5895827844
| 46> H -2.2084216128 -0.2160920237 -2.6411684657
| 47> *
| 48>
| 49>                          ****END OF INPUT****

CARTESIAN COORDINATES (ANGSTROEM)
---------------------------------
  C      4.187778   -2.177669    0.901780
  C      4.290819   -0.887749    0.111504
  O      3.194202   -0.775273   -0.832834
  P      1.958449    0.187214   -0.670985
  S      0.902138    0.126692   -2.315613
  O      2.664296    1.551475   -0.271005
  C      2.010004    2.785702    0.077781
  C      1.580009    3.557478   -1.152731
  S      1.049974   -0.376448    1.182757
  C      0.359498   -1.969131    0.683747
  S     -1.090636   -1.878669   -0.428005
  P     -2.073548   -0.174344    0.328834
  S     -1.447983    1.670764    0.054563
  O     -2.226410   -0.628701    1.833565
  C     -2.376131    0.275425    2.952437
  C     -1.402904   -0.129751    4.041266
  O     -3.548781   -0.382628   -0.234881
  C     -3.981833    0.174812   -1.485635
  C     -3.272071   -0.460316   -2.664514
  H      4.084707   -3.021614    0.224986
  H      5.093363   -2.302019    1.487158
  H      3.334771   -2.151132    1.575057
  H      5.185676   -0.877308   -0.512657
  H      4.290796   -0.015292    0.766527
  H      1.149910    2.574485    0.718223
  H      2.767671    3.330649    0.644171
  H      0.795726    3.017276   -1.679260
  H      1.190732    4.523590   -0.848726
  H      2.422804    3.697453   -1.824320
  H      0.062085   -2.469165    1.602827
  H      1.107806   -2.545845    0.141942
  H     -2.186977    1.297982    2.608436
  H     -3.412113    0.189967    3.285618
  H     -0.380429   -0.043588    3.680017
  H     -1.536896    0.524476    4.896410
  H     -1.587571   -1.156901    4.341827
  H     -5.054347   -0.022859   -1.504992
  H     -3.801255    1.254882   -1.465404
  H     -3.379446   -1.541992   -2.633697
  H     -3.693891   -0.080861   -3.589583
  H     -2.208422   -0.216092   -2.641168

 Total Charge           Charge          ....    0
 Multiplicity           Mult            ....    1
 Number of Electrons    NEL             ....  202
 Basis Dimension        Dim             ....  334

ORBITAL ENERGIES
----------------

  NO   OCC          E(Eh)            E(eV)
   0   2.0000     -88.045532     -2395.8407
   1   2.0000     -88.034825     -2395.5494
   2   2.0000     -87.979948     -2394.0561
   3   2.0000     -87.975200     -2393.9269
   4   2.0000     -76.423376     -2079.5858
   5   2.0000     -76.422337     -2079.5575
   6   2.0000     -18.791312      -511.3376
   7   2.0000     -18.789042      -511.2758
   8   2.0000     -18.788664      -511.2655
   9   2.0000     -18.783320      -511.1201
  10   2.0000      -9.961440      -271.0646
  11   2.0000      -9.956164      -270.9210
  12   2.0000      -9.949788      -270.7475
  13   2.0000      -9.949577      -270.7418
  14   2.0000      -9.943693      -270.5816
  15   2.0000      -9.890425      -269.1321
  16   2.0000      -9.886754      -269.0323
  17   2.0000      -9.875137      -268.7161
  18   2.0000      -9.872479      -268.6438
  19   2.0000      -7.689550      -209.2433
  20   2.0000      -7.680122      -208.9868
  21   2.0000      -7.624738      -207.4797
  22   2.0000      -7.620214      -207.3566
  23   2.0000      -6.420316      -174.7057
  24   2.0000      -6.419490      -174.6832
  25   2.0000      -5.717325      -155.5763
  26   2.0000      -5.714082      -155.4881
  27   2.0000      -5.708400      -155.3335
  28   2.0000      -5.706686      -155.2868
  29   2.0000      -5.704696      -155.2327
  30   2.0000      -5.696555      -155.0112
  31   2.0000      -5.653502      -153.8396
  32   2.0000      -5.649406      -153.7282
  33   2.0000      -5.645461      -153.6208
  34   2.0000      -5.644923      -153.6062
  35   2.0000      -5.640734      -153.4922
  36   2.0000      -5.640180      -153.4771
  37   2.0000      -4.643311      -126.3509
  38   2.0000      -4.642322      -126.3240
  39   2.0000      -4.642179      -126.3201
  40   2.0000      -4.641358      -126.2978
  41   2.0000      -4.640241      -126.2674
  42   2.0000      -4.639813      -126.2557
  43   2.0000      -0.985946       -26.8290
  44   2.0000      -0.980738       -26.6872
  45   2.0000      -0.941952       -25.6318
  46   2.0000      -0.940747       -25.5990
  47   2.0000      -0.762351       -20.7446
  48   2.0000      -0.719022       -19.5656
  49   2.0000      -0.710260       -19.3272
  50   2.0000      -0.686963       -18.6932
  51   2.0000      -0.680819       -18.5260
  52   2.0000      -0.668948       -18.2030
  53   2.0000      -0.649009       -17.6604
  54   2.0000      -0.634742       -17.2722
  55   2.0000      -0.594012       -16.1639
  56   2.0000      -0.580109       -15.7856
  57   2.0000      -0.576485       -15.6870
  58   2.0000      -0.568079       -15.4582
  59   2.0000      -0.563513       -15.3340
  60   2.0000      -0.504439       -13.7265
  61   2.0000      -0.497248       -13.5308
  62   2.0000      -0.475694       -12.9443
  63   2.0000      -0.466742       -12.7007
  64   2.0000      -0.456494       -12.4218
  65   2.0000      -0.442657       -12.0453
  66   2.0000      -0.436848       -11.8872
  67   2.0000      -0.430401       -11.7118
  68   2.0000      -0.426664       -11.6101
  69   2.0000      -0.415605       -11.3092
  70   2.0000      -0.404083       -10.9957
  71   2.0000      -0.397403       -10.8139
  72   2.0000      -0.388722       -10.5777
  73   2.0000      -0.386256       -10.5105
  74   2.0000      -0.382730       -10.4146
  75   2.0000      -0.372085       -10.1249
  76   2.0000      -0.360306        -9.8044
  77   2.0000      -0.359271        -9.7763
  78   2.0000      -0.354353        -9.6424
  79   2.0000      -0.352139        -9.5822
  80   2.0000      -0.344683        -9.3793
  81   2.0000      -0.340738        -9.2720
  82   2.0000      -0.338533        -9.2120
  83   2.0000      -0.330022        -8.9804
  84   2.0000      -0.327555        -8.9132
  85   2.0000      -0.319455        -8.6928
  86   2.0000      -0.310361        -8.4453
  87   2.0000      -0.297275        -8.0893
  88   2.0000      -0.291445        -7.9306
  89   2.0000      -0.288942        -7.8625
  90   2.0000      -0.280059        -7.6208
  91   2.0000      -0.274446        -7.4681
  92   2.0000      -0.268294        -7.3007
  93   2.0000      -0.257433        -7.0051
  94   2.0000      -0.255619        -6.9557
  95   2.0000      -0.246554        -6.7091
  96   2.0000      -0.222005        -6.0411
  97   2.0000      -0.206195        -5.6108
  98   2.0000      -0.188547        -5.1306
  99   2.0000      -0.180815        -4.9202
 100   2.0000      -0.179484        -4.8840
 101   0.0000      -0.051002        -1.3878
 102   0.0000      -0.030777        -0.8375
 103   0.0000      -0.012883        -0.3506
 104   0.0000      -0.000121        -0.0033
 105   0.0000       0.019815         0.5392

MULLIKEN ATOMIC CHARGES
-----------------------
   0 C :   -0.301147
   1 C :   -0.006152
   2 O :   -0.363130
   3 P :    0.613740
   4 S :   -0.282388
   5 O :   -0.382824
   6 C :   -0.017424
   7 C :   -0.301625
   8 S :   -0.135446
   9 C :   -0.320707
  10 S :   -0.079959
  11 P :    0.616796
  12 S :   -0.330016
  13 O :   -0.374000
  14 C :   -0.000904
  15 C :   -0.301343
  16 O :   -0.369170
  17 C :    0.000313
  18 C :   -0.341608
  19 H :    0.121243
  20 H :    0.111726
  21 H :    0.119621
  22 H :    0.111365
  23 H :    0.105587
  24 H :    0.120919
  25 H :    0.099364
  26 H :    0.144503
  27 H :    0.105020
  28 H :    0.111641
  29 H :    0.186035
  30 H :    0.184338
  31 H :    0.105900
  32 H :    0.105247
  33 H :    0.125652
  34 H :    0.110467
  35 H :    0.113773
  36 H :    0.101749
  37 H :    0.109462
  38 H :    0.118296
  39 H :    0.112307
  40 H :    0.152779
Sum of atomic charges:    0.0000000

LOEWDIN ATOMIC CHARGES
----------------------
   0 C :   -0.362924
   1 C :   -0.112428
   2 O :   -0.240453
   3 P :    0.560281
   4 S :   -0.290580
   5 O :   -0.244621
   6 C :   -0.115739
   7 C :   -0.364386
   8 S :    0.073560
   9 C :   -0.469573
  10 S :    0.092823
  11 P :    0.568403
  12 S :   -0.313144
  13 O :   -0.245805
  14 C :   -0.116713
  15 C :   -0.357929
  16 O :   -0.246679
  17 C :   -0.121605
  18 C :   -0.373833
  19 H :    0.127708
  20 H :    0.130938
  21 H :    0.118062
  22 H :    0.122384
  23 H :    0.110439
  24 H :    0.105891
  25 H :    0.115240
  26 H :    0.127292
  27 H :    0.128361
  28 H :    0.125139
  29 H :    0.134934
  30 H :    0.132496
  31 H :    0.105652
  32 H :    0.116412
  33 H :    0.119204
  34 H :    0.130354
  35 H :    0.124312
  36 H :    0.117028
  37 H :    0.108559
  38 H :    0.123513
  39 H :    0.131314
  40 H :    0.126113

  Mayer bond orders larger than 0.100000
B(  0-C ,  1-C ) :   1.1659 B(  0-C , 19-H ) :   0.9446 B(  0-C , 20-H ) :   0.9397
B(  0-C , 21-H ) :   0.9345 B(  1-C ,  2-O ) :   0.8978 B(  1-C , 22-H ) :   0.9352
B(  1-C , 23-H ) :   0.9175 B(  2-O ,  3-P ) :   1.1180 B(  3-P ,  4-S ) :   1.7034
B(  3-P ,  5-O ) :   1.0948 B(  3-P ,  8-S ) :   0.9099 B(  4-S ,  8-S ) :   0.1153
B(  5-O ,  6-C ) :   0.9012 B(  6-C ,  7-C ) :   1.1736 B(  6-C , 24-H ) :   0.9112
B(  6-C , 25-H ) :   0.9348 B(  7-C , 26-H ) :   0.9294 B(  7-C , 27-H ) :   0.9381
B(  7-C , 28-H ) :   0.9468 B(  8-S ,  9-C ) :   1.0104 B(  9-C , 10-S ) :   0.9852
B(  9-C , 29-H ) :   0.9080 B(  9-C , 30-H ) :   0.9002 B( 10-S , 11-P ) :   0.9869
B( 10-S , 12-S ) :   0.1153 B( 11-P , 12-S ) :   1.5797 B( 11-P , 13-O ) :   1.1192
B( 11-P , 16-O ) :   1.1159 B( 13-O , 14-C ) :   0.8963 B( 14-C , 15-C ) :   1.1635
B( 14-C , 31-H ) :   0.8995 B( 14-C , 32-H ) :   0.9338 B( 15-C , 33-H ) :   0.9409
B( 15-C , 34-H ) :   0.9408 B( 15-C , 35-H ) :   0.9500 B( 16-O , 17-C ) :   0.9109
B( 17-C , 18-C ) :   1.1625 B( 17-C , 36-H ) :   0.9328 B( 17-C , 37-H ) :   0.9130
B( 18-C , 38-H ) :   0.9435 B( 18-C , 39-H ) :   0.9377 B( 18-C , 40-H ) :   0.9268

Dispersion correction           -0.068451479
FINAL SINGLE POINT ENERGY     -2929.509727729382

DIPOLE MOMENT
-------------

Method             : SCF
Type of density    : Electron Density
Multiplicity       :   1
Irrep              :   0
Energy             : -2929.6249268557785399 Eh
Relativity type    :
Basis              : AO
                                X                 Y                 Z
Electronic contribution:     -3.618849168      -3.868739636      -7.607411092
Nuclear contribution   :      4.103310003       3.719141861       9.056679660
                        -----------------------------------------
Total Dipole Moment    :      0.484460835      -0.149597775       1.449268568
                        -----------------------------------------
Magnitude (a.u.)       :      1.535402611
Magnitude (Debye)      :      3.902683286

Rotational constants in cm-1:             0.010582             0.006034             0.005549
Rotational constants in MHz :           317.238435           180.894405           166.343003

                             ****ORCA TERMINATED NORMALLY****
TOTAL RUN TIME: 0 days 0 hours 0 minutes 21 seconds 496 msec
