                         Program Version 6.0.0  -   RELEASE  -
|  1> ! pbe def2-sv(p) def2/J RI DEFGRID1 loosescf d4 GCP(DFT/SV(P)) printgap
|  2> %output
|  3>     printlevel normal
|  4> end
|  5> * xyz 0 1
|  6> C 5.321443613 0.4620224037 -0.6126635333
|  7> C 4.5915842499 0.1520230671 0.6791586498
|  8> O 3.4308578989 -0.6735865466 0.4621352601
|  9> P 2.0885028733 -0.1533955827 -0.2106463932
| 10> S 2.0470141545 0.0802325148 -2.160210538
| 11> O 1.7745939091 1.1596874187 0.6380162581
| 12> C 1.3459576697 2.4199737262 0.1029518266
| 13> C 2.4084489071 3.4689730147 0.3630242363
| 14> S 0.9332207219 -1.7183737665 0.5762635321
| 15> C -0.263766263 -2.0119138774 -0.7753245981
| 16> S -1.9668263221 -1.9679893408 -0.197810397
| 17> P -2.0775318621 0.1397735207 0.0899921785
| 18> S -1.4339730208 1.170992531 -1.4497744848
| 19> O -1.2304848678 0.5539430551 1.3559612156
| 20> C -1.5952229241 0.3523025497 2.7457214058
| 21> C -1.7900479261 -1.1048595531 3.1077072665
| 22> O -3.5611379826 0.3785473625 0.5935782712
| 23> C -4.7369908127 -0.1935197387 -0.0112789389
| 24> C -4.8726638807 0.164710459 -1.475856702
| 25> H 5.5929431147 -0.4595664096 -1.1210793148
| 26> H 4.6851205252 1.0431257858 -1.2787244916
| 27> H 6.2197844309 1.0302051539 -0.3924925127
| 28> H 4.2790187332 1.0693487239 1.1851031597
| 29> H 5.2091947145 -0.4469837994 1.3507346861
| 30> H 1.1540014198 2.3096179132 -0.9699357668
| 31> H 0.4061090598 2.661972875 0.604025905
| 32> H 3.3189182125 3.2238103413 -0.1792797542
| 33> H 2.0423689484 4.4315025887 0.0208963752
| 34> H 2.6276239899 3.5243810501 1.4258085664
| 35> H -0.0970521421 -3.0127008928 -1.1650719927
| 36> H -0.1105804759 -1.2560571348 -1.552296609
| 37> H -0.7509066858 0.7858805468 3.2846386063
| 38> H -2.5002357791 0.9306242738 2.9400578346
| 39> H -1.9440513918 -1.178948785 4.179862979
| 40> H -2.6588225401 -1.5146180702 2.5975478832
| 41> H -0.9125610821 -1.6865225961 2.8331623541
| 42> H -4.693760843 -1.2783356781 0.117704434
| 43> H -5.5553335688 0.2218576909 0.5794364167
| 44> H -4.0503050986 -0.2661367713 -2.0452421962
| 45> H -5.810093401 -0.226026967 -1.8579875095
| 46> H -4.8509629047 1.2439737741 -1.6074022878
| 47> *
| 48>
| 49>                          ****END OF INPUT****

CARTESIAN COORDINATES (ANGSTROEM)
---------------------------------
  C      5.321444    0.462022   -0.612664
  C      4.591584    0.152023    0.679159
  O      3.430858   -0.673587    0.462135
  P      2.088503   -0.153396   -0.210646
  S      2.047014    0.080233   -2.160211
  O      1.774594    1.159687    0.638016
  C      1.345958    2.419974    0.102952
  C      2.408449    3.468973    0.363024
  S      0.933221   -1.718374    0.576264
  C     -0.263766   -2.011914   -0.775325
  S     -1.966826   -1.967989   -0.197810
  P     -2.077532    0.139774    0.089992
  S     -1.433973    1.170993   -1.449774
  O     -1.230485    0.553943    1.355961
  C     -1.595223    0.352303    2.745721
  C     -1.790048   -1.104860    3.107707
  O     -3.561138    0.378547    0.593578
  C     -4.736991   -0.193520   -0.011279
  C     -4.872664    0.164710   -1.475857
  H      5.592943   -0.459566   -1.121079
  H      4.685121    1.043126   -1.278724
  H      6.219784    1.030205   -0.392493
  H      4.279019    1.069349    1.185103
  H      5.209195   -0.446984    1.350735
  H      1.154001    2.309618   -0.969936
  H      0.406109    2.661973    0.604026
  H      3.318918    3.223810   -0.179280
  H      2.042369    4.431503    0.020896
  H      2.627624    3.524381    1.425809
  H     -0.097052   -3.012701   -1.165072
  H     -0.110580   -1.256057   -1.552297
  H     -0.750907    0.785881    3.284639
  H     -2.500236    0.930624    2.940058
  H     -1.944051   -1.178949    4.179863
  H     -2.658823   -1.514618    2.597548
  H     -0.912561   -1.686523    2.833162
  H     -4.693761   -1.278336    0.117704
  H     -5.555334    0.221858    0.579436
  H     -4.050305   -0.266137   -2.045242
  H     -5.810093   -0.226027   -1.857988
  H     -4.850963    1.243974   -1.607402

 Total Charge           Charge          ....    0
 Multiplicity           Mult            ....    1
 Number of Electrons    NEL             ....  202
 Basis Dimension        Dim             ....  334

ORBITAL ENERGIES
----------------

  NO   OCC          E(Eh)            E(eV)
   0   2.0000     -88.044892     -2395.8233
   1   2.0000     -88.035438     -2395.5660
   2   2.0000     -87.979635     -2394.0476
   3   2.0000     -87.978048     -2394.0044
   4   2.0000     -76.427358     -2079.6942
   5   2.0000     -76.419461     -2079.4792
   6   2.0000     -18.800906      -511.5987
   7   2.0000     -18.790364      -511.3118
   8   2.0000     -18.784765      -511.1594
   9   2.0000     -18.782737      -511.1043
  10   2.0000      -9.964219      -271.1402
  11   2.0000      -9.955607      -270.9058
  12   2.0000      -9.951709      -270.7998
  13   2.0000      -9.951342      -270.7898
  14   2.0000      -9.934504      -270.3316
  15   2.0000      -9.885653      -269.0023
  16   2.0000      -9.885496      -268.9980
  17   2.0000      -9.879786      -268.8426
  18   2.0000      -9.879773      -268.8423
  19   2.0000      -7.689893      -209.2526
  20   2.0000      -7.680831      -209.0060
  21   2.0000      -7.624515      -207.4736
  22   2.0000      -7.623055      -207.4339
  23   2.0000      -6.424307      -174.8143
  24   2.0000      -6.417001      -174.6155
  25   2.0000      -5.717659      -155.5854
  26   2.0000      -5.714345      -155.4952
  27   2.0000      -5.708829      -155.3451
  28   2.0000      -5.707053      -155.2968
  29   2.0000      -5.705331      -155.2499
  30   2.0000      -5.697560      -155.0385
  31   2.0000      -5.653406      -153.8370
  32   2.0000      -5.652073      -153.8007
  33   2.0000      -5.645440      -153.6202
  34   2.0000      -5.644392      -153.5917
  35   2.0000      -5.643683      -153.5724
  36   2.0000      -5.643066      -153.5556
  37   2.0000      -4.647440      -126.4633
  38   2.0000      -4.646231      -126.4304
  39   2.0000      -4.644154      -126.3739
  40   2.0000      -4.639673      -126.2519
  41   2.0000      -4.638348      -126.2159
  42   2.0000      -4.637798      -126.2009
  43   2.0000      -0.991764       -26.9873
  44   2.0000      -0.978493       -26.6262
  45   2.0000      -0.946476       -25.7549
  46   2.0000      -0.934828       -25.4380
  47   2.0000      -0.761288       -20.7157
  48   2.0000      -0.721686       -19.6381
  49   2.0000      -0.709755       -19.3134
  50   2.0000      -0.693785       -18.8788
  51   2.0000      -0.681122       -18.5343
  52   2.0000      -0.672746       -18.3064
  53   2.0000      -0.649443       -17.6723
  54   2.0000      -0.630675       -17.1615
  55   2.0000      -0.594247       -16.1703
  56   2.0000      -0.588314       -16.0088
  57   2.0000      -0.582385       -15.8475
  58   2.0000      -0.568434       -15.4679
  59   2.0000      -0.557870       -15.1804
  60   2.0000      -0.501260       -13.6400
  61   2.0000      -0.491276       -13.3683
  62   2.0000      -0.472524       -12.8580
  63   2.0000      -0.469153       -12.7663
  64   2.0000      -0.455751       -12.4016
  65   2.0000      -0.448085       -12.1930
  66   2.0000      -0.437865       -11.9149
  67   2.0000      -0.434341       -11.8190
  68   2.0000      -0.424035       -11.5386
  69   2.0000      -0.413135       -11.2420
  70   2.0000      -0.412195       -11.2164
  71   2.0000      -0.404453       -11.0057
  72   2.0000      -0.392013       -10.6672
  73   2.0000      -0.387746       -10.5511
  74   2.0000      -0.380002       -10.3404
  75   2.0000      -0.368284       -10.0215
  76   2.0000      -0.355275        -9.6675
  77   2.0000      -0.354462        -9.6454
  78   2.0000      -0.348165        -9.4741
  79   2.0000      -0.347935        -9.4678
  80   2.0000      -0.344214        -9.3665
  81   2.0000      -0.343424        -9.3451
  82   2.0000      -0.340993        -9.2789
  83   2.0000      -0.335373        -9.1260
  84   2.0000      -0.333352        -9.0710
  85   2.0000      -0.325305        -8.8520
  86   2.0000      -0.308211        -8.3868
  87   2.0000      -0.300983        -8.1902
  88   2.0000      -0.292660        -7.9637
  89   2.0000      -0.286612        -7.7991
  90   2.0000      -0.281698        -7.6654
  91   2.0000      -0.279734        -7.6119
  92   2.0000      -0.268996        -7.3198
  93   2.0000      -0.260791        -7.0965
  94   2.0000      -0.254944        -6.9374
  95   2.0000      -0.232571        -6.3286
  96   2.0000      -0.215730        -5.8703
  97   2.0000      -0.210972        -5.7408
  98   2.0000      -0.196091        -5.3359
  99   2.0000      -0.189322        -5.1517
 100   2.0000      -0.183139        -4.9835
 101   0.0000      -0.040644        -1.1060
 102   0.0000      -0.027789        -0.7562
 103   0.0000      -0.012114        -0.3296
 104   0.0000       0.011454         0.3117
 105   0.0000       0.018396         0.5006

MULLIKEN ATOMIC CHARGES
-----------------------
   0 C :   -0.313840
   1 C :   -0.015787
   2 O :   -0.378433
   3 P :    0.641570
   4 S :   -0.317456
   5 O :   -0.380299
   6 C :   -0.024194
   7 C :   -0.290114
   8 S :   -0.094735
   9 C :   -0.357090
  10 S :   -0.121374
  11 P :    0.596603
  12 S :   -0.300545
  13 O :   -0.352303
  14 C :    0.010799
  15 C :   -0.325013
  16 O :   -0.380973
  17 C :   -0.018111
  18 C :   -0.307015
  19 H :    0.121079
  20 H :    0.134718
  21 H :    0.106879
  22 H :    0.108020
  23 H :    0.106200
  24 H :    0.130280
  25 H :    0.106865
  26 H :    0.111914
  27 H :    0.112542
  28 H :    0.109577
  29 H :    0.185078
  30 H :    0.216851
  31 H :    0.108520
  32 H :    0.107440
  33 H :    0.111031
  34 H :    0.117066
  35 H :    0.136542
  36 H :    0.116927
  37 H :    0.110590
  38 H :    0.131005
  39 H :    0.112207
  40 H :    0.126980
Sum of atomic charges:   -0.0000000

LOEWDIN ATOMIC CHARGES
----------------------
   0 C :   -0.366976
   1 C :   -0.114741
   2 O :   -0.249402
   3 P :    0.566864
   4 S :   -0.300535
   5 O :   -0.243217
   6 C :   -0.127556
   7 C :   -0.358217
   8 S :    0.087837
   9 C :   -0.478970
  10 S :    0.069078
  11 P :    0.564567
  12 S :   -0.290086
  13 O :   -0.232517
  14 C :   -0.107602
  15 C :   -0.372781
  16 O :   -0.244831
  17 C :   -0.114493
  18 C :   -0.368459
  19 H :    0.129987
  20 H :    0.120934
  21 H :    0.127727
  22 H :    0.109248
  23 H :    0.119787
  24 H :    0.105642
  25 H :    0.111838
  26 H :    0.120646
  27 H :    0.131230
  28 H :    0.120967
  29 H :    0.137957
  30 H :    0.125931
  31 H :    0.122232
  32 H :    0.113553
  33 H :    0.130278
  34 H :    0.115370
  35 H :    0.122803
  36 H :    0.108264
  37 H :    0.121756
  38 H :    0.123830
  39 H :    0.130718
  40 H :    0.131337

  Mayer bond orders larger than 0.100000
B(  0-C ,  1-C ) :   1.1636 B(  0-C , 19-H ) :   0.9452 B(  0-C , 20-H ) :   0.9305
B(  0-C , 21-H ) :   0.9380 B(  1-C ,  2-O ) :   0.9181 B(  1-C , 22-H ) :   0.9214
B(  1-C , 23-H ) :   0.9355 B(  2-O ,  3-P ) :   1.1051 B(  3-P ,  4-S ) :   1.6265
B(  3-P ,  5-O ) :   1.1003 B(  3-P ,  8-S ) :   0.9674 B(  4-S ,  8-S ) :   0.1137
B(  5-O ,  6-C ) :   0.9052 B(  6-C ,  7-C ) :   1.1516 B(  6-C , 24-H ) :   0.8983
B(  6-C , 25-H ) :   0.9270 B(  7-C , 26-H ) :   0.9415 B(  7-C , 27-H ) :   0.9414
B(  7-C , 28-H ) :   0.9464 B(  8-S ,  9-C ) :   0.9970 B(  9-C , 10-S ) :   1.0072
B(  9-C , 29-H ) :   0.9111 B(  9-C , 30-H ) :   0.8400 B( 10-S , 11-P ) :   0.9324
B( 10-S , 12-S ) :   0.1057 B( 11-P , 12-S ) :   1.6573 B( 11-P , 13-O ) :   1.1325
B( 11-P , 16-O ) :   1.0796 B( 13-O , 14-C ) :   0.8931 B( 14-C , 15-C ) :   1.1707
B( 14-C , 31-H ) :   0.9332 B( 14-C , 32-H ) :   0.9307 B( 15-C , 33-H ) :   0.9347
B( 15-C , 34-H ) :   0.9404 B( 15-C , 35-H ) :   0.9341 B( 16-O , 17-C ) :   0.9097
B( 17-C , 18-C ) :   1.1675 B( 17-C , 36-H ) :   0.9246 B( 17-C , 37-H ) :   0.9335
B( 18-C , 38-H ) :   0.9309 B( 18-C , 39-H ) :   0.9349 B( 18-C , 40-H ) :   0.9434

Dispersion correction           -0.067857725
FINAL SINGLE POINT ENERGY     -2929.512832375796

DIPOLE MOMENT
-------------

Method             : SCF
Type of density    : Electron Density
Multiplicity       :   1
Irrep              :   0
Energy             : -2929.6314338691640842 Eh
Relativity type    :
Basis              : AO
                                X                 Y                 Z
Electronic contribution:     -2.152119272     -10.491919047      -7.122647899
Nuclear contribution   :      1.509966587      10.564665742       8.642653017
                        -----------------------------------------
Total Dipole Moment    :     -0.642152685       0.072746696       1.520005118
                        -----------------------------------------
Magnitude (a.u.)       :      1.651686324
Magnitude (Debye)      :      4.198252994

Rotational constants in cm-1:             0.013609             0.005099             0.004957
Rotational constants in MHz :           407.974813           152.858545           148.598009

                             ****ORCA TERMINATED NORMALLY****
TOTAL RUN TIME: 0 days 0 hours 0 minutes 21 seconds 721 msec
