                         Program Version 6.0.1  -  RELEASE   -
|  1> ! pbe def2-sv(p) def2/J RI DEFGRID1 loosescf d4 GCP(DFT/SV(P)) printgap
|  2> %output
|  3>     printlevel normal
|  4> end
|  5> * xyz 0 1
|  6> C 4.256294909 -1.8383017548 1.170117959
|  7> C 2.7932466868 -1.9007587967 0.7793998306
|  8> O 2.5754201654 -0.9716705302 -0.3004327649
|  9> C 1.4770009953 -1.0808237115 -1.0116335425
| 10> O 0.6056383291 -1.9055389785 -0.8134242557
| 11> C 1.4122743872 -0.0518077722 -2.1216947249
| 12> C 0.229458823 0.897822327 -1.9050758967
| 13> H 0.144827943 1.5717465534 -2.7620661996
| 14> C 0.3829130463 1.7292010663 -0.6462445539
| 15> O -0.5183944057 1.8510144502 0.164304409
| 16> O 1.5568882224 2.2804817765 -0.556318001
| 17> C 1.8915495853 3.0247095793 0.6370043472
| 18> C 2.4709375748 2.0926416396 1.6876048804
| 19> S -1.3794423181 0.034997771 -1.8276089586
| 20> P -1.7396818296 -0.2967434935 0.2439048693
| 21> S -0.4685067427 -0.5558155799 1.7284044547
| 22> O -2.96610091 0.660580909 0.5769504141
| 23> C -2.9652618963 1.6990467364 1.5554124117
| 24> O -2.6795419685 -1.5879168245 0.076556318
| 25> C -2.1843630117 -2.8995075721 -0.1850730404
| 26> H 4.8817991093 -2.087294061 0.3179727901
| 27> H 4.5087378647 -0.8410340426 1.5164007215
| 28> H 4.4394240512 -2.5480502999 1.9696630885
| 29> H 2.1354419411 -1.6188248811 1.6079506371
| 30> H 2.5026236825 -2.8985547805 0.4358156863
| 31> H 1.2618978061 -0.578252175 -3.0644036385
| 32> H 2.3402540441 0.5183173571 -2.1405238707
| 33> H 2.627184881 3.7542329582 0.2989382534
| 34> H 0.9927790518 3.5237099102 1.0071522464
| 35> H 2.7715586869 2.6696096776 2.5554726888
| 36> H 1.7273960279 1.3580862834 1.994665261
| 37> H 3.3330943508 1.5687803157 1.2845239892
| 38> H -2.7879203061 2.6538744273 1.0633178602
| 39> H -2.1879487465 1.5194314726 2.3006857664
| 40> H -3.9487175777 1.6774861451 2.0197320512
| 41> H -3.0324396114 -3.5642722066 -0.0411457839
| 42> H -1.3798439833 -3.1444403711 0.5102136269
| 43> H -1.806178562 -2.9664317376 -1.2049672741
| 44> *
| 45>
| 46>                          ****END OF INPUT****

CARTESIAN COORDINATES (ANGSTROEM)
---------------------------------
  C      4.256295   -1.838302    1.170118
  C      2.793247   -1.900759    0.779400
  O      2.575420   -0.971671   -0.300433
  C      1.477001   -1.080824   -1.011634
  O      0.605638   -1.905539   -0.813424
  C      1.412274   -0.051808   -2.121695
  C      0.229459    0.897822   -1.905076
  H      0.144828    1.571747   -2.762066
  C      0.382913    1.729201   -0.646245
  O     -0.518394    1.851014    0.164304
  O      1.556888    2.280482   -0.556318
  C      1.891550    3.024710    0.637004
  C      2.470938    2.092642    1.687605
  S     -1.379442    0.034998   -1.827609
  P     -1.739682   -0.296743    0.243905
  S     -0.468507   -0.555816    1.728404
  O     -2.966101    0.660581    0.576950
  C     -2.965262    1.699047    1.555412
  O     -2.679542   -1.587917    0.076556
  C     -2.184363   -2.899508   -0.185073
  H      4.881799   -2.087294    0.317973
  H      4.508738   -0.841034    1.516401
  H      4.439424   -2.548050    1.969663
  H      2.135442   -1.618825    1.607951
  H      2.502624   -2.898555    0.435816
  H      1.261898   -0.578252   -3.064404
  H      2.340254    0.518317   -2.140524
  H      2.627185    3.754233    0.298938
  H      0.992779    3.523710    1.007152
  H      2.771559    2.669610    2.555473
  H      1.727396    1.358086    1.994665
  H      3.333094    1.568780    1.284524
  H     -2.787920    2.653874    1.063318
  H     -2.187949    1.519431    2.300686
  H     -3.948718    1.677486    2.019732
  H     -3.032440   -3.564272   -0.041146
  H     -1.379844   -3.144440    0.510214
  H     -1.806179   -2.966432   -1.204967

 Total Charge           Charge          ....    0
 Multiplicity           Mult            ....    1
 Number of Electrons    NEL             ....  174
 Basis Dimension        Dim             ....  316

ORBITAL ENERGIES
----------------

  NO   OCC          E(Eh)            E(eV)
   0   2.0000     -88.027428     -2395.3481
   1   2.0000     -87.966850     -2393.6997
   2   2.0000     -76.414039     -2079.3317
   3   2.0000     -18.827179      -512.3136
   4   2.0000     -18.805713      -511.7295
   5   2.0000     -18.766412      -510.6600
   6   2.0000     -18.765464      -510.6342
   7   2.0000     -18.763740      -510.5873
   8   2.0000     -18.736598      -509.8488
   9   2.0000     -10.032792      -273.0061
  10   2.0000     -10.010182      -272.3909
  11   2.0000      -9.961252      -271.0595
  12   2.0000      -9.956696      -270.9355
  13   2.0000      -9.942696      -270.5545
  14   2.0000      -9.923648      -270.0362
  15   2.0000      -9.917130      -269.8588
  16   2.0000      -9.915673      -269.8192
  17   2.0000      -9.889160      -269.0977
  18   2.0000      -9.888937      -269.0917
  19   2.0000      -7.672630      -208.7829
  20   2.0000      -7.611795      -207.1275
  21   2.0000      -6.408849      -174.3936
  22   2.0000      -5.701060      -155.1337
  23   2.0000      -5.697310      -155.0317
  24   2.0000      -5.688794      -154.8000
  25   2.0000      -5.640874      -153.4960
  26   2.0000      -5.632427      -153.2661
  27   2.0000      -5.631681      -153.2458
  28   2.0000      -4.631481      -126.0290
  29   2.0000      -4.631062      -126.0176
  30   2.0000      -4.629399      -125.9724
  31   2.0000      -1.037738       -28.2383
  32   2.0000      -1.011624       -27.5277
  33   2.0000      -0.961511       -26.1640
  34   2.0000      -0.942378       -25.6434
  35   2.0000      -0.915614       -24.9151
  36   2.0000      -0.913680       -24.8625
  37   2.0000      -0.768138       -20.9021
  38   2.0000      -0.715643       -19.4736
  39   2.0000      -0.710571       -19.3356
  40   2.0000      -0.683311       -18.5938
  41   2.0000      -0.651837       -17.7374
  42   2.0000      -0.625282       -17.0148
  43   2.0000      -0.615426       -16.7466
  44   2.0000      -0.599801       -16.3214
  45   2.0000      -0.592032       -16.1100
  46   2.0000      -0.566974       -15.4281
  47   2.0000      -0.514043       -13.9878
  48   2.0000      -0.508585       -13.8393
  49   2.0000      -0.499563       -13.5938
  50   2.0000      -0.487104       -13.2548
  51   2.0000      -0.462839       -12.5945
  52   2.0000      -0.455804       -12.4030
  53   2.0000      -0.450391       -12.2558
  54   2.0000      -0.444138       -12.0856
  55   2.0000      -0.427512       -11.6332
  56   2.0000      -0.422471       -11.4960
  57   2.0000      -0.413338       -11.2475
  58   2.0000      -0.403718       -10.9857
  59   2.0000      -0.403385       -10.9767
  60   2.0000      -0.396756       -10.7963
  61   2.0000      -0.389672       -10.6035
  62   2.0000      -0.384182       -10.4541
  63   2.0000      -0.376708       -10.2508
  64   2.0000      -0.372057       -10.1242
  65   2.0000      -0.366610        -9.9760
  66   2.0000      -0.364109        -9.9079
  67   2.0000      -0.356658        -9.7052
  68   2.0000      -0.349589        -9.5128
  69   2.0000      -0.345901        -9.4124
  70   2.0000      -0.340511        -9.2658
  71   2.0000      -0.334233        -9.0949
  72   2.0000      -0.315925        -8.5968
  73   2.0000      -0.311704        -8.4819
  74   2.0000      -0.300713        -8.1828
  75   2.0000      -0.295824        -8.0498
  76   2.0000      -0.288502        -7.8505
  77   2.0000      -0.279764        -7.6128
  78   2.0000      -0.267036        -7.2664
  79   2.0000      -0.264317        -7.1924
  80   2.0000      -0.254858        -6.9350
  81   2.0000      -0.242259        -6.5922
  82   2.0000      -0.237540        -6.4638
  83   2.0000      -0.229063        -6.2331
  84   2.0000      -0.198057        -5.3894
  85   2.0000      -0.181892        -4.9495
  86   2.0000      -0.178240        -4.8501
  87   0.0000      -0.050975        -1.3871
  88   0.0000      -0.039870        -1.0849
  89   0.0000      -0.028993        -0.7889
  90   0.0000       0.006938         0.1888
  91   0.0000       0.030978         0.8430

MULLIKEN ATOMIC CHARGES
-----------------------
   0 C :   -0.283573
   1 C :   -0.038741
   2 O :   -0.226874
   3 C :    0.084112
   4 O :   -0.192984
   5 C :   -0.021590
   6 C :   -0.324426
   7 H :    0.156797
   8 C :    0.219281
   9 O :   -0.191720
  10 O :   -0.215043
  11 C :   -0.011471
  12 C :   -0.335443
  13 S :   -0.078224
  14 P :    0.642868
  15 S :   -0.352141
  16 O :   -0.372402
  17 C :   -0.083976
  18 O :   -0.378997
  19 C :   -0.090570
  20 H :    0.111052
  21 H :    0.119159
  22 H :    0.113083
  23 H :    0.130049
  24 H :    0.106506
  25 H :    0.121779
  26 H :    0.113579
  27 H :    0.107591
  28 H :    0.115443
  29 H :    0.112757
  30 H :    0.150334
  31 H :    0.124450
  32 H :    0.106463
  33 H :    0.110853
  34 H :    0.114595
  35 H :    0.111565
  36 H :    0.113033
  37 H :    0.112825
Sum of atomic charges:    0.0000000

LOEWDIN ATOMIC CHARGES
----------------------
   0 C :   -0.351345
   1 C :   -0.112154
   2 O :   -0.050851
   3 C :    0.018987
   4 O :   -0.164117
   5 C :   -0.248158
   6 C :   -0.262476
   7 H :    0.153075
   8 C :    0.022943
   9 O :   -0.148896
  10 O :   -0.031892
  11 C :   -0.103230
  12 C :   -0.364070
  13 S :    0.111768
  14 P :    0.595978
  15 S :   -0.320924
  16 O :   -0.245950
  17 C :   -0.211090
  18 O :   -0.256254
  19 C :   -0.215567
  20 H :    0.124605
  21 H :    0.124143
  22 H :    0.131927
  23 H :    0.116847
  24 H :    0.117660
  25 H :    0.145960
  26 H :    0.137068
  27 H :    0.120402
  28 H :    0.123020
  29 H :    0.131495
  30 H :    0.129075
  31 H :    0.124413
  32 H :    0.108223
  33 H :    0.104541
  34 H :    0.115258
  35 H :    0.114278
  36 H :    0.107926
  37 H :    0.107385

  Mayer bond orders larger than 0.100000
B(  0-C ,  1-C ) :   1.1517 B(  0-C , 20-H ) :   0.9498 B(  0-C , 21-H ) :   0.9471
B(  0-C , 22-H ) :   0.9436 B(  1-C ,  2-O ) :   0.8916 B(  1-C , 23-H ) :   0.9184
B(  1-C , 24-H ) :   0.9245 B(  2-O ,  3-C ) :   1.2445 B(  3-C ,  4-O ) :   1.9938
B(  3-C ,  5-C ) :   1.0069 B(  5-C ,  6-C ) :   1.0221 B(  5-C , 25-H ) :   0.8898
B(  5-C , 26-H ) :   0.8855 B(  6-C ,  7-H ) :   0.8719 B(  6-C ,  8-C ) :   0.9030
B(  6-C , 13-S ) :   1.0508 B(  8-C ,  9-O ) :   1.9222 B(  8-C , 10-O ) :   1.2834
B(  9-O , 14-P ) :   0.1228 B( 10-O , 11-C ) :   0.8928 B( 11-C , 12-C ) :   1.1788
B( 11-C , 27-H ) :   0.9362 B( 11-C , 28-H ) :   0.9144 B( 12-C , 29-H ) :   0.9384
B( 12-C , 30-H ) :   0.9225 B( 12-C , 31-H ) :   0.9387 B( 13-S , 14-P ) :   0.9226
B( 13-S , 15-S ) :   0.1223 B( 14-P , 15-S ) :   1.5115 B( 14-P , 16-O ) :   1.1230
B( 14-P , 18-O ) :   1.0942 B( 16-O , 17-C ) :   0.9385 B( 17-C , 32-H ) :   0.9542
B( 17-C , 33-H ) :   0.9291 B( 17-C , 34-H ) :   0.9560 B( 18-O , 19-C ) :   0.9426
B( 19-C , 35-H ) :   0.9573 B( 19-C , 36-H ) :   0.9384 B( 19-C , 37-H ) :   0.9466

Dispersion correction           -0.056463921
FINAL SINGLE POINT ENERGY     -1979.002780851144

DIPOLE MOMENT
-------------

Method             : SCF
Type of density    : Electron Density
Multiplicity       :   1
Irrep              :   0
Energy             : -1979.1316438578942325 Eh
Relativity type    :
Basis              : AO
                                X                 Y                 Z
Electronic contribution:    -17.277696585       0.085413660      -9.185841283
Nuclear contribution   :     18.965450350       0.818055906       8.843869439
                        -----------------------------------------
Total Dipole Moment    :      1.687753765       0.903469566      -0.341971844
                        -----------------------------------------
Magnitude (a.u.)       :      1.944663151
Magnitude (Debye)      :      4.942940907

Rotational constants in cm-1:             0.012860             0.009069             0.007674
Rotational constants in MHz :           385.537969           271.893982           230.063029

                             ****ORCA TERMINATED NORMALLY****
TOTAL RUN TIME: 0 days 0 hours 1 minutes 32 seconds 348 msec
