                         Program Version 6.0.0  -   RELEASE  -
|  1> ! pbe def2-sv(p) def2/J RI DEFGRID1 loosescf d4 GCP(DFT/SV(P)) printgap
|  2> %output
|  3>     printlevel normal
|  4> end
|  5> * xyz 0 1
|  6> C 3.2985647784 2.0464434033 -1.5903950895
|  7> C 3.5680358291 1.98846254 -0.0994782771
|  8> O 3.5180744091 0.6309394997 0.3797838195
|  9> P 2.205572922 -0.0030154305 1.0082700178
| 10> S 1.3466030614 1.0668822097 2.4016970725
| 11> O 2.6986976764 -1.3959573216 1.5559438932
| 12> C 3.4993285068 -2.328154326 0.7830218811
| 13> C 4.9738510584 -2.1380952933 1.0715733354
| 14> S 1.0181995328 -0.4996216416 -0.7019215923
| 15> C -0.2343431674 -1.4753786846 0.1707313688
| 16> S -1.519370563 -0.4805965987 0.9767955381
| 17> P -2.5811524398 0.112046848 -0.7795309968
| 18> S -2.20074689 -0.9485281576 -2.3898781069
| 19> O -2.3789073184 1.6704167511 -0.9717283136
| 20> C -1.2759621192 2.2541235958 -1.6872576089
| 21> C -0.3706655422 2.9988936342 -0.7248907528
| 22> O -4.0801371329 0.2310408139 -0.2983525555
| 23> C -4.7830449705 -0.7570535422 0.4765665219
| 24> C -4.7573814122 -2.1302318801 -0.1636877512
| 25> H 4.0225214432 1.4377184247 -2.1244612484
| 26> H 2.3008666347 1.674416789 -1.8136561549
| 27> H 3.3798235907 3.0749983961 -1.9267915984
| 28> H 2.8482863872 2.5893983862 0.4655668254
| 29> H 4.580028424 2.3254696303 0.1322758125
| 30> H 3.1571931624 -3.3130599839 1.1066742705
| 31> H 3.2819242637 -2.1885023914 -0.2791539092
| 32> H 5.2992901471 -1.1546540474 0.7444830642
| 33> H 5.1594611739 -2.2318760329 2.1380874314
| 34> H 5.5389732662 -2.8982461203 0.5411343785
| 35> H 0.2359257594 -2.0617004587 0.9567950816
| 36> H -0.6948906625 -2.1094682035 -0.5872788997
| 37> H -0.7357509437 1.4695489074 -2.2299292518
| 38> H -1.7269675046 2.9400555935 -2.407489365
| 39> H 0.071494282 2.3169087098 -0.000124492
| 40> H 0.4201584804 3.4897666817 -1.2825432388
| 41> H -0.9440306226 3.7434825135 -0.1801683132
| 42> H -4.3447684138 -0.7861815114 1.4783887761
| 43> H -5.7990949449 -0.362151302 0.5318104706
| 44> H -5.3829673132 -2.8072932623 0.4091321635
| 45> H -5.1244492765 -2.0771268771 -1.1860139582
| 46> H -3.7392581522 -2.517146843 -0.1827731016
| 47> *
| 48>
| 49>                          ****END OF INPUT****

CARTESIAN COORDINATES (ANGSTROEM)
---------------------------------
  C      3.298565    2.046443   -1.590395
  C      3.568036    1.988463   -0.099478
  O      3.518074    0.630939    0.379784
  P      2.205573   -0.003015    1.008270
  S      1.346603    1.066882    2.401697
  O      2.698698   -1.395957    1.555944
  C      3.499329   -2.328154    0.783022
  C      4.973851   -2.138095    1.071573
  S      1.018200   -0.499622   -0.701922
  C     -0.234343   -1.475379    0.170731
  S     -1.519371   -0.480597    0.976796
  P     -2.581152    0.112047   -0.779531
  S     -2.200747   -0.948528   -2.389878
  O     -2.378907    1.670417   -0.971728
  C     -1.275962    2.254124   -1.687258
  C     -0.370666    2.998894   -0.724891
  O     -4.080137    0.231041   -0.298353
  C     -4.783045   -0.757054    0.476567
  C     -4.757381   -2.130232   -0.163688
  H      4.022521    1.437718   -2.124461
  H      2.300867    1.674417   -1.813656
  H      3.379824    3.074998   -1.926792
  H      2.848286    2.589398    0.465567
  H      4.580028    2.325470    0.132276
  H      3.157193   -3.313060    1.106674
  H      3.281924   -2.188502   -0.279154
  H      5.299290   -1.154654    0.744483
  H      5.159461   -2.231876    2.138087
  H      5.538973   -2.898246    0.541134
  H      0.235926   -2.061700    0.956795
  H     -0.694891   -2.109468   -0.587279
  H     -0.735751    1.469549   -2.229929
  H     -1.726968    2.940056   -2.407489
  H      0.071494    2.316909   -0.000124
  H      0.420158    3.489767   -1.282543
  H     -0.944031    3.743483   -0.180168
  H     -4.344768   -0.786182    1.478389
  H     -5.799095   -0.362151    0.531810
  H     -5.382967   -2.807293    0.409132
  H     -5.124449   -2.077127   -1.186014
  H     -3.739258   -2.517147   -0.182773

 Total Charge           Charge          ....    0
 Multiplicity           Mult            ....    1
 Number of Electrons    NEL             ....  202
 Basis Dimension        Dim             ....  334

ORBITAL ENERGIES
----------------

  NO   OCC          E(Eh)            E(eV)
   0   2.0000     -88.047058     -2395.8823
   1   2.0000     -88.041870     -2395.7411
   2   2.0000     -87.986632     -2394.2380
   3   2.0000     -87.986511     -2394.2347
   4   2.0000     -76.430318     -2079.7747
   5   2.0000     -76.424869     -2079.6264
   6   2.0000     -18.801718      -511.6208
   7   2.0000     -18.800660      -511.5920
   8   2.0000     -18.789073      -511.2767
   9   2.0000     -18.782251      -511.0910
  10   2.0000      -9.962281      -271.0874
  11   2.0000      -9.960802      -271.0472
  12   2.0000      -9.958529      -270.9853
  13   2.0000      -9.955557      -270.9045
  14   2.0000      -9.943769      -270.5837
  15   2.0000      -9.894280      -269.2370
  16   2.0000      -9.890963      -269.1468
  17   2.0000      -9.883252      -268.9370
  18   2.0000      -9.873847      -268.6810
  19   2.0000      -7.691250      -209.2896
  20   2.0000      -7.686571      -209.1622
  21   2.0000      -7.631652      -207.6678
  22   2.0000      -7.631530      -207.6645
  23   2.0000      -6.427776      -174.9087
  24   2.0000      -6.421929      -174.7496
  25   2.0000      -5.718901      -155.6192
  26   2.0000      -5.715835      -155.5358
  27   2.0000      -5.714353      -155.4955
  28   2.0000      -5.711016      -155.4046
  29   2.0000      -5.708512      -155.3365
  30   2.0000      -5.703763      -155.2073
  31   2.0000      -5.660558      -154.0316
  32   2.0000      -5.660470      -154.0292
  33   2.0000      -5.652250      -153.8055
  34   2.0000      -5.652246      -153.8054
  35   2.0000      -5.651946      -153.7973
  36   2.0000      -5.651497      -153.7850
  37   2.0000      -4.650900      -126.5574
  38   2.0000      -4.649585      -126.5216
  39   2.0000      -4.647645      -126.4688
  40   2.0000      -4.644289      -126.3775
  41   2.0000      -4.643985      -126.3692
  42   2.0000      -4.642328      -126.3242
  43   2.0000      -0.996331       -27.1115
  44   2.0000      -0.985394       -26.8139
  45   2.0000      -0.954201       -25.9651
  46   2.0000      -0.939719       -25.5710
  47   2.0000      -0.764218       -20.7954
  48   2.0000      -0.724038       -19.7021
  49   2.0000      -0.712956       -19.4005
  50   2.0000      -0.698686       -19.0122
  51   2.0000      -0.682255       -18.5651
  52   2.0000      -0.674164       -18.3449
  53   2.0000      -0.651606       -17.7311
  54   2.0000      -0.639626       -17.4051
  55   2.0000      -0.599451       -16.3119
  56   2.0000      -0.594945       -16.1893
  57   2.0000      -0.581515       -15.8238
  58   2.0000      -0.568358       -15.4658
  59   2.0000      -0.559324       -15.2200
  60   2.0000      -0.510629       -13.8949
  61   2.0000      -0.495646       -13.4872
  62   2.0000      -0.487790       -13.2734
  63   2.0000      -0.467409       -12.7189
  64   2.0000      -0.464214       -12.6319
  65   2.0000      -0.453226       -12.3329
  66   2.0000      -0.441717       -12.0197
  67   2.0000      -0.436114       -11.8673
  68   2.0000      -0.420998       -11.4559
  69   2.0000      -0.417759       -11.3678
  70   2.0000      -0.412641       -11.2285
  71   2.0000      -0.405014       -11.0210
  72   2.0000      -0.395673       -10.7668
  73   2.0000      -0.390408       -10.6235
  74   2.0000      -0.380948       -10.3661
  75   2.0000      -0.377352       -10.2683
  76   2.0000      -0.366551        -9.9744
  77   2.0000      -0.361197        -9.8287
  78   2.0000      -0.359993        -9.7959
  79   2.0000      -0.355089        -9.6625
  80   2.0000      -0.349616        -9.5135
  81   2.0000      -0.347106        -9.4452
  82   2.0000      -0.341150        -9.2832
  83   2.0000      -0.336680        -9.1615
  84   2.0000      -0.330207        -8.9854
  85   2.0000      -0.325550        -8.8587
  86   2.0000      -0.316815        -8.6210
  87   2.0000      -0.302732        -8.2377
  88   2.0000      -0.298467        -8.1217
  89   2.0000      -0.294708        -8.0194
  90   2.0000      -0.285527        -7.7696
  91   2.0000      -0.279100        -7.5947
  92   2.0000      -0.268229        -7.2989
  93   2.0000      -0.267504        -7.2792
  94   2.0000      -0.257308        -7.0017
  95   2.0000      -0.241585        -6.5739
  96   2.0000      -0.217760        -5.9255
  97   2.0000      -0.210616        -5.7311
  98   2.0000      -0.203856        -5.5472
  99   2.0000      -0.201900        -5.4940
 100   2.0000      -0.193286        -5.2596
 101   0.0000      -0.043275        -1.1776
 102   0.0000      -0.030474        -0.8292
 103   0.0000      -0.012123        -0.3299
 104   0.0000      -0.000888        -0.0242
 105   0.0000       0.010694         0.2910

MULLIKEN ATOMIC CHARGES
-----------------------
   0 C :   -0.320781
   1 C :   -0.012326
   2 O :   -0.379524
   3 P :    0.587540
   4 S :   -0.286736
   5 O :   -0.362180
   6 C :   -0.015387
   7 C :   -0.289545
   8 S :   -0.101389
   9 C :   -0.348629
  10 S :   -0.078282
  11 P :    0.592823
  12 S :   -0.333172
  13 O :   -0.351579
  14 C :   -0.010801
  15 C :   -0.311672
  16 O :   -0.357065
  17 C :   -0.006076
  18 C :   -0.310988
  19 H :    0.117430
  20 H :    0.143940
  21 H :    0.117598
  22 H :    0.113720
  23 H :    0.110776
  24 H :    0.109292
  25 H :    0.104502
  26 H :    0.123752
  27 H :    0.121707
  28 H :    0.111496
  29 H :    0.184606
  30 H :    0.196149
  31 H :    0.108768
  32 H :    0.102642
  33 H :    0.131064
  34 H :    0.101625
  35 H :    0.113277
  36 H :    0.114199
  37 H :    0.110542
  38 H :    0.111402
  39 H :    0.127464
  40 H :    0.119819
Sum of atomic charges:   -0.0000000

LOEWDIN ATOMIC CHARGES
----------------------
   0 C :   -0.364160
   1 C :   -0.116823
   2 O :   -0.244422
   3 P :    0.562010
   4 S :   -0.298238
   5 O :   -0.238011
   6 C :   -0.116069
   7 C :   -0.358828
   8 S :    0.082444
   9 C :   -0.484266
  10 S :    0.085762
  11 P :    0.567807
  12 S :   -0.318029
  13 O :   -0.233546
  14 C :   -0.119077
  15 C :   -0.367526
  16 O :   -0.231577
  17 C :   -0.114826
  18 C :   -0.368730
  19 H :    0.127211
  20 H :    0.120390
  21 H :    0.132885
  22 H :    0.111332
  23 H :    0.121243
  24 H :    0.120202
  25 H :    0.105549
  26 H :    0.126776
  27 H :    0.129683
  28 H :    0.130638
  29 H :    0.132866
  30 H :    0.128690
  31 H :    0.099896
  32 H :    0.116466
  33 H :    0.113114
  34 H :    0.122698
  35 H :    0.126613
  36 H :    0.108800
  37 H :    0.122265
  38 H :    0.129869
  39 H :    0.130489
  40 H :    0.118427

  Mayer bond orders larger than 0.100000
B(  0-C ,  1-C ) :   1.1685 B(  0-C , 19-H ) :   0.9456 B(  0-C , 20-H ) :   0.9277
B(  0-C , 21-H ) :   0.9379 B(  1-C ,  2-O ) :   0.9020 B(  1-C , 22-H ) :   0.9057
B(  1-C , 23-H ) :   0.9334 B(  2-O ,  3-P ) :   1.0790 B(  3-P ,  4-S ) :   1.6817
B(  3-P ,  5-O ) :   1.1199 B(  3-P ,  8-S ) :   0.9454 B(  4-S ,  8-S ) :   0.1095
B(  5-O ,  6-C ) :   0.8877 B(  6-C ,  7-C ) :   1.1693 B(  6-C , 24-H ) :   0.9348
B(  6-C , 25-H ) :   0.9096 B(  7-C , 26-H ) :   0.9414 B(  7-C , 27-H ) :   0.9470
B(  7-C , 28-H ) :   0.9393 B(  8-S ,  9-C ) :   0.9886 B(  9-C , 10-S ) :   1.0170
B(  9-C , 29-H ) :   0.8928 B(  9-C , 30-H ) :   0.8710 B( 10-S , 11-P ) :   0.9330
B( 10-S , 12-S ) :   0.1216 B( 11-P , 12-S ) :   1.5979 B( 11-P , 13-O ) :   1.1357
B( 11-P , 16-O ) :   1.1355 B( 13-O , 14-C ) :   0.9090 B( 14-C , 15-C ) :   1.1644
B( 14-C , 31-H ) :   0.9013 B( 14-C , 32-H ) :   0.9340 B( 15-C , 33-H ) :   0.9204
B( 15-C , 34-H ) :   0.9353 B( 15-C , 35-H ) :   0.9443 B( 16-O , 17-C ) :   0.9166
B( 17-C , 18-C ) :   1.1631 B( 17-C , 36-H ) :   0.9246 B( 17-C , 37-H ) :   0.9337
B( 18-C , 38-H ) :   0.9359 B( 18-C , 39-H ) :   0.9430 B( 18-C , 40-H ) :   0.9351

Dispersion correction           -0.065568823
FINAL SINGLE POINT ENERGY     -2929.520051597543

DIPOLE MOMENT
-------------

Method             : SCF
Type of density    : Electron Density
Multiplicity       :   1
Irrep              :   0
Energy             : -2929.6391962621928542 Eh
Relativity type    :
Basis              : AO
                                X                 Y                 Z
Electronic contribution:    -10.456672645      -0.921831560       5.293868621
Nuclear contribution   :     11.445190151       0.464441475      -5.546679773
                        -----------------------------------------
Total Dipole Moment    :      0.988517506      -0.457390086      -0.252811151
                        -----------------------------------------
Magnitude (a.u.)       :      1.118161897
Magnitude (Debye)      :      2.842141674

Rotational constants in cm-1:             0.012911             0.004762             0.004342
Rotational constants in MHz :           387.050755           142.756274           130.181128

                             ****ORCA TERMINATED NORMALLY****
TOTAL RUN TIME: 0 days 0 hours 0 minutes 20 seconds 839 msec
