                         Program Version 6.0.1  -  RELEASE   -
|  1> ! pbe def2-sv(p) def2/J RI DEFGRID1 loosescf d4 GCP(DFT/SV(P)) printgap
|  2> %output
|  3>     printlevel normal
|  4> end
|  5> * xyz 0 1
|  6> C 3.275084859 -1.5214386789 1.7329744276
|  7> C 2.9189749819 -2.2080659453 0.4260119196
|  8> O 2.6609472729 -1.2138883544 -0.5835550752
|  9> C 1.4927647506 -1.1626171986 -1.1814088658
| 10> O 0.5629470733 -1.9172081483 -0.9702523613
| 11> C 1.428977694 -0.0246833532 -2.179864671
| 12> C 0.3169747328 0.9536614332 -1.7938155995
| 13> H 0.2500421177 1.7451650391 -2.5457180035
| 14> C 0.5439307111 1.5929527536 -0.4380732823
| 15> O -0.3574448352 1.7338336916 0.3689858728
| 16> O 1.7828922671 1.9414835364 -0.2483391077
| 17> C 2.1468711845 2.5362248723 1.0171452512
| 18> C 1.8747285807 4.0306793492 1.0140007199
| 19> S -1.3416615353 0.1832497549 -1.7827171247
| 20> P -1.684705494 -0.3693693946 0.2446877793
| 21> S -0.4071590583 -0.8281898143 1.6740218273
| 22> O -2.8640768073 0.598315063 0.6982548233
| 23> C -2.8050063914 1.5272093985 1.7794183625
| 24> O -2.68134747 -1.5940843528 -0.0439186046
| 25> C -2.2504924625 -2.8884425638 -0.458540781
| 26> H 4.097512763 -0.8298083575 1.5778474633
| 27> H 2.412047078 -0.9798591368 2.1149850521
| 28> H 3.5651777303 -2.2708820897 2.4614196396
| 29> H 2.0303546651 -2.8347553685 0.5395565462
| 30> H 3.7539711847 -2.8039075075 0.0509775376
| 31> H 1.1980485705 -0.4393413927 -3.1613042684
| 32> H 2.387545835 0.4922542058 -2.1954826381
| 33> H 1.5873286408 2.0334408926 1.8110496785
| 34> H 3.2115029367 2.3235662181 1.1104890614
| 35> H 2.3986360745 4.5051035634 0.1890358684
| 36> H 0.8082884047 4.2200125097 0.915731249
| 37> H 2.2206950807 4.4559644644 1.9500885445
| 38> H -2.5812443571 2.518140664 1.3880554215
| 39> H -2.0340207717 1.2315462631 2.4936770007
| 40> H -3.7858477311 1.5065402199 2.2491645233
| 41> H -1.8858884824 -2.856838782 -1.485084152
| 42> H -3.1272957149 -3.5261299033 -0.3777403219
| 43> H -1.4522259628 -3.2465441712 0.1932682054
| 44> *
| 45>
| 46>                          ****END OF INPUT****

CARTESIAN COORDINATES (ANGSTROEM)
---------------------------------
  C      3.275085   -1.521439    1.732974
  C      2.918975   -2.208066    0.426012
  O      2.660947   -1.213888   -0.583555
  C      1.492765   -1.162617   -1.181409
  O      0.562947   -1.917208   -0.970252
  C      1.428978   -0.024683   -2.179865
  C      0.316975    0.953661   -1.793816
  H      0.250042    1.745165   -2.545718
  C      0.543931    1.592953   -0.438073
  O     -0.357445    1.733834    0.368986
  O      1.782892    1.941484   -0.248339
  C      2.146871    2.536225    1.017145
  C      1.874729    4.030679    1.014001
  S     -1.341662    0.183250   -1.782717
  P     -1.684705   -0.369369    0.244688
  S     -0.407159   -0.828190    1.674022
  O     -2.864077    0.598315    0.698255
  C     -2.805006    1.527209    1.779418
  O     -2.681347   -1.594084   -0.043919
  C     -2.250492   -2.888443   -0.458541
  H      4.097513   -0.829808    1.577847
  H      2.412047   -0.979859    2.114985
  H      3.565178   -2.270882    2.461420
  H      2.030355   -2.834755    0.539557
  H      3.753971   -2.803908    0.050978
  H      1.198049   -0.439341   -3.161304
  H      2.387546    0.492254   -2.195483
  H      1.587329    2.033441    1.811050
  H      3.211503    2.323566    1.110489
  H      2.398636    4.505104    0.189036
  H      0.808288    4.220013    0.915731
  H      2.220695    4.455964    1.950089
  H     -2.581244    2.518141    1.388055
  H     -2.034021    1.231546    2.493677
  H     -3.785848    1.506540    2.249165
  H     -1.885888   -2.856839   -1.485084
  H     -3.127296   -3.526130   -0.377740
  H     -1.452226   -3.246544    0.193268

 Total Charge           Charge          ....    0
 Multiplicity           Mult            ....    1
 Number of Electrons    NEL             ....  174
 Basis Dimension        Dim             ....  316

ORBITAL ENERGIES
----------------

  NO   OCC          E(Eh)            E(eV)
   0   2.0000     -88.026360     -2395.3190
   1   2.0000     -87.965639     -2393.6667
   2   2.0000     -76.412825     -2079.2987
   3   2.0000     -18.827134      -512.3124
   4   2.0000     -18.804277      -511.6904
   5   2.0000     -18.765595      -510.6378
   6   2.0000     -18.763883      -510.5912
   7   2.0000     -18.763576      -510.5829
   8   2.0000     -18.736338      -509.8417
   9   2.0000     -10.032037      -272.9856
  10   2.0000     -10.010166      -272.3905
  11   2.0000      -9.961233      -271.0589
  12   2.0000      -9.955844      -270.9123
  13   2.0000      -9.942898      -270.5600
  14   2.0000      -9.923061      -270.0202
  15   2.0000      -9.917414      -269.8666
  16   2.0000      -9.914416      -269.7850
  17   2.0000      -9.898382      -269.3487
  18   2.0000      -9.881772      -268.8967
  19   2.0000      -7.671580      -208.7543
  20   2.0000      -7.610697      -207.0976
  21   2.0000      -6.407722      -174.3630
  22   2.0000      -5.699996      -155.1048
  23   2.0000      -5.696308      -155.0044
  24   2.0000      -5.687710      -154.7705
  25   2.0000      -5.639857      -153.4683
  26   2.0000      -5.631279      -153.2349
  27   2.0000      -5.630554      -153.2152
  28   2.0000      -4.630314      -125.9972
  29   2.0000      -4.629954      -125.9875
  30   2.0000      -4.628273      -125.9417
  31   2.0000      -1.037453       -28.2305
  32   2.0000      -1.009921       -27.4813
  33   2.0000      -0.960851       -26.1461
  34   2.0000      -0.941283       -25.6136
  35   2.0000      -0.915580       -24.9142
  36   2.0000      -0.913790       -24.8655
  37   2.0000      -0.767563       -20.8864
  38   2.0000      -0.716897       -19.5078
  39   2.0000      -0.708634       -19.2829
  40   2.0000      -0.682259       -18.5652
  41   2.0000      -0.650424       -17.6989
  42   2.0000      -0.628695       -17.1077
  43   2.0000      -0.614131       -16.7114
  44   2.0000      -0.599661       -16.3176
  45   2.0000      -0.592967       -16.1355
  46   2.0000      -0.569394       -15.4940
  47   2.0000      -0.515671       -14.0321
  48   2.0000      -0.503622       -13.7043
  49   2.0000      -0.498004       -13.5514
  50   2.0000      -0.486206       -13.2303
  51   2.0000      -0.461221       -12.5504
  52   2.0000      -0.454122       -12.3573
  53   2.0000      -0.451526       -12.2866
  54   2.0000      -0.433697       -11.8015
  55   2.0000      -0.430834       -11.7236
  56   2.0000      -0.426837       -11.6148
  57   2.0000      -0.413807       -11.2603
  58   2.0000      -0.404291       -11.0013
  59   2.0000      -0.401624       -10.9287
  60   2.0000      -0.395505       -10.7622
  61   2.0000      -0.389829       -10.6078
  62   2.0000      -0.387906       -10.5555
  63   2.0000      -0.376463       -10.2441
  64   2.0000      -0.372348       -10.1321
  65   2.0000      -0.370647       -10.0858
  66   2.0000      -0.364606        -9.9214
  67   2.0000      -0.356131        -9.6908
  68   2.0000      -0.352033        -9.5793
  69   2.0000      -0.342515        -9.3203
  70   2.0000      -0.338275        -9.2049
  71   2.0000      -0.331740        -9.0271
  72   2.0000      -0.322619        -8.7789
  73   2.0000      -0.312384        -8.5004
  74   2.0000      -0.296128        -8.0581
  75   2.0000      -0.291903        -7.9431
  76   2.0000      -0.287754        -7.8302
  77   2.0000      -0.280007        -7.6194
  78   2.0000      -0.267586        -7.2814
  79   2.0000      -0.259920        -7.0728
  80   2.0000      -0.254267        -6.9190
  81   2.0000      -0.242594        -6.6013
  82   2.0000      -0.237043        -6.4503
  83   2.0000      -0.229771        -6.2524
  84   2.0000      -0.196487        -5.3467
  85   2.0000      -0.180829        -4.9206
  86   2.0000      -0.177378        -4.8267
  87   0.0000      -0.052129        -1.4185
  88   0.0000      -0.039205        -1.0668
  89   0.0000      -0.027025        -0.7354
  90   0.0000       0.008014         0.2181
  91   0.0000       0.030261         0.8234

MULLIKEN ATOMIC CHARGES
-----------------------
   0 C :   -0.306718
   1 C :   -0.022103
   2 O :   -0.225785
   3 C :    0.086351
   4 O :   -0.186106
   5 C :   -0.024501
   6 C :   -0.320989
   7 H :    0.156959
   8 C :    0.214845
   9 O :   -0.194591
  10 O :   -0.214053
  11 C :   -0.020515
  12 C :   -0.308009
  13 S :   -0.081945
  14 P :    0.645070
  15 S :   -0.357952
  16 O :   -0.372613
  17 C :   -0.084247
  18 O :   -0.378799
  19 C :   -0.090773
  20 H :    0.104898
  21 H :    0.136352
  22 H :    0.109185
  23 H :    0.125062
  24 H :    0.100384
  25 H :    0.122556
  26 H :    0.111774
  27 H :    0.129757
  28 H :    0.110601
  29 H :    0.116024
  30 H :    0.129992
  31 H :    0.120435
  32 H :    0.106312
  33 H :    0.110853
  34 H :    0.114077
  35 H :    0.111514
  36 H :    0.111662
  37 H :    0.115033
Sum of atomic charges:   -0.0000000

LOEWDIN ATOMIC CHARGES
----------------------
   0 C :   -0.358018
   1 C :   -0.110830
   2 O :   -0.049965
   3 C :    0.022379
   4 O :   -0.164224
   5 C :   -0.249361
   6 C :   -0.261598
   7 H :    0.153045
   8 C :    0.019810
   9 O :   -0.151635
  10 O :   -0.030237
  11 C :   -0.106565
  12 C :   -0.355830
  13 S :    0.109554
  14 P :    0.596640
  15 S :   -0.327867
  16 O :   -0.246414
  17 C :   -0.211154
  18 O :   -0.255705
  19 C :   -0.214945
  20 H :    0.119520
  21 H :    0.123030
  22 H :    0.129979
  23 H :    0.123946
  24 H :    0.115451
  25 H :    0.145814
  26 H :    0.137118
  27 H :    0.127528
  28 H :    0.121627
  29 H :    0.126007
  30 H :    0.131285
  31 H :    0.134973
  32 H :    0.107802
  33 H :    0.104268
  34 H :    0.115022
  35 H :    0.107034
  36 H :    0.114316
  37 H :    0.108203

  Mayer bond orders larger than 0.100000
B(  0-C ,  1-C ) :   1.1763 B(  0-C , 20-H ) :   0.9479 B(  0-C , 21-H ) :   0.9323
B(  0-C , 22-H ) :   0.9422 B(  1-C ,  2-O ) :   0.9022 B(  1-C , 23-H ) :   0.9034
B(  1-C , 24-H ) :   0.9350 B(  2-O ,  3-C ) :   1.2460 B(  2-O ,  4-O ) :   0.1002
B(  3-C ,  4-O ) :   2.0045 B(  3-C ,  5-C ) :   0.9996 B(  5-C ,  6-C ) :   1.0244
B(  5-C , 25-H ) :   0.8900 B(  5-C , 26-H ) :   0.8840 B(  6-C ,  7-H ) :   0.8722
B(  6-C ,  8-C ) :   0.9063 B(  6-C , 13-S ) :   1.0452 B(  8-C ,  9-O ) :   1.9185
B(  8-C , 10-O ) :   1.2853 B(  9-O , 14-P ) :   0.1146 B( 10-O , 11-C ) :   0.8946
B( 11-C , 12-C ) :   1.1723 B( 11-C , 27-H ) :   0.9111 B( 11-C , 28-H ) :   0.9350
B( 12-C , 29-H ) :   0.9472 B( 12-C , 30-H ) :   0.9449 B( 12-C , 31-H ) :   0.9434
B( 13-S , 14-P ) :   0.9198 B( 13-S , 15-S ) :   0.1239 B( 14-P , 15-S ) :   1.5145
B( 14-P , 16-O ) :   1.1214 B( 14-P , 18-O ) :   1.0950 B( 16-O , 17-C ) :   0.9392
B( 17-C , 32-H ) :   0.9539 B( 17-C , 33-H ) :   0.9291 B( 17-C , 34-H ) :   0.9561
B( 18-O , 19-C ) :   0.9430 B( 19-C , 35-H ) :   0.9468 B( 19-C , 36-H ) :   0.9574
B( 19-C , 37-H ) :   0.9393

Dispersion correction           -0.056131313
FINAL SINGLE POINT ENERGY     -1979.000617756720

DIPOLE MOMENT
-------------

Method             : SCF
Type of density    : Electron Density
Multiplicity       :   1
Irrep              :   0
Energy             : -1979.1293155527177987 Eh
Relativity type    :
Basis              : AO
                                X                 Y                 Z
Electronic contribution:    -13.966874516      -4.273768097      -8.763882052
Nuclear contribution   :     15.666470706       5.261475116       8.479227229
                        -----------------------------------------
Total Dipole Moment    :      1.699596190       0.987707019      -0.284654823
                        -----------------------------------------
Magnitude (a.u.)       :      1.986257972
Magnitude (Debye)      :      5.048666542

Rotational constants in cm-1:             0.011854             0.009647             0.007671
Rotational constants in MHz :           355.378137           289.209222           229.982030

                             ****ORCA TERMINATED NORMALLY****
TOTAL RUN TIME: 0 days 0 hours 0 minutes 42 seconds 710 msec
