                         Program Version 6.0.0  -   RELEASE  -
|  1> ! pbe def2-sv(p) def2/J RI DEFGRID1 loosescf d4 GCP(DFT/SV(P)) printgap
|  2> %output
|  3>     printlevel normal
|  4> end
|  5> * xyz 0 1
|  6> C 3.341715216 1.4377752608 -0.0001735421
|  7> C 2.0204108785 1.8559387986 0.0013835123
|  8> C 0.9921551769 0.9291600307 0.0023627925
|  9> C 1.2861670812 -0.4359891322 0.0019987721
| 10> C 2.6035625785 -0.8613515515 0.000234449
| 11> C 3.6191543106 0.0832631898 -0.0008515913
| 12> Cl 5.2659521561 -0.459246409 -0.0032881447
| 13> O 0.3035330185 -1.3955471896 0.0034730443
| 14> C -0.9921585828 -0.9292077531 0.0023769768
| 15> C -2.020434422 -1.8559649663 0.001405457
| 16> C -3.3417381655 -1.4377808384 -0.0001583307
| 17> C -3.6191656531 -0.0832482622 -0.0008601214
| 18> C -2.6035581795 0.8613392989 0.0002836532
| 19> C -1.286170082 0.4359467755 0.0020677704
| 20> O -0.3035339536 1.3955021944 0.0034913072
| 21> Cl -5.2659299841 0.4593073499 -0.0033110092
| 22> H 4.140730136 2.1592514502 -0.0009991957
| 23> H 1.7691275512 2.903155157 0.0019241047
| 24> H 2.812873267 -1.9176004589 -0.00021482
| 25> H -1.7691842399 -2.9031398632 0.0018853105
| 26> H -4.140775646 -2.1592523555 -0.0008832195
| 27> H -2.812822982 1.9175766092 -0.0001385929
| 28> *
| 29>
| 30>                          ****END OF INPUT****

CARTESIAN COORDINATES (ANGSTROEM)
---------------------------------
  C      3.341715    1.437775   -0.000174
  C      2.020411    1.855939    0.001384
  C      0.992155    0.929160    0.002363
  C      1.286167   -0.435989    0.001999
  C      2.603563   -0.861352    0.000234
  C      3.619154    0.083263   -0.000852
  Cl     5.265952   -0.459246   -0.003288
  O      0.303533   -1.395547    0.003473
  C     -0.992159   -0.929208    0.002377
  C     -2.020434   -1.855965    0.001405
  C     -3.341738   -1.437781   -0.000158
  C     -3.619166   -0.083248   -0.000860
  C     -2.603558    0.861339    0.000284
  C     -1.286170    0.435947    0.002068
  O     -0.303534    1.395502    0.003491
  Cl    -5.265930    0.459307   -0.003311
  H      4.140730    2.159251   -0.000999
  H      1.769128    2.903155    0.001924
  H      2.812873   -1.917600   -0.000215
  H     -1.769184   -2.903140    0.001885
  H     -4.140776   -2.159252   -0.000883
  H     -2.812823    1.917577   -0.000139

 Total Charge           Charge          ....    0
 Multiplicity           Mult            ....    1
 Number of Electrons    NEL             ....  128
 Basis Dimension        Dim             ....  244

ORBITAL ENERGIES
----------------

  NO   OCC          E(Eh)            E(eV)
   0   2.0000    -100.645034     -2738.6906
   1   2.0000    -100.645032     -2738.6906
   2   2.0000     -18.830513      -512.4043
   3   2.0000     -18.830337      -512.3995
   4   2.0000      -9.979600      -271.5587
   5   2.0000      -9.979583      -271.5583
   6   2.0000      -9.975725      -271.4533
   7   2.0000      -9.975699      -271.4526
   8   2.0000      -9.961291      -271.0605
   9   2.0000      -9.961289      -271.0605
  10   2.0000      -9.915779      -269.8221
  11   2.0000      -9.915723      -269.8205
  12   2.0000      -9.915636      -269.8182
  13   2.0000      -9.915626      -269.8179
  14   2.0000      -9.913204      -269.7520
  15   2.0000      -9.913199      -269.7519
  16   2.0000      -9.180914      -249.8254
  17   2.0000      -9.180912      -249.8253
  18   2.0000      -7.012318      -190.8149
  19   2.0000      -7.012317      -190.8148
  20   2.0000      -7.000858      -190.5030
  21   2.0000      -7.000856      -190.5030
  22   2.0000      -7.000302      -190.4879
  23   2.0000      -7.000300      -190.4879
  24   2.0000      -1.032317       -28.0908
  25   2.0000      -0.997743       -27.1500
  26   2.0000      -0.829583       -22.5741
  27   2.0000      -0.820689       -22.3321
  28   2.0000      -0.785059       -21.3625
  29   2.0000      -0.761694       -20.7267
  30   2.0000      -0.718304       -19.5461
  31   2.0000      -0.699876       -19.0446
  32   2.0000      -0.674796       -18.3621
  33   2.0000      -0.656000       -17.8507
  34   2.0000      -0.610537       -16.6135
  35   2.0000      -0.591824       -16.1044
  36   2.0000      -0.565566       -15.3898
  37   2.0000      -0.555471       -15.1151
  38   2.0000      -0.519006       -14.1229
  39   2.0000      -0.487668       -13.2701
  40   2.0000      -0.470134       -12.7930
  41   2.0000      -0.447292       -12.1714
  42   2.0000      -0.445406       -12.1201
  43   2.0000      -0.443727       -12.0744
  44   2.0000      -0.422591       -11.4993
  45   2.0000      -0.414933       -11.2909
  46   2.0000      -0.409336       -11.1386
  47   2.0000      -0.380976       -10.3669
  48   2.0000      -0.380832       -10.3630
  49   2.0000      -0.375268       -10.2116
  50   2.0000      -0.373349       -10.1593
  51   2.0000      -0.368006       -10.0140
  52   2.0000      -0.352399        -9.5893
  53   2.0000      -0.349899        -9.5212
  54   2.0000      -0.349095        -9.4994
  55   2.0000      -0.310282        -8.4432
  56   2.0000      -0.304762        -8.2930
  57   2.0000      -0.279319        -7.6007
  58   2.0000      -0.274095        -7.4585
  59   2.0000      -0.273751        -7.4491
  60   2.0000      -0.249154        -6.7798
  61   2.0000      -0.243716        -6.6318
  62   2.0000      -0.221857        -6.0370
  63   2.0000      -0.184865        -5.0304
  64   0.0000      -0.063448        -1.7265
  65   0.0000      -0.054175        -1.4742
  66   0.0000      -0.054090        -1.4719
  67   0.0000      -0.021116        -0.5746
  68   0.0000      -0.003835        -0.1044

MULLIKEN ATOMIC CHARGES
-----------------------
   0 C :   -0.066213
   1 C :   -0.173956
   2 C :    0.218937
   3 C :    0.197015
   4 C :   -0.183473
   5 C :    0.134730
   6 Cl:   -0.082496
   7 O :   -0.209881
   8 C :    0.218961
   9 C :   -0.173957
  10 C :   -0.066199
  11 C :    0.134722
  12 C :   -0.183445
  13 C :    0.196979
  14 O :   -0.209884
  15 Cl:   -0.082491
  16 H :    0.055804
  17 H :    0.059885
  18 H :    0.049651
  19 H :    0.059859
  20 H :    0.055811
  21 H :    0.049638
Sum of atomic charges:    0.0000000

LOEWDIN ATOMIC CHARGES
----------------------
   0 C :   -0.144526
   1 C :   -0.126733
   2 C :    0.011778
   3 C :    0.022389
   4 C :   -0.151524
   5 C :   -0.134338
   6 Cl:    0.129210
   7 O :   -0.025014
   8 C :    0.011779
   9 C :   -0.126737
  10 C :   -0.144524
  11 C :   -0.134344
  12 C :   -0.151527
  13 C :    0.022391
  14 O :   -0.025013
  15 Cl:    0.129223
  16 H :    0.134940
  17 H :    0.140697
  18 H :    0.143119
  19 H :    0.140696
  20 H :    0.134939
  21 H :    0.143119

  Mayer bond orders larger than 0.100000
B(  0-C ,  1-C ) :   1.3066 B(  0-C ,  5-C ) :   1.3908 B(  0-C , 16-H ) :   0.9721
B(  1-C ,  2-C ) :   1.3755 B(  1-C ,  4-C ) :   0.1004 B(  1-C , 17-H ) :   0.9651
B(  2-C ,  3-C ) :   1.2786 B(  2-C , 14-O ) :   1.0535 B(  3-C ,  4-C ) :   1.3501
B(  3-C ,  7-O ) :   1.0597 B(  4-C ,  5-C ) :   1.3090 B(  4-C , 18-H ) :   0.9760
B(  5-C ,  6-Cl) :   0.9599 B(  7-O ,  8-C ) :   1.0535 B(  8-C ,  9-C ) :   1.3755
B(  8-C , 13-C ) :   1.2786 B(  9-C , 10-C ) :   1.3066 B(  9-C , 12-C ) :   0.1004
B(  9-C , 19-H ) :   0.9651 B( 10-C , 11-C ) :   1.3908 B( 10-C , 20-H ) :   0.9721
B( 11-C , 12-C ) :   1.3090 B( 11-C , 15-Cl) :   0.9599 B( 12-C , 13-C ) :   1.3502
B( 12-C , 21-H ) :   0.9760 B( 13-C , 14-O ) :   1.0597

Dispersion correction           -0.033608065
FINAL SINGLE POINT ENERGY     -1529.838399131272

DIPOLE MOMENT
-------------

Method             : SCF
Type of density    : Electron Density
Multiplicity       :   1
Irrep              :   0
Energy             : -1529.8884927969577348 Eh
Relativity type    :
Basis              : AO
                                X                 Y                 Z
Electronic contribution:      0.000045866       0.000096466      -0.010307786
Nuclear contribution   :     -0.000078477      -0.000091337       0.010436765
                        -----------------------------------------
Total Dipole Moment    :     -0.000032612       0.000005129       0.000128978
                        -----------------------------------------
Magnitude (a.u.)       :      0.000133136
Magnitude (Debye)      :      0.000338406

Rotational constants in cm-1:             0.058783             0.005747             0.005235
Rotational constants in MHz :          1762.279369           172.296717           156.951814

                             ****ORCA TERMINATED NORMALLY****
TOTAL RUN TIME: 0 days 0 hours 0 minutes 16 seconds 104 msec
