                         Program Version 6.0.0  -   RELEASE  -
|  1> ! pbe def2-sv(p) def2/J RI DEFGRID1 loosescf d4 GCP(DFT/SV(P)) printgap
|  2> %output
|  3>     printlevel normal
|  4> end
|  5> * xyz 0 1
|  6> C 4.3340495629 0.6371335106 -2.1259534239
|  7> C 4.6204762614 -0.0177125511 -0.7914089921
|  8> O 3.6684558311 0.3478553291 0.2256643386
|  9> P 2.0927135725 0.2094168782 0.0987450002
| 10> S 1.1172455762 1.5751533623 -0.9177810908
| 11> O 1.6367401299 0.264988058 1.6073545398
| 12> C 2.1766086607 -0.601778892 2.639488033
| 13> C 3.209310381 0.1381558531 3.4638611385
| 14> S 1.8520745527 -1.8063941218 -0.5463139358
| 15> C 0.1091389057 -1.7164167504 -0.996636357
| 16> S -0.9554214436 -1.2740813719 0.4131450289
| 17> P -2.1424607669 0.2712013539 -0.4491702049
| 18> S -2.0248292794 0.4429315327 -2.3949017953
| 19> O -1.8899442413 1.6201224794 0.3134398766
| 20> C -1.5247886515 1.7900486523 1.703942112
| 21> C -2.4441593832 1.052446027 2.6520973737
| 22> O -3.6027679549 -0.1067968717 0.0608062422
| 23> C -4.3237782189 -1.2220139967 -0.495757334
| 24> C -5.7901283769 -1.0482385534 -0.1554283805
| 25> H 5.1220739189 0.3872915105 -2.8289960424
| 26> H 3.3817308225 0.2859572922 -2.5219199095
| 27> H 4.2781589066 1.7177248301 -2.0153655731
| 28> H 5.575293354 0.3164130807 -0.3817886911
| 29> H 4.6153752885 -1.1069661293 -0.8860433747
| 30> H 1.3106942842 -0.8869470927 3.2396864129
| 31> H 2.6048918101 -1.4904362549 2.1682950364
| 32> H 4.0478599616 0.4338150569 2.8390379929
| 33> H 2.7697410714 1.0297646714 3.901994332
| 34> H 3.563401441 -0.5139423026 4.2559759753
| 35> H -0.1636252416 -2.7106737637 -1.3417255263
| 36> H -0.0421283751 -0.9711683584 -1.7833343717
| 37> H -0.4862577837 1.4656464487 1.8191158523
| 38> H -1.5816276386 2.8712671254 1.8403761125
| 39> H -2.3518078002 -0.0233034975 2.5092848847
| 40> H -2.168644097 1.2993063474 3.6728051258
| 41> H -3.4759007111 1.3445346343 2.4745485249
| 42> H -4.1622405956 -1.2362654433 -1.5792028146
| 43> H -3.9188290112 -2.1397219724 -0.060059066
| 44> H -6.3513433522 -1.8817454625 -0.5645865665
| 45> H -5.9212536373 -1.018580313 0.9221705818
| 46> H -6.1627210166 -0.1210197606 -0.5817543703
| 47> *
| 48>
| 49>                          ****END OF INPUT****

CARTESIAN COORDINATES (ANGSTROEM)
---------------------------------
  C      4.334050    0.637134   -2.125953
  C      4.620476   -0.017713   -0.791409
  O      3.668456    0.347855    0.225664
  P      2.092714    0.209417    0.098745
  S      1.117246    1.575153   -0.917781
  O      1.636740    0.264988    1.607355
  C      2.176609   -0.601779    2.639488
  C      3.209310    0.138156    3.463861
  S      1.852075   -1.806394   -0.546314
  C      0.109139   -1.716417   -0.996636
  S     -0.955421   -1.274081    0.413145
  P     -2.142461    0.271201   -0.449170
  S     -2.024829    0.442932   -2.394902
  O     -1.889944    1.620122    0.313440
  C     -1.524789    1.790049    1.703942
  C     -2.444159    1.052446    2.652097
  O     -3.602768   -0.106797    0.060806
  C     -4.323778   -1.222014   -0.495757
  C     -5.790128   -1.048239   -0.155428
  H      5.122074    0.387292   -2.828996
  H      3.381731    0.285957   -2.521920
  H      4.278159    1.717725   -2.015366
  H      5.575293    0.316413   -0.381789
  H      4.615375   -1.106966   -0.886043
  H      1.310694   -0.886947    3.239686
  H      2.604892   -1.490436    2.168295
  H      4.047860    0.433815    2.839038
  H      2.769741    1.029765    3.901994
  H      3.563401   -0.513942    4.255976
  H     -0.163625   -2.710674   -1.341726
  H     -0.042128   -0.971168   -1.783334
  H     -0.486258    1.465646    1.819116
  H     -1.581628    2.871267    1.840376
  H     -2.351808   -0.023303    2.509285
  H     -2.168644    1.299306    3.672805
  H     -3.475901    1.344535    2.474549
  H     -4.162241   -1.236265   -1.579203
  H     -3.918829   -2.139722   -0.060059
  H     -6.351343   -1.881745   -0.564587
  H     -5.921254   -1.018580    0.922171
  H     -6.162721   -0.121020   -0.581754

 Total Charge           Charge          ....    0
 Multiplicity           Mult            ....    1
 Number of Electrons    NEL             ....  202
 Basis Dimension        Dim             ....  334

ORBITAL ENERGIES
----------------

  NO   OCC          E(Eh)            E(eV)
   0   2.0000     -88.047539     -2395.8954
   1   2.0000     -88.040349     -2395.6997
   2   2.0000     -87.979491     -2394.0436
   3   2.0000     -87.974400     -2393.9051
   4   2.0000     -76.426379     -2079.6675
   5   2.0000     -76.418727     -2079.4593
   6   2.0000     -18.797242      -511.4989
   7   2.0000     -18.792967      -511.3826
   8   2.0000     -18.782595      -511.1004
   9   2.0000     -18.782378      -511.0945
  10   2.0000      -9.961810      -271.0746
  11   2.0000      -9.958081      -270.9731
  12   2.0000      -9.953765      -270.8557
  13   2.0000      -9.945129      -270.6207
  14   2.0000      -9.944836      -270.6128
  15   2.0000      -9.890002      -269.1206
  16   2.0000      -9.884019      -268.9578
  17   2.0000      -9.883844      -268.9531
  18   2.0000      -9.883382      -268.9405
  19   2.0000      -7.692506      -209.3237
  20   2.0000      -7.684698      -209.1113
  21   2.0000      -7.624194      -207.4649
  22   2.0000      -7.619673      -207.3418
  23   2.0000      -6.423431      -174.7904
  24   2.0000      -6.415819      -174.5833
  25   2.0000      -5.720287      -155.6569
  26   2.0000      -5.716782      -155.5615
  27   2.0000      -5.712560      -155.4467
  28   2.0000      -5.709860      -155.3732
  29   2.0000      -5.709171      -155.3544
  30   2.0000      -5.701832      -155.1547
  31   2.0000      -5.653441      -153.8379
  32   2.0000      -5.648722      -153.7095
  33   2.0000      -5.644625      -153.5980
  34   2.0000      -5.644281      -153.5887
  35   2.0000      -5.640282      -153.4799
  36   2.0000      -5.639643      -153.4625
  37   2.0000      -4.646286      -126.4319
  38   2.0000      -4.645580      -126.4127
  39   2.0000      -4.643301      -126.3507
  40   2.0000      -4.638470      -126.2192
  41   2.0000      -4.637720      -126.1988
  42   2.0000      -4.636140      -126.1558
  43   2.0000      -0.991550       -26.9814
  44   2.0000      -0.978377       -26.6230
  45   2.0000      -0.948047       -25.7977
  46   2.0000      -0.935753       -25.4631
  47   2.0000      -0.762394       -20.7458
  48   2.0000      -0.719693       -19.5839
  49   2.0000      -0.709996       -19.3200
  50   2.0000      -0.693814       -18.8796
  51   2.0000      -0.686039       -18.6681
  52   2.0000      -0.675840       -18.3905
  53   2.0000      -0.648142       -17.6368
  54   2.0000      -0.630456       -17.1556
  55   2.0000      -0.592060       -16.1108
  56   2.0000      -0.587823       -15.9955
  57   2.0000      -0.577651       -15.7187
  58   2.0000      -0.569236       -15.4897
  59   2.0000      -0.560130       -15.2419
  60   2.0000      -0.507218       -13.8021
  61   2.0000      -0.495208       -13.4753
  62   2.0000      -0.477340       -12.9891
  63   2.0000      -0.467220       -12.7137
  64   2.0000      -0.454073       -12.3559
  65   2.0000      -0.448399       -12.2016
  66   2.0000      -0.441982       -12.0269
  67   2.0000      -0.432533       -11.7698
  68   2.0000      -0.428584       -11.6624
  69   2.0000      -0.418137       -11.3781
  70   2.0000      -0.412427       -11.2227
  71   2.0000      -0.401845       -10.9347
  72   2.0000      -0.397448       -10.8151
  73   2.0000      -0.388022       -10.5586
  74   2.0000      -0.376173       -10.2362
  75   2.0000      -0.362118        -9.8537
  76   2.0000      -0.359190        -9.7741
  77   2.0000      -0.358823        -9.7641
  78   2.0000      -0.353371        -9.6157
  79   2.0000      -0.348702        -9.4887
  80   2.0000      -0.347683        -9.4609
  81   2.0000      -0.347012        -9.4427
  82   2.0000      -0.343334        -9.3426
  83   2.0000      -0.339816        -9.2469
  84   2.0000      -0.331544        -9.0218
  85   2.0000      -0.322838        -8.7849
  86   2.0000      -0.305501        -8.3131
  87   2.0000      -0.298707        -8.1282
  88   2.0000      -0.293980        -7.9996
  89   2.0000      -0.291093        -7.9211
  90   2.0000      -0.282037        -7.6746
  91   2.0000      -0.280758        -7.6398
  92   2.0000      -0.267132        -7.2690
  93   2.0000      -0.263377        -7.1669
  94   2.0000      -0.252778        -6.8784
  95   2.0000      -0.237138        -6.4528
  96   2.0000      -0.219831        -5.9819
  97   2.0000      -0.206720        -5.6251
  98   2.0000      -0.194486        -5.2922
  99   2.0000      -0.191512        -5.2113
 100   2.0000      -0.180622        -4.9150
 101   0.0000      -0.042875        -1.1667
 102   0.0000      -0.030650        -0.8340
 103   0.0000      -0.010959        -0.2982
 104   0.0000       0.009612         0.2616
 105   0.0000       0.019186         0.5221

MULLIKEN ATOMIC CHARGES
-----------------------
   0 C :   -0.310862
   1 C :   -0.011856
   2 O :   -0.377206
   3 P :    0.578420
   4 S :   -0.275149
   5 O :   -0.347304
   6 C :   -0.007059
   7 C :   -0.285448
   8 S :   -0.122735
   9 C :   -0.329449
  10 S :   -0.142217
  11 P :    0.608820
  12 S :   -0.300776
  13 O :   -0.349762
  14 C :   -0.018289
  15 C :   -0.317127
  16 O :   -0.377382
  17 C :   -0.005801
  18 C :   -0.279893
  19 H :    0.111889
  20 H :    0.131299
  21 H :    0.128941
  22 H :    0.109389
  23 H :    0.113060
  24 H :    0.107196
  25 H :    0.098434
  26 H :    0.121181
  27 H :    0.117636
  28 H :    0.109681
  29 H :    0.177795
  30 H :    0.209564
  31 H :    0.137337
  32 H :    0.107433
  33 H :    0.119556
  34 H :    0.110574
  35 H :    0.123136
  36 H :    0.101000
  37 H :    0.092978
  38 H :    0.109160
  39 H :    0.112448
  40 H :    0.121391
Sum of atomic charges:   -0.0000000

LOEWDIN ATOMIC CHARGES
----------------------
   0 C :   -0.369139
   1 C :   -0.115158
   2 O :   -0.245449
   3 P :    0.557783
   4 S :   -0.281146
   5 O :   -0.231271
   6 C :   -0.116748
   7 C :   -0.357911
   8 S :    0.061897
   9 C :   -0.479133
  10 S :    0.053277
  11 P :    0.572837
  12 S :   -0.300570
  13 O :   -0.223081
  14 C :   -0.116463
  15 C :   -0.367738
  16 O :   -0.249403
  17 C :   -0.124989
  18 C :   -0.350577
  19 H :    0.130491
  20 H :    0.123416
  21 H :    0.131691
  22 H :    0.121088
  23 H :    0.107946
  24 H :    0.118052
  25 H :    0.102813
  26 H :    0.127016
  27 H :    0.127738
  28 H :    0.129299
  29 H :    0.135156
  30 H :    0.125939
  31 H :    0.113986
  32 H :    0.122993
  33 H :    0.113940
  34 H :    0.129934
  35 H :    0.128255
  36 H :    0.105840
  37 H :    0.104139
  38 H :    0.129390
  39 H :    0.124524
  40 H :    0.129341

  Mayer bond orders larger than 0.100000
B(  0-C ,  1-C ) :   1.1668 B(  0-C , 19-H ) :   0.9345 B(  0-C , 20-H ) :   0.9318
B(  0-C , 21-H ) :   0.9426 B(  1-C ,  2-O ) :   0.9107 B(  1-C , 22-H ) :   0.9331
B(  1-C , 23-H ) :   0.9266 B(  2-O ,  3-P ) :   1.0804 B(  3-P ,  4-S ) :   1.6744
B(  3-P ,  5-O ) :   1.1068 B(  3-P ,  8-S ) :   0.9355 B(  4-S ,  8-S ) :   0.1093
B(  5-O ,  6-C ) :   0.8855 B(  6-C ,  7-C ) :   1.1656 B(  6-C , 24-H ) :   0.9342
B(  6-C , 25-H ) :   0.9117 B(  7-C , 26-H ) :   0.9429 B(  7-C , 27-H ) :   0.9480
B(  7-C , 28-H ) :   0.9405 B(  8-S ,  9-C ) :   0.9976 B(  9-C , 10-S ) :   0.9959
B(  9-C , 29-H ) :   0.9110 B(  9-C , 30-H ) :   0.8417 B( 10-S , 11-P ) :   0.9307
B( 10-S , 12-S ) :   0.1161 B( 11-P , 12-S ) :   1.6319 B( 11-P , 13-O ) :   1.1607
B( 11-P , 16-O ) :   1.0777 B( 12-S , 30-H ) :   0.1049 B( 13-O , 14-C ) :   0.8924
B( 14-C , 15-C ) :   1.1644 B( 14-C , 31-H ) :   0.9063 B( 14-C , 32-H ) :   0.9338
B( 15-C , 33-H ) :   0.9381 B( 15-C , 34-H ) :   0.9362 B( 15-C , 35-H ) :   0.9414
B( 16-O , 17-C ) :   0.9112 B( 17-C , 18-C ) :   1.1599 B( 17-C , 36-H ) :   0.9057
B( 17-C , 37-H ) :   0.9255 B( 18-C , 38-H ) :   0.9425 B( 18-C , 39-H ) :   0.9517
B( 18-C , 40-H ) :   0.9509

Dispersion correction           -0.066688331
FINAL SINGLE POINT ENERGY     -2929.514650577049

DIPOLE MOMENT
-------------

Method             : SCF
Type of density    : Electron Density
Multiplicity       :   1
Irrep              :   0
Energy             : -2929.6337009535909601 Eh
Relativity type    :
Basis              : AO
                                X                 Y                 Z
Electronic contribution:      0.349666335       1.873054888     -13.048894037
Nuclear contribution   :      0.494977168      -3.133907661      14.610545250
                        -----------------------------------------
Total Dipole Moment    :      0.844643503      -1.260852774       1.561651213
                        -----------------------------------------
Magnitude (a.u.)       :      2.177596582
Magnitude (Debye)      :      5.535010638

Rotational constants in cm-1:             0.013259             0.005117             0.004617
Rotational constants in MHz :           397.499570           153.392964           138.402185

                             ****ORCA TERMINATED NORMALLY****
TOTAL RUN TIME: 0 days 0 hours 0 minutes 20 seconds 920 msec
