                         Program Version 6.0.0  -   RELEASE  -
|  1> ! wb97x-v def2-tzvp def2/J RIJCOSX DEFGRID2 scfconv7 GCP(DFT/TZ) printgap
|  2> %output
|  3>     printlevel normal
|  4> end
|  5> * xyz 0 1
|  6> C -4.0034986395974155 -0.6786135247659243 -0.000619996859156587
|  7> C -3.9980410955047065 0.7183576402992289 -0.001150493033879855
|  8> C -2.795074059275582 1.4063582904520462 -0.000698046590714522
|  9> C -1.5837329816023116 0.7049687931645467 2.998989965081304e-05
| 10> C -1.5865242514682092 -0.7022884367278949 0.00047784852254250727
| 11> C -2.8082060979225356 -1.38241687705424 0.0002514653885492915
| 12> C -0.3242885189442473 -1.4763849010207866 0.0007369018872788381
| 13> O -0.37714906153366035 -2.7291339506276158 0.00167370850540775
| 14> C 0.9253643965331602 -0.7481371728241899 0.00025721353650769917
| 15> C 2.168567668470932 -1.43397821024613 -0.00029439273999306046
| 16> C 3.374174984885155 -0.6711673242361724 -0.0013199573147805671
| 17> C 3.3609694346724734 0.691936123265006 -0.0013423673414238407
| 18> C 2.1350229233802365 1.391994942938176 -0.0004148130354974517
| 19> C 0.9216974810404979 0.6859360824582181 0.00011833876057876967
| 20> C -0.31569407380967246 1.437969703533906 4.230634040190928e-05
| 21> O -0.31321890566011495 2.6997439346002112 0.0007016440726397682
| 22> O 2.1860543301793074 2.7359574127137347 -0.00043684981816611006
| 23> N 2.2712412089968286 -2.7756817082709935 -2.66253934272143e-05
| 24> H -4.945753272514494 -1.2165635487392878 -0.0009117166308068004
| 25> H -4.934890578337418 1.2653010398909628 -0.0019314171072095131
| 26> H -2.779831174337961 2.4902773322511065 -0.0011623217330277722
| 27> H -2.8089630842075053 -2.466351809182076 0.0005929200080506611
| 28> H 4.319500231904833 -1.206033432956304 -0.0020110116899131627
| 29> H 4.284970285462064 1.2602151298136643 -0.0020608203585620105
| 30> H 1.2195996126040503 3.0280835859802213 8.805817894891224e-05
| 31> H 1.424081287034181 -3.3272818852168307 0.0003253675834698203
| 32> H 3.182609257734637 -3.2051313002237936 -0.0012683367850403824
| 33> *
| 34>
| 35>                          ****END OF INPUT****

CARTESIAN COORDINATES (ANGSTROEM)
---------------------------------
  C     -4.003499   -0.678614   -0.000620
  C     -3.998041    0.718358   -0.001150
  C     -2.795074    1.406358   -0.000698
  C     -1.583733    0.704969    0.000030
  C     -1.586524   -0.702288    0.000478
  C     -2.808206   -1.382417    0.000251
  C     -0.324289   -1.476385    0.000737
  O     -0.377149   -2.729134    0.001674
  C      0.925364   -0.748137    0.000257
  C      2.168568   -1.433978   -0.000294
  C      3.374175   -0.671167   -0.001320
  C      3.360969    0.691936   -0.001342
  C      2.135023    1.391995   -0.000415
  C      0.921697    0.685936    0.000118
  C     -0.315694    1.437970    0.000042
  O     -0.313219    2.699744    0.000702
  O      2.186054    2.735957   -0.000437
  N      2.271241   -2.775682   -0.000027
  H     -4.945753   -1.216564   -0.000912
  H     -4.934891    1.265301   -0.001931
  H     -2.779831    2.490277   -0.001162
  H     -2.808963   -2.466352    0.000593
  H      4.319500   -1.206033   -0.002011
  H      4.284970    1.260215   -0.002061
  H      1.219600    3.028084    0.000088
  H      1.424081   -3.327282    0.000325
  H      3.182609   -3.205131   -0.001268

 Total Charge           Charge          ....    0
 Multiplicity           Mult            ....    1
 Number of Electrons    NEL             ....  124
 Basis Dimension        Dim             ....  612

ORBITAL ENERGIES
----------------

  NO   OCC          E(Eh)            E(eV)
   0   2.0000     -21.690507      -590.2287
   1   2.0000     -21.676828      -589.8565
   2   2.0000     -21.661914      -589.4506
   3   2.0000     -16.547571      -450.2823
   4   2.0000     -12.156601      -330.7979
   5   2.0000     -12.146667      -330.5276
   6   2.0000     -12.131665      -330.1194
   7   2.0000     -12.124029      -329.9116
   8   2.0000     -12.081320      -328.7494
   9   2.0000     -12.081072      -328.7427
  10   2.0000     -12.079365      -328.6962
  11   2.0000     -12.076090      -328.6071
  12   2.0000     -12.074097      -328.5529
  13   2.0000     -12.072584      -328.5117
  14   2.0000     -12.072235      -328.5022
  15   2.0000     -12.070604      -328.4578
  16   2.0000     -12.069480      -328.4273
  17   2.0000     -12.068616      -328.4037
  18   2.0000      -1.720074       -46.8056
  19   2.0000      -1.703728       -46.3608
  20   2.0000      -1.695922       -46.1484
  21   2.0000      -1.522305       -41.4240
  22   2.0000      -1.418522       -38.6000
  23   2.0000      -1.396342       -37.9964
  24   2.0000      -1.342849       -36.5408
  25   2.0000      -1.310067       -35.6487
  26   2.0000      -1.301108       -35.4049
  27   2.0000      -1.290352       -35.1123
  28   2.0000      -1.229528       -33.4572
  29   2.0000      -1.186539       -32.2874
  30   2.0000      -1.170964       -31.8635
  31   2.0000      -1.147307       -31.2198
  32   2.0000      -1.116380       -30.3782
  33   2.0000      -1.091428       -29.6993
  34   2.0000      -1.082738       -29.4628
  35   2.0000      -1.059453       -28.8292
  36   2.0000      -1.054006       -28.6810
  37   2.0000      -1.028588       -27.9893
  38   2.0000      -1.020610       -27.7722
  39   2.0000      -1.000538       -27.2260
  40   2.0000      -0.990138       -26.9430
  41   2.0000      -0.985028       -26.8040
  42   2.0000      -0.959519       -26.1098
  43   2.0000      -0.944206       -25.6931
  44   2.0000      -0.943731       -25.6802
  45   2.0000      -0.933539       -25.4029
  46   2.0000      -0.916631       -24.9428
  47   2.0000      -0.910798       -24.7841
  48   2.0000      -0.909582       -24.7510
  49   2.0000      -0.904302       -24.6073
  50   2.0000      -0.883312       -24.0361
  51   2.0000      -0.862178       -23.4611
  52   2.0000      -0.858644       -23.3649
  53   2.0000      -0.843380       -22.9495
  54   2.0000      -0.831536       -22.6273
  55   2.0000      -0.819157       -22.2904
  56   2.0000      -0.797538       -21.7021
  57   2.0000      -0.761661       -20.7259
  58   2.0000      -0.695030       -18.9127
  59   2.0000      -0.668541       -18.1919
  60   2.0000      -0.662614       -18.0307
  61   2.0000      -0.630901       -17.1677
  62   0.0000      -0.420093       -11.4313
  63   0.0000      -0.330214        -8.9856
  64   0.0000      -0.270575        -7.3627
  65   0.0000      -0.252783        -6.8786
  66   0.0000      -0.211181        -5.7465

MULLIKEN ATOMIC CHARGES
-----------------------
   0 C :   -0.077409
   1 C :   -0.087239
   2 C :   -0.191060
   3 C :    0.054918
   4 C :    0.075962
   5 C :   -0.194540
   6 C :    0.229348
   7 O :   -0.440832
   8 C :   -0.066716
   9 C :    0.216987
  10 C :   -0.183099
  11 C :   -0.213981
  12 C :    0.197904
  13 C :   -0.069609
  14 C :    0.286827
  15 O :   -0.428762
  16 O :   -0.381297
  17 N :   -0.385086
  18 H :    0.129542
  19 H :    0.129246
  20 H :    0.154343
  21 H :    0.153869
  22 H :    0.113884
  23 H :    0.132847
  24 H :    0.350571
  25 H :    0.267396
  26 H :    0.225989
Sum of atomic charges:    0.0000000

LOEWDIN ATOMIC CHARGES
----------------------
   0 C :   -0.115211
   1 C :   -0.119175
   2 C :   -0.067071
   3 C :   -0.071832
   4 C :   -0.060458
   5 C :   -0.070003
   6 C :   -0.226172
   7 O :    0.056189
   8 C :   -0.078450
   9 C :   -0.179951
  10 C :   -0.093412
  11 C :   -0.085904
  12 C :   -0.220084
  13 C :   -0.082304
  14 C :   -0.205202
  15 O :    0.069480
  16 O :    0.097289
  17 N :    0.030220
  18 H :    0.146021
  19 H :    0.145896
  20 H :    0.156813
  21 H :    0.156782
  22 H :    0.146997
  23 H :    0.155555
  24 H :    0.177270
  25 H :    0.170922
  26 H :    0.165796

  Mayer bond orders larger than 0.100000
B(  0-C ,  1-C ) :   1.3744 B(  0-C ,  5-C ) :   1.4200 B(  0-C , 18-H ) :   0.9757
B(  1-C ,  2-C ) :   1.4326 B(  1-C , 19-H ) :   0.9761 B(  2-C ,  3-C ) :   1.3846
B(  2-C , 20-H ) :   0.9519 B(  3-C ,  4-C ) :   1.3483 B(  3-C , 14-C ) :   1.0402
B(  3-C , 15-O ) :  -0.1252 B(  4-C ,  5-C ) :   1.4057 B(  4-C ,  6-C ) :   1.0170
B(  4-C ,  7-O ) :  -0.1462 B(  5-C , 21-H ) :   0.9495 B(  6-C ,  7-O ) :   1.9224
B(  6-C ,  8-C ) :   1.0574 B(  8-C ,  9-C ) :   1.3190 B(  8-C , 13-C ) :   1.1475
B(  9-C , 10-C ) :   1.2165 B(  9-C , 17-N ) :   1.2672 B( 10-C , 11-C ) :   1.6251
B( 10-C , 22-H ) :   0.9673 B( 11-C , 12-C ) :   1.2953 B( 11-C , 23-H ) :   0.9739
B( 12-C , 13-C ) :   1.2717 B( 12-C , 16-O ) :   1.3078 B( 13-C , 14-C ) :   1.0379
B( 14-C , 15-O ) :   1.8499 B( 15-O , 24-H ) :   0.1782 B( 16-O , 24-H ) :   0.7468
B( 17-N , 25-H ) :   0.8655 B( 17-N , 26-H ) :   0.9177

FINAL SINGLE POINT ENERGY      -819.425352464553

DIPOLE MOMENT
-------------

Method             : SCF
Type of density    : Electron Density
Multiplicity       :   1
Irrep              :   0
Energy             :  -819.4401985019528638 Eh
Relativity type    :
Basis              : AO
                                X                 Y                 Z
Electronic contribution:      1.137805156       2.230376505       0.004499006
Nuclear contribution   :     -0.950301932      -3.156455349      -0.006910447
                        -----------------------------------------
Total Dipole Moment    :      0.187503223      -0.926078845      -0.002411442
                        -----------------------------------------
Magnitude (a.u.)       :      0.944873166
Magnitude (Debye)      :      2.401676724

Rotational constants in cm-1:             0.023892             0.012882             0.008369
Rotational constants in MHz :           716.263857           386.189332           250.907250

                             ****ORCA TERMINATED NORMALLY****
TOTAL RUN TIME: 0 days 0 hours 14 minutes 18 seconds 971 msec
