                         Program Version 6.0.0  -   RELEASE  -
|  1> ! wb97x-v def2-tzvp def2/J RIJCOSX DEFGRID2 scfconv7 GCP(DFT/TZ) printgap
|  2> %output
|  3>     printlevel normal
|  4> end
|  5> %cpcm
|  6>     smd true
|  7>     smdsolvent "water"
|  8> end
|  9> * xyz 0 1
| 10> C -4.0034986395974155 -0.6786135247659243 -0.000619996859156587
| 11> C -3.9980410955047065 0.7183576402992289 -0.001150493033879855
| 12> C -2.795074059275582 1.4063582904520462 -0.000698046590714522
| 13> C -1.5837329816023116 0.7049687931645467 2.998989965081304e-05
| 14> C -1.5865242514682092 -0.7022884367278949 0.00047784852254250727
| 15> C -2.8082060979225356 -1.38241687705424 0.0002514653885492915
| 16> C -0.3242885189442473 -1.4763849010207866 0.0007369018872788381
| 17> O -0.37714906153366035 -2.7291339506276158 0.00167370850540775
| 18> C 0.9253643965331602 -0.7481371728241899 0.00025721353650769917
| 19> C 2.168567668470932 -1.43397821024613 -0.00029439273999306046
| 20> C 3.374174984885155 -0.6711673242361724 -0.0013199573147805671
| 21> C 3.3609694346724734 0.691936123265006 -0.0013423673414238407
| 22> C 2.1350229233802365 1.391994942938176 -0.0004148130354974517
| 23> C 0.9216974810404979 0.6859360824582181 0.00011833876057876967
| 24> C -0.31569407380967246 1.437969703533906 4.230634040190928e-05
| 25> O -0.31321890566011495 2.6997439346002112 0.0007016440726397682
| 26> O 2.1860543301793074 2.7359574127137347 -0.00043684981816611006
| 27> N 2.2712412089968286 -2.7756817082709935 -2.66253934272143e-05
| 28> H -4.945753272514494 -1.2165635487392878 -0.0009117166308068004
| 29> H -4.934890578337418 1.2653010398909628 -0.0019314171072095131
| 30> H -2.779831174337961 2.4902773322511065 -0.0011623217330277722
| 31> H -2.8089630842075053 -2.466351809182076 0.0005929200080506611
| 32> H 4.319500231904833 -1.206033432956304 -0.0020110116899131627
| 33> H 4.284970285462064 1.2602151298136643 -0.0020608203585620105
| 34> H 1.2195996126040503 3.0280835859802213 8.805817894891224e-05
| 35> H 1.424081287034181 -3.3272818852168307 0.0003253675834698203
| 36> H 3.182609257734637 -3.2051313002237936 -0.0012683367850403824
| 37> *
| 38>
| 39>                          ****END OF INPUT****

CARTESIAN COORDINATES (ANGSTROEM)
---------------------------------
  C     -4.003499   -0.678614   -0.000620
  C     -3.998041    0.718358   -0.001150
  C     -2.795074    1.406358   -0.000698
  C     -1.583733    0.704969    0.000030
  C     -1.586524   -0.702288    0.000478
  C     -2.808206   -1.382417    0.000251
  C     -0.324289   -1.476385    0.000737
  O     -0.377149   -2.729134    0.001674
  C      0.925364   -0.748137    0.000257
  C      2.168568   -1.433978   -0.000294
  C      3.374175   -0.671167   -0.001320
  C      3.360969    0.691936   -0.001342
  C      2.135023    1.391995   -0.000415
  C      0.921697    0.685936    0.000118
  C     -0.315694    1.437970    0.000042
  O     -0.313219    2.699744    0.000702
  O      2.186054    2.735957   -0.000437
  N      2.271241   -2.775682   -0.000027
  H     -4.945753   -1.216564   -0.000912
  H     -4.934891    1.265301   -0.001931
  H     -2.779831    2.490277   -0.001162
  H     -2.808963   -2.466352    0.000593
  H      4.319500   -1.206033   -0.002011
  H      4.284970    1.260215   -0.002061
  H      1.219600    3.028084    0.000088
  H      1.424081   -3.327282    0.000325
  H      3.182609   -3.205131   -0.001268

 Total Charge           Charge          ....    0
 Multiplicity           Mult            ....    1
 Number of Electrons    NEL             ....  124
 Basis Dimension        Dim             ....  612

ORBITAL ENERGIES
----------------

  NO   OCC          E(Eh)            E(eV)
   0   2.0000     -21.699745      -590.4801
   1   2.0000     -21.680401      -589.9537
   2   2.0000     -21.664500      -589.5210
   3   2.0000     -16.538729      -450.0417
   4   2.0000     -12.159440      -330.8752
   5   2.0000     -12.148965      -330.5901
   6   2.0000     -12.132838      -330.1513
   7   2.0000     -12.119945      -329.8005
   8   2.0000     -12.078249      -328.6659
   9   2.0000     -12.076233      -328.6110
  10   2.0000     -12.072079      -328.4980
  11   2.0000     -12.070815      -328.4636
  12   2.0000     -12.068938      -328.4125
  13   2.0000     -12.066670      -328.3508
  14   2.0000     -12.065965      -328.3316
  15   2.0000     -12.065551      -328.3203
  16   2.0000     -12.063798      -328.2726
  17   2.0000     -12.062742      -328.2439
  18   2.0000      -1.727967       -47.0204
  19   2.0000      -1.710351       -46.5410
  20   2.0000      -1.701382       -46.2970
  21   2.0000      -1.513778       -41.1920
  22   2.0000      -1.415231       -38.5104
  23   2.0000      -1.392550       -37.8932
  24   2.0000      -1.338008       -36.4090
  25   2.0000      -1.307312       -35.5738
  26   2.0000      -1.296070       -35.2679
  27   2.0000      -1.287265       -35.0283
  28   2.0000      -1.227887       -33.4125
  29   2.0000      -1.182835       -32.1866
  30   2.0000      -1.169968       -31.8364
  31   2.0000      -1.145810       -31.1791
  32   2.0000      -1.114939       -30.3390
  33   2.0000      -1.089745       -29.6535
  34   2.0000      -1.082570       -29.4582
  35   2.0000      -1.057890       -28.7866
  36   2.0000      -1.052924       -28.6515
  37   2.0000      -1.027957       -27.9721
  38   2.0000      -1.021796       -27.8045
  39   2.0000      -0.999289       -27.1920
  40   2.0000      -0.988523       -26.8991
  41   2.0000      -0.981776       -26.7155
  42   2.0000      -0.956104       -26.0169
  43   2.0000      -0.953843       -25.9554
  44   2.0000      -0.939973       -25.5780
  45   2.0000      -0.928166       -25.2567
  46   2.0000      -0.924856       -25.1666
  47   2.0000      -0.912918       -24.8418
  48   2.0000      -0.906328       -24.6624
  49   2.0000      -0.901787       -24.5389
  50   2.0000      -0.879329       -23.9277
  51   2.0000      -0.859521       -23.3888
  52   2.0000      -0.852270       -23.1915
  53   2.0000      -0.836914       -22.7736
  54   2.0000      -0.825540       -22.4641
  55   2.0000      -0.815681       -22.1958
  56   2.0000      -0.794989       -21.6327
  57   2.0000      -0.758015       -20.6266
  58   2.0000      -0.690484       -18.7890
  59   2.0000      -0.666328       -18.1317
  60   2.0000      -0.657196       -17.8832
  61   2.0000      -0.627050       -17.0629
  62   0.0000      -0.417472       -11.3600
  63   0.0000      -0.327282        -8.9058
  64   0.0000      -0.265482        -7.2241
  65   0.0000      -0.248586        -6.7644
  66   0.0000      -0.209095        -5.6898

MULLIKEN ATOMIC CHARGES
-----------------------
   0 C :   -0.119413
   1 C :   -0.130449
   2 C :   -0.216329
   3 C :    0.075326
   4 C :    0.100534
   5 C :   -0.223411
   6 C :    0.264940
   7 O :   -0.525257
   8 C :   -0.086878
   9 C :    0.194457
  10 C :   -0.217100
  11 C :   -0.224886
  12 C :    0.237924
  13 C :   -0.072568
  14 C :    0.332701
  15 O :   -0.501159
  16 O :   -0.440202
  17 N :   -0.395224
  18 H :    0.171048
  19 H :    0.170375
  20 H :    0.166775
  21 H :    0.164043
  22 H :    0.170677
  23 H :    0.166515
  24 H :    0.371851
  25 H :    0.278684
  26 H :    0.287025
Sum of atomic charges:    0.0000000

LOEWDIN ATOMIC CHARGES
----------------------
   0 C :   -0.109567
   1 C :   -0.114322
   2 C :   -0.071201
   3 C :   -0.073994
   4 C :   -0.063548
   5 C :   -0.077132
   6 C :   -0.224635
   7 O :    0.004146
   8 C :   -0.084094
   9 C :   -0.176393
  10 C :   -0.073378
  11 C :   -0.083608
  12 C :   -0.220807
  13 C :   -0.082793
  14 C :   -0.197413
  15 O :    0.029354
  16 O :    0.070326
  17 N :    0.045169
  18 H :    0.157761
  19 H :    0.157487
  20 H :    0.159709
  21 H :    0.158500
  22 H :    0.165720
  23 H :    0.165422
  24 H :    0.180401
  25 H :    0.171829
  26 H :    0.187062

  Mayer bond orders larger than 0.100000
B(  0-C ,  1-C ) :   1.3668 B(  0-C ,  5-C ) :   1.4218 B(  0-C , 18-H ) :   0.9751
B(  1-C ,  2-C ) :   1.4314 B(  1-C , 19-H ) :   0.9763 B(  2-C ,  3-C ) :   1.3208
B(  2-C , 20-H ) :   0.9686 B(  3-C ,  4-C ) :   1.3536 B(  3-C , 14-C ) :   1.0558
B(  3-C , 15-O ) :  -0.1172 B(  4-C ,  5-C ) :   1.3388 B(  4-C ,  6-C ) :   1.0292
B(  4-C ,  7-O ) :  -0.1500 B(  5-C , 21-H ) :   0.9673 B(  6-C ,  7-O ) :   1.8614
B(  6-C ,  8-C ) :   1.0786 B(  8-C ,  9-C ) :   1.2692 B(  8-C , 13-C ) :   1.1391
B(  9-C , 10-C ) :   1.2004 B(  9-C , 17-N ) :   1.3278 B( 10-C , 11-C ) :   1.6164
B( 10-C , 22-H ) :   0.9715 B( 11-C , 12-C ) :   1.2448 B( 11-C , 23-H ) :   0.9816
B( 12-C , 13-C ) :   1.2665 B( 12-C , 16-O ) :   1.2521 B( 13-C , 14-C ) :   1.0500
B( 14-C , 15-O ) :   1.7817 B( 15-O , 24-H ) :   0.1735 B( 16-O , 24-H ) :   0.7339
B( 17-N , 25-H ) :   0.8646 B( 17-N , 26-H ) :   0.8866

FINAL SINGLE POINT ENERGY      -819.440470205127

DIPOLE MOMENT
-------------

Method             : SCF
Type of density    : Electron Density
Multiplicity       :   1
Irrep              :   0
Energy             :  -819.4553162425272603 Eh
Relativity type    :
Basis              : AO
                                X                 Y                 Z
Electronic contribution:      1.460610725       1.872003943       0.003286934
Nuclear contribution   :     -0.950301932      -3.156455349      -0.006910447
                        -----------------------------------------
Total Dipole Moment    :      0.510308792      -1.284451407      -0.003623514
                        -----------------------------------------
Magnitude (a.u.)       :      1.382115628
Magnitude (Debye)      :      3.513058739

Rotational constants in cm-1:             0.023892             0.012882             0.008369
Rotational constants in MHz :           716.263857           386.189332           250.907250

                             ****ORCA TERMINATED NORMALLY****
TOTAL RUN TIME: 0 days 0 hours 14 minutes 55 seconds 873 msec
