                         Program Version 6.0.0  -   RELEASE  -
|  1> ! pbe def2-sv(p) def2/J RI DEFGRID1 loosescf d4 GCP(DFT/SV(P)) printgap
|  2> %output
|  3>     printlevel normal
|  4> end
|  5> * xyz 0 1
|  6> C 1.4676749296 -1.3071340686 -2.7168372023
|  7> C 2.3944918904 -0.1317745735 -2.4887822717
|  8> O 2.1266457123 0.5513368068 -1.2404288696
|  9> P 2.2977012125 -0.0472823144 0.2059151233
| 10> S 2.4785614884 1.38573227 1.5291660803
| 11> O 3.5557617467 -0.9960353062 -0.0223956048
| 12> C 4.0135479817 -2.0189584115 0.8806072715
| 13> C 4.4649200181 -1.4658118185 2.2163791518
| 14> S 0.7466805482 -1.4531490595 0.6241229836
| 15> C -0.1594372658 -0.5851648052 1.9381594241
| 16> S -1.934630217 -0.5048159462 1.6167067884
| 17> P -1.8684138673 0.5579965908 -0.2270858252
| 18> S -0.5851535109 2.0354493978 -0.3197888185
| 19> O -3.3913193361 0.9592393038 -0.4271012761
| 20> C -4.0085964477 1.9765678491 0.3878144967
| 21> C -5.3002753284 2.3915108198 -0.2868354156
| 22> O -1.6380672309 -0.5081934792 -1.3607594168
| 23> C -2.471186393 -1.6880835019 -1.5268755265
| 24> C -3.5096895413 -1.456746951 -2.6040764093
| 25> H 0.432563825 -0.9832466302 -2.6354882389
| 26> H 1.6419794764 -1.7083576203 -3.7103022617
| 27> H 1.6529516059 -2.0865035232 -1.9791049901
| 28> H 2.2395920755 0.6510207125 -3.2333717877
| 29> H 3.4403275358 -0.4448353523 -2.4877451046
| 30> H 3.2085206638 -2.7471738911 1.0136194027
| 31> H 4.8437854986 -2.4788834726 0.3413071035
| 32> H 4.8810373541 -2.2697374391 2.8148292806
| 33> H 5.2186991992 -0.6957542753 2.0719026865
| 34> H 3.6247687249 -1.0222982155 2.7474010906
| 35> H 0.2556104506 0.4233822199 2.0308205446
| 36> H -0.049531862 -1.1416470086 2.8657070956
| 37> H -4.1922200255 1.5536675001 1.3791485851
| 38> H -3.3132671731 2.8175113409 0.480197354
| 39> H -5.9616095765 1.5353403863 -0.3821677893
| 40> H -5.7849760015 3.1544649091 0.3132720391
| 41> H -5.0932735431 2.7917446462 -1.2753987604
| 42> H -1.771752722 -2.4794848456 -1.8027084043
| 43> H -2.9388346025 -1.9277579894 -0.5682990245
| 44> H -4.0802175316 -2.3691432186 -2.7461630283
| 45> H -4.1812695632 -0.6540225545 -2.3118462141
| 46> H -3.0269299506 -1.1860046219 -3.5389703404
| 47> *
| 48>
| 49>                          ****END OF INPUT****

CARTESIAN COORDINATES (ANGSTROEM)
---------------------------------
  C      1.467675   -1.307134   -2.716837
  C      2.394492   -0.131775   -2.488782
  O      2.126646    0.551337   -1.240429
  P      2.297701   -0.047282    0.205915
  S      2.478561    1.385732    1.529166
  O      3.555762   -0.996035   -0.022396
  C      4.013548   -2.018958    0.880607
  C      4.464920   -1.465812    2.216379
  S      0.746681   -1.453149    0.624123
  C     -0.159437   -0.585165    1.938159
  S     -1.934630   -0.504816    1.616707
  P     -1.868414    0.557997   -0.227086
  S     -0.585154    2.035449   -0.319789
  O     -3.391319    0.959239   -0.427101
  C     -4.008596    1.976568    0.387814
  C     -5.300275    2.391511   -0.286835
  O     -1.638067   -0.508193   -1.360759
  C     -2.471186   -1.688084   -1.526876
  C     -3.509690   -1.456747   -2.604076
  H      0.432564   -0.983247   -2.635488
  H      1.641979   -1.708358   -3.710302
  H      1.652952   -2.086504   -1.979105
  H      2.239592    0.651021   -3.233372
  H      3.440328   -0.444835   -2.487745
  H      3.208521   -2.747174    1.013619
  H      4.843785   -2.478883    0.341307
  H      4.881037   -2.269737    2.814829
  H      5.218699   -0.695754    2.071903
  H      3.624769   -1.022298    2.747401
  H      0.255610    0.423382    2.030821
  H     -0.049532   -1.141647    2.865707
  H     -4.192220    1.553668    1.379149
  H     -3.313267    2.817511    0.480197
  H     -5.961610    1.535340   -0.382168
  H     -5.784976    3.154465    0.313272
  H     -5.093274    2.791745   -1.275399
  H     -1.771753   -2.479485   -1.802708
  H     -2.938835   -1.927758   -0.568299
  H     -4.080218   -2.369143   -2.746163
  H     -4.181270   -0.654023   -2.311846
  H     -3.026930   -1.186005   -3.538970

 Total Charge           Charge          ....    0
 Multiplicity           Mult            ....    1
 Number of Electrons    NEL             ....  202
 Basis Dimension        Dim             ....  334

ORBITAL ENERGIES
----------------

  NO   OCC          E(Eh)            E(eV)
   0   2.0000     -88.041815     -2395.7396
   1   2.0000     -88.040601     -2395.7066
   2   2.0000     -87.976167     -2393.9532
   3   2.0000     -87.974190     -2393.8994
   4   2.0000     -76.421776     -2079.5422
   5   2.0000     -76.420833     -2079.5166
   6   2.0000     -18.793461      -511.3961
   7   2.0000     -18.792613      -511.3730
   8   2.0000     -18.790132      -511.3055
   9   2.0000     -18.780630      -511.0469
  10   2.0000      -9.956804      -270.9384
  11   2.0000      -9.953675      -270.8533
  12   2.0000      -9.953593      -270.8510
  13   2.0000      -9.950621      -270.7702
  14   2.0000      -9.948539      -270.7135
  15   2.0000      -9.889917      -269.1183
  16   2.0000      -9.888410      -269.0773
  17   2.0000      -9.882288      -268.9107
  18   2.0000      -9.879144      -268.8252
  19   2.0000      -7.686987      -209.1735
  20   2.0000      -7.684779      -209.1135
  21   2.0000      -7.621077      -207.3800
  22   2.0000      -7.619473      -207.3364
  23   2.0000      -6.419322      -174.6786
  24   2.0000      -6.417612      -174.6321
  25   2.0000      -5.714785      -155.5072
  26   2.0000      -5.712586      -155.4474
  27   2.0000      -5.711296      -155.4123
  28   2.0000      -5.709237      -155.3562
  29   2.0000      -5.704263      -155.2209
  30   2.0000      -5.702004      -155.1594
  31   2.0000      -5.650206      -153.7499
  32   2.0000      -5.648625      -153.7069
  33   2.0000      -5.641583      -153.5153
  34   2.0000      -5.641173      -153.5041
  35   2.0000      -5.639961      -153.4712
  36   2.0000      -5.639458      -153.4574
  37   2.0000      -4.642196      -126.3206
  38   2.0000      -4.641236      -126.2945
  39   2.0000      -4.640520      -126.2750
  40   2.0000      -4.639451      -126.2459
  41   2.0000      -4.639303      -126.2419
  42   2.0000      -4.637818      -126.2014
  43   2.0000      -0.989152       -26.9162
  44   2.0000      -0.982196       -26.7269
  45   2.0000      -0.946346       -25.7514
  46   2.0000      -0.936020       -25.4704
  47   2.0000      -0.759794       -20.6750
  48   2.0000      -0.718906       -19.5624
  49   2.0000      -0.709544       -19.3077
  50   2.0000      -0.693850       -18.8806
  51   2.0000      -0.686425       -18.6786
  52   2.0000      -0.674550       -18.3554
  53   2.0000      -0.644824       -17.5465
  54   2.0000      -0.629798       -17.1377
  55   2.0000      -0.588192       -16.0055
  56   2.0000      -0.585443       -15.9307
  57   2.0000      -0.576660       -15.6917
  58   2.0000      -0.570982       -15.5372
  59   2.0000      -0.563139       -15.3238
  60   2.0000      -0.508016       -13.8238
  61   2.0000      -0.493751       -13.4356
  62   2.0000      -0.482957       -13.1419
  63   2.0000      -0.466656       -12.6983
  64   2.0000      -0.447970       -12.1899
  65   2.0000      -0.445610       -12.1257
  66   2.0000      -0.442167       -12.0320
  67   2.0000      -0.434037       -11.8107
  68   2.0000      -0.428416       -11.6578
  69   2.0000      -0.422447       -11.4954
  70   2.0000      -0.404708       -11.0127
  71   2.0000      -0.402823       -10.9614
  72   2.0000      -0.391411       -10.6508
  73   2.0000      -0.387980       -10.5575
  74   2.0000      -0.382651       -10.4125
  75   2.0000      -0.364089        -9.9074
  76   2.0000      -0.358476        -9.7546
  77   2.0000      -0.355829        -9.6826
  78   2.0000      -0.351074        -9.5532
  79   2.0000      -0.350326        -9.5329
  80   2.0000      -0.346032        -9.4160
  81   2.0000      -0.344998        -9.3879
  82   2.0000      -0.342526        -9.3206
  83   2.0000      -0.334235        -9.0950
  84   2.0000      -0.331931        -9.0323
  85   2.0000      -0.318418        -8.6646
  86   2.0000      -0.312787        -8.5114
  87   2.0000      -0.299961        -8.1624
  88   2.0000      -0.294926        -8.0253
  89   2.0000      -0.292686        -7.9644
  90   2.0000      -0.283163        -7.7053
  91   2.0000      -0.275798        -7.5048
  92   2.0000      -0.269368        -7.3299
  93   2.0000      -0.260236        -7.0814
  94   2.0000      -0.253707        -6.9037
  95   2.0000      -0.233540        -6.3549
  96   2.0000      -0.220663        -6.0046
  97   2.0000      -0.206265        -5.6128
  98   2.0000      -0.194655        -5.2968
  99   2.0000      -0.186542        -5.0761
 100   2.0000      -0.178168        -4.8482
 101   0.0000      -0.039583        -1.0771
 102   0.0000      -0.031342        -0.8529
 103   0.0000      -0.003362        -0.0915
 104   0.0000       0.012496         0.3400
 105   0.0000       0.016034         0.4363

MULLIKEN ATOMIC CHARGES
-----------------------
   0 C :   -0.352296
   1 C :    0.010067
   2 O :   -0.345947
   3 P :    0.629587
   4 S :   -0.294880
   5 O :   -0.386486
   6 C :   -0.006056
   7 C :   -0.303749
   8 S :   -0.144626
   9 C :   -0.336226
  10 S :   -0.118466
  11 P :    0.581115
  12 S :   -0.276965
  13 O :   -0.383920
  14 C :   -0.011433
  15 C :   -0.283280
  16 O :   -0.349243
  17 C :   -0.007742
  18 C :   -0.290189
  19 H :    0.155979
  20 H :    0.108560
  21 H :    0.114889
  22 H :    0.110829
  23 H :    0.106542
  24 H :    0.105850
  25 H :    0.103117
  26 H :    0.106711
  27 H :    0.123002
  28 H :    0.121850
  29 H :    0.210735
  30 H :    0.176008
  31 H :    0.104445
  32 H :    0.108324
  33 H :    0.114658
  34 H :    0.114161
  35 H :    0.122877
  36 H :    0.108876
  37 H :    0.102874
  38 H :    0.109420
  39 H :    0.123382
  40 H :    0.117645
Sum of atomic charges:    0.0000000

LOEWDIN ATOMIC CHARGES
----------------------
   0 C :   -0.375088
   1 C :   -0.106890
   2 O :   -0.224831
   3 P :    0.572220
   4 S :   -0.290873
   5 O :   -0.247935
   6 C :   -0.118416
   7 C :   -0.368094
   8 S :    0.061730
   9 C :   -0.481440
  10 S :    0.059099
  11 P :    0.553820
  12 S :   -0.287465
  13 O :   -0.251563
  14 C :   -0.120578
  15 C :   -0.350748
  16 O :   -0.228719
  17 C :   -0.115576
  18 C :   -0.359078
  19 H :    0.132814
  20 H :    0.129052
  21 H :    0.112817
  22 H :    0.123802
  23 H :    0.111957
  24 H :    0.102715
  25 H :    0.117814
  26 H :    0.127771
  27 H :    0.129862
  28 H :    0.120033
  29 H :    0.125741
  30 H :    0.133730
  31 H :    0.108809
  32 H :    0.111391
  33 H :    0.124946
  34 H :    0.131984
  35 H :    0.129767
  36 H :    0.117964
  37 H :    0.103743
  38 H :    0.129426
  39 H :    0.126674
  40 H :    0.127614

  Mayer bond orders larger than 0.100000
B(  0-C ,  1-C ) :   1.1706 B(  0-C , 19-H ) :   0.9237 B(  0-C , 20-H ) :   0.9353
B(  0-C , 21-H ) :   0.9379 B(  1-C ,  2-O ) :   0.9039 B(  1-C , 22-H ) :   0.9321
B(  1-C , 23-H ) :   0.9276 B(  2-O ,  3-P ) :   1.1427 B(  3-P ,  4-S ) :   1.6412
B(  3-P ,  5-O ) :   1.0662 B(  3-P ,  8-S ) :   0.9244 B(  4-S ,  8-S ) :   0.1200
B(  4-S , 29-H ) :   0.1091 B(  5-O ,  6-C ) :   0.9172 B(  6-C ,  7-C ) :   1.1662
B(  6-C , 24-H ) :   0.9189 B(  6-C , 25-H ) :   0.9339 B(  7-C , 26-H ) :   0.9359
B(  7-C , 27-H ) :   0.9456 B(  7-C , 28-H ) :   0.9324 B(  8-S ,  9-C ) :   0.9978
B(  9-C , 10-S ) :   0.9981 B(  9-C , 29-H ) :   0.8397 B(  9-C , 30-H ) :   0.9110
B( 10-S , 11-P ) :   0.9409 B( 10-S , 12-S ) :   0.1096 B( 11-P , 12-S ) :   1.6946
B( 11-P , 13-O ) :   1.0728 B( 11-P , 16-O ) :   1.1202 B( 13-O , 14-C ) :   0.9043
B( 14-C , 15-C ) :   1.1595 B( 14-C , 31-H ) :   0.9283 B( 14-C , 32-H ) :   0.9092
B( 15-C , 33-H ) :   0.9509 B( 15-C , 34-H ) :   0.9418 B( 15-C , 35-H ) :   0.9508
B( 16-O , 17-C ) :   0.8788 B( 17-C , 18-C ) :   1.1666 B( 17-C , 36-H ) :   0.9329
B( 17-C , 37-H ) :   0.9107 B( 18-C , 38-H ) :   0.9400 B( 18-C , 39-H ) :   0.9409
B( 18-C , 40-H ) :   0.9482

Dispersion correction           -0.066379315
FINAL SINGLE POINT ENERGY     -2929.513754956004

DIPOLE MOMENT
-------------

Method             : SCF
Type of density    : Electron Density
Multiplicity       :   1
Irrep              :   0
Energy             : -2929.6329708041766935 Eh
Relativity type    :
Basis              : AO
                                X                 Y                 Z
Electronic contribution:      7.892365494       9.273775929       9.535824981
Nuclear contribution   :     -8.794753795     -11.069644200     -10.083294840
                        -----------------------------------------
Total Dipole Moment    :     -0.902388302      -1.795868271      -0.547469859
                        -----------------------------------------
Magnitude (a.u.)       :      2.083067627
Magnitude (Debye)      :      5.294737129

Rotational constants in cm-1:             0.013377             0.005032             0.004682
Rotational constants in MHz :           401.034939           150.857861           140.353209

                             ****ORCA TERMINATED NORMALLY****
TOTAL RUN TIME: 0 days 0 hours 0 minutes 21 seconds 312 msec
