                         Program Version 6.0.1  -  RELEASE   -
|  1> ! pbe def2-sv(p) def2/J RI DEFGRID1 loosescf d4 GCP(DFT/SV(P)) printgap
|  2> %output
|  3>     printlevel normal
|  4> end
|  5> * xyz 0 1
|  6> C 5.417779063 -1.2806660492 -0.4430577091
|  7> C 4.7207947114 -1.8636239213 -1.6618706667
|  8> O 3.3642747062 -2.2183431768 -1.3318669737
|  9> C 2.4009167512 -1.3636192891 -1.6052069452
| 10> O 2.5463062608 -0.3165345017 -2.1985992056
| 11> C 1.0542378738 -1.8825782875 -1.1304083998
| 12> C 0.2770347469 -0.7243059375 -0.5231702504
| 13> H 0.1568141536 0.0767749142 -1.2676238404
| 14> C 1.0339316508 -0.1061961499 0.6368123858
| 15> O 2.2334043201 -0.1941028868 0.7624663482
| 16> O 0.230720819 0.5372835685 1.4579476976
| 17> C 0.8112117876 1.2808776806 2.5493148995
| 18> C 1.1962661999 2.6796628442 2.1003839585
| 19> S -1.3902999872 -1.239406199 -0.0082925339
| 20> P -2.2694688772 0.693608428 0.1884425445
| 21> S -1.4359264054 2.1517960014 -0.8175887056
| 22> O -3.7871750793 0.3947916228 -0.2307044444
| 23> C -4.1387805145 0.0917901853 -1.5844101995
| 24> O -2.4686925695 1.0123039632 1.721438601
| 25> C -3.1583504178 0.1051840226 2.6049375683
| 26> H 4.8743685106 -0.4049238869 -0.0942142084
| 27> H 5.443826718 -2.012868104 0.358710475
| 28> H 6.4304946153 -0.9938842573 -0.7058703875
| 29> H 5.1871309864 -2.7959814276 -1.9822762559
| 30> H 4.7015260767 -1.1426642052 -2.4841584724
| 31> H 1.2143181372 -2.6788070162 -0.4047584066
| 32> H 0.5093726143 -2.2781652906 -1.9886224288
| 33> H 0.0268367388 1.3086467711 3.3054400764
| 34> H 1.6831581204 0.7291230179 2.9110162457
| 35> H 1.9782474473 2.6313635795 1.3452535524
| 36> H 0.3327925775 3.1840125965 1.6722648182
| 37> H 1.5581504328 3.2454112671 2.9521490864
| 38> H -3.695359118 0.8238385245 -2.261373996
| 39> H -5.2235935806 0.1468965783 -1.624997911
| 40> H -3.7946854384 -0.9099703665 -1.8411994525
| 41> H -2.6738710631 -0.8711106589 2.5876383722
| 42> H -4.19885259 0.0102264403 2.3013385516
| 43> H -3.0845509485 0.5566184861 3.5908666446
| 44> *
| 45>
| 46>                          ****END OF INPUT****

CARTESIAN COORDINATES (ANGSTROEM)
---------------------------------
  C      5.417779   -1.280666   -0.443058
  C      4.720795   -1.863624   -1.661871
  O      3.364275   -2.218343   -1.331867
  C      2.400917   -1.363619   -1.605207
  O      2.546306   -0.316535   -2.198599
  C      1.054238   -1.882578   -1.130408
  C      0.277035   -0.724306   -0.523170
  H      0.156814    0.076775   -1.267624
  C      1.033932   -0.106196    0.636812
  O      2.233404   -0.194103    0.762466
  O      0.230721    0.537284    1.457948
  C      0.811212    1.280878    2.549315
  C      1.196266    2.679663    2.100384
  S     -1.390300   -1.239406   -0.008293
  P     -2.269469    0.693608    0.188443
  S     -1.435926    2.151796   -0.817589
  O     -3.787175    0.394792   -0.230704
  C     -4.138781    0.091790   -1.584410
  O     -2.468693    1.012304    1.721439
  C     -3.158350    0.105184    2.604938
  H      4.874369   -0.404924   -0.094214
  H      5.443827   -2.012868    0.358710
  H      6.430495   -0.993884   -0.705870
  H      5.187131   -2.795981   -1.982276
  H      4.701526   -1.142664   -2.484158
  H      1.214318   -2.678807   -0.404758
  H      0.509373   -2.278165   -1.988622
  H      0.026837    1.308647    3.305440
  H      1.683158    0.729123    2.911016
  H      1.978247    2.631364    1.345254
  H      0.332793    3.184013    1.672265
  H      1.558150    3.245411    2.952149
  H     -3.695359    0.823839   -2.261374
  H     -5.223594    0.146897   -1.624998
  H     -3.794685   -0.909970   -1.841199
  H     -2.673871   -0.871111    2.587638
  H     -4.198853    0.010226    2.301339
  H     -3.084551    0.556618    3.590867

 Total Charge           Charge          ....    0
 Multiplicity           Mult            ....    1
 Number of Electrons    NEL             ....  174
 Basis Dimension        Dim             ....  316

ORBITAL ENERGIES
----------------

  NO   OCC          E(Eh)            E(eV)
   0   2.0000     -88.044265     -2395.8062
   1   2.0000     -87.986143     -2394.2247
   2   2.0000     -76.428771     -2079.7326
   3   2.0000     -18.812625      -511.9176
   4   2.0000     -18.798446      -511.5317
   5   2.0000     -18.794941      -511.4363
   6   2.0000     -18.793188      -511.3887
   7   2.0000     -18.746445      -510.1167
   8   2.0000     -18.728461      -509.6273
   9   2.0000     -10.019197      -272.6362
  10   2.0000     -10.004736      -272.2427
  11   2.0000      -9.954920      -270.8872
  12   2.0000      -9.949859      -270.7494
  13   2.0000      -9.946717      -270.6639
  14   2.0000      -9.944591      -270.6061
  15   2.0000      -9.938887      -270.4509
  16   2.0000      -9.910265      -269.6720
  17   2.0000      -9.879958      -268.8473
  18   2.0000      -9.876268      -268.7469
  19   2.0000      -7.688903      -209.2257
  20   2.0000      -7.631199      -207.6555
  21   2.0000      -6.425786      -174.8545
  22   2.0000      -5.716598      -155.5565
  23   2.0000      -5.713554      -155.4737
  24   2.0000      -5.706021      -155.2687
  25   2.0000      -5.660363      -154.0263
  26   2.0000      -5.651729      -153.7914
  27   2.0000      -5.651170      -153.7762
  28   2.0000      -4.648564      -126.4939
  29   2.0000      -4.647641      -126.4688
  30   2.0000      -4.646078      -126.4262
  31   2.0000      -1.020484       -27.7688
  32   2.0000      -1.001148       -27.2426
  33   2.0000      -0.991255       -26.9734
  34   2.0000      -0.946375       -25.7522
  35   2.0000      -0.927120       -25.2282
  36   2.0000      -0.906222       -24.6596
  37   2.0000      -0.766602       -20.8603
  38   2.0000      -0.710170       -19.3247
  39   2.0000      -0.703304       -19.1379
  40   2.0000      -0.691643       -18.8206
  41   2.0000      -0.659167       -17.9369
  42   2.0000      -0.640584       -17.4312
  43   2.0000      -0.624393       -16.9906
  44   2.0000      -0.616499       -16.7758
  45   2.0000      -0.591355       -16.0916
  46   2.0000      -0.559904       -15.2358
  47   2.0000      -0.519193       -14.1280
  48   2.0000      -0.501508       -13.6467
  49   2.0000      -0.493684       -13.4338
  50   2.0000      -0.480182       -13.0664
  51   2.0000      -0.473719       -12.8906
  52   2.0000      -0.467105       -12.7106
  53   2.0000      -0.440740       -11.9931
  54   2.0000      -0.438143       -11.9225
  55   2.0000      -0.431666       -11.7462
  56   2.0000      -0.425936       -11.5903
  57   2.0000      -0.422301       -11.4914
  58   2.0000      -0.417167       -11.3517
  59   2.0000      -0.411715       -11.2033
  60   2.0000      -0.405181       -11.0255
  61   2.0000      -0.398255       -10.8371
  62   2.0000      -0.392535       -10.6814
  63   2.0000      -0.379095       -10.3157
  64   2.0000      -0.371485       -10.1086
  65   2.0000      -0.363244        -9.8844
  66   2.0000      -0.351922        -9.5763
  67   2.0000      -0.350153        -9.5281
  68   2.0000      -0.346643        -9.4326
  69   2.0000      -0.338561        -9.2127
  70   2.0000      -0.329789        -8.9740
  71   2.0000      -0.325237        -8.8502
  72   2.0000      -0.319659        -8.6984
  73   2.0000      -0.315413        -8.5828
  74   2.0000      -0.309691        -8.4271
  75   2.0000      -0.300996        -8.1905
  76   2.0000      -0.295335        -8.0365
  77   2.0000      -0.284586        -7.7440
  78   2.0000      -0.274226        -7.4621
  79   2.0000      -0.269831        -7.3425
  80   2.0000      -0.262620        -7.1463
  81   2.0000      -0.250955        -6.8288
  82   2.0000      -0.248152        -6.7526
  83   2.0000      -0.217655        -5.9227
  84   2.0000      -0.215301        -5.8586
  85   2.0000      -0.205380        -5.5887
  86   2.0000      -0.200903        -5.4669
  87   0.0000      -0.046559        -1.2669
  88   0.0000      -0.029268        -0.7964
  89   0.0000      -0.011701        -0.3184
  90   0.0000       0.008982         0.2444
  91   0.0000       0.015113         0.4113

MULLIKEN ATOMIC CHARGES
-----------------------
   0 C :   -0.296491
   1 C :   -0.021722
   2 O :   -0.229404
   3 C :    0.116451
   4 O :   -0.207460
   5 C :   -0.050264
   6 C :   -0.360120
   7 H :    0.180312
   8 C :    0.242678
   9 O :   -0.189080
  10 O :   -0.227538
  11 C :   -0.006990
  12 C :   -0.307942
  13 S :   -0.104680
  14 P :    0.626106
  15 S :   -0.304753
  16 O :   -0.391646
  17 C :   -0.100744
  18 O :   -0.364201
  19 C :   -0.110066
  20 H :    0.136753
  21 H :    0.109510
  22 H :    0.106557
  23 H :    0.099478
  24 H :    0.110055
  25 H :    0.104524
  26 H :    0.120747
  27 H :    0.101604
  28 H :    0.107756
  29 H :    0.127231
  30 H :    0.133024
  31 H :    0.108675
  32 H :    0.120802
  33 H :    0.125699
  34 H :    0.114738
  35 H :    0.120499
  36 H :    0.128834
  37 H :    0.131068
Sum of atomic charges:   -0.0000000

LOEWDIN ATOMIC CHARGES
----------------------
   0 C :   -0.354419
   1 C :   -0.111188
   2 O :   -0.056219
   3 C :    0.032876
   4 O :   -0.172431
   5 C :   -0.244853
   6 C :   -0.280226
   7 H :    0.148637
   8 C :    0.033365
   9 O :   -0.146930
  10 O :   -0.051247
  11 C :   -0.106536
  12 C :   -0.357028
  13 S :    0.087524
  14 P :    0.578734
  15 S :   -0.299637
  16 O :   -0.261500
  17 C :   -0.216604
  18 O :   -0.237517
  19 C :   -0.211196
  20 H :    0.135230
  21 H :    0.123541
  22 H :    0.126901
  23 H :    0.115213
  24 H :    0.119865
  25 H :    0.134696
  26 H :    0.147268
  27 H :    0.116862
  28 H :    0.119118
  29 H :    0.131703
  30 H :    0.129880
  31 H :    0.128634
  32 H :    0.113084
  33 H :    0.122704
  34 H :    0.108439
  35 H :    0.110454
  36 H :    0.117931
  37 H :    0.124872

  Mayer bond orders larger than 0.100000
B(  0-C ,  1-C ) :   1.1774 B(  0-C , 20-H ) :   0.9407 B(  0-C , 21-H ) :   0.9503
B(  0-C , 22-H ) :   0.9440 B(  1-C ,  2-O ) :   0.9142 B(  1-C , 23-H ) :   0.9377
B(  1-C , 24-H ) :   0.9085 B(  2-O ,  3-C ) :   1.2422 B(  3-C ,  4-O ) :   2.0384
B(  3-C ,  5-C ) :   1.0033 B(  5-C ,  6-C ) :   1.0627 B(  5-C , 25-H ) :   0.9054
B(  5-C , 26-H ) :   0.8817 B(  6-C ,  7-H ) :   0.8155 B(  6-C ,  8-C ) :   0.8906
B(  6-C , 13-S ) :   1.0242 B(  8-C ,  9-O ) :   2.0158 B(  8-C , 10-O ) :   1.2519
B( 10-O , 11-C ) :   0.8971 B( 11-C , 12-C ) :   1.1831 B( 11-C , 27-H ) :   0.9327
B( 11-C , 28-H ) :   0.9156 B( 12-C , 29-H ) :   0.9452 B( 12-C , 30-H ) :   0.9390
B( 12-C , 31-H ) :   0.9425 B( 13-S , 14-P ) :   0.9437 B( 13-S , 15-S ) :   0.1152
B( 14-P , 15-S ) :   1.6446 B( 14-P , 16-O ) :   1.0654 B( 14-P , 18-O ) :   1.1191
B( 16-O , 17-C ) :   0.9315 B( 17-C , 32-H ) :   0.9356 B( 17-C , 33-H ) :   0.9585
B( 17-C , 34-H ) :   0.9464 B( 18-O , 19-C ) :   0.9172 B( 19-C , 35-H ) :   0.9385
B( 19-C , 36-H ) :   0.9473 B( 19-C , 37-H ) :   0.9582

Dispersion correction           -0.051776099
FINAL SINGLE POINT ENERGY     -1979.023762947790

DIPOLE MOMENT
-------------

Method             : SCF
Type of density    : Electron Density
Multiplicity       :   1
Irrep              :   0
Energy             : -1979.1552694897886795 Eh
Relativity type    :
Basis              : AO
                                X                 Y                 Z
Electronic contribution:    -13.553061324       0.881774400      -4.823486250
Nuclear contribution   :     12.860643056      -1.948196170       5.833969289
                        -----------------------------------------
Total Dipole Moment    :     -0.692418268      -1.066421770       1.010483040
                        -----------------------------------------
Magnitude (a.u.)       :      1.624122662
Magnitude (Debye)      :      4.128191735

Rotational constants in cm-1:             0.016586             0.005919             0.005218
Rotational constants in MHz :           497.222715           177.439344           156.429479

                             ****ORCA TERMINATED NORMALLY****
TOTAL RUN TIME: 0 days 0 hours 0 minutes 28 seconds 192 msec
