                         Program Version 6.0.0  -   RELEASE  -
|  1> ! pbe def2-sv(p) def2/J RI DEFGRID1 loosescf d4 GCP(DFT/SV(P)) printgap
|  2> %output
|  3>     printlevel normal
|  4> end
|  5> * xyz 0 1
|  6> C 5.7467512389 -0.2237478642 0.2563084414
|  7> C 4.4160289822 -0.6803669944 -0.30680816
|  8> O 3.376951269 0.0934835206 0.3239712846
|  9> P 1.916717071 0.1884157054 -0.299677252
| 10> S 1.8889092259 0.5973754409 -2.2213860896
| 11> O 1.2309141461 1.2090452995 0.6949405635
| 12> C 1.255655846 2.6331117544 0.4800738794
| 13> C 2.6545011137 3.1986268399 0.5928444851
| 14> S 1.0943900034 -1.6499838238 0.2895806681
| 15> C -0.2062151399 -1.8881260561 -0.9703120234
| 16> S -1.8651628602 -1.9759401526 -0.264214148
| 17> P -2.1153376023 0.0866723778 0.183570797
| 18> S -1.4922664039 1.3341749205 -1.1895359069
| 19> O -1.4293004696 0.3448209314 1.5799526105
| 20> C -1.8455324572 -0.298486267 2.8165302241
| 21> C -0.8307375188 -1.3381122439 3.2465865905
| 22> O -3.6572684101 0.1961894965 0.5560966228
| 23> C -4.6857186274 0.4250859809 -0.4244391937
| 24> C -4.8470537012 -0.7403501967 -1.3784097375
| 25> H 6.5408354445 -0.818558606 -0.1827083752
| 26> H 5.9136964644 0.8241874158 0.0236892085
| 27> H 5.7542363 -0.3508767682 1.3348237632
| 28> H 4.2328149955 -1.7364292451 -0.0908699753
| 29> H 4.3593984478 -0.5214203175 -1.3891690003
| 30> H 0.8254787892 2.8422976527 -0.5054989434
| 31> H 0.5900949581 3.0209935752 1.2530229312
| 32> H 3.2709236795 2.8192855717 -0.2213861275
| 33> H 2.6091696114 4.2812181561 0.5267031949
| 34> H 3.1011194255 2.907752908 1.5400113334
| 35> H -0.0307178235 -2.8466959792 -1.4512625749
| 36> H -0.147715385 -1.0681890149 -1.6914904991
| 37> H -1.9056724727 0.5177382222 3.5382225153
| 38> H -2.8344362651 -0.7371339076 2.6741478158
| 39> H 0.1625027925 -0.897508194 3.2818208698
| 40> H -1.0970618397 -1.7008224922 4.2342852603
| 41> H -0.8127273625 -2.1755056572 2.5532400863
| 42> H -5.5823613711 0.5808794077 0.1772236751
| 43> H -4.4408790056 1.3402750423 -0.9721175759
| 44> H -4.9621973187 -1.6698342643 -0.8266828398
| 45> H -5.7239955245 -0.5754860107 -1.9961933495
| 46> H -3.9735031848 -0.8195779861 -2.0233766999
| 47> *
| 48>
| 49>                          ****END OF INPUT****

CARTESIAN COORDINATES (ANGSTROEM)
---------------------------------
  C      5.746751   -0.223748    0.256308
  C      4.416029   -0.680367   -0.306808
  O      3.376951    0.093484    0.323971
  P      1.916717    0.188416   -0.299677
  S      1.888909    0.597375   -2.221386
  O      1.230914    1.209045    0.694941
  C      1.255656    2.633112    0.480074
  C      2.654501    3.198627    0.592844
  S      1.094390   -1.649984    0.289581
  C     -0.206215   -1.888126   -0.970312
  S     -1.865163   -1.975940   -0.264214
  P     -2.115338    0.086672    0.183571
  S     -1.492266    1.334175   -1.189536
  O     -1.429300    0.344821    1.579953
  C     -1.845532   -0.298486    2.816530
  C     -0.830738   -1.338112    3.246587
  O     -3.657268    0.196189    0.556097
  C     -4.685719    0.425086   -0.424439
  C     -4.847054   -0.740350   -1.378410
  H      6.540835   -0.818559   -0.182708
  H      5.913696    0.824187    0.023689
  H      5.754236   -0.350877    1.334824
  H      4.232815   -1.736429   -0.090870
  H      4.359398   -0.521420   -1.389169
  H      0.825479    2.842298   -0.505499
  H      0.590095    3.020994    1.253023
  H      3.270924    2.819286   -0.221386
  H      2.609170    4.281218    0.526703
  H      3.101119    2.907753    1.540011
  H     -0.030718   -2.846696   -1.451263
  H     -0.147715   -1.068189   -1.691490
  H     -1.905672    0.517738    3.538223
  H     -2.834436   -0.737134    2.674148
  H      0.162503   -0.897508    3.281821
  H     -1.097062   -1.700822    4.234285
  H     -0.812727   -2.175506    2.553240
  H     -5.582361    0.580879    0.177224
  H     -4.440879    1.340275   -0.972118
  H     -4.962197   -1.669834   -0.826683
  H     -5.723996   -0.575486   -1.996193
  H     -3.973503   -0.819578   -2.023377

 Total Charge           Charge          ....    0
 Multiplicity           Mult            ....    1
 Number of Electrons    NEL             ....  202
 Basis Dimension        Dim             ....  334

ORBITAL ENERGIES
----------------

  NO   OCC          E(Eh)            E(eV)
   0   2.0000     -88.043915     -2395.7967
   1   2.0000     -88.038955     -2395.6617
   2   2.0000     -87.982722     -2394.1316
   3   2.0000     -87.978866     -2394.0267
   4   2.0000     -76.424603     -2079.6192
   5   2.0000     -76.418976     -2079.4661
   6   2.0000     -18.794956      -511.4367
   7   2.0000     -18.787370      -511.2303
   8   2.0000     -18.787290      -511.2282
   9   2.0000     -18.779685      -511.0212
  10   2.0000      -9.954296      -270.8702
  11   2.0000      -9.954082      -270.8643
  12   2.0000      -9.953510      -270.8488
  13   2.0000      -9.947263      -270.6788
  14   2.0000      -9.938301      -270.4349
  15   2.0000      -9.885324      -268.9933
  16   2.0000      -9.884846      -268.9803
  17   2.0000      -9.879972      -268.8477
  18   2.0000      -9.875265      -268.7196
  19   2.0000      -7.688974      -209.2276
  20   2.0000      -7.684273      -209.0997
  21   2.0000      -7.627611      -207.5578
  22   2.0000      -7.623786      -207.4538
  23   2.0000      -6.422111      -174.7545
  24   2.0000      -6.416621      -174.6051
  25   2.0000      -5.716747      -155.5606
  26   2.0000      -5.713404      -155.4696
  27   2.0000      -5.712139      -155.4352
  28   2.0000      -5.708690      -155.3413
  29   2.0000      -5.706117      -155.2713
  30   2.0000      -5.701239      -155.1386
  31   2.0000      -5.656632      -153.9248
  32   2.0000      -5.652658      -153.8166
  33   2.0000      -5.648067      -153.6917
  34   2.0000      -5.647806      -153.6846
  35   2.0000      -5.644591      -153.5971
  36   2.0000      -5.643828      -153.5764
  37   2.0000      -4.645011      -126.3972
  38   2.0000      -4.643782      -126.3637
  39   2.0000      -4.642355      -126.3249
  40   2.0000      -4.638923      -126.2315
  41   2.0000      -4.638313      -126.2149
  42   2.0000      -4.637365      -126.1891
  43   2.0000      -0.987122       -26.8610
  44   2.0000      -0.979636       -26.6573
  45   2.0000      -0.942572       -25.6487
  46   2.0000      -0.937224       -25.5032
  47   2.0000      -0.761123       -20.7112
  48   2.0000      -0.718854       -19.5610
  49   2.0000      -0.707310       -19.2469
  50   2.0000      -0.688721       -18.7411
  51   2.0000      -0.682534       -18.5727
  52   2.0000      -0.672055       -18.2875
  53   2.0000      -0.647566       -17.6212
  54   2.0000      -0.630212       -17.1489
  55   2.0000      -0.597755       -16.2657
  56   2.0000      -0.588184       -16.0053
  57   2.0000      -0.573632       -15.6093
  58   2.0000      -0.561736       -15.2856
  59   2.0000      -0.556462       -15.1421
  60   2.0000      -0.501644       -13.6504
  61   2.0000      -0.496833       -13.5195
  62   2.0000      -0.472164       -12.8482
  63   2.0000      -0.467111       -12.7107
  64   2.0000      -0.449766       -12.2387
  65   2.0000      -0.445180       -12.1140
  66   2.0000      -0.441208       -12.0059
  67   2.0000      -0.431604       -11.7446
  68   2.0000      -0.425886       -11.5889
  69   2.0000      -0.416886       -11.3440
  70   2.0000      -0.409988       -11.1563
  71   2.0000      -0.393376       -10.7043
  72   2.0000      -0.387726       -10.5506
  73   2.0000      -0.378682       -10.3045
  74   2.0000      -0.375331       -10.2133
  75   2.0000      -0.369955       -10.0670
  76   2.0000      -0.366560        -9.9746
  77   2.0000      -0.354125        -9.6362
  78   2.0000      -0.353623        -9.6226
  79   2.0000      -0.350167        -9.5285
  80   2.0000      -0.342490        -9.3196
  81   2.0000      -0.340515        -9.2659
  82   2.0000      -0.336819        -9.1653
  83   2.0000      -0.335850        -9.1389
  84   2.0000      -0.330319        -8.9884
  85   2.0000      -0.314840        -8.5672
  86   2.0000      -0.307087        -8.3563
  87   2.0000      -0.300191        -8.1686
  88   2.0000      -0.295039        -8.0284
  89   2.0000      -0.293321        -7.9817
  90   2.0000      -0.275194        -7.4884
  91   2.0000      -0.268837        -7.3154
  92   2.0000      -0.262251        -7.1362
  93   2.0000      -0.260924        -7.1001
  94   2.0000      -0.256185        -6.9712
  95   2.0000      -0.233615        -6.3570
  96   2.0000      -0.220011        -5.9868
  97   2.0000      -0.214366        -5.8332
  98   2.0000      -0.201935        -5.4949
  99   2.0000      -0.191972        -5.2238
 100   2.0000      -0.184100        -5.0096
 101   0.0000      -0.038298        -1.0422
 102   0.0000      -0.028584        -0.7778
 103   0.0000      -0.009176        -0.2497
 104   0.0000       0.012429         0.3382
 105   0.0000       0.019243         0.5236

MULLIKEN ATOMIC CHARGES
-----------------------
   0 C :   -0.281291
   1 C :   -0.009324
   2 O :   -0.380053
   3 P :    0.611997
   4 S :   -0.321953
   5 O :   -0.351952
   6 C :   -0.002151
   7 C :   -0.303699
   8 S :   -0.101073
   9 C :   -0.354148
  10 S :   -0.108811
  11 P :    0.602822
  12 S :   -0.296761
  13 O :   -0.347881
  14 C :   -0.018379
  15 C :   -0.281798
  16 O :   -0.383727
  17 C :    0.001155
  18 C :   -0.319594
  19 H :    0.110571
  20 H :    0.119912
  21 H :    0.115101
  22 H :    0.098314
  23 H :    0.103443
  24 H :    0.122975
  25 H :    0.100621
  26 H :    0.120854
  27 H :    0.108657
  28 H :    0.111970
  29 H :    0.182671
  30 H :    0.209574
  31 H :    0.108218
  32 H :    0.106267
  33 H :    0.122822
  34 H :    0.104186
  35 H :    0.121070
  36 H :    0.104273
  37 H :    0.112478
  38 H :    0.116618
  39 H :    0.114608
  40 H :    0.131421
Sum of atomic charges:    0.0000000

LOEWDIN ATOMIC CHARGES
----------------------
   0 C :   -0.350468
   1 C :   -0.123303
   2 O :   -0.249346
   3 P :    0.566534
   4 S :   -0.317212
   5 O :   -0.229511
   6 C :   -0.118370
   7 C :   -0.366480
   8 S :    0.084364
   9 C :   -0.478592
  10 S :    0.074194
  11 P :    0.565620
  12 S :   -0.285603
  13 O :   -0.233091
  14 C :   -0.110084
  15 C :   -0.362971
  16 O :   -0.249631
  17 C :   -0.116045
  18 C :   -0.371460
  19 H :    0.130095
  20 H :    0.127783
  21 H :    0.126193
  22 H :    0.107479
  23 H :    0.106597
  24 H :    0.109415
  25 H :    0.117793
  26 H :    0.120558
  27 H :    0.128938
  28 H :    0.123677
  29 H :    0.137795
  30 H :    0.126983
  31 H :    0.120836
  32 H :    0.109373
  33 H :    0.127412
  34 H :    0.126502
  35 H :    0.115023
  36 H :    0.118332
  37 H :    0.112959
  38 H :    0.122753
  39 H :    0.131962
  40 H :    0.122997

  Mayer bond orders larger than 0.100000
B(  0-C ,  1-C ) :   1.1596 B(  0-C , 19-H ) :   0.9423 B(  0-C , 20-H ) :   0.9516
B(  0-C , 21-H ) :   0.9504 B(  1-C ,  2-O ) :   0.9081 B(  1-C , 22-H ) :   0.9278
B(  1-C , 23-H ) :   0.9070 B(  2-O ,  3-P ) :   1.0904 B(  3-P ,  4-S ) :   1.6063
B(  3-P ,  5-O ) :   1.1512 B(  3-P ,  8-S ) :   0.9708 B(  4-S ,  8-S ) :   0.1150
B(  5-O ,  6-C ) :   0.9007 B(  6-C ,  7-C ) :   1.1592 B(  6-C , 24-H ) :   0.9125
B(  6-C , 25-H ) :   0.9357 B(  7-C , 26-H ) :   0.9355 B(  7-C , 27-H ) :   0.9389
B(  7-C , 28-H ) :   0.9448 B(  8-S ,  9-C ) :   0.9928 B(  9-C , 10-S ) :   1.0082
B(  9-C , 29-H ) :   0.9113 B(  9-C , 30-H ) :   0.8484 B( 10-S , 11-P ) :   0.9369
B( 10-S , 12-S ) :   0.1054 B( 11-P , 12-S ) :   1.6411 B( 11-P , 13-O ) :   1.1460
B( 11-P , 16-O ) :   1.0830 B( 13-O , 14-C ) :   0.8920 B( 14-C , 15-C ) :   1.1681
B( 14-C , 31-H ) :   0.9352 B( 14-C , 32-H ) :   0.9186 B( 15-C , 33-H ) :   0.9431
B( 15-C , 34-H ) :   0.9370 B( 15-C , 35-H ) :   0.9335 B( 16-O , 17-C ) :   0.9057
B( 17-C , 18-C ) :   1.1668 B( 17-C , 36-H ) :   0.9345 B( 17-C , 37-H ) :   0.9171
B( 18-C , 38-H ) :   0.9437 B( 18-C , 39-H ) :   0.9370 B( 18-C , 40-H ) :   0.9347

Dispersion correction           -0.067391700
FINAL SINGLE POINT ENERGY     -2929.520584235746

DIPOLE MOMENT
-------------

Method             : SCF
Type of density    : Electron Density
Multiplicity       :   1
Irrep              :   0
Energy             : -2929.6387348491725788 Eh
Relativity type    :
Basis              : AO
                                X                 Y                 Z
Electronic contribution:     -6.035616697      -3.361880255      -8.319523787
Nuclear contribution   :      5.668578706       2.848271524       9.429826846
                        -----------------------------------------
Total Dipole Moment    :     -0.367037992      -0.513608731       1.110303060
                        -----------------------------------------
Magnitude (a.u.)       :      1.277217170
Magnitude (Debye)      :      3.246428049

Rotational constants in cm-1:             0.013339             0.005124             0.004960
Rotational constants in MHz :           399.893930           153.611586           148.683668

                             ****ORCA TERMINATED NORMALLY****
TOTAL RUN TIME: 0 days 0 hours 0 minutes 21 seconds 121 msec
