                         Program Version 6.0.0  -   RELEASE  -
|  1> ! pbe def2-sv(p) def2/J RI DEFGRID1 loosescf d4 GCP(DFT/SV(P)) printgap
|  2> %output
|  3>     printlevel normal
|  4> end
|  5> * xyz 0 1
|  6> C 1.6405335492 -1.4710848941 -2.3739247346
|  7> C 2.9387147421 -0.7787087456 -2.0112468086
|  8> O 2.7614172153 0.183256751 -0.9443134452
|  9> P 2.6531712615 -0.1152873316 0.5996839232
| 10> S 2.9531589938 1.5590530462 1.5724104363
| 11> O 3.6910075407 -1.303612314 0.7725845293
| 12> C 3.7486783199 -2.196980526 1.9015354785
| 13> C 3.8940006299 -1.4660103458 3.2193053533
| 14> S 0.775997774 -1.0385791782 1.0371821958
| 15> C -0.1724893856 0.4916791832 1.1154376038
| 16> S -0.5532104136 1.1621121231 -0.5341254533
| 17> P -2.5589042434 0.4374827355 -0.6507257027
| 18> S -3.4497397769 0.7982010092 -2.3549918203
| 19> O -3.2777417071 0.975178024 0.6570519533
| 20> C -4.0306015354 2.1998649674 0.6467863869
| 21> C -3.1313501041 3.4170562244 0.5543010228
| 22> O -2.4551397744 -1.0677806917 -0.1657863587
| 23> C -2.0109173633 -2.1100201376 -1.0589482797
| 24> C -3.2001354116 -2.8643280251 -1.6192702405
| 25> H 1.3120231059 -2.1210164152 -1.5661812356
| 26> H 0.8696065817 -0.7290951087 -2.5729753885
| 27> H 1.7955304753 -2.068111654 -3.2671390269
| 28> H 3.3062547528 -0.1686695039 -2.838006169
| 29> H 3.7025862483 -1.4975932421 -1.7107279643
| 30> H 2.8438833858 -2.8106352935 1.8971154754
| 31> H 4.6213621363 -2.8179087791 1.6915219958
| 32> H 3.0092261368 -0.861857106 3.4144159843
| 33> H 4.0138479904 -2.1877781642 4.0207110873
| 34> H 4.7587045053 -0.8071069447 3.1951770388
| 35> H 0.4250077188 1.2422191462 1.6367011761
| 36> H -1.0998086781 0.2781161079 1.6416217521
| 37> H -4.7281890936 2.1739507043 -0.1965506949
| 38> H -4.5840354278 2.1776250298 1.5866498861
| 39> H -2.6113521259 3.4237818808 -0.4035605858
| 40> H -3.73439065 4.3160453161 0.6317688414
| 41> H -2.3944291325 3.4104886216 1.3538993419
| 42> H -1.4172106619 -1.6712052597 -1.8668898301
| 43> H -1.3774832761 -2.7541152844 -0.4452461102
| 44> H -2.8465767455 -3.6830753347 -2.2373654429
| 45> H -3.8068697462 -3.2576459599 -0.8089146542
| 46> H -3.81172023 -2.1988534585 -2.2250823477
| 47> *
| 48>
| 49>                          ****END OF INPUT****

CARTESIAN COORDINATES (ANGSTROEM)
---------------------------------
  C      1.640534   -1.471085   -2.373925
  C      2.938715   -0.778709   -2.011247
  O      2.761417    0.183257   -0.944313
  P      2.653171   -0.115287    0.599684
  S      2.953159    1.559053    1.572410
  O      3.691008   -1.303612    0.772585
  C      3.748678   -2.196981    1.901535
  C      3.894001   -1.466010    3.219305
  S      0.775998   -1.038579    1.037182
  C     -0.172489    0.491679    1.115438
  S     -0.553210    1.162112   -0.534125
  P     -2.558904    0.437483   -0.650726
  S     -3.449740    0.798201   -2.354992
  O     -3.277742    0.975178    0.657052
  C     -4.030602    2.199865    0.646786
  C     -3.131350    3.417056    0.554301
  O     -2.455140   -1.067781   -0.165786
  C     -2.010917   -2.110020   -1.058948
  C     -3.200135   -2.864328   -1.619270
  H      1.312023   -2.121016   -1.566181
  H      0.869607   -0.729095   -2.572975
  H      1.795530   -2.068112   -3.267139
  H      3.306255   -0.168670   -2.838006
  H      3.702586   -1.497593   -1.710728
  H      2.843883   -2.810635    1.897115
  H      4.621362   -2.817909    1.691522
  H      3.009226   -0.861857    3.414416
  H      4.013848   -2.187778    4.020711
  H      4.758705   -0.807107    3.195177
  H      0.425008    1.242219    1.636701
  H     -1.099809    0.278116    1.641622
  H     -4.728189    2.173951   -0.196551
  H     -4.584035    2.177625    1.586650
  H     -2.611352    3.423782   -0.403561
  H     -3.734391    4.316045    0.631769
  H     -2.394429    3.410489    1.353899
  H     -1.417211   -1.671205   -1.866890
  H     -1.377483   -2.754115   -0.445246
  H     -2.846577   -3.683075   -2.237365
  H     -3.806870   -3.257646   -0.808915
  H     -3.811720   -2.198853   -2.225082

 Total Charge           Charge          ....    0
 Multiplicity           Mult            ....    1
 Number of Electrons    NEL             ....  202
 Basis Dimension        Dim             ....  334

ORBITAL ENERGIES
----------------

  NO   OCC          E(Eh)            E(eV)
   0   2.0000     -88.049004     -2395.9352
   1   2.0000     -88.042618     -2395.7614
   2   2.0000     -87.990964     -2394.3559
   3   2.0000     -87.985056     -2394.1951
   4   2.0000     -76.431356     -2079.8029
   5   2.0000     -76.428598     -2079.7279
   6   2.0000     -18.803688      -511.6744
   7   2.0000     -18.794257      -511.4177
   8   2.0000     -18.793662      -511.4015
   9   2.0000     -18.793227      -511.3897
  10   2.0000      -9.966120      -271.1919
  11   2.0000      -9.957506      -270.9575
  12   2.0000      -9.955794      -270.9109
  13   2.0000      -9.955034      -270.8902
  14   2.0000      -9.953656      -270.8527
  15   2.0000      -9.888042      -269.0673
  16   2.0000      -9.887937      -269.0644
  17   2.0000      -9.883636      -268.9474
  18   2.0000      -9.882847      -268.9259
  19   2.0000      -7.693659      -209.3551
  20   2.0000      -7.687243      -209.1805
  21   2.0000      -7.636093      -207.7887
  22   2.0000      -7.630360      -207.6326
  23   2.0000      -6.428512      -174.9287
  24   2.0000      -6.426084      -174.8626
  25   2.0000      -5.721230      -155.6826
  26   2.0000      -5.718261      -155.6018
  27   2.0000      -5.715272      -155.5205
  28   2.0000      -5.711635      -155.4215
  29   2.0000      -5.710926      -155.4022
  30   2.0000      -5.704283      -155.2214
  31   2.0000      -5.665051      -154.1539
  32   2.0000      -5.659473      -154.0021
  33   2.0000      -5.656749      -153.9280
  34   2.0000      -5.656207      -153.9132
  35   2.0000      -5.650976      -153.7709
  36   2.0000      -5.650290      -153.7522
  37   2.0000      -4.651572      -126.5757
  38   2.0000      -4.650372      -126.5431
  39   2.0000      -4.648469      -126.4913
  40   2.0000      -4.648415      -126.4898
  41   2.0000      -4.648321      -126.4873
  42   2.0000      -4.646330      -126.4331
  43   2.0000      -0.994484       -27.0613
  44   2.0000      -0.992436       -27.0056
  45   2.0000      -0.949540       -25.8383
  46   2.0000      -0.948508       -25.8102
  47   2.0000      -0.765620       -20.8336
  48   2.0000      -0.724874       -19.7248
  49   2.0000      -0.714630       -19.4461
  50   2.0000      -0.695901       -18.9364
  51   2.0000      -0.684343       -18.6219
  52   2.0000      -0.680042       -18.5049
  53   2.0000      -0.657060       -17.8795
  54   2.0000      -0.639818       -17.4103
  55   2.0000      -0.598518       -16.2865
  56   2.0000      -0.595234       -16.1972
  57   2.0000      -0.585441       -15.9307
  58   2.0000      -0.568301       -15.4643
  59   2.0000      -0.563404       -15.3310
  60   2.0000      -0.507593       -13.8123
  61   2.0000      -0.501579       -13.6486
  62   2.0000      -0.477013       -12.9802
  63   2.0000      -0.474082       -12.9004
  64   2.0000      -0.462240       -12.5782
  65   2.0000      -0.449527       -12.2323
  66   2.0000      -0.447207       -12.1691
  67   2.0000      -0.440669       -11.9912
  68   2.0000      -0.426073       -11.5940
  69   2.0000      -0.425281       -11.5725
  70   2.0000      -0.415743       -11.3129
  71   2.0000      -0.407881       -11.0990
  72   2.0000      -0.395776       -10.7696
  73   2.0000      -0.390720       -10.6320
  74   2.0000      -0.389197       -10.5906
  75   2.0000      -0.369863       -10.0645
  76   2.0000      -0.362133        -9.8541
  77   2.0000      -0.358964        -9.7679
  78   2.0000      -0.358076        -9.7437
  79   2.0000      -0.354434        -9.6446
  80   2.0000      -0.348425        -9.4811
  81   2.0000      -0.346571        -9.4307
  82   2.0000      -0.345164        -9.3924
  83   2.0000      -0.337522        -9.1844
  84   2.0000      -0.334064        -9.0903
  85   2.0000      -0.328296        -8.9334
  86   2.0000      -0.323101        -8.7920
  87   2.0000      -0.304117        -8.2754
  88   2.0000      -0.301280        -8.1983
  89   2.0000      -0.295102        -8.0301
  90   2.0000      -0.292326        -7.9546
  91   2.0000      -0.281513        -7.6604
  92   2.0000      -0.272053        -7.4029
  93   2.0000      -0.267314        -7.2740
  94   2.0000      -0.259440        -7.0597
  95   2.0000      -0.238636        -6.4936
  96   2.0000      -0.223301        -6.0763
  97   2.0000      -0.208692        -5.6788
  98   2.0000      -0.206668        -5.6237
  99   2.0000      -0.204679        -5.5696
 100   2.0000      -0.197446        -5.3728
 101   0.0000      -0.044880        -1.2213
 102   0.0000      -0.031649        -0.8612
 103   0.0000      -0.017662        -0.4806
 104   0.0000       0.001860         0.0506
 105   0.0000       0.005430         0.1478

MULLIKEN ATOMIC CHARGES
-----------------------
   0 C :   -0.340186
   1 C :    0.002998
   2 O :   -0.350162
   3 P :    0.614611
   4 S :   -0.307212
   5 O :   -0.384348
   6 C :   -0.013712
   7 C :   -0.308124
   8 S :   -0.119174
   9 C :   -0.365822
  10 S :   -0.055812
  11 P :    0.559594
  12 S :   -0.313923
  13 O :   -0.364012
  14 C :   -0.005147
  15 C :   -0.312514
  16 O :   -0.364785
  17 C :   -0.033247
  18 C :   -0.278454
  19 H :    0.121374
  20 H :    0.146331
  21 H :    0.110553
  22 H :    0.112505
  23 H :    0.107811
  24 H :    0.113978
  25 H :    0.111133
  26 H :    0.127207
  27 H :    0.112949
  28 H :    0.128647
  29 H :    0.196719
  30 H :    0.195712
  31 H :    0.114026
  32 H :    0.107397
  33 H :    0.129649
  34 H :    0.113546
  35 H :    0.116640
  36 H :    0.116747
  37 H :    0.110806
  38 H :    0.106197
  39 H :    0.113892
  40 H :    0.125612
Sum of atomic charges:    0.0000000

LOEWDIN ATOMIC CHARGES
----------------------
   0 C :   -0.372643
   1 C :   -0.108740
   2 O :   -0.232329
   3 P :    0.569691
   4 S :   -0.302854
   5 O :   -0.243932
   6 C :   -0.114131
   7 C :   -0.368584
   8 S :    0.071760
   9 C :   -0.487887
  10 S :    0.088374
  11 P :    0.564821
  12 S :   -0.317442
  13 O :   -0.238152
  14 C :   -0.118788
  15 C :   -0.366855
  16 O :   -0.240774
  17 C :   -0.120679
  18 C :   -0.359439
  19 H :    0.114562
  20 H :    0.127241
  21 H :    0.129610
  22 H :    0.123880
  23 H :    0.111958
  24 H :    0.107941
  25 H :    0.122004
  26 H :    0.122269
  27 H :    0.131089
  28 H :    0.131798
  29 H :    0.126682
  30 H :    0.135390
  31 H :    0.111376
  32 H :    0.119425
  33 H :    0.123033
  34 H :    0.131246
  35 H :    0.125075
  36 H :    0.110620
  37 H :    0.112888
  38 H :    0.128284
  39 H :    0.126127
  40 H :    0.126083

  Mayer bond orders larger than 0.100000
B(  0-C ,  1-C ) :   1.1673 B(  0-C , 19-H ) :   0.9380 B(  0-C , 20-H ) :   0.9308
B(  0-C , 21-H ) :   0.9358 B(  1-C ,  2-O ) :   0.9004 B(  1-C , 22-H ) :   0.9339
B(  1-C , 23-H ) :   0.9246 B(  2-O ,  3-P ) :   1.1452 B(  3-P ,  4-S ) :   1.6457
B(  3-P ,  5-O ) :   1.0864 B(  3-P ,  8-S ) :   0.9270 B(  4-S ,  8-S ) :   0.1126
B(  4-S , 29-H ) :   0.1068 B(  5-O ,  6-C ) :   0.9086 B(  6-C ,  7-C ) :   1.1673
B(  6-C , 24-H ) :   0.9259 B(  6-C , 25-H ) :   0.9329 B(  7-C , 26-H ) :   0.9312
B(  7-C , 27-H ) :   0.9348 B(  7-C , 28-H ) :   0.9433 B(  8-S ,  9-C ) :   1.0081
B(  9-C , 10-S ) :   0.9748 B(  9-C , 29-H ) :   0.8554 B(  9-C , 30-H ) :   0.8859
B( 10-S , 11-P ) :   0.9850 B( 11-P , 12-S ) :   1.6410 B( 11-P , 13-O ) :   1.0947
B( 11-P , 16-O ) :   1.0996 B( 13-O , 14-C ) :   0.9079 B( 14-C , 15-C ) :   1.1630
B( 14-C , 31-H ) :   0.9147 B( 14-C , 32-H ) :   0.9341 B( 15-C , 33-H ) :   0.9366
B( 15-C , 34-H ) :   0.9386 B( 15-C , 35-H ) :   0.9466 B( 16-O , 17-C ) :   0.9015
B( 17-C , 18-C ) :   1.1629 B( 17-C , 36-H ) :   0.9055 B( 17-C , 37-H ) :   0.9287
B( 18-C , 38-H ) :   0.9402 B( 18-C , 39-H ) :   0.9472 B( 18-C , 40-H ) :   0.9354

Dispersion correction           -0.064386041
FINAL SINGLE POINT ENERGY     -2929.517359731100

DIPOLE MOMENT
-------------

Method             : SCF
Type of density    : Electron Density
Multiplicity       :   1
Irrep              :   0
Energy             : -2929.6383515409474967 Eh
Relativity type    :
Basis              : AO
                                X                 Y                 Z
Electronic contribution:      1.955630686      10.604367254      -0.518658271
Nuclear contribution   :     -1.711229944     -12.210295630       0.931814457
                        -----------------------------------------
Total Dipole Moment    :      0.244400742      -1.605928375       0.413156186
                        -----------------------------------------
Magnitude (a.u.)       :      1.676137138
Magnitude (Debye)      :      4.260402024

Rotational constants in cm-1:             0.012476             0.004576             0.004119
Rotational constants in MHz :           374.011888           137.191905           123.498742

                             ****ORCA TERMINATED NORMALLY****
TOTAL RUN TIME: 0 days 0 hours 0 minutes 20 seconds 962 msec
