                         Program Version 6.0.0  -   RELEASE  -
|  1> ! pbe def2-sv(p) def2/J RI DEFGRID1 loosescf d4 GCP(DFT/SV(P)) printgap
|  2> %output
|  3>     printlevel normal
|  4> end
|  5> * xyz 0 1
|  6> C 3.3978159687 0.0993115819 -2.6909882917
|  7> C 1.9961768192 0.4806820791 -2.2672565407
|  8> O 1.4748510594 -0.4330968627 -1.2875874784
|  9> P 2.0231528828 -0.4874984042 0.1993911863
| 10> S 2.5878928277 1.2372140156 0.9531579808
| 11> O 3.1422978844 -1.606629336 0.0403812651
| 12> C 3.7068879496 -2.4026770391 1.0986628012
| 13> C 4.2069711519 -1.5771314658 2.2657290452
| 14> S 0.4973285801 -1.5258682084 1.2068967395
| 15> C -0.4083916464 -0.1470722576 1.9922308635
| 16> S -2.1450640094 -0.0920513915 1.5059404569
| 17> P -1.8808865773 0.6600836409 -0.4645257711
| 18> S -0.5802075271 2.1124371148 -0.6571351208
| 19> O -3.3490974448 1.030805066 -0.9427182482
| 20> C -3.9436109924 2.3171325456 -0.7006015172
| 21> C -4.2167875285 2.5587542387 0.7699761188
| 22> O -1.5101172347 -0.5716194339 -1.375651748
| 23> C -2.055943736 -1.9128824146 -1.2967712855
| 24> C -3.5654147988 -1.9447117034 -1.3877881118
| 25> H 3.7279595156 0.76456139 -3.4825752067
| 26> H 4.0734872618 0.1923715504 -1.8413588386
| 27> H 3.4158507247 -0.9282503206 -3.0440824549
| 28> H 1.2825353086 0.4180560104 -3.090519434
| 29> H 1.9735558469 1.4930879821 -1.8484668201
| 30> H 2.9465976438 -3.1166534502 1.4273545693
| 31> H 4.524694694 -2.933641146 0.6079076211
| 32> H 4.6958702396 -2.2290105549 2.982502108
| 33> H 4.9124152987 -0.822990754 1.9248169087
| 34> H 3.375835825 -1.0708064144 2.7544162618
| 35> H 0.0887956157 0.7911352373 1.7285613951
| 36> H -0.3991441578 -0.3093342445 3.0667977991
| 37> H -3.2760659827 3.0877273509 -1.0991172877
| 38> H -4.8660962892 2.288638385 -1.2822017802
| 39> H -3.2783127756 2.6648514746 1.3117271445
| 40> H -4.7895969059 3.4738801571 0.8808617422
| 41> H -4.7758433932 1.7285950283 1.1938826072
| 42> H -1.5870872006 -2.4163701106 -2.1436363122
| 43> H -1.7103812134 -2.369030536 -0.3643919509
| 44> H -3.9015370343 -1.4190458229 -2.2776412966
| 45> H -3.891402647 -2.9792230918 -1.4356196079
| 46> H -4.0069004205 -1.4740189675 -0.5120195344
| 47> *
| 48>
| 49>                          ****END OF INPUT****

CARTESIAN COORDINATES (ANGSTROEM)
---------------------------------
  C      3.397816    0.099312   -2.690988
  C      1.996177    0.480682   -2.267257
  O      1.474851   -0.433097   -1.287587
  P      2.023153   -0.487498    0.199391
  S      2.587893    1.237214    0.953158
  O      3.142298   -1.606629    0.040381
  C      3.706888   -2.402677    1.098663
  C      4.206971   -1.577131    2.265729
  S      0.497329   -1.525868    1.206897
  C     -0.408392   -0.147072    1.992231
  S     -2.145064   -0.092051    1.505940
  P     -1.880887    0.660084   -0.464526
  S     -0.580208    2.112437   -0.657135
  O     -3.349097    1.030805   -0.942718
  C     -3.943611    2.317133   -0.700602
  C     -4.216788    2.558754    0.769976
  O     -1.510117   -0.571619   -1.375652
  C     -2.055944   -1.912882   -1.296771
  C     -3.565415   -1.944712   -1.387788
  H      3.727960    0.764561   -3.482575
  H      4.073487    0.192372   -1.841359
  H      3.415851   -0.928250   -3.044082
  H      1.282535    0.418056   -3.090519
  H      1.973556    1.493088   -1.848467
  H      2.946598   -3.116653    1.427355
  H      4.524695   -2.933641    0.607908
  H      4.695870   -2.229011    2.982502
  H      4.912415   -0.822991    1.924817
  H      3.375836   -1.070806    2.754416
  H      0.088796    0.791135    1.728561
  H     -0.399144   -0.309334    3.066798
  H     -3.276066    3.087727   -1.099117
  H     -4.866096    2.288638   -1.282202
  H     -3.278313    2.664851    1.311727
  H     -4.789597    3.473880    0.880862
  H     -4.775843    1.728595    1.193883
  H     -1.587087   -2.416370   -2.143636
  H     -1.710381   -2.369031   -0.364392
  H     -3.901537   -1.419046   -2.277641
  H     -3.891403   -2.979223   -1.435620
  H     -4.006900   -1.474019   -0.512020

 Total Charge           Charge          ....    0
 Multiplicity           Mult            ....    1
 Number of Electrons    NEL             ....  202
 Basis Dimension        Dim             ....  334

ORBITAL ENERGIES
----------------

  NO   OCC          E(Eh)            E(eV)
   0   2.0000     -88.046950     -2395.8793
   1   2.0000     -88.044675     -2395.8174
   2   2.0000     -87.979567     -2394.0457
   3   2.0000     -87.979239     -2394.0368
   4   2.0000     -76.424480     -2079.6158
   5   2.0000     -76.421124     -2079.5245
   6   2.0000     -18.793672      -511.4018
   7   2.0000     -18.788453      -511.2598
   8   2.0000     -18.787957      -511.2463
   9   2.0000     -18.775720      -510.9133
  10   2.0000      -9.957159      -270.9481
  11   2.0000      -9.954690      -270.8809
  12   2.0000      -9.952478      -270.8207
  13   2.0000      -9.951474      -270.7934
  14   2.0000      -9.934551      -270.3329
  15   2.0000      -9.885799      -269.0063
  16   2.0000      -9.884368      -268.9673
  17   2.0000      -9.880666      -268.8666
  18   2.0000      -9.872546      -268.6456
  19   2.0000      -7.691844      -209.3057
  20   2.0000      -7.689693      -209.2472
  21   2.0000      -7.624456      -207.4720
  22   2.0000      -7.624157      -207.4639
  23   2.0000      -6.421799      -174.7460
  24   2.0000      -6.418383      -174.6531
  25   2.0000      -5.719648      -155.6395
  26   2.0000      -5.717472      -155.5803
  27   2.0000      -5.716201      -155.5457
  28   2.0000      -5.714087      -155.4882
  29   2.0000      -5.709062      -155.3515
  30   2.0000      -5.706829      -155.2907
  31   2.0000      -5.653435      -153.8378
  32   2.0000      -5.653108      -153.8289
  33   2.0000      -5.645051      -153.6096
  34   2.0000      -5.644991      -153.6080
  35   2.0000      -5.644614      -153.5978
  36   2.0000      -5.644033      -153.5819
  37   2.0000      -4.644580      -126.3855
  38   2.0000      -4.643668      -126.3606
  39   2.0000      -4.641993      -126.3150
  40   2.0000      -4.640780      -126.2820
  41   2.0000      -4.640243      -126.2674
  42   2.0000      -4.638968      -126.2327
  43   2.0000      -0.985484       -26.8164
  44   2.0000      -0.978765       -26.6336
  45   2.0000      -0.943729       -25.6802
  46   2.0000      -0.935344       -25.4520
  47   2.0000      -0.763949       -20.7881
  48   2.0000      -0.718455       -19.5501
  49   2.0000      -0.706848       -19.2343
  50   2.0000      -0.689770       -18.7696
  51   2.0000      -0.683568       -18.6008
  52   2.0000      -0.672129       -18.2896
  53   2.0000      -0.649064       -17.6619
  54   2.0000      -0.632941       -17.2232
  55   2.0000      -0.598279       -16.2800
  56   2.0000      -0.589660       -16.0455
  57   2.0000      -0.576158       -15.6781
  58   2.0000      -0.568664       -15.4741
  59   2.0000      -0.559389       -15.2218
  60   2.0000      -0.494428       -13.4541
  61   2.0000      -0.486434       -13.2365
  62   2.0000      -0.470200       -12.7948
  63   2.0000      -0.460857       -12.5405
  64   2.0000      -0.452051       -12.3009
  65   2.0000      -0.448290       -12.1986
  66   2.0000      -0.442057       -12.0290
  67   2.0000      -0.433060       -11.7841
  68   2.0000      -0.424928       -11.5629
  69   2.0000      -0.415688       -11.3115
  70   2.0000      -0.412027       -11.2118
  71   2.0000      -0.399901       -10.8819
  72   2.0000      -0.394580       -10.7371
  73   2.0000      -0.382210       -10.4005
  74   2.0000      -0.379538       -10.3278
  75   2.0000      -0.366793        -9.9810
  76   2.0000      -0.365639        -9.9496
  77   2.0000      -0.359841        -9.7918
  78   2.0000      -0.351233        -9.5575
  79   2.0000      -0.346104        -9.4180
  80   2.0000      -0.344417        -9.3721
  81   2.0000      -0.340870        -9.2755
  82   2.0000      -0.336581        -9.1588
  83   2.0000      -0.335216        -9.1217
  84   2.0000      -0.332059        -9.0358
  85   2.0000      -0.313148        -8.5212
  86   2.0000      -0.308699        -8.4001
  87   2.0000      -0.293880        -7.9969
  88   2.0000      -0.291196        -7.9239
  89   2.0000      -0.290651        -7.9090
  90   2.0000      -0.277392        -7.5482
  91   2.0000      -0.268955        -7.3186
  92   2.0000      -0.261835        -7.1249
  93   2.0000      -0.260587        -7.0909
  94   2.0000      -0.256058        -6.9677
  95   2.0000      -0.238771        -6.4973
  96   2.0000      -0.223031        -6.0690
  97   2.0000      -0.209808        -5.7092
  98   2.0000      -0.200614        -5.4590
  99   2.0000      -0.192926        -5.2498
 100   2.0000      -0.182140        -4.9563
 101   0.0000      -0.041099        -1.1183
 102   0.0000      -0.030971        -0.8428
 103   0.0000      -0.012302        -0.3348
 104   0.0000       0.011354         0.3090
 105   0.0000       0.023131         0.6294

MULLIKEN ATOMIC CHARGES
-----------------------
   0 C :   -0.294795
   1 C :   -0.007642
   2 O :   -0.352611
   3 P :    0.614492
   4 S :   -0.315410
   5 O :   -0.377480
   6 C :   -0.005906
   7 C :   -0.307897
   8 S :   -0.114246
   9 C :   -0.346419
  10 S :   -0.111613
  11 P :    0.597437
  12 S :   -0.300710
  13 O :   -0.374487
  14 C :   -0.000953
  15 C :   -0.319865
  16 O :   -0.349362
  17 C :   -0.002733
  18 C :   -0.304534
  19 H :    0.107196
  20 H :    0.118655
  21 H :    0.108944
  22 H :    0.100882
  23 H :    0.122574
  24 H :    0.108919
  25 H :    0.107123
  26 H :    0.108546
  27 H :    0.125858
  28 H :    0.120825
  29 H :    0.212771
  30 H :    0.183615
  31 H :    0.113657
  32 H :    0.104122
  33 H :    0.130728
  34 H :    0.114492
  35 H :    0.115363
  36 H :    0.108190
  37 H :    0.114112
  38 H :    0.120482
  39 H :    0.111733
  40 H :    0.115949
Sum of atomic charges:    0.0000000

LOEWDIN ATOMIC CHARGES
----------------------
   0 C :   -0.364522
   1 C :   -0.122167
   2 O :   -0.232710
   3 P :    0.570228
   4 S :   -0.307325
   5 O :   -0.246178
   6 C :   -0.114736
   7 C :   -0.370006
   8 S :    0.079742
   9 C :   -0.476663
  10 S :    0.075889
  11 P :    0.567827
  12 S :   -0.291367
  13 O :   -0.242229
  14 C :   -0.118416
  15 C :   -0.371272
  16 O :   -0.228969
  17 C :   -0.115509
  18 C :   -0.366558
  19 H :    0.128078
  20 H :    0.121001
  21 H :    0.122759
  22 H :    0.117357
  23 H :    0.107627
  24 H :    0.107338
  25 H :    0.120403
  26 H :    0.128437
  27 H :    0.129272
  28 H :    0.119608
  29 H :    0.128009
  30 H :    0.137571
  31 H :    0.112702
  32 H :    0.118286
  33 H :    0.122688
  34 H :    0.131936
  35 H :    0.122386
  36 H :    0.122454
  37 H :    0.101457
  38 H :    0.127777
  39 H :    0.130506
  40 H :    0.117290

  Mayer bond orders larger than 0.100000
B(  0-C ,  1-C ) :   1.1573 B(  0-C , 19-H ) :   0.9402 B(  0-C , 20-H ) :   0.9367
B(  0-C , 21-H ) :   0.9457 B(  1-C ,  2-O ) :   0.9034 B(  1-C , 22-H ) :   0.9349
B(  1-C , 23-H ) :   0.9101 B(  2-O ,  3-P ) :   1.1459 B(  3-P ,  4-S ) :   1.6083
B(  3-P ,  5-O ) :   1.0959 B(  3-P ,  8-S ) :   0.9488 B(  4-S ,  8-S ) :   0.1142
B(  5-O ,  6-C ) :   0.9174 B(  6-C ,  7-C ) :   1.1644 B(  6-C , 24-H ) :   0.9277
B(  6-C , 25-H ) :   0.9344 B(  7-C , 26-H ) :   0.9346 B(  7-C , 27-H ) :   0.9429
B(  7-C , 28-H ) :   0.9342 B(  8-S ,  9-C ) :   0.9900 B(  9-C , 10-S ) :   1.0092
B(  9-C , 29-H ) :   0.8443 B(  9-C , 30-H ) :   0.9112 B( 10-S , 11-P ) :   0.9311
B( 10-S , 12-S ) :   0.1046 B( 11-P , 12-S ) :   1.6367 B( 11-P , 13-O ) :   1.0893
B( 11-P , 16-O ) :   1.1524 B( 13-O , 14-C ) :   0.9058 B( 14-C , 15-C ) :   1.1659
B( 14-C , 31-H ) :   0.9144 B( 14-C , 32-H ) :   0.9338 B( 15-C , 33-H ) :   0.9343
B( 15-C , 34-H ) :   0.9376 B( 15-C , 35-H ) :   0.9449 B( 16-O , 17-C ) :   0.8983
B( 17-C , 18-C ) :   1.1693 B( 17-C , 36-H ) :   0.9351 B( 17-C , 37-H ) :   0.9087
B( 18-C , 38-H ) :   0.9435 B( 18-C , 39-H ) :   0.9361 B( 18-C , 40-H ) :   0.9385

Dispersion correction           -0.068513393
FINAL SINGLE POINT ENERGY     -2929.516870442046

DIPOLE MOMENT
-------------

Method             : SCF
Type of density    : Electron Density
Multiplicity       :   1
Irrep              :   0
Energy             : -2929.6346941932142727 Eh
Relativity type    :
Basis              : AO
                                X                 Y                 Z
Electronic contribution:      0.733666089       3.868680829       4.163705940
Nuclear contribution   :     -1.515326290      -5.073841895      -4.164934983
                        -----------------------------------------
Total Dipole Moment    :     -0.781660202      -1.205161066      -0.001229043
                        -----------------------------------------
Magnitude (a.u.)       :      1.436456535
Magnitude (Debye)      :      3.651182348

Rotational constants in cm-1:             0.013112             0.005234             0.005059
Rotational constants in MHz :           393.073677           156.908662           151.653784

                             ****ORCA TERMINATED NORMALLY****
TOTAL RUN TIME: 0 days 0 hours 0 minutes 22 seconds 91 msec
