                         Program Version 6.0.0  -   RELEASE  -
|  1> ! r2scan-3c def2/J RI DEFGRID2 scfconv6 printgap
|  2> %output
|  3>     printlevel normal
|  4> end
|  5> * xyz 0 1
|  6> C 5.6508056924 0.5334308523 0.3069393048
|  7> C 4.8179913599 0.1472331363 -0.8974879215
|  8> O 3.5958474256 0.9283836919 -0.9627731638
|  9> P 2.2310027991 0.4831365986 -0.3294124982
| 10> S 0.7902993025 1.7300589244 -0.7751985636
| 11> O 2.5918209528 0.390851749 1.2190106863
| 12> C 1.6359020965 0.1068253024 2.2573318753
| 13> C 1.7360328663 -1.3412324656 2.6973764101
| 14> S 1.975075235 -1.5267689458 -1.0201487851
| 15> C 0.2097422876 -1.519284101 -1.3712895787
| 16> S -0.8130013515 -1.7356133932 0.1346517265
| 17> P -2.1868574673 -0.1682780542 -0.0902450095
| 18> S -2.4599133384 0.5487227538 -1.9000949691
| 19> O -1.7221899959 0.8244159899 1.049373001
| 20> C -2.3221349524 2.1316579397 1.1957454464
| 21> C -1.4400497936 2.9442141713 2.1195831994
| 22> O -3.5188945678 -0.7465250061 0.5637921016
| 23> C -4.4189141708 -1.6080423267 -0.1605611121
| 24> C -5.8007093168 -1.4626206451 0.444872102
| 25> H 6.5858969086 -0.017269074 0.280264063
| 26> H 5.8614808995 1.5992316957 0.2873587179
| 27> H 5.1213216464 0.2986278196 1.2257083073
| 28> H 4.5566420173 -0.9140756566 -0.8795874723
| 29> H 5.3326802015 0.3844782473 -1.8301200367
| 30> H 1.9001649865 0.785514033 3.0709211954
| 31> H 0.6291445239 0.3508168128 1.9034772476
| 32> H 2.7514433026 -1.5648842417 3.0114372499
| 33> H 1.0583338341 -1.5039244418 3.5291250708
| 34> H 1.4598664508 -2.0126180761 1.8875464595
| 35> H 0.0314269603 -2.3687959049 -2.0251622901
| 36> H -0.0781497956 -0.5805795117 -1.8514979174
| 37> H -2.3923899508 2.5914675799 0.2039926164
| 38> H -3.3260927212 1.9988247049 1.6059960585
| 39> H -0.4542635783 3.0612132895 1.6760224448
| 40> H -1.8839119961 3.9236299645 2.2640873168
| 41> H -1.343740653 2.4425989434 3.0780009139
| 42> H -4.4104905138 -1.313486188 -1.2156566076
| 43> H -4.0489203288 -2.6322357704 -0.0681989087
| 44> H -6.156093455 -0.4425804373 0.3276886047
| 45> H -6.48265015 -2.1384555626 -0.0604881814
| 46> H -5.7684808746 -1.7061416299 1.5028500149
| 47> *
| 48>
| 49>                          ****END OF INPUT****

CARTESIAN COORDINATES (ANGSTROEM)
---------------------------------
  C      5.650806    0.533431    0.306939
  C      4.817991    0.147233   -0.897488
  O      3.595847    0.928384   -0.962773
  P      2.231003    0.483137   -0.329412
  S      0.790299    1.730059   -0.775199
  O      2.591821    0.390852    1.219011
  C      1.635902    0.106825    2.257332
  C      1.736033   -1.341232    2.697376
  S      1.975075   -1.526769   -1.020149
  C      0.209742   -1.519284   -1.371290
  S     -0.813001   -1.735613    0.134652
  P     -2.186857   -0.168278   -0.090245
  S     -2.459913    0.548723   -1.900095
  O     -1.722190    0.824416    1.049373
  C     -2.322135    2.131658    1.195745
  C     -1.440050    2.944214    2.119583
  O     -3.518895   -0.746525    0.563792
  C     -4.418914   -1.608042   -0.160561
  C     -5.800709   -1.462621    0.444872
  H      6.585897   -0.017269    0.280264
  H      5.861481    1.599232    0.287359
  H      5.121322    0.298628    1.225708
  H      4.556642   -0.914076   -0.879587
  H      5.332680    0.384478   -1.830120
  H      1.900165    0.785514    3.070921
  H      0.629145    0.350817    1.903477
  H      2.751443   -1.564884    3.011437
  H      1.058334   -1.503924    3.529125
  H      1.459866   -2.012618    1.887546
  H      0.031427   -2.368796   -2.025162
  H     -0.078150   -0.580580   -1.851498
  H     -2.392390    2.591468    0.203993
  H     -3.326093    1.998825    1.605996
  H     -0.454264    3.061213    1.676022
  H     -1.883912    3.923630    2.264087
  H     -1.343741    2.442599    3.078001
  H     -4.410491   -1.313486   -1.215657
  H     -4.048920   -2.632236   -0.068199
  H     -6.156093   -0.442580    0.327689
  H     -6.482650   -2.138456   -0.060488
  H     -5.768481   -1.706142    1.502850

 Total Charge           Charge          ....    0
 Multiplicity           Mult            ....    1
 Number of Electrons    NEL             ....  202
 Basis Dimension        Dim             ....  539

ORBITAL ENERGIES
----------------

  NO   OCC          E(Eh)            E(eV)
   0   2.0000     -88.577671     -2410.3210
   1   2.0000     -88.576649     -2410.2932
   2   2.0000     -88.515394     -2408.6263
   3   2.0000     -88.514275     -2408.5959
   4   2.0000     -76.912574     -2092.8975
   5   2.0000     -76.910600     -2092.8438
   6   2.0000     -18.992353      -516.8082
   7   2.0000     -18.988096      -516.6924
   8   2.0000     -18.987383      -516.6730
   9   2.0000     -18.985983      -516.6349
  10   2.0000     -10.106954      -275.0242
  11   2.0000     -10.106586      -275.0142
  12   2.0000     -10.094351      -274.6813
  13   2.0000     -10.094116      -274.6749
  14   2.0000     -10.093496      -274.6580
  15   2.0000     -10.032977      -273.0112
  16   2.0000     -10.030981      -272.9569
  17   2.0000     -10.025414      -272.8054
  18   2.0000     -10.025325      -272.8030
  19   2.0000      -7.872126      -214.2114
  20   2.0000      -7.871196      -214.1861
  21   2.0000      -7.810062      -212.5226
  22   2.0000      -7.809059      -212.4953
  23   2.0000      -6.590836      -179.3458
  24   2.0000      -6.589127      -179.2993
  25   2.0000      -5.819072      -158.3450
  26   2.0000      -5.817951      -158.3145
  27   2.0000      -5.815755      -158.2547
  28   2.0000      -5.814991      -158.2340
  29   2.0000      -5.809353      -158.0805
  30   2.0000      -5.808435      -158.0555
  31   2.0000      -5.757744      -156.6762
  32   2.0000      -5.756899      -156.6532
  33   2.0000      -5.750494      -156.4789
  34   2.0000      -5.749888      -156.4624
  35   2.0000      -5.749326      -156.4471
  36   2.0000      -5.748878      -156.4349
  37   2.0000      -4.736571      -128.8887
  38   2.0000      -4.735808      -128.8679
  39   2.0000      -4.734477      -128.8317
  40   2.0000      -4.734328      -128.8276
  41   2.0000      -4.734070      -128.8206
  42   2.0000      -4.732964      -128.7905
  43   2.0000      -1.050032       -28.5728
  44   2.0000      -1.046216       -28.4690
  45   2.0000      -1.008827       -27.4516
  46   2.0000      -1.005287       -27.3552
  47   2.0000      -0.799552       -21.7569
  48   2.0000      -0.760020       -20.6812
  49   2.0000      -0.751801       -20.4575
  50   2.0000      -0.733356       -19.9556
  51   2.0000      -0.729984       -19.8639
  52   2.0000      -0.709930       -19.3182
  53   2.0000      -0.681923       -18.5561
  54   2.0000      -0.663245       -18.0478
  55   2.0000      -0.625108       -17.0101
  56   2.0000      -0.619722       -16.8635
  57   2.0000      -0.607786       -16.5387
  58   2.0000      -0.599592       -16.3157
  59   2.0000      -0.589732       -16.0474
  60   2.0000      -0.533157       -14.5079
  61   2.0000      -0.523996       -14.2587
  62   2.0000      -0.498974       -13.5778
  63   2.0000      -0.496792       -13.5184
  64   2.0000      -0.466079       -12.6827
  65   2.0000      -0.465557       -12.6685
  66   2.0000      -0.459055       -12.4915
  67   2.0000      -0.452873       -12.3233
  68   2.0000      -0.448001       -12.1907
  69   2.0000      -0.436925       -11.8893
  70   2.0000      -0.420898       -11.4532
  71   2.0000      -0.411278       -11.1914
  72   2.0000      -0.408808       -11.1242
  73   2.0000      -0.400021       -10.8851
  74   2.0000      -0.396960       -10.8018
  75   2.0000      -0.383967       -10.4483
  76   2.0000      -0.379953       -10.3391
  77   2.0000      -0.372070       -10.1245
  78   2.0000      -0.368894       -10.0381
  79   2.0000      -0.366353        -9.9690
  80   2.0000      -0.362969        -9.8769
  81   2.0000      -0.358848        -9.7648
  82   2.0000      -0.353325        -9.6145
  83   2.0000      -0.350916        -9.5489
  84   2.0000      -0.344402        -9.3717
  85   2.0000      -0.332573        -9.0498
  86   2.0000      -0.323883        -8.8133
  87   2.0000      -0.313369        -8.5272
  88   2.0000      -0.309669        -8.4265
  89   2.0000      -0.307742        -8.3741
  90   2.0000      -0.299761        -8.1569
  91   2.0000      -0.292339        -7.9549
  92   2.0000      -0.283582        -7.7166
  93   2.0000      -0.277014        -7.5379
  94   2.0000      -0.272530        -7.4159
  95   2.0000      -0.248742        -6.7686
  96   2.0000      -0.231343        -6.2952
  97   2.0000      -0.226479        -6.1628
  98   2.0000      -0.213348        -5.8055
  99   2.0000      -0.209516        -5.7012
 100   2.0000      -0.200315        -5.4508
 101   0.0000      -0.045492        -1.2379
 102   0.0000      -0.034784        -0.9465
 103   0.0000      -0.013600        -0.3701
 104   0.0000       0.009919         0.2699
 105   0.0000       0.018568         0.5053

MULLIKEN ATOMIC CHARGES
-----------------------
   0 C :   -0.442737
   1 C :   -0.116019
   2 O :   -0.284909
   3 P :    0.624777
   4 S :   -0.395729
   5 O :   -0.252923
   6 C :   -0.166494
   7 C :   -0.427044
   8 S :   -0.178141
   9 C :   -0.208318
  10 S :   -0.155339
  11 P :    0.681944
  12 S :   -0.470437
  13 O :   -0.275238
  14 C :   -0.134437
  15 C :   -0.467949
  16 O :   -0.286843
  17 C :   -0.144543
  18 C :   -0.450018
  19 H :    0.146514
  20 H :    0.157766
  21 H :    0.165679
  22 H :    0.143066
  23 H :    0.157516
  24 H :    0.148828
  25 H :    0.184396
  26 H :    0.145864
  27 H :    0.146753
  28 H :    0.163554
  29 H :    0.197002
  30 H :    0.220338
  31 H :    0.173258
  32 H :    0.149126
  33 H :    0.181950
  34 H :    0.145083
  35 H :    0.147607
  36 H :    0.170658
  37 H :    0.149285
  38 H :    0.157131
  39 H :    0.146269
  40 H :    0.152756
Sum of atomic charges:    0.0000000

LOEWDIN ATOMIC CHARGES
----------------------
   0 C :   -0.393218
   1 C :    0.027539
   2 O :   -0.645977
   3 P :    0.385824
   4 S :   -0.052116
   5 O :   -0.673265
   6 C :    0.018168
   7 C :   -0.405087
   8 S :    0.114851
   9 C :   -0.414100
  10 S :    0.156933
  11 P :    0.361553
  12 S :   -0.128997
  13 O :   -0.690629
  14 C :    0.020121
  15 C :   -0.393482
  16 O :   -0.670285
  17 C :    0.017229
  18 C :   -0.387457
  19 H :    0.158452
  20 H :    0.162944
  21 H :    0.167773
  22 H :    0.174019
  23 H :    0.182766
  24 H :    0.177439
  25 H :    0.193151
  26 H :    0.155565
  27 H :    0.160663
  28 H :    0.163103
  29 H :    0.180555
  30 H :    0.204754
  31 H :    0.183320
  32 H :    0.171795
  33 H :    0.168655
  34 H :    0.159510
  35 H :    0.156912
  36 H :    0.181383
  37 H :    0.170827
  38 H :    0.160233
  39 H :    0.159510
  40 H :    0.159067

  Mayer bond orders larger than 0.100000
B(  0-C ,  1-C ) :   0.9527 B(  0-C , 19-H ) :   0.9660 B(  0-C , 20-H ) :   0.9696
B(  0-C , 21-H ) :   0.9618 B(  1-C ,  2-O ) :   0.7573 B(  1-C , 22-H ) :   0.9614
B(  1-C , 23-H ) :   0.9636 B(  2-O ,  3-P ) :   1.1953 B(  3-P ,  4-S ) :   1.8567
B(  3-P ,  5-O ) :   1.0313 B(  3-P ,  8-S ) :   0.9770 B(  5-O ,  6-C ) :   0.7576
B(  6-C ,  7-C ) :   0.9442 B(  6-C , 24-H ) :   0.9672 B(  6-C , 25-H ) :   0.9484
B(  7-C , 26-H ) :   0.9751 B(  7-C , 27-H ) :   0.9672 B(  7-C , 28-H ) :   0.9545
B(  8-S ,  9-C ) :   0.9228 B(  9-C , 10-S ) :   0.8825 B(  9-C , 29-H ) :   0.9136
B(  9-C , 30-H ) :   0.9022 B( 10-S , 11-P ) :   1.1034 B( 11-P , 12-S ) :   1.7449
B( 11-P , 13-O ) :   1.2031 B( 11-P , 16-O ) :   1.0775 B( 13-O , 14-C ) :   0.7652
B( 14-C , 15-C ) :   0.9448 B( 14-C , 31-H ) :   0.9540 B( 14-C , 32-H ) :   0.9429
B( 15-C , 33-H ) :   0.9635 B( 15-C , 34-H ) :   0.9638 B( 15-C , 35-H ) :   0.9723
B( 16-O , 17-C ) :   0.7798 B( 17-C , 18-C ) :   0.9557 B( 17-C , 36-H ) :   0.9492
B( 17-C , 37-H ) :   0.9470 B( 18-C , 38-H ) :   0.9726 B( 18-C , 39-H ) :   0.9654
B( 18-C , 40-H ) :   0.9724

Dispersion correction           -0.021605303
FINAL SINGLE POINT ENERGY     -2932.458695001544

DIPOLE MOMENT
-------------

Method             : SCF
Type of density    : Electron Density
Multiplicity       :   1
Irrep              :   0
Energy             : -2932.4837349980721228 Eh
Relativity type    :
Basis              : AO
                                X                 Y                 Z
Electronic contribution:      1.325533848      -0.921176140     -16.078401753
Nuclear contribution   :     -1.002176417      -0.005729627      17.321298167
                        -----------------------------------------
Total Dipole Moment    :      0.323357432      -0.926905768       1.242896414
                        -----------------------------------------
Magnitude (a.u.)       :      1.583826325
Magnitude (Debye)      :      4.025766585

Rotational constants in cm-1:             0.013862             0.004729             0.004516
Rotational constants in MHz :           415.577216           141.767333           135.386837

                             ****ORCA TERMINATED NORMALLY****
TOTAL RUN TIME: 0 days 0 hours 1 minutes 19 seconds 339 msec
