                         Program Version 6.0.0  -   RELEASE  -
|  1> ! r2scan-3c def2/J RI DEFGRID2 scfconv6 printgap
|  2> %output
|  3>     printlevel normal
|  4> end
|  5> %cpcm
|  6>     smd true
|  7>     smdsolvent "water"
|  8> end
|  9> * xyz 0 1
| 10> C 5.6508056924 0.5334308523 0.3069393048
| 11> C 4.8179913599 0.1472331363 -0.8974879215
| 12> O 3.5958474256 0.9283836919 -0.9627731638
| 13> P 2.2310027991 0.4831365986 -0.3294124982
| 14> S 0.7902993025 1.7300589244 -0.7751985636
| 15> O 2.5918209528 0.390851749 1.2190106863
| 16> C 1.6359020965 0.1068253024 2.2573318753
| 17> C 1.7360328663 -1.3412324656 2.6973764101
| 18> S 1.975075235 -1.5267689458 -1.0201487851
| 19> C 0.2097422876 -1.519284101 -1.3712895787
| 20> S -0.8130013515 -1.7356133932 0.1346517265
| 21> P -2.1868574673 -0.1682780542 -0.0902450095
| 22> S -2.4599133384 0.5487227538 -1.9000949691
| 23> O -1.7221899959 0.8244159899 1.049373001
| 24> C -2.3221349524 2.1316579397 1.1957454464
| 25> C -1.4400497936 2.9442141713 2.1195831994
| 26> O -3.5188945678 -0.7465250061 0.5637921016
| 27> C -4.4189141708 -1.6080423267 -0.1605611121
| 28> C -5.8007093168 -1.4626206451 0.444872102
| 29> H 6.5858969086 -0.017269074 0.280264063
| 30> H 5.8614808995 1.5992316957 0.2873587179
| 31> H 5.1213216464 0.2986278196 1.2257083073
| 32> H 4.5566420173 -0.9140756566 -0.8795874723
| 33> H 5.3326802015 0.3844782473 -1.8301200367
| 34> H 1.9001649865 0.785514033 3.0709211954
| 35> H 0.6291445239 0.3508168128 1.9034772476
| 36> H 2.7514433026 -1.5648842417 3.0114372499
| 37> H 1.0583338341 -1.5039244418 3.5291250708
| 38> H 1.4598664508 -2.0126180761 1.8875464595
| 39> H 0.0314269603 -2.3687959049 -2.0251622901
| 40> H -0.0781497956 -0.5805795117 -1.8514979174
| 41> H -2.3923899508 2.5914675799 0.2039926164
| 42> H -3.3260927212 1.9988247049 1.6059960585
| 43> H -0.4542635783 3.0612132895 1.6760224448
| 44> H -1.8839119961 3.9236299645 2.2640873168
| 45> H -1.343740653 2.4425989434 3.0780009139
| 46> H -4.4104905138 -1.313486188 -1.2156566076
| 47> H -4.0489203288 -2.6322357704 -0.0681989087
| 48> H -6.156093455 -0.4425804373 0.3276886047
| 49> H -6.48265015 -2.1384555626 -0.0604881814
| 50> H -5.7684808746 -1.7061416299 1.5028500149
| 51> *
| 52>
| 53>                          ****END OF INPUT****

CARTESIAN COORDINATES (ANGSTROEM)
---------------------------------
  C      5.650806    0.533431    0.306939
  C      4.817991    0.147233   -0.897488
  O      3.595847    0.928384   -0.962773
  P      2.231003    0.483137   -0.329412
  S      0.790299    1.730059   -0.775199
  O      2.591821    0.390852    1.219011
  C      1.635902    0.106825    2.257332
  C      1.736033   -1.341232    2.697376
  S      1.975075   -1.526769   -1.020149
  C      0.209742   -1.519284   -1.371290
  S     -0.813001   -1.735613    0.134652
  P     -2.186857   -0.168278   -0.090245
  S     -2.459913    0.548723   -1.900095
  O     -1.722190    0.824416    1.049373
  C     -2.322135    2.131658    1.195745
  C     -1.440050    2.944214    2.119583
  O     -3.518895   -0.746525    0.563792
  C     -4.418914   -1.608042   -0.160561
  C     -5.800709   -1.462621    0.444872
  H      6.585897   -0.017269    0.280264
  H      5.861481    1.599232    0.287359
  H      5.121322    0.298628    1.225708
  H      4.556642   -0.914076   -0.879587
  H      5.332680    0.384478   -1.830120
  H      1.900165    0.785514    3.070921
  H      0.629145    0.350817    1.903477
  H      2.751443   -1.564884    3.011437
  H      1.058334   -1.503924    3.529125
  H      1.459866   -2.012618    1.887546
  H      0.031427   -2.368796   -2.025162
  H     -0.078150   -0.580580   -1.851498
  H     -2.392390    2.591468    0.203993
  H     -3.326093    1.998825    1.605996
  H     -0.454264    3.061213    1.676022
  H     -1.883912    3.923630    2.264087
  H     -1.343741    2.442599    3.078001
  H     -4.410491   -1.313486   -1.215657
  H     -4.048920   -2.632236   -0.068199
  H     -6.156093   -0.442580    0.327689
  H     -6.482650   -2.138456   -0.060488
  H     -5.768481   -1.706142    1.502850

 Total Charge           Charge          ....    0
 Multiplicity           Mult            ....    1
 Number of Electrons    NEL             ....  202
 Basis Dimension        Dim             ....  539

ORBITAL ENERGIES
----------------

  NO   OCC          E(Eh)            E(eV)
   0   2.0000     -88.581717     -2410.4311
   1   2.0000     -88.580517     -2410.3984
   2   2.0000     -88.526055     -2408.9164
   3   2.0000     -88.525626     -2408.9048
   4   2.0000     -76.919896     -2093.0968
   5   2.0000     -76.917528     -2093.0324
   6   2.0000     -18.997045      -516.9359
   7   2.0000     -18.992000      -516.7986
   8   2.0000     -18.991753      -516.7919
   9   2.0000     -18.990284      -516.7519
  10   2.0000     -10.106464      -275.0109
  11   2.0000     -10.095805      -274.7208
  12   2.0000     -10.088669      -274.5266
  13   2.0000     -10.088646      -274.5260
  14   2.0000     -10.087507      -274.4950
  15   2.0000     -10.019064      -272.6326
  16   2.0000     -10.018868      -272.6273
  17   2.0000     -10.017780      -272.5976
  18   2.0000     -10.016641      -272.5667
  19   2.0000      -7.876059      -214.3185
  20   2.0000      -7.875023      -214.2903
  21   2.0000      -7.821158      -212.8245
  22   2.0000      -7.820646      -212.8106
  23   2.0000      -6.598251      -179.5475
  24   2.0000      -6.596092      -179.4888
  25   2.0000      -5.823022      -158.4525
  26   2.0000      -5.821802      -158.4193
  27   2.0000      -5.819696      -158.3620
  28   2.0000      -5.818835      -158.3386
  29   2.0000      -5.813280      -158.1874
  30   2.0000      -5.812232      -158.1589
  31   2.0000      -5.768869      -156.9789
  32   2.0000      -5.768230      -156.9615
  33   2.0000      -5.761422      -156.7763
  34   2.0000      -5.761077      -156.7669
  35   2.0000      -5.761043      -156.7660
  36   2.0000      -5.760507      -156.7514
  37   2.0000      -4.743964      -129.0898
  38   2.0000      -4.743154      -129.0678
  39   2.0000      -4.741868      -129.0328
  40   2.0000      -4.741411      -129.0204
  41   2.0000      -4.740997      -129.0091
  42   2.0000      -4.740037      -128.9830
  43   2.0000      -1.054204       -28.6864
  44   2.0000      -1.050365       -28.5819
  45   2.0000      -1.012219       -27.5439
  46   2.0000      -1.008769       -27.4500
  47   2.0000      -0.801919       -21.8213
  48   2.0000      -0.758296       -20.6343
  49   2.0000      -0.747385       -20.3374
  50   2.0000      -0.725865       -19.7518
  51   2.0000      -0.723141       -19.6777
  52   2.0000      -0.710214       -19.3259
  53   2.0000      -0.687201       -18.6997
  54   2.0000      -0.671032       -18.2597
  55   2.0000      -0.626095       -17.0369
  56   2.0000      -0.616775       -16.7833
  57   2.0000      -0.601762       -16.3748
  58   2.0000      -0.594791       -16.1851
  59   2.0000      -0.587640       -15.9905
  60   2.0000      -0.531946       -14.4750
  61   2.0000      -0.521902       -14.2017
  62   2.0000      -0.497203       -13.5296
  63   2.0000      -0.496318       -13.5055
  64   2.0000      -0.468282       -12.7426
  65   2.0000      -0.462215       -12.5775
  66   2.0000      -0.456880       -12.4323
  67   2.0000      -0.451479       -12.2854
  68   2.0000      -0.443551       -12.0696
  69   2.0000      -0.433993       -11.8096
  70   2.0000      -0.418180       -11.3793
  71   2.0000      -0.410622       -11.1736
  72   2.0000      -0.405737       -11.0407
  73   2.0000      -0.399821       -10.8797
  74   2.0000      -0.393979       -10.7207
  75   2.0000      -0.381566       -10.3829
  76   2.0000      -0.376960       -10.2576
  77   2.0000      -0.365562        -9.9475
  78   2.0000      -0.362348        -9.8600
  79   2.0000      -0.360749        -9.8165
  80   2.0000      -0.354995        -9.6599
  81   2.0000      -0.353677        -9.6240
  82   2.0000      -0.347880        -9.4663
  83   2.0000      -0.345009        -9.3882
  84   2.0000      -0.341432        -9.2908
  85   2.0000      -0.330918        -9.0047
  86   2.0000      -0.322976        -8.7886
  87   2.0000      -0.312005        -8.4901
  88   2.0000      -0.308905        -8.4057
  89   2.0000      -0.305323        -8.3083
  90   2.0000      -0.298659        -8.1269
  91   2.0000      -0.292142        -7.9496
  92   2.0000      -0.284486        -7.7413
  93   2.0000      -0.279405        -7.6030
  94   2.0000      -0.275189        -7.4883
  95   2.0000      -0.252081        -6.8595
  96   2.0000      -0.239049        -6.5049
  97   2.0000      -0.236629        -6.4390
  98   2.0000      -0.224449        -6.1076
  99   2.0000      -0.219754        -5.9798
 100   2.0000      -0.212485        -5.7820
 101   0.0000      -0.050061        -1.3622
 102   0.0000      -0.040906        -1.1131
 103   0.0000      -0.017022        -0.4632
 104   0.0000       0.006480         0.1763
 105   0.0000       0.012934         0.3519

MULLIKEN ATOMIC CHARGES
-----------------------
   0 C :   -0.486685
   1 C :   -0.098059
   2 O :   -0.322379
   3 P :    0.630035
   4 S :   -0.454293
   5 O :   -0.271805
   6 C :   -0.147472
   7 C :   -0.467925
   8 S :   -0.176170
   9 C :   -0.206146
  10 S :   -0.152068
  11 P :    0.718379
  12 S :   -0.532616
  13 O :   -0.295757
  14 C :   -0.129364
  15 C :   -0.500737
  16 O :   -0.314002
  17 C :   -0.139137
  18 C :   -0.488193
  19 H :    0.171912
  20 H :    0.168249
  21 H :    0.169173
  22 H :    0.157236
  23 H :    0.180714
  24 H :    0.175736
  25 H :    0.173265
  26 H :    0.165261
  27 H :    0.170749
  28 H :    0.159643
  29 H :    0.237101
  30 H :    0.212067
  31 H :    0.172830
  32 H :    0.172488
  33 H :    0.171333
  34 H :    0.169084
  35 H :    0.166864
  36 H :    0.169606
  37 H :    0.170575
  38 H :    0.166031
  39 H :    0.169210
  40 H :    0.165266
Sum of atomic charges:   -0.0000000

LOEWDIN ATOMIC CHARGES
----------------------
   0 C :   -0.395552
   1 C :    0.035510
   2 O :   -0.670073
   3 P :    0.383715
   4 S :   -0.094499
   5 O :   -0.679478
   6 C :    0.022944
   7 C :   -0.407788
   8 S :    0.124961
   9 C :   -0.409597
  10 S :    0.162150
  11 P :    0.366845
  12 S :   -0.169724
  13 O :   -0.699473
  14 C :    0.023852
  15 C :   -0.395706
  16 O :   -0.682415
  17 C :    0.021704
  18 C :   -0.391130
  19 H :    0.169055
  20 H :    0.164708
  21 H :    0.166868
  22 H :    0.181048
  23 H :    0.192681
  24 H :    0.188547
  25 H :    0.189841
  26 H :    0.162033
  27 H :    0.168976
  28 H :    0.159968
  29 H :    0.196294
  30 H :    0.201175
  31 H :    0.182835
  32 H :    0.181090
  33 H :    0.163337
  34 H :    0.168297
  35 H :    0.163074
  36 H :    0.181262
  37 H :    0.179400
  38 H :    0.161983
  39 H :    0.168445
  40 H :    0.162838

  Mayer bond orders larger than 0.100000
B(  0-C ,  1-C ) :   0.9408 B(  0-C , 19-H ) :   0.9590 B(  0-C , 20-H ) :   0.9687
B(  0-C , 21-H ) :   0.9622 B(  1-C ,  2-O ) :   0.7493 B(  1-C , 22-H ) :   0.9504
B(  1-C , 23-H ) :   0.9533 B(  2-O ,  3-P ) :   1.1947 B(  3-P ,  4-S ) :   1.8355
B(  3-P ,  5-O ) :   1.0350 B(  3-P ,  8-S ) :   0.9991 B(  5-O ,  6-C ) :   0.7484
B(  6-C ,  7-C ) :   0.9396 B(  6-C , 24-H ) :   0.9558 B(  6-C , 25-H ) :   0.9470
B(  7-C , 26-H ) :   0.9715 B(  7-C , 27-H ) :   0.9627 B(  7-C , 28-H ) :   0.9552
B(  8-S ,  9-C ) :   0.9160 B(  9-C , 10-S ) :   0.8785 B(  9-C , 29-H ) :   0.8979
B(  9-C , 30-H ) :   0.9067 B( 10-S , 11-P ) :   1.1267 B( 11-P , 12-S ) :   1.6875
B( 11-P , 13-O ) :   1.2106 B( 11-P , 16-O ) :   1.0842 B( 13-O , 14-C ) :   0.7554
B( 14-C , 15-C ) :   0.9384 B( 14-C , 31-H ) :   0.9524 B( 14-C , 32-H ) :   0.9343
B( 15-C , 33-H ) :   0.9668 B( 15-C , 34-H ) :   0.9591 B( 15-C , 35-H ) :   0.9678
B( 16-O , 17-C ) :   0.7724 B( 17-C , 18-C ) :   0.9522 B( 17-C , 36-H ) :   0.9474
B( 17-C , 37-H ) :   0.9384 B( 18-C , 38-H ) :   0.9698 B( 18-C , 39-H ) :   0.9595
B( 18-C , 40-H ) :   0.9692

Dispersion correction           -0.021605303
FINAL SINGLE POINT ENERGY     -2932.467622120425

DIPOLE MOMENT
-------------

Method             : SCF
Type of density    : Electron Density
Multiplicity       :   1
Irrep              :   0
Energy             : -2932.4926621169533973 Eh
Relativity type    :
Basis              : AO
                                X                 Y                 Z
Electronic contribution:      1.450722981      -1.567505549     -15.614339869
Nuclear contribution   :     -1.002176417      -0.005729627      17.321298167
                        -----------------------------------------
Total Dipole Moment    :      0.448546565      -1.573235177       1.706958297
                        -----------------------------------------
Magnitude (a.u.)       :      2.364311648
Magnitude (Debye)      :      6.009602619

Rotational constants in cm-1:             0.013862             0.004729             0.004516
Rotational constants in MHz :           415.577216           141.767333           135.386837

                             ****ORCA TERMINATED NORMALLY****
TOTAL RUN TIME: 0 days 0 hours 1 minutes 49 seconds 254 msec
