                         Program Version 6.0.0  -   RELEASE  -
|  1> ! wb97x-v def2-tzvp def2/J RIJCOSX DEFGRID2 scfconv7 GCP(DFT/TZ) printgap
|  2> %output
|  3>     printlevel normal
|  4> end
|  5> * xyz 0 1
|  6> C -0.7331347380038419 -1.2015327180844868 -0.23016714185540138
|  7> C 0.7175164397369702 -1.1795878029178495 0.2183999988402554
|  8> O 1.3891941365135265 0.001452420730599277 -0.2568613716205684
|  9> C 0.715073613670245 1.1810906737243596 0.21841217534032598
| 10> C -0.7356279771499421 1.2000162386686317 -0.23014725663937788
| 11> N -1.4830575512549495 -0.0015417881620460351 0.192761710532016
| 12> H -1.221447390383491 -2.0964211754782873 0.17057866505212985
| 13> H -0.7729232560954694 -1.2647432589198582 -1.3248606278561403
| 14> H 0.7741308077338461 -1.2109656678499674 1.3194179178494043
| 15> H 1.2696599690509986 -2.03387999932593 -0.18644227815602724
| 16> H 0.7716383063397307 1.2125919092254076 1.3194290876654775
| 17> H 1.2654286601415012 2.036533784264578 -0.18643594051037124
| 18> H -1.2258089693814813 2.0938768808010444 0.17061046089144252
| 19> H -0.7755496060090409 1.2631542173621602 -1.3248398699975432
| 20> H -1.4806599795878106 -0.0015481603972116375 1.212392087575316
| 21> *
| 22>
| 23>                          ****END OF INPUT****

CARTESIAN COORDINATES (ANGSTROEM)
---------------------------------
  C     -0.733135   -1.201533   -0.230167
  C      0.717516   -1.179588    0.218400
  O      1.389194    0.001452   -0.256861
  C      0.715074    1.181091    0.218412
  C     -0.735628    1.200016   -0.230147
  N     -1.483058   -0.001542    0.192762
  H     -1.221447   -2.096421    0.170579
  H     -0.772923   -1.264743   -1.324861
  H      0.774131   -1.210966    1.319418
  H      1.269660   -2.033880   -0.186442
  H      0.771638    1.212592    1.319429
  H      1.265429    2.036534   -0.186436
  H     -1.225809    2.093877    0.170610
  H     -0.775550    1.263154   -1.324840
  H     -1.480660   -0.001548    1.212392

 Total Charge           Charge          ....    0
 Multiplicity           Mult            ....    1
 Number of Electrons    NEL             ....   48
 Basis Dimension        Dim             ....  240

ORBITAL ENERGIES
----------------

  NO   OCC          E(Eh)            E(eV)
   0   2.0000     -21.673028      -589.7531
   1   2.0000     -16.517756      -449.4710
   2   2.0000     -12.091282      -329.0205
   3   2.0000     -12.091145      -329.0168
   4   2.0000     -12.069428      -328.4258
   5   2.0000     -12.069263      -328.4213
   6   2.0000      -1.675225       -45.5852
   7   2.0000      -1.471248       -40.0347
   8   2.0000      -1.294048       -35.2128
   9   2.0000      -1.208910       -32.8961
  10   2.0000      -1.169581       -31.8259
  11   2.0000      -1.072978       -29.1972
  12   2.0000      -0.985062       -26.8049
  13   2.0000      -0.982206       -26.7272
  14   2.0000      -0.959516       -26.1098
  15   2.0000      -0.928238       -25.2586
  16   2.0000      -0.915707       -24.9176
  17   2.0000      -0.875525       -23.8243
  18   2.0000      -0.842881       -22.9360
  19   2.0000      -0.821965       -22.3668
  20   2.0000      -0.815319       -22.1860
  21   2.0000      -0.796930       -21.6856
  22   2.0000      -0.773301       -21.0426
  23   2.0000      -0.721911       -19.6442
  24   0.0000      -0.175337        -4.7712
  25   0.0000      -0.113949        -3.1007
  26   0.0000      -0.075932        -2.0662
  27   0.0000      -0.054670        -1.4876
  28   0.0000      -0.042309        -1.1513

MULLIKEN ATOMIC CHARGES
-----------------------
   0 C :   -0.123531
   1 C :   -0.059309
   2 O :   -0.300327
   3 C :   -0.059318
   4 C :   -0.123516
   5 N :   -0.290252
   6 H :    0.109253
   7 H :    0.094776
   8 H :    0.079182
   9 H :    0.106425
  10 H :    0.079184
  11 H :    0.106422
  12 H :    0.109255
  13 H :    0.094768
  14 H :    0.176988
Sum of atomic charges:    0.0000000

LOEWDIN ATOMIC CHARGES
----------------------
   0 C :   -0.313303
   1 C :   -0.317400
   2 O :    0.124995
   3 C :   -0.317403
   4 C :   -0.313299
   5 N :   -0.027006
   6 H :    0.129380
   7 H :    0.131510
   8 H :    0.113791
   9 H :    0.126272
  10 H :    0.113790
  11 H :    0.126272
  12 H :    0.129380
  13 H :    0.131509
  14 H :    0.161513

  Mayer bond orders larger than 0.100000
B(  0-C ,  1-C ) :   0.9924 B(  0-C ,  5-N ) :   1.0150 B(  0-C ,  6-H ) :   0.9727
B(  0-C ,  7-H ) :   0.9688 B(  1-C ,  2-O ) :   0.9993 B(  1-C ,  8-H ) :   0.9767
B(  1-C ,  9-H ) :   0.9637 B(  2-O ,  3-C ) :   0.9993 B(  3-C ,  4-C ) :   0.9924
B(  3-C , 10-H ) :   0.9767 B(  3-C , 11-H ) :   0.9637 B(  4-C ,  5-N ) :   1.0150
B(  4-C , 12-H ) :   0.9727 B(  4-C , 13-H ) :   0.9688 B(  5-N , 14-H ) :   0.9374

FINAL SINGLE POINT ENERGY      -287.812087350481

DIPOLE MOMENT
-------------

Method             : SCF
Type of density    : Electron Density
Multiplicity       :   1
Irrep              :   0
Energy             :  -287.8227921495804935 Eh
Relativity type    :
Basis              : AO
                                X                 Y                 Z
Electronic contribution:      1.202407575       0.001245305      -0.675694073
Nuclear contribution   :     -1.259120307      -0.001308182       1.144585772
                        -----------------------------------------
Total Dipole Moment    :     -0.056712733      -0.000062876       0.468891698
                        -----------------------------------------
Magnitude (a.u.)       :      0.472308969
Magnitude (Debye)      :      1.200513994

Rotational constants in cm-1:             0.161887             0.152568             0.089038
Rotational constants in MHz :          4853.253412          4573.869098          2669.299416

                             ****ORCA TERMINATED NORMALLY****
TOTAL RUN TIME: 0 days 0 hours 1 minutes 39 seconds 767 msec
