                         Program Version 6.0.0  -   RELEASE  -
|  1> ! wb97x-v def2-tzvp def2/J RIJCOSX DEFGRID2 scfconv7 GCP(DFT/TZ) printgap
|  2> %output
|  3>     printlevel normal
|  4> end
|  5> %cpcm
|  6>     smd true
|  7>     smdsolvent "water"
|  8> end
|  9> * xyz 0 1
| 10> C -0.7331347380038419 -1.2015327180844868 -0.23016714185540138
| 11> C 0.7175164397369702 -1.1795878029178495 0.2183999988402554
| 12> O 1.3891941365135265 0.001452420730599277 -0.2568613716205684
| 13> C 0.715073613670245 1.1810906737243596 0.21841217534032598
| 14> C -0.7356279771499421 1.2000162386686317 -0.23014725663937788
| 15> N -1.4830575512549495 -0.0015417881620460351 0.192761710532016
| 16> H -1.221447390383491 -2.0964211754782873 0.17057866505212985
| 17> H -0.7729232560954694 -1.2647432589198582 -1.3248606278561403
| 18> H 0.7741308077338461 -1.2109656678499674 1.3194179178494043
| 19> H 1.2696599690509986 -2.03387999932593 -0.18644227815602724
| 20> H 0.7716383063397307 1.2125919092254076 1.3194290876654775
| 21> H 1.2654286601415012 2.036533784264578 -0.18643594051037124
| 22> H -1.2258089693814813 2.0938768808010444 0.17061046089144252
| 23> H -0.7755496060090409 1.2631542173621602 -1.3248398699975432
| 24> H -1.4806599795878106 -0.0015481603972116375 1.212392087575316
| 25> *
| 26>
| 27>                          ****END OF INPUT****

CARTESIAN COORDINATES (ANGSTROEM)
---------------------------------
  C     -0.733135   -1.201533   -0.230167
  C      0.717516   -1.179588    0.218400
  O      1.389194    0.001452   -0.256861
  C      0.715074    1.181091    0.218412
  C     -0.735628    1.200016   -0.230147
  N     -1.483058   -0.001542    0.192762
  H     -1.221447   -2.096421    0.170579
  H     -0.772923   -1.264743   -1.324861
  H      0.774131   -1.210966    1.319418
  H      1.269660   -2.033880   -0.186442
  H      0.771638    1.212592    1.319429
  H      1.265429    2.036534   -0.186436
  H     -1.225809    2.093877    0.170610
  H     -0.775550    1.263154   -1.324840
  H     -1.480660   -0.001548    1.212392

 Total Charge           Charge          ....    0
 Multiplicity           Mult            ....    1
 Number of Electrons    NEL             ....   48
 Basis Dimension        Dim             ....  240

ORBITAL ENERGIES
----------------

  NO   OCC          E(Eh)            E(eV)
   0   2.0000     -21.675966      -589.8330
   1   2.0000     -16.510574      -449.2756
   2   2.0000     -12.082303      -328.7762
   3   2.0000     -12.082170      -328.7726
   4   2.0000     -12.059321      -328.1508
   5   2.0000     -12.059162      -328.1465
   6   2.0000      -1.678238       -45.6672
   7   2.0000      -1.463243       -39.8169
   8   2.0000      -1.286710       -35.0132
   9   2.0000      -1.200856       -32.6770
  10   2.0000      -1.164200       -31.6795
  11   2.0000      -1.065688       -28.9988
  12   2.0000      -0.983540       -26.7635
  13   2.0000      -0.977156       -26.5898
  14   2.0000      -0.958780       -26.0897
  15   2.0000      -0.920840       -25.0573
  16   2.0000      -0.906336       -24.6627
  17   2.0000      -0.871063       -23.7028
  18   2.0000      -0.833703       -22.6862
  19   2.0000      -0.816317       -22.2131
  20   2.0000      -0.805379       -21.9155
  21   2.0000      -0.786568       -21.4036
  22   2.0000      -0.765389       -20.8273
  23   2.0000      -0.717312       -19.5190
  24   0.0000      -0.169040        -4.5998
  25   0.0000      -0.108489        -2.9521
  26   0.0000      -0.065753        -1.7892
  27   0.0000      -0.047440        -1.2909
  28   0.0000      -0.021094        -0.5740

MULLIKEN ATOMIC CHARGES
-----------------------
   0 C :   -0.132494
   1 C :   -0.069677
   2 O :   -0.391360
   3 C :   -0.069676
   4 C :   -0.132488
   5 N :   -0.382755
   6 H :    0.130216
   7 H :    0.109087
   8 H :    0.107203
   9 H :    0.129815
  10 H :    0.107202
  11 H :    0.129811
  12 H :    0.130219
  13 H :    0.109081
  14 H :    0.225817
Sum of atomic charges:   -0.0000000

LOEWDIN ATOMIC CHARGES
----------------------
   0 C :   -0.313851
   1 C :   -0.314352
   2 O :    0.085061
   3 C :   -0.314353
   4 C :   -0.313847
   5 N :   -0.051170
   6 H :    0.135901
   7 H :    0.132533
   8 H :    0.123866
   9 H :    0.131083
  10 H :    0.123866
  11 H :    0.131082
  12 H :    0.135901
  13 H :    0.132532
  14 H :    0.175747

  Mayer bond orders larger than 0.100000
B(  0-C ,  1-C ) :   0.9983 B(  0-C ,  5-N ) :   1.0033 B(  0-C ,  6-H ) :   0.9644
B(  0-C ,  7-H ) :   0.9696 B(  1-C ,  2-O ) :   0.9643 B(  1-C ,  8-H ) :   0.9756
B(  1-C ,  9-H ) :   0.9605 B(  2-O ,  3-C ) :   0.9643 B(  3-C ,  4-C ) :   0.9983
B(  3-C , 10-H ) :   0.9756 B(  3-C , 11-H ) :   0.9605 B(  4-C ,  5-N ) :   1.0033
B(  4-C , 12-H ) :   0.9644 B(  4-C , 13-H ) :   0.9696 B(  5-N , 14-H ) :   0.9253

FINAL SINGLE POINT ENERGY      -287.826869766524

DIPOLE MOMENT
-------------

Method             : SCF
Type of density    : Electron Density
Multiplicity       :   1
Irrep              :   0
Energy             :  -287.8375745656243794 Eh
Relativity type    :
Basis              : AO
                                X                 Y                 Z
Electronic contribution:      1.147195261       0.001190573      -0.396506659
Nuclear contribution   :     -1.259120307      -0.001308182       1.144585772
                        -----------------------------------------
Total Dipole Moment    :     -0.111925046      -0.000117609       0.748079112
                        -----------------------------------------
Magnitude (a.u.)       :      0.756405703
Magnitude (Debye)      :      1.922630503

Rotational constants in cm-1:             0.161887             0.152568             0.089038
Rotational constants in MHz :          4853.253412          4573.869098          2669.299416

                             ****ORCA TERMINATED NORMALLY****
TOTAL RUN TIME: 0 days 0 hours 1 minutes 43 seconds 69 msec
