                         Program Version 6.0.0  -   RELEASE  -
|  1> ! r2scan-3c def2/J RI DEFGRID2 scfconv6 printgap
|  2> %output
|  3>     printlevel normal
|  4> end
|  5> * xyz 0 1
|  6> C -1.9358799284 -1.2040306736 -3.83508e-05
|  7> C -0.5560484156 -1.2071711967 0.0003118893
|  8> C 0.121310375 8.8132e-06 0.0006119528
|  9> C -0.5553855581 1.2053159654 0.0003370034
| 10> C -1.9380933626 1.203693011 -2.9598e-05
| 11> C -2.6394030061 0.0006105646 -8.83338e-05
| 12> O -3.9889036284 -0.0558113994 -0.0002519997
| 13> Br 2.0446835673 0.0007436013 -0.0001152368
| 14> H -2.4897782972 -2.1284762543 -0.0001947314
| 15> H -0.012336204 -2.1383529555 0.0003938774
| 16> H -0.0111727926 2.1363869901 0.0001765011
| 17> H -2.4676073279 2.1440410462 -0.0002361962
| 18> H -4.3795666031 0.8321174444 -0.0001661777
| 19> *
| 20>
| 21>                          ****END OF INPUT****

CARTESIAN COORDINATES (ANGSTROEM)
---------------------------------
  C     -1.935880   -1.204031   -0.000038
  C     -0.556048   -1.207171    0.000312
  C      0.121310    0.000009    0.000612
  C     -0.555386    1.205316    0.000337
  C     -1.938093    1.203693   -0.000030
  C     -2.639403    0.000611   -0.000088
  O     -3.988904   -0.055811   -0.000252
  Br     2.044684    0.000744   -0.000115
  H     -2.489778   -2.128476   -0.000195
  H     -0.012336   -2.138353    0.000394
  H     -0.011173    2.136387    0.000177
  H     -2.467607    2.144041   -0.000236
  H     -4.379567    0.832117   -0.000166

 Total Charge           Charge          ....    0
 Multiplicity           Mult            ....    1
 Number of Electrons    NEL             ....   84
 Basis Dimension        Dim             ....  199

ORBITAL ENERGIES
----------------

  NO   OCC          E(Eh)            E(eV)
   0   2.0000    -482.225835    -13122.0321
   1   2.0000     -62.297240     -1695.1941
   2   2.0000     -56.077600     -1525.9491
   3   2.0000     -56.075081     -1525.8805
   4   2.0000     -56.075030     -1525.8791
   5   2.0000     -18.999061      -516.9907
   6   2.0000     -10.111950      -275.1602
   7   2.0000     -10.093604      -274.6609
   8   2.0000     -10.055903      -273.6350
   9   2.0000     -10.054569      -273.5987
  10   2.0000     -10.052112      -273.5319
  11   2.0000     -10.047038      -273.3938
  12   2.0000      -8.628932      -234.8052
  13   2.0000      -6.436538      -175.1471
  14   2.0000      -6.422707      -174.7707
  15   2.0000      -6.422520      -174.7657
  16   2.0000      -2.534078       -68.9558
  17   2.0000      -2.530586       -68.8607
  18   2.0000      -2.530506       -68.8586
  19   2.0000      -2.520207       -68.5783
  20   2.0000      -2.520204       -68.5782
  21   2.0000      -1.045636       -28.4532
  22   2.0000      -0.848196       -23.0806
  23   2.0000      -0.768211       -20.9041
  24   2.0000      -0.739221       -20.1152
  25   2.0000      -0.693307       -18.8658
  26   2.0000      -0.611732       -16.6461
  27   2.0000      -0.582796       -15.8587
  28   2.0000      -0.534975       -14.5574
  29   2.0000      -0.471543       -12.8313
  30   2.0000      -0.450463       -12.2577
  31   2.0000      -0.425613       -11.5815
  32   2.0000      -0.411917       -11.2088
  33   2.0000      -0.399857       -10.8807
  34   2.0000      -0.373409       -10.1610
  35   2.0000      -0.346023        -9.4158
  36   2.0000      -0.344860        -9.3841
  37   2.0000      -0.326107        -8.8738
  38   2.0000      -0.275155        -7.4873
  39   2.0000      -0.264011        -7.1841
  40   2.0000      -0.255879        -6.9628
  41   2.0000      -0.208995        -5.6870
  42   0.0000      -0.049782        -1.3546
  43   0.0000      -0.031845        -0.8666
  44   0.0000      -0.025153        -0.6844
  45   0.0000       0.046193         1.2570
  46   0.0000       0.090165         2.4535

MULLIKEN ATOMIC CHARGES
-----------------------
   0 C :   -0.269541
   1 C :   -0.151104
   2 C :    0.091538
   3 C :   -0.162682
   4 C :   -0.303860
   5 C :    0.409655
   6 O :   -0.408938
   7 Br:   -0.152101
   8 H :    0.161584
   9 H :    0.164569
  10 H :    0.163715
  11 H :    0.141966
  12 H :    0.315198
Sum of atomic charges:   -0.0000000

LOEWDIN ATOMIC CHARGES
----------------------
   0 C :   -0.131996
   1 C :   -0.162103
   2 C :   -0.242750
   3 C :   -0.163981
   4 C :   -0.163072
   5 C :    0.182728
   6 O :   -0.489093
   7 Br:    0.168182
   8 H :    0.183591
   9 H :    0.179749
  10 H :    0.179304
  11 H :    0.171988
  12 H :    0.287454

  Mayer bond orders larger than 0.100000
B(  0-C ,  1-C ) :   1.3971 B(  0-C ,  5-C ) :   1.4207 B(  0-C ,  8-H ) :   0.9471
B(  1-C ,  2-C ) :   1.3966 B(  1-C ,  9-H ) :   0.9373 B(  2-C ,  3-C ) :   1.4233
B(  2-C ,  7-Br) :   0.9673 B(  3-C ,  4-C ) :   1.4059 B(  3-C , 10-H ) :   0.9302
B(  4-C ,  5-C ) :   1.3431 B(  4-C , 11-H ) :   0.9370 B(  5-C ,  6-O ) :   0.9246
B(  6-O , 12-H ) :   0.8813

Dispersion correction           -0.004574689
FINAL SINGLE POINT ENERGY     -2880.940123955471

DIPOLE MOMENT
-------------

Method             : SCF
Type of density    : Electron Density
Multiplicity       :   1
Irrep              :   0
Energy             : -2880.9395880938513983 Eh
Relativity type    :
Basis              : AO
                                X                 Y                 Z
Electronic contribution:     26.919129148      -0.281157076      -0.001164840
Nuclear contribution   :    -27.825868270       0.785703151       0.001041194
                        -----------------------------------------
Total Dipole Moment    :     -0.906739122       0.504546076      -0.000123646
                        -----------------------------------------
Magnitude (a.u.)       :      1.037662080
Magnitude (Debye)      :      2.637527400

Rotational constants in cm-1:             0.189571             0.021027             0.018927
Rotational constants in MHz :          5683.192921           630.365356           567.427724

                             ****ORCA TERMINATED NORMALLY****
TOTAL RUN TIME: 0 days 0 hours 0 minutes 21 seconds 264 msec
