                         Program Version 6.0.0  -   RELEASE  -
|  1> ! r2scan-3c def2/J RI DEFGRID2 scfconv6 printgap
|  2> %output
|  3>     printlevel normal
|  4> end
|  5> %cpcm
|  6>     smd true
|  7>     smdsolvent "water"
|  8> end
|  9> * xyz 0 1
| 10> C -1.9358799284 -1.2040306736 -3.83508e-05
| 11> C -0.5560484156 -1.2071711967 0.0003118893
| 12> C 0.121310375 8.8132e-06 0.0006119528
| 13> C -0.5553855581 1.2053159654 0.0003370034
| 14> C -1.9380933626 1.203693011 -2.9598e-05
| 15> C -2.6394030061 0.0006105646 -8.83338e-05
| 16> O -3.9889036284 -0.0558113994 -0.0002519997
| 17> Br 2.0446835673 0.0007436013 -0.0001152368
| 18> H -2.4897782972 -2.1284762543 -0.0001947314
| 19> H -0.012336204 -2.1383529555 0.0003938774
| 20> H -0.0111727926 2.1363869901 0.0001765011
| 21> H -2.4676073279 2.1440410462 -0.0002361962
| 22> H -4.3795666031 0.8321174444 -0.0001661777
| 23> *
| 24>
| 25>                          ****END OF INPUT****

CARTESIAN COORDINATES (ANGSTROEM)
---------------------------------
  C     -1.935880   -1.204031   -0.000038
  C     -0.556048   -1.207171    0.000312
  C      0.121310    0.000009    0.000612
  C     -0.555386    1.205316    0.000337
  C     -1.938093    1.203693   -0.000030
  C     -2.639403    0.000611   -0.000088
  O     -3.988904   -0.055811   -0.000252
  Br     2.044684    0.000744   -0.000115
  H     -2.489778   -2.128476   -0.000195
  H     -0.012336   -2.138353    0.000394
  H     -0.011173    2.136387    0.000177
  H     -2.467607    2.144041   -0.000236
  H     -4.379567    0.832117   -0.000166

 Total Charge           Charge          ....    0
 Multiplicity           Mult            ....    1
 Number of Electrons    NEL             ....   84
 Basis Dimension        Dim             ....  199

ORBITAL ENERGIES
----------------

  NO   OCC          E(Eh)            E(eV)
   0   2.0000    -482.226990    -13122.0635
   1   2.0000     -62.298537     -1695.2294
   2   2.0000     -56.078839     -1525.9828
   3   2.0000     -56.076386     -1525.9160
   4   2.0000     -56.076336     -1525.9147
   5   2.0000     -18.986886      -516.6594
   6   2.0000     -10.104791      -274.9654
   7   2.0000     -10.090048      -274.5642
   8   2.0000     -10.048833      -273.4426
   9   2.0000     -10.048557      -273.4351
  10   2.0000     -10.041749      -273.2499
  11   2.0000     -10.039735      -273.1951
  12   2.0000      -8.630498      -234.8478
  13   2.0000      -6.437876      -175.1835
  14   2.0000      -6.424428      -174.8176
  15   2.0000      -6.424179      -174.8108
  16   2.0000      -2.535491       -68.9942
  17   2.0000      -2.532107       -68.9021
  18   2.0000      -2.531975       -68.8985
  19   2.0000      -2.521957       -68.6259
  20   2.0000      -2.521954       -68.6259
  21   2.0000      -1.033601       -28.1257
  22   2.0000      -0.843489       -22.9525
  23   2.0000      -0.766227       -20.8501
  24   2.0000      -0.731799       -19.9133
  25   2.0000      -0.689077       -18.7507
  26   2.0000      -0.602272       -16.3886
  27   2.0000      -0.574441       -15.6313
  28   2.0000      -0.523491       -14.2449
  29   2.0000      -0.464252       -12.6329
  30   2.0000      -0.442450       -12.0397
  31   2.0000      -0.416110       -11.3229
  32   2.0000      -0.401780       -10.9330
  33   2.0000      -0.394265       -10.7285
  34   2.0000      -0.366561        -9.9746
  35   2.0000      -0.342010        -9.3066
  36   2.0000      -0.340953        -9.2778
  37   2.0000      -0.316704        -8.6180
  38   2.0000      -0.275154        -7.4873
  39   2.0000      -0.266034        -7.2392
  40   2.0000      -0.251223        -6.8361
  41   2.0000      -0.205976        -5.6049
  42   0.0000      -0.044360        -1.2071
  43   0.0000      -0.028026        -0.7626
  44   0.0000      -0.024406        -0.6641
  45   0.0000       0.080141         2.1808
  46   0.0000       0.106782         2.9057

MULLIKEN ATOMIC CHARGES
-----------------------
   0 C :   -0.310645
   1 C :   -0.183606
   2 C :    0.094004
   3 C :   -0.179943
   4 C :   -0.309730
   5 C :    0.362505
   6 O :   -0.446976
   7 Br:   -0.172164
   8 H :    0.192904
   9 H :    0.193118
  10 H :    0.192825
  11 H :    0.193764
  12 H :    0.373944
Sum of atomic charges:   -0.0000000

LOEWDIN ATOMIC CHARGES
----------------------
   0 C :   -0.142290
   1 C :   -0.172159
   2 C :   -0.256633
   3 C :   -0.172307
   4 C :   -0.152929
   5 C :    0.175371
   6 O :   -0.500749
   7 Br:    0.150825
   8 H :    0.192898
   9 H :    0.188269
  10 H :    0.188297
  11 H :    0.191703
  12 H :    0.309705

  Mayer bond orders larger than 0.100000
B(  0-C ,  1-C ) :   1.4128 B(  0-C ,  5-C ) :   1.3713 B(  0-C ,  8-H ) :   0.9498
B(  1-C ,  2-C ) :   1.3543 B(  1-C ,  9-H ) :   0.9374 B(  2-C ,  3-C ) :   1.3655
B(  2-C ,  7-Br) :   0.9596 B(  3-C ,  4-C ) :   1.3936 B(  3-C , 10-H ) :   0.9369
B(  4-C ,  5-C ) :   1.3458 B(  4-C , 11-H ) :   0.9459 B(  5-C ,  6-O ) :   0.9392
B(  6-O , 12-H ) :   0.8493

Dispersion correction           -0.004574689
FINAL SINGLE POINT ENERGY     -2880.950566492386

DIPOLE MOMENT
-------------

Method             : SCF
Type of density    : Electron Density
Multiplicity       :   1
Irrep              :   0
Energy             : -2880.9500306307668325 Eh
Relativity type    :
Basis              : AO
                                X                 Y                 Z
Electronic contribution:     26.606949597      -0.019475846      -0.001210951
Nuclear contribution   :    -27.825868270       0.785703151       0.001041194
                        -----------------------------------------
Total Dipole Moment    :     -1.218918673       0.766227305      -0.000169757
                        -----------------------------------------
Magnitude (a.u.)       :      1.439745479
Magnitude (Debye)      :      3.659542179

Rotational constants in cm-1:             0.189571             0.021027             0.018927
Rotational constants in MHz :          5683.192921           630.365356           567.427724

                             ****ORCA TERMINATED NORMALLY****
TOTAL RUN TIME: 0 days 0 hours 0 minutes 28 seconds 116 msec
