                         Program Version 6.0.0  -   RELEASE  -
|  1> ! pbe def2-sv(p) def2/J RI DEFGRID1 loosescf d4 GCP(DFT/SV(P)) printgap
|  2> %output
|  3>     printlevel normal
|  4> end
|  5> * xyz 0 1
|  6> C 5.3831679156 0.756616529 -0.4208142629
|  7> C 4.8501947756 -0.6267967495 -0.7280355294
|  8> O 3.6281184463 -0.9069561891 -0.0140552247
|  9> P 2.2787794736 -0.1430739728 -0.3230899041
| 10> S 1.9736661777 0.3193151862 -2.2067739774
| 11> O 2.3755104235 1.0809235187 0.6887858911
| 12> C 1.4833788238 2.2070099894 0.6710584338
| 13> C 2.1742612483 3.3584814946 1.3723413067
| 14> S 0.9599700635 -1.5087563728 0.5950350527
| 15> C -0.1462926138 -1.909332122 -0.8096029551
| 16> S -1.8713323105 -1.9859454302 -0.298554589
| 17> P -2.1361352841 0.0829223599 0.1453115621
| 18> S -1.4135556159 1.3559124093 -1.1522438195
| 19> O -1.4949115022 0.2943403417 1.5721363243
| 20> C -1.8466111533 -0.4926876379 2.7389276722
| 21> C -2.8851956883 0.2237758995 3.5765770006
| 22> O -3.6923742628 0.2001063983 0.4384696581
| 23> C -4.6645566452 0.4390307125 -0.595854726
| 24> C -4.7615198199 -0.7123917504 -1.5750549309
| 25> H 6.3521304449 0.8827573273 -0.8936833841
| 26> H 4.698930556 1.5097492785 -0.8099862347
| 27> H 5.481467646 0.8913657129 0.6531147178
| 28> H 5.5309987787 -1.4092565572 -0.3906234524
| 29> H 4.6550415133 -0.7364108097 -1.7995121865
| 30> H 1.2409176978 2.4532664095 -0.3687893303
| 31> H 0.5578508323 1.9244422535 1.1823851951
| 32> H 3.0786876455 3.6344146922 0.8374229942
| 33> H 1.5016109191 4.2093294515 1.4012349895
| 34> H 2.4365027983 3.0685440503 2.385598453
| 35> H 0.1048731401 -2.8973753556 -1.1863858067
| 36> H -0.0181034034 -1.1457139798 -1.5827174847
| 37> H -2.2068233206 -1.4711167505 2.4101299842
| 38> H -0.904983893 -0.6136114285 3.2782079599
| 39> H -2.5269822563 1.2115891642 3.8531321516
| 40> H -3.8113103153 0.3294241135 3.0182977355
| 41> H -3.0722313552 -0.3544660271 4.4759756726
| 42> H -5.5967465491 0.5797674284 -0.0469088091
| 43> H -4.3943825025 1.3640473429 -1.1142305422
| 44> H -3.8498109156 -0.7774070933 -2.1668401272
| 45> H -4.9026050186 -1.6506644049 -1.0445510328
| 46> H -5.6006668729 -0.5442131672 -2.2424706407
| 47> *
| 48>
| 49>                          ****END OF INPUT****

CARTESIAN COORDINATES (ANGSTROEM)
---------------------------------
  C      5.383168    0.756617   -0.420814
  C      4.850195   -0.626797   -0.728036
  O      3.628118   -0.906956   -0.014055
  P      2.278779   -0.143074   -0.323090
  S      1.973666    0.319315   -2.206774
  O      2.375510    1.080924    0.688786
  C      1.483379    2.207010    0.671058
  C      2.174261    3.358481    1.372341
  S      0.959970   -1.508756    0.595035
  C     -0.146293   -1.909332   -0.809603
  S     -1.871332   -1.985945   -0.298555
  P     -2.136135    0.082922    0.145312
  S     -1.413556    1.355912   -1.152244
  O     -1.494912    0.294340    1.572136
  C     -1.846611   -0.492688    2.738928
  C     -2.885196    0.223776    3.576577
  O     -3.692374    0.200106    0.438470
  C     -4.664557    0.439031   -0.595855
  C     -4.761520   -0.712392   -1.575055
  H      6.352130    0.882757   -0.893683
  H      4.698931    1.509749   -0.809986
  H      5.481468    0.891366    0.653115
  H      5.530999   -1.409257   -0.390623
  H      4.655042   -0.736411   -1.799512
  H      1.240918    2.453266   -0.368789
  H      0.557851    1.924442    1.182385
  H      3.078688    3.634415    0.837423
  H      1.501611    4.209329    1.401235
  H      2.436503    3.068544    2.385598
  H      0.104873   -2.897375   -1.186386
  H     -0.018103   -1.145714   -1.582717
  H     -2.206823   -1.471117    2.410130
  H     -0.904984   -0.613611    3.278208
  H     -2.526982    1.211589    3.853132
  H     -3.811310    0.329424    3.018298
  H     -3.072231   -0.354466    4.475976
  H     -5.596747    0.579767   -0.046909
  H     -4.394383    1.364047   -1.114231
  H     -3.849811   -0.777407   -2.166840
  H     -4.902605   -1.650664   -1.044551
  H     -5.600667   -0.544213   -2.242471

 Total Charge           Charge          ....    0
 Multiplicity           Mult            ....    1
 Number of Electrons    NEL             ....  202
 Basis Dimension        Dim             ....  334

ORBITAL ENERGIES
----------------

  NO   OCC          E(Eh)            E(eV)
   0   2.0000     -88.046655     -2395.8713
   1   2.0000     -88.036145     -2395.5853
   2   2.0000     -87.984487     -2394.1796
   3   2.0000     -87.983030     -2394.1400
   4   2.0000     -76.427995     -2079.7115
   5   2.0000     -76.419651     -2079.4844
   6   2.0000     -18.798872      -511.5433
   7   2.0000     -18.794167      -511.4153
   8   2.0000     -18.783625      -511.1284
   9   2.0000     -18.783283      -511.1191
  10   2.0000      -9.957171      -270.9484
  11   2.0000      -9.955230      -270.8956
  12   2.0000      -9.952595      -270.8239
  13   2.0000      -9.947449      -270.6839
  14   2.0000      -9.936027      -270.3730
  15   2.0000      -9.887546      -269.0538
  16   2.0000      -9.887259      -269.0460
  17   2.0000      -9.880050      -268.8498
  18   2.0000      -9.878347      -268.8035
  19   2.0000      -7.691536      -209.2973
  20   2.0000      -7.681485      -209.0238
  21   2.0000      -7.629513      -207.6096
  22   2.0000      -7.627927      -207.5664
  23   2.0000      -6.425386      -174.8436
  24   2.0000      -6.417526      -174.6297
  25   2.0000      -5.719376      -155.6321
  26   2.0000      -5.715867      -155.5367
  27   2.0000      -5.709412      -155.3610
  28   2.0000      -5.708762      -155.3433
  29   2.0000      -5.706144      -155.2721
  30   2.0000      -5.698178      -155.0553
  31   2.0000      -5.658506      -153.9758
  32   2.0000      -5.656700      -153.9266
  33   2.0000      -5.649925      -153.7423
  34   2.0000      -5.649771      -153.7381
  35   2.0000      -5.648785      -153.7112
  36   2.0000      -5.647996      -153.6898
  37   2.0000      -4.648290      -126.4864
  38   2.0000      -4.647147      -126.4553
  39   2.0000      -4.645549      -126.4118
  40   2.0000      -4.639752      -126.2541
  41   2.0000      -4.639179      -126.2385
  42   2.0000      -4.638368      -126.2164
  43   2.0000      -0.991520       -26.9806
  44   2.0000      -0.979278       -26.6475
  45   2.0000      -0.948873       -25.8201
  46   2.0000      -0.937300       -25.5052
  47   2.0000      -0.760904       -20.7052
  48   2.0000      -0.720642       -19.6097
  49   2.0000      -0.708595       -19.2818
  50   2.0000      -0.693158       -18.8618
  51   2.0000      -0.681252       -18.5378
  52   2.0000      -0.672412       -18.2973
  53   2.0000      -0.649939       -17.6857
  54   2.0000      -0.632428       -17.2092
  55   2.0000      -0.599870       -16.3233
  56   2.0000      -0.591049       -16.0833
  57   2.0000      -0.576958       -15.6998
  58   2.0000      -0.559853       -15.2344
  59   2.0000      -0.556920       -15.1546
  60   2.0000      -0.503908       -13.7120
  61   2.0000      -0.492376       -13.3982
  62   2.0000      -0.477597       -12.9961
  63   2.0000      -0.470047       -12.7906
  64   2.0000      -0.452005       -12.2997
  65   2.0000      -0.447080       -12.1657
  66   2.0000      -0.442127       -12.0309
  67   2.0000      -0.431085       -11.7304
  68   2.0000      -0.422747       -11.5035
  69   2.0000      -0.417855       -11.3704
  70   2.0000      -0.408817       -11.1245
  71   2.0000      -0.395920       -10.7735
  72   2.0000      -0.391412       -10.6509
  73   2.0000      -0.381536       -10.3821
  74   2.0000      -0.381248       -10.3743
  75   2.0000      -0.367777       -10.0077
  76   2.0000      -0.367510       -10.0004
  77   2.0000      -0.358865        -9.7652
  78   2.0000      -0.355365        -9.6700
  79   2.0000      -0.349420        -9.5082
  80   2.0000      -0.349181        -9.5017
  81   2.0000      -0.342598        -9.3226
  82   2.0000      -0.339583        -9.2405
  83   2.0000      -0.336950        -9.1689
  84   2.0000      -0.330789        -9.0012
  85   2.0000      -0.317889        -8.6502
  86   2.0000      -0.306356        -8.3364
  87   2.0000      -0.298518        -8.1231
  88   2.0000      -0.294498        -8.0137
  89   2.0000      -0.289440        -7.8761
  90   2.0000      -0.279705        -7.6112
  91   2.0000      -0.274403        -7.4669
  92   2.0000      -0.268120        -7.2959
  93   2.0000      -0.265217        -7.2169
  94   2.0000      -0.254212        -6.9175
  95   2.0000      -0.234169        -6.3721
  96   2.0000      -0.218537        -5.9467
  97   2.0000      -0.212437        -5.7807
  98   2.0000      -0.203597        -5.5402
  99   2.0000      -0.195916        -5.3311
 100   2.0000      -0.189058        -5.1445
 101   0.0000      -0.040045        -1.0897
 102   0.0000      -0.030796        -0.8380
 103   0.0000      -0.011159        -0.3036
 104   0.0000       0.012827         0.3490
 105   0.0000       0.020965         0.5705

MULLIKEN ATOMIC CHARGES
-----------------------
   0 C :   -0.310583
   1 C :   -0.000909
   2 O :   -0.370675
   3 P :    0.625772
   4 S :   -0.319818
   5 O :   -0.377484
   6 C :   -0.035642
   7 C :   -0.277719
   8 S :   -0.106184
   9 C :   -0.355849
  10 S :   -0.103745
  11 P :    0.594580
  12 S :   -0.298401
  13 O :   -0.348212
  14 C :   -0.011621
  15 C :   -0.286881
  16 O :   -0.379829
  17 C :    0.000506
  18 C :   -0.323234
  19 H :    0.109908
  20 H :    0.125937
  21 H :    0.117286
  22 H :    0.103932
  23 H :    0.109383
  24 H :    0.119484
  25 H :    0.118565
  26 H :    0.112900
  27 H :    0.111383
  28 H :    0.109423
  29 H :    0.184022
  30 H :    0.214135
  31 H :    0.101935
  32 H :    0.111095
  33 H :    0.117401
  34 H :    0.120914
  35 H :    0.110058
  36 H :    0.105476
  37 H :    0.114017
  38 H :    0.133909
  39 H :    0.118269
  40 H :    0.116495
Sum of atomic charges:    0.0000000

LOEWDIN ATOMIC CHARGES
----------------------
   0 C :   -0.365656
   1 C :   -0.115519
   2 O :   -0.246172
   3 P :    0.568711
   4 S :   -0.302921
   5 O :   -0.245344
   6 C :   -0.127024
   7 C :   -0.351267
   8 S :    0.071529
   9 C :   -0.478406
  10 S :    0.080704
  11 P :    0.566159
  12 S :   -0.290618
  13 O :   -0.232331
  14 C :   -0.118604
  15 C :   -0.359132
  16 O :   -0.246925
  17 C :   -0.116158
  18 C :   -0.371813
  19 H :    0.129310
  20 H :    0.122630
  21 H :    0.126430
  22 H :    0.118391
  23 H :    0.110266
  24 H :    0.107276
  25 H :    0.110290
  26 H :    0.123843
  27 H :    0.130549
  28 H :    0.123504
  29 H :    0.135967
  30 H :    0.124501
  31 H :    0.102839
  32 H :    0.119321
  33 H :    0.127516
  34 H :    0.125773
  35 H :    0.129773
  36 H :    0.118685
  37 H :    0.114094
  38 H :    0.123734
  39 H :    0.123192
  40 H :    0.132903

  Mayer bond orders larger than 0.100000
B(  0-C ,  1-C ) :   1.1631 B(  0-C , 19-H ) :   0.9380 B(  0-C , 20-H ) :   0.9355
B(  0-C , 21-H ) :   0.9459 B(  1-C ,  2-O ) :   0.9123 B(  1-C , 22-H ) :   0.9354
B(  1-C , 23-H ) :   0.9175 B(  2-O ,  3-P ) :   1.1310 B(  3-P ,  4-S ) :   1.6149
B(  3-P ,  5-O ) :   1.1136 B(  3-P ,  8-S ) :   0.9554 B(  4-S ,  8-S ) :   0.1187
B(  5-O ,  6-C ) :   0.8975 B(  6-C ,  7-C ) :   1.1529 B(  6-C , 24-H ) :   0.9109
B(  6-C , 25-H ) :   0.9197 B(  7-C , 26-H ) :   0.9509 B(  7-C , 27-H ) :   0.9431
B(  7-C , 28-H ) :   0.9500 B(  8-S ,  9-C ) :   0.9945 B(  9-C , 10-S ) :   1.0051
B(  9-C , 29-H ) :   0.9105 B(  9-C , 30-H ) :   0.8451 B( 10-S , 11-P ) :   0.9416
B( 10-S , 12-S ) :   0.1065 B( 11-P , 12-S ) :   1.6571 B( 11-P , 13-O ) :   1.1246
B( 11-P , 16-O ) :   1.0840 B( 13-O , 14-C ) :   0.8868 B( 14-C , 15-C ) :   1.1643
B( 14-C , 31-H ) :   0.9097 B( 14-C , 32-H ) :   0.9330 B( 15-C , 33-H ) :   0.9478
B( 15-C , 34-H ) :   0.9419 B( 15-C , 35-H ) :   0.9401 B( 16-O , 17-C ) :   0.9034
B( 17-C , 18-C ) :   1.1665 B( 17-C , 36-H ) :   0.9340 B( 17-C , 37-H ) :   0.9181
B( 18-C , 38-H ) :   0.9342 B( 18-C , 39-H ) :   0.9431 B( 18-C , 40-H ) :   0.9368

Dispersion correction           -0.065293271
FINAL SINGLE POINT ENERGY     -2929.521767706241

DIPOLE MOMENT
-------------

Method             : SCF
Type of density    : Electron Density
Multiplicity       :   1
Irrep              :   0
Energy             : -2929.6413826673888252 Eh
Relativity type    :
Basis              : AO
                                X                 Y                 Z
Electronic contribution:      0.666923841     -10.202596674      -8.541346871
Nuclear contribution   :     -1.273814553       9.928147628       9.527135412
                        -----------------------------------------
Total Dipole Moment    :     -0.606890712      -0.274449046       0.985788540
                        -----------------------------------------
Magnitude (a.u.)       :      1.189713269
Magnitude (Debye)      :      3.024010807

Rotational constants in cm-1:             0.013171             0.004826             0.004607
Rotational constants in MHz :           394.864515           144.668350           138.113263

                             ****ORCA TERMINATED NORMALLY****
TOTAL RUN TIME: 0 days 0 hours 0 minutes 21 seconds 171 msec
