                         Program Version 6.0.1  -  RELEASE   -
|  1> ! pbe def2-sv(p) def2/J RI DEFGRID1 loosescf d4 GCP(DFT/SV(P)) printgap
|  2> %output
|  3>     printlevel normal
|  4> end
|  5> * xyz 0 1
|  6> C 5.9109813739 -1.9590130841 -0.7873885759
|  7> C 4.8518896423 -0.996727474 -1.2876393374
|  8> O 3.5596374597 -1.5455103871 -0.961499667
|  9> C 2.4949042294 -0.9104779823 -1.4003632213
| 10> O 2.5283008612 0.1025837235 -2.0640769195
| 11> C 1.2153048196 -1.6160993589 -0.9872134568
| 12> C 0.2046872526 -0.5788035005 -0.5193979244
| 13> H 0.1224304779 0.2185101205 -1.2714705564
| 14> C 0.5900208519 0.0948700708 0.7818400971
| 15> O -0.2396243174 0.4362061368 1.6009357308
| 16> O 1.8801085602 0.2634666722 0.8997818027
| 17> C 2.3708057915 1.008217018 2.0373387612
| 18> C 2.3504964872 2.4988955865 1.745282569
| 19> S -1.451687755 -1.3024484636 -0.2954600331
| 20> P -2.501734278 0.4752070935 0.222550768
| 21> S -1.7677712095 2.1755524686 -0.4144022467
| 22> O -3.9345909343 0.1498023923 -0.4345411299
| 23> C -4.1180609032 0.1258154459 -1.8519555205
| 24> O -2.9266852961 0.4515056719 1.7421871175
| 25> C -3.5862281168 -0.6827348484 2.3387713492
| 26> H 6.8940294091 -1.5590808741 -1.0123016232
| 27> H 5.8151567559 -2.0936681892 0.2856383865
| 28> H 5.797071451 -2.9236020996 -1.2726793457
| 29> H 4.9047134244 -0.8569902168 -2.3717744436
| 30> H 4.9344947104 -0.0145620281 -0.8121341466
| 31> H 1.4354112289 -2.3441322832 -0.2082397806
| 32> H 0.8107956907 -2.1348446251 -1.8583636493
| 33> H 1.7462161871 0.7712492982 2.9027313593
| 34> H 3.386295894 0.6401093621 2.1825139499
| 35> H 2.9263908571 2.7144257608 0.8489813743
| 36> H 1.3274400258 2.8369770448 1.5882279466
| 37> H 2.7750668239 3.0373232246 2.5858989631
| 38> H -3.6794488151 1.0183292021 -2.3017713574
| 39> H -5.1935149866 0.11168401 -2.008655734
| 40> H -3.6559955724 -0.7683103915 -2.270505728
| 41> H -3.633016324 -0.4539200355 3.4002346196
| 42> H -3.0032793902 -1.5874902878 2.1650906088
| 43> H -4.5839551293 -0.792722559 1.9176856433
| 44> *
| 45>
| 46>                          ****END OF INPUT****

CARTESIAN COORDINATES (ANGSTROEM)
---------------------------------
  C      5.910981   -1.959013   -0.787389
  C      4.851890   -0.996727   -1.287639
  O      3.559637   -1.545510   -0.961500
  C      2.494904   -0.910478   -1.400363
  O      2.528301    0.102584   -2.064077
  C      1.215305   -1.616099   -0.987213
  C      0.204687   -0.578804   -0.519398
  H      0.122430    0.218510   -1.271471
  C      0.590021    0.094870    0.781840
  O     -0.239624    0.436206    1.600936
  O      1.880109    0.263467    0.899782
  C      2.370806    1.008217    2.037339
  C      2.350496    2.498896    1.745283
  S     -1.451688   -1.302448   -0.295460
  P     -2.501734    0.475207    0.222551
  S     -1.767771    2.175552   -0.414402
  O     -3.934591    0.149802   -0.434541
  C     -4.118061    0.125815   -1.851956
  O     -2.926685    0.451506    1.742187
  C     -3.586228   -0.682735    2.338771
  H      6.894029   -1.559081   -1.012302
  H      5.815157   -2.093668    0.285638
  H      5.797071   -2.923602   -1.272679
  H      4.904713   -0.856990   -2.371774
  H      4.934495   -0.014562   -0.812134
  H      1.435411   -2.344132   -0.208240
  H      0.810796   -2.134845   -1.858364
  H      1.746216    0.771249    2.902731
  H      3.386296    0.640109    2.182514
  H      2.926391    2.714426    0.848981
  H      1.327440    2.836977    1.588228
  H      2.775067    3.037323    2.585899
  H     -3.679449    1.018329   -2.301771
  H     -5.193515    0.111684   -2.008656
  H     -3.655996   -0.768310   -2.270506
  H     -3.633016   -0.453920    3.400235
  H     -3.003279   -1.587490    2.165091
  H     -4.583955   -0.792723    1.917686

 Total Charge           Charge          ....    0
 Multiplicity           Mult            ....    1
 Number of Electrons    NEL             ....  174
 Basis Dimension        Dim             ....  316

ORBITAL ENERGIES
----------------

  NO   OCC          E(Eh)            E(eV)
   0   2.0000     -88.036449     -2395.5936
   1   2.0000     -87.971544     -2393.8274
   2   2.0000     -76.417287     -2079.4201
   3   2.0000     -18.819584      -512.1069
   4   2.0000     -18.806621      -511.7542
   5   2.0000     -18.780817      -511.0520
   6   2.0000     -18.778998      -511.0025
   7   2.0000     -18.746271      -510.1120
   8   2.0000     -18.740921      -509.9664
   9   2.0000     -10.020254      -272.6650
  10   2.0000     -10.014130      -272.4983
  11   2.0000      -9.956050      -270.9179
  12   2.0000      -9.953864      -270.8584
  13   2.0000      -9.945149      -270.6213
  14   2.0000      -9.942016      -270.5360
  15   2.0000      -9.934364      -270.3278
  16   2.0000      -9.917220      -269.8613
  17   2.0000      -9.895013      -269.2570
  18   2.0000      -9.886718      -269.0313
  19   2.0000      -7.681268      -209.0179
  20   2.0000      -7.616744      -207.2621
  21   2.0000      -6.413505      -174.5203
  22   2.0000      -5.708984      -155.3493
  23   2.0000      -5.705909      -155.2657
  24   2.0000      -5.698336      -155.0596
  25   2.0000      -5.645999      -153.6355
  26   2.0000      -5.637392      -153.4012
  27   2.0000      -5.636499      -153.3769
  28   2.0000      -4.636275      -126.1595
  29   2.0000      -4.635562      -126.1401
  30   2.0000      -4.633789      -126.0918
  31   2.0000      -1.027383       -27.9565
  32   2.0000      -1.014660       -27.6103
  33   2.0000      -0.975560       -26.5463
  34   2.0000      -0.930841       -25.3295
  35   2.0000      -0.927030       -25.2258
  36   2.0000      -0.918057       -24.9816
  37   2.0000      -0.766127       -20.8474
  38   2.0000      -0.717818       -19.5328
  39   2.0000      -0.710392       -19.3307
  40   2.0000      -0.689445       -18.7608
  41   2.0000      -0.659349       -17.9418
  42   2.0000      -0.626916       -17.0592
  43   2.0000      -0.622218       -16.9314
  44   2.0000      -0.611172       -16.6308
  45   2.0000      -0.593281       -16.1440
  46   2.0000      -0.564058       -15.3488
  47   2.0000      -0.517663       -14.0863
  48   2.0000      -0.509546       -13.8655
  49   2.0000      -0.502750       -13.6805
  50   2.0000      -0.475258       -12.9324
  51   2.0000      -0.470376       -12.7996
  52   2.0000      -0.464130       -12.6296
  53   2.0000      -0.453945       -12.3525
  54   2.0000      -0.436107       -11.8671
  55   2.0000      -0.430015       -11.7013
  56   2.0000      -0.422535       -11.4978
  57   2.0000      -0.420617       -11.4456
  58   2.0000      -0.413829       -11.2609
  59   2.0000      -0.409791       -11.1510
  60   2.0000      -0.405613       -11.0373
  61   2.0000      -0.397356       -10.8126
  62   2.0000      -0.390841       -10.6353
  63   2.0000      -0.385930       -10.5017
  64   2.0000      -0.372285       -10.1304
  65   2.0000      -0.366675        -9.9777
  66   2.0000      -0.360367        -9.8061
  67   2.0000      -0.354400        -9.6437
  68   2.0000      -0.353265        -9.6128
  69   2.0000      -0.344095        -9.3633
  70   2.0000      -0.333979        -9.0880
  71   2.0000      -0.332337        -9.0434
  72   2.0000      -0.321020        -8.7354
  73   2.0000      -0.315025        -8.5723
  74   2.0000      -0.304948        -8.2980
  75   2.0000      -0.301701        -8.2097
  76   2.0000      -0.291446        -7.9306
  77   2.0000      -0.287589        -7.8257
  78   2.0000      -0.274060        -7.4576
  79   2.0000      -0.263951        -7.1825
  80   2.0000      -0.261412        -7.1134
  81   2.0000      -0.250667        -6.8210
  82   2.0000      -0.235257        -6.4017
  83   2.0000      -0.226614        -6.1665
  84   2.0000      -0.219038        -5.9603
  85   2.0000      -0.192780        -5.2458
  86   2.0000      -0.185279        -5.0417
  87   0.0000      -0.043139        -1.1739
  88   0.0000      -0.029087        -0.7915
  89   0.0000      -0.019591        -0.5331
  90   0.0000       0.013450         0.3660
  91   0.0000       0.022019         0.5992

MULLIKEN ATOMIC CHARGES
-----------------------
   0 C :   -0.272552
   1 C :   -0.032116
   2 O :   -0.230688
   3 C :    0.113654
   4 O :   -0.205658
   5 C :   -0.055434
   6 C :   -0.340323
   7 H :    0.175786
   8 C :    0.228247
   9 O :   -0.181786
  10 O :   -0.222871
  11 C :   -0.010751
  12 C :   -0.309597
  13 S :   -0.107198
  14 P :    0.625519
  15 S :   -0.324258
  16 O :   -0.396901
  17 C :   -0.098410
  18 O :   -0.353210
  19 C :   -0.101716
  20 H :    0.113334
  21 H :    0.114507
  22 H :    0.116893
  23 H :    0.109963
  24 H :    0.105695
  25 H :    0.106372
  26 H :    0.126049
  27 H :    0.114271
  28 H :    0.103041
  29 H :    0.122177
  30 H :    0.142634
  31 H :    0.113819
  32 H :    0.115978
  33 H :    0.120113
  34 H :    0.108572
  35 H :    0.129789
  36 H :    0.114632
  37 H :    0.122426
Sum of atomic charges:   -0.0000000

LOEWDIN ATOMIC CHARGES
----------------------
   0 C :   -0.350499
   1 C :   -0.105951
   2 O :   -0.059018
   3 C :    0.026318
   4 O :   -0.165985
   5 C :   -0.247269
   6 C :   -0.274473
   7 H :    0.151327
   8 C :    0.022864
   9 O :   -0.153940
  10 O :   -0.034813
  11 C :   -0.105938
  12 C :   -0.355858
  13 S :    0.087693
  14 P :    0.587939
  15 S :   -0.320817
  16 O :   -0.268023
  17 C :   -0.219988
  18 O :   -0.231349
  19 C :   -0.207932
  20 H :    0.131561
  21 H :    0.126386
  22 H :    0.127707
  23 H :    0.118675
  24 H :    0.116122
  25 H :    0.134581
  26 H :    0.149036
  27 H :    0.123456
  28 H :    0.117205
  29 H :    0.128906
  30 H :    0.137621
  31 H :    0.131454
  32 H :    0.109759
  33 H :    0.119745
  34 H :    0.104752
  35 H :    0.125552
  36 H :    0.108261
  37 H :    0.114931

  Mayer bond orders larger than 0.100000
B(  0-C ,  1-C ) :   1.1517 B(  0-C , 20-H ) :   0.9439 B(  0-C , 21-H ) :   0.9495
B(  0-C , 22-H ) :   0.9502 B(  1-C ,  2-O ) :   0.9063 B(  1-C , 23-H ) :   0.9296
B(  1-C , 24-H ) :   0.9318 B(  2-O ,  3-C ) :   1.2387 B(  3-C ,  4-O ) :   2.0449
B(  3-C ,  5-C ) :   1.0112 B(  5-C ,  6-C ) :   1.0508 B(  5-C , 25-H ) :   0.9067
B(  5-C , 26-H ) :   0.8783 B(  6-C ,  7-H ) :   0.8291 B(  6-C ,  8-C ) :   0.8969
B(  6-C , 13-S ) :   1.0330 B(  8-C ,  9-O ) :   2.0037 B(  8-C , 10-O ) :   1.2633
B( 10-O , 11-C ) :   0.8968 B( 11-C , 12-C ) :   1.1796 B( 11-C , 27-H ) :   0.9131
B( 11-C , 28-H ) :   0.9359 B( 12-C , 29-H ) :   0.9474 B( 12-C , 30-H ) :   0.9382
B( 12-C , 31-H ) :   0.9422 B( 13-S , 14-P ) :   0.9334 B( 13-S , 15-S ) :   0.1125
B( 14-P , 15-S ) :   1.6224 B( 14-P , 16-O ) :   1.0473 B( 14-P , 18-O ) :   1.1320
B( 16-O , 17-C ) :   0.9400 B( 17-C , 32-H ) :   0.9333 B( 17-C , 33-H ) :   0.9589
B( 17-C , 34-H ) :   0.9461 B( 18-O , 19-C ) :   0.9231 B( 19-C , 35-H ) :   0.9599
B( 19-C , 36-H ) :   0.9390 B( 19-C , 37-H ) :   0.9475

Dispersion correction           -0.050216308
FINAL SINGLE POINT ENERGY     -1979.015923951623

DIPOLE MOMENT
-------------

Method             : SCF
Type of density    : Electron Density
Multiplicity       :   1
Irrep              :   0
Energy             : -1979.1475176715607631 Eh
Relativity type    :
Basis              : AO
                                X                 Y                 Z
Electronic contribution:    -19.164076447       2.895899121      -1.695373756
Nuclear contribution   :     20.285106235      -4.374205669       2.168500673
                        -----------------------------------------
Total Dipole Moment    :      1.121029788      -1.478306547       0.473126917
                        -----------------------------------------
Magnitude (a.u.)       :      1.914666319
Magnitude (Debye)      :      4.866695020

Rotational constants in cm-1:             0.017507             0.005399             0.004941
Rotational constants in MHz :           524.846075           161.851496           148.119521

                             ****ORCA TERMINATED NORMALLY****
TOTAL RUN TIME: 0 days 0 hours 0 minutes 32 seconds 865 msec
