                         Program Version 6.0.0  -   RELEASE  -
|  1> ! pbe def2-sv(p) def2/J RI DEFGRID1 loosescf d4 GCP(DFT/SV(P)) printgap
|  2> %output
|  3>     printlevel normal
|  4> end
|  5> * xyz 0 1
|  6> C 4.0390654866 -0.2611542215 -2.5982856911
|  7> C 4.2782594548 0.6473433618 -1.4096306833
|  8> O 3.7279828255 0.1034752993 -0.198868886
|  9> P 2.1644725205 -0.0397763735 0.0426437826
| 10> S 1.1249063013 1.4887592755 -0.633365197
| 11> O 2.0778641645 -0.3211355408 1.59656471
| 12> C 1.9853178882 0.7242275535 2.5842941146
| 13> C 3.2252090644 1.5911785136 2.6117839
| 14> S 1.7683564777 -1.9850464745 -0.6576995194
| 15> C 0.0278832576 -2.170353418 -0.1904226039
| 16> S -1.1451299775 -1.4271990801 -1.3809604673
| 17> P -2.0924699432 0.0170044193 -0.1627148881
| 18> S -1.4268901907 0.178414666 1.6799995547
| 19> O -3.6364357109 -0.3555370415 -0.3047934051
| 20> C -4.2073066429 -1.5955267071 0.1480073369
| 21> C -4.6301845363 -1.5226438284 1.6030507751
| 22> O -2.0549678509 1.3058502088 -1.0691333354
| 23> C -2.1401407869 2.640425687 -0.533925868
| 24> C -3.5037176252 2.9145319126 0.0628233316
| 25> H 4.3894873899 -1.2670259768 -2.3811146729
| 26> H 2.9739179217 -0.3043925288 -2.8247337727
| 27> H 4.5666691029 0.1285406751 -3.4629221498
| 28> H 3.8311126252 1.6320105475 -1.5821403921
| 29> H 5.3412341536 0.754231336 -1.1898646575
| 30> H 1.0921880111 1.3215131497 2.3747655112
| 31> H 1.8429986038 0.1814986799 3.5196975772
| 32> H 3.1555043565 2.2898732675 3.439538032
| 33> H 4.1113187839 0.9730402657 2.7296205662
| 34> H 3.3061370201 2.1513993658 1.6808828956
| 35> H -0.1379928384 -1.724587937 0.7944563872
| 36> H -0.1559679112 -3.2410695655 -0.1800004544
| 37> H -5.0684806001 -1.745981507 -0.505944886
| 38> H -3.4847973983 -2.4018415873 -0.0140004167
| 39> H -5.1022729517 -2.4584906415 1.8839160792
| 40> H -3.767527003 -1.3538745956 2.2435849827
| 41> H -5.3347964863 -0.7082338689 1.7469920298
| 42> H -1.3480907684 2.7684051347 0.2111737845
| 43> H -1.9285274141 3.277576465 -1.3934681038
| 44> H -4.2790767919 2.7242725253 -0.6744954202
| 45> H -3.6665235477 2.262804045 0.9209161625
| 46> H -3.5537975183 3.9489121536 0.3878300877
| 47> *
| 48>
| 49>                          ****END OF INPUT****

CARTESIAN COORDINATES (ANGSTROEM)
---------------------------------
  C      4.039065   -0.261154   -2.598286
  C      4.278259    0.647343   -1.409631
  O      3.727983    0.103475   -0.198869
  P      2.164473   -0.039776    0.042644
  S      1.124906    1.488759   -0.633365
  O      2.077864   -0.321136    1.596565
  C      1.985318    0.724228    2.584294
  C      3.225209    1.591179    2.611784
  S      1.768356   -1.985046   -0.657700
  C      0.027883   -2.170353   -0.190423
  S     -1.145130   -1.427199   -1.380960
  P     -2.092470    0.017004   -0.162715
  S     -1.426890    0.178415    1.680000
  O     -3.636436   -0.355537   -0.304793
  C     -4.207307   -1.595527    0.148007
  C     -4.630185   -1.522644    1.603051
  O     -2.054968    1.305850   -1.069133
  C     -2.140141    2.640426   -0.533926
  C     -3.503718    2.914532    0.062823
  H      4.389487   -1.267026   -2.381115
  H      2.973918   -0.304393   -2.824734
  H      4.566669    0.128541   -3.462922
  H      3.831113    1.632011   -1.582140
  H      5.341234    0.754231   -1.189865
  H      1.092188    1.321513    2.374766
  H      1.842999    0.181499    3.519698
  H      3.155504    2.289873    3.439538
  H      4.111319    0.973040    2.729621
  H      3.306137    2.151399    1.680883
  H     -0.137993   -1.724588    0.794456
  H     -0.155968   -3.241070   -0.180000
  H     -5.068481   -1.745982   -0.505945
  H     -3.484797   -2.401842   -0.014000
  H     -5.102273   -2.458491    1.883916
  H     -3.767527   -1.353875    2.243585
  H     -5.334796   -0.708234    1.746992
  H     -1.348091    2.768405    0.211174
  H     -1.928527    3.277576   -1.393468
  H     -4.279077    2.724273   -0.674495
  H     -3.666524    2.262804    0.920916
  H     -3.553798    3.948912    0.387830

 Total Charge           Charge          ....    0
 Multiplicity           Mult            ....    1
 Number of Electrons    NEL             ....  202
 Basis Dimension        Dim             ....  334

ORBITAL ENERGIES
----------------

  NO   OCC          E(Eh)            E(eV)
   0   2.0000     -88.040540     -2395.7049
   1   2.0000     -88.040145     -2395.6941
   2   2.0000     -87.988762     -2394.2959
   3   2.0000     -87.981189     -2394.0899
   4   2.0000     -76.425153     -2079.6341
   5   2.0000     -76.422374     -2079.5585
   6   2.0000     -18.789924      -511.2998
   7   2.0000     -18.786257      -511.2000
   8   2.0000     -18.785349      -511.1753
   9   2.0000     -18.785340      -511.1751
  10   2.0000      -9.955480      -270.9024
  11   2.0000      -9.951746      -270.8008
  12   2.0000      -9.950106      -270.7562
  13   2.0000      -9.945961      -270.6434
  14   2.0000      -9.943299      -270.5709
  15   2.0000      -9.882418      -268.9143
  16   2.0000      -9.879318      -268.8299
  17   2.0000      -9.878833      -268.8167
  18   2.0000      -9.878647      -268.8116
  19   2.0000      -7.685837      -209.1423
  20   2.0000      -7.685784      -209.1408
  21   2.0000      -7.633395      -207.7152
  22   2.0000      -7.625798      -207.5085
  23   2.0000      -6.422476      -174.7644
  24   2.0000      -6.419934      -174.6953
  25   2.0000      -5.713693      -155.4775
  26   2.0000      -5.713669      -155.4768
  27   2.0000      -5.710366      -155.3870
  28   2.0000      -5.710274      -155.3845
  29   2.0000      -5.702753      -155.1798
  30   2.0000      -5.702668      -155.1775
  31   2.0000      -5.662087      -154.0732
  32   2.0000      -5.654579      -153.8689
  33   2.0000      -5.654572      -153.8687
  34   2.0000      -5.653179      -153.8308
  35   2.0000      -5.646484      -153.6486
  36   2.0000      -5.646096      -153.6381
  37   2.0000      -4.644715      -126.3891
  38   2.0000      -4.644207      -126.3753
  39   2.0000      -4.643318      -126.3511
  40   2.0000      -4.642447      -126.3274
  41   2.0000      -4.641741      -126.3082
  42   2.0000      -4.640407      -126.2719
  43   2.0000      -0.983292       -26.7567
  44   2.0000      -0.982953       -26.7475
  45   2.0000      -0.942677       -25.6516
  46   2.0000      -0.939987       -25.5784
  47   2.0000      -0.759473       -20.6663
  48   2.0000      -0.718747       -19.5581
  49   2.0000      -0.704762       -19.1776
  50   2.0000      -0.684463       -18.6252
  51   2.0000      -0.682503       -18.5719
  52   2.0000      -0.671340       -18.2681
  53   2.0000      -0.651711       -17.7340
  54   2.0000      -0.635112       -17.2823
  55   2.0000      -0.600631       -16.3440
  56   2.0000      -0.591078       -16.0840
  57   2.0000      -0.569719       -15.5028
  58   2.0000      -0.567247       -15.4356
  59   2.0000      -0.558851       -15.2071
  60   2.0000      -0.496758       -13.5175
  61   2.0000      -0.488039       -13.2802
  62   2.0000      -0.469954       -12.7881
  63   2.0000      -0.469618       -12.7790
  64   2.0000      -0.449774       -12.2390
  65   2.0000      -0.442583       -12.0433
  66   2.0000      -0.436454       -11.8765
  67   2.0000      -0.434425       -11.8213
  68   2.0000      -0.425111       -11.5679
  69   2.0000      -0.413011       -11.2386
  70   2.0000      -0.403476       -10.9791
  71   2.0000      -0.401217       -10.9177
  72   2.0000      -0.389623       -10.6022
  73   2.0000      -0.388234       -10.5644
  74   2.0000      -0.379458       -10.3256
  75   2.0000      -0.373960       -10.1760
  76   2.0000      -0.368466       -10.0265
  77   2.0000      -0.352480        -9.5915
  78   2.0000      -0.352067        -9.5802
  79   2.0000      -0.345377        -9.3982
  80   2.0000      -0.344316        -9.3693
  81   2.0000      -0.340267        -9.2591
  82   2.0000      -0.335925        -9.1410
  83   2.0000      -0.332333        -9.0433
  84   2.0000      -0.330466        -8.9924
  85   2.0000      -0.311874        -8.4865
  86   2.0000      -0.309325        -8.4172
  87   2.0000      -0.293296        -7.9810
  88   2.0000      -0.292393        -7.9564
  89   2.0000      -0.284061        -7.7297
  90   2.0000      -0.277988        -7.5644
  91   2.0000      -0.271694        -7.3932
  92   2.0000      -0.268641        -7.3101
  93   2.0000      -0.261368        -7.1122
  94   2.0000      -0.257364        -7.0032
  95   2.0000      -0.236092        -6.4244
  96   2.0000      -0.222714        -6.0604
  97   2.0000      -0.210940        -5.7400
  98   2.0000      -0.205567        -5.5938
  99   2.0000      -0.194727        -5.2988
 100   2.0000      -0.185555        -5.0492
 101   0.0000      -0.037427        -1.0184
 102   0.0000      -0.029604        -0.8056
 103   0.0000      -0.011694        -0.3182
 104   0.0000       0.004226         0.1150
 105   0.0000       0.020509         0.5581

MULLIKEN ATOMIC CHARGES
-----------------------
   0 C :   -0.324253
   1 C :   -0.002750
   2 O :   -0.372484
   3 P :    0.615696
   4 S :   -0.330735
   5 O :   -0.367361
   6 C :   -0.008836
   7 C :   -0.306204
   8 S :   -0.081508
   9 C :   -0.359687
  10 S :   -0.074780
  11 P :    0.626954
  12 S :   -0.330001
  13 O :   -0.369111
  14 C :   -0.005359
  15 C :   -0.295888
  16 O :   -0.360007
  17 C :   -0.007558
  18 C :   -0.302646
  19 H :    0.119641
  20 H :    0.133691
  21 H :    0.114095
  22 H :    0.110330
  23 H :    0.104459
  24 H :    0.126145
  25 H :    0.102528
  26 H :    0.110077
  27 H :    0.115187
  28 H :    0.120313
  29 H :    0.200801
  30 H :    0.181494
  31 H :    0.106159
  32 H :    0.090001
  33 H :    0.104910
  34 H :    0.126236
  35 H :    0.113541
  36 H :    0.121256
  37 H :    0.106469
  38 H :    0.115708
  39 H :    0.123867
  40 H :    0.109609
Sum of atomic charges:   -0.0000000

LOEWDIN ATOMIC CHARGES
----------------------
   0 C :   -0.371344
   1 C :   -0.120638
   2 O :   -0.242447
   3 P :    0.570139
   4 S :   -0.316192
   5 O :   -0.238011
   6 C :   -0.119191
   7 C :   -0.366296
   8 S :    0.092459
   9 C :   -0.481399
  10 S :    0.088420
  11 P :    0.576266
  12 S :   -0.299047
  13 O :   -0.246788
  14 C :   -0.118031
  15 C :   -0.366501
  16 O :   -0.229976
  17 C :   -0.116460
  18 C :   -0.365541
  19 H :    0.124354
  20 H :    0.124064
  21 H :    0.131791
  22 H :    0.109647
  23 H :    0.118363
  24 H :    0.108458
  25 H :    0.118604
  26 H :    0.129617
  27 H :    0.125364
  28 H :    0.121282
  29 H :    0.122990
  30 H :    0.136567
  31 H :    0.118732
  32 H :    0.099681
  33 H :    0.127273
  34 H :    0.121328
  35 H :    0.125536
  36 H :    0.109120
  37 H :    0.120413
  38 H :    0.126015
  39 H :    0.121788
  40 H :    0.129590

  Mayer bond orders larger than 0.100000
B(  0-C ,  1-C ) :   1.1660 B(  0-C , 19-H ) :   0.9439 B(  0-C , 20-H ) :   0.9338
B(  0-C , 21-H ) :   0.9380 B(  1-C ,  2-O ) :   0.9083 B(  1-C , 22-H ) :   0.9133
B(  1-C , 23-H ) :   0.9331 B(  2-O ,  3-P ) :   1.1008 B(  3-P ,  4-S ) :   1.6096
B(  3-P ,  5-O ) :   1.1291 B(  3-P ,  8-S ) :   0.9659 B(  4-S ,  8-S ) :   0.1137
B(  5-O ,  6-C ) :   0.8994 B(  6-C ,  7-C ) :   1.1628 B(  6-C , 24-H ) :   0.9095
B(  6-C , 25-H ) :   0.9363 B(  7-C , 26-H ) :   0.9388 B(  7-C , 27-H ) :   0.9448
B(  7-C , 28-H ) :   0.9360 B(  8-S ,  9-C ) :   1.0014 B(  9-C , 10-S ) :   0.9974
B(  9-C , 29-H ) :   0.8481 B(  9-C , 30-H ) :   0.9117 B( 10-S , 11-P ) :   0.9625
B( 10-S , 12-S ) :   0.1183 B( 11-P , 12-S ) :   1.5734 B( 11-P , 13-O ) :   1.0968
B( 11-P , 16-O ) :   1.1541 B( 12-S , 29-H ) :   0.1075 B( 13-O , 14-C ) :   0.9190
B( 14-C , 15-C ) :   1.1622 B( 14-C , 31-H ) :   0.9370 B( 14-C , 32-H ) :   0.9130
B( 15-C , 33-H ) :   0.9393 B( 15-C , 34-H ) :   0.9301 B( 15-C , 35-H ) :   0.9471
B( 16-O , 17-C ) :   0.8970 B( 17-C , 18-C ) :   1.1629 B( 17-C , 36-H ) :   0.9136
B( 17-C , 37-H ) :   0.9352 B( 18-C , 38-H ) :   0.9453 B( 18-C , 39-H ) :   0.9345
B( 18-C , 40-H ) :   0.9386

Dispersion correction           -0.067217287
FINAL SINGLE POINT ENERGY     -2929.521740810819

DIPOLE MOMENT
-------------

Method             : SCF
Type of density    : Electron Density
Multiplicity       :   1
Irrep              :   0
Energy             : -2929.6393702012314861 Eh
Relativity type    :
Basis              : AO
                                X                 Y                 Z
Electronic contribution:      3.039392879      -8.819837332      -7.213603679
Nuclear contribution   :     -3.090303217       8.720942160       7.383438045
                        -----------------------------------------
Total Dipole Moment    :     -0.050910338      -0.098895172       0.169834366
                        -----------------------------------------
Magnitude (a.u.)       :      0.203016821
Magnitude (Debye)      :      0.516027750

Rotational constants in cm-1:             0.012462             0.005217             0.004889
Rotational constants in MHz :           373.587662           156.408067           146.559129

                             ****ORCA TERMINATED NORMALLY****
TOTAL RUN TIME: 0 days 0 hours 0 minutes 21 seconds 423 msec
