                         Program Version 6.0.0  -   RELEASE  -
|  1> ! pbe def2-sv(p) def2/J RI DEFGRID1 loosescf d4 GCP(DFT/SV(P)) printgap
|  2> %output
|  3>     printlevel normal
|  4> end
|  5> * xyz 0 1
|  6> C 1.9109501635 3.1020677448 1.3454831485
|  7> C 2.4114986035 1.7175518196 1.7052788766
|  8> O 2.468255879 0.9306382093 0.4938606845
|  9> P 2.1443442036 -0.6151693039 0.4426205285
| 10> S 0.6955868278 -1.2366026951 1.6194668251
| 11> O 3.5660372474 -1.2412324369 0.7907214343
| 12> C 3.7401313885 -2.6197233364 1.1588402377
| 13> C 3.4368689876 -3.5591094508 0.0093439547
| 14> S 1.9566836793 -0.8481565686 -1.6407108737
| 15> C 0.1644887292 -0.6352236163 -1.7745376877
| 16> S -0.3930438461 0.9619612937 -1.1072000539
| 17> P -2.3291323644 0.3556412228 -0.426639903
| 18> S -2.606089205 -1.5621299778 -0.1684323098
| 19> O -3.3591375571 0.8915505419 -1.4888875589
| 20> C -3.4015024985 2.2645347535 -1.9566104689
| 21> C -2.9062863099 2.3407498739 -3.387195602
| 22> O -2.5983489793 1.3567378465 0.7799115448
| 23> C -1.8641482881 1.3894252094 2.0155383783
| 24> C -2.3729748112 0.3531495686 2.9966954335
| 25> H 1.8656708711 3.7100283754 2.243038739
| 26> H 2.5841233925 3.562372841 0.6286242384
| 27> H 0.921637042 3.0393679645 0.8990897116
| 28> H 1.7454800258 1.2188024975 2.4187355068
| 29> H 3.42069303 1.7508611983 2.1212934975
| 30> H 4.7856411557 -2.6792133173 1.4640458013
| 31> H 3.0895597674 -2.8338922308 2.0130701349
| 32> H 4.0036974514 -3.2721205435 -0.8728802293
| 33> H 3.6982872382 -4.5732527333 0.2940901722
| 34> H 2.3742967806 -3.52452229 -0.2301294607
| 35> H -0.3518978334 -1.4275548554 -1.2235353282
| 36> H -0.0621871755 -0.6878657195 -2.8367576071
| 37> H -4.4513116292 2.5519131712 -1.8829614069
| 38> H -2.8015383352 2.8898771777 -1.2925897587
| 39> H -3.0558523607 3.3487102508 -3.7607740522
| 40> H -1.847878818 2.0976284553 -3.4380927675
| 41> H -3.4598065115 1.6421453562 -4.00837993
| 42> H -0.8024225376 1.231009444 1.8081564443
| 43> H -2.0207539313 2.4028747652 2.3900172628
| 44> H -1.8728414259 0.4868866753 3.9504812792
| 45> H -3.4461967807 0.456928832 3.130579445
| 46> H -2.1589263625 -0.649395767 2.6302091554
| 47> *
| 48>
| 49>                          ****END OF INPUT****

CARTESIAN COORDINATES (ANGSTROEM)
---------------------------------
  C      1.910950    3.102068    1.345483
  C      2.411499    1.717552    1.705279
  O      2.468256    0.930638    0.493861
  P      2.144344   -0.615169    0.442621
  S      0.695587   -1.236603    1.619467
  O      3.566037   -1.241232    0.790721
  C      3.740131   -2.619723    1.158840
  C      3.436869   -3.559109    0.009344
  S      1.956684   -0.848157   -1.640711
  C      0.164489   -0.635224   -1.774538
  S     -0.393044    0.961961   -1.107200
  P     -2.329132    0.355641   -0.426640
  S     -2.606089   -1.562130   -0.168432
  O     -3.359138    0.891551   -1.488888
  C     -3.401502    2.264535   -1.956610
  C     -2.906286    2.340750   -3.387196
  O     -2.598349    1.356738    0.779912
  C     -1.864148    1.389425    2.015538
  C     -2.372975    0.353150    2.996695
  H      1.865671    3.710028    2.243039
  H      2.584123    3.562373    0.628624
  H      0.921637    3.039368    0.899090
  H      1.745480    1.218802    2.418736
  H      3.420693    1.750861    2.121293
  H      4.785641   -2.679213    1.464046
  H      3.089560   -2.833892    2.013070
  H      4.003697   -3.272121   -0.872880
  H      3.698287   -4.573253    0.294090
  H      2.374297   -3.524522   -0.230129
  H     -0.351898   -1.427555   -1.223535
  H     -0.062187   -0.687866   -2.836758
  H     -4.451312    2.551913   -1.882961
  H     -2.801538    2.889877   -1.292590
  H     -3.055852    3.348710   -3.760774
  H     -1.847879    2.097628   -3.438093
  H     -3.459807    1.642145   -4.008380
  H     -0.802423    1.231009    1.808156
  H     -2.020754    2.402875    2.390017
  H     -1.872841    0.486887    3.950481
  H     -3.446197    0.456929    3.130579
  H     -2.158926   -0.649396    2.630209

 Total Charge           Charge          ....    0
 Multiplicity           Mult            ....    1
 Number of Electrons    NEL             ....  202
 Basis Dimension        Dim             ....  334

ORBITAL ENERGIES
----------------

  NO   OCC          E(Eh)            E(eV)
   0   2.0000     -88.047095     -2395.8833
   1   2.0000     -88.042492     -2395.7580
   2   2.0000     -87.987546     -2394.2628
   3   2.0000     -87.981037     -2394.0857
   4   2.0000     -76.427254     -2079.6913
   5   2.0000     -76.423334     -2079.5846
   6   2.0000     -18.792185      -511.3614
   7   2.0000     -18.791924      -511.3542
   8   2.0000     -18.789322      -511.2834
   9   2.0000     -18.787359      -511.2300
  10   2.0000      -9.955392      -270.9000
  11   2.0000      -9.953797      -270.8566
  12   2.0000      -9.953731      -270.8548
  13   2.0000      -9.951921      -270.8055
  14   2.0000      -9.949533      -270.7406
  15   2.0000      -9.888197      -269.0715
  16   2.0000      -9.885781      -269.0058
  17   2.0000      -9.883814      -268.9523
  18   2.0000      -9.874125      -268.6886
  19   2.0000      -7.692578      -209.3257
  20   2.0000      -7.686666      -209.1648
  21   2.0000      -7.632209      -207.6830
  22   2.0000      -7.626314      -207.5226
  23   2.0000      -6.424729      -174.8258
  24   2.0000      -6.420723      -174.7168
  25   2.0000      -5.720569      -155.6646
  26   2.0000      -5.717078      -155.5696
  27   2.0000      -5.714464      -155.4985
  28   2.0000      -5.711265      -155.4114
  29   2.0000      -5.709366      -155.3598
  30   2.0000      -5.703750      -155.2069
  31   2.0000      -5.660976      -154.0430
  32   2.0000      -5.655405      -153.8914
  33   2.0000      -5.652994      -153.8258
  34   2.0000      -5.652382      -153.8091
  35   2.0000      -5.646857      -153.6588
  36   2.0000      -5.646298      -153.6436
  37   2.0000      -4.647161      -126.4557
  38   2.0000      -4.646525      -126.4384
  39   2.0000      -4.645275      -126.4043
  40   2.0000      -4.643443      -126.3545
  41   2.0000      -4.642597      -126.3315
  42   2.0000      -4.640987      -126.2877
  43   2.0000      -0.986264       -26.8376
  44   2.0000      -0.985909       -26.8279
  45   2.0000      -0.944799       -25.7093
  46   2.0000      -0.941571       -25.6214
  47   2.0000      -0.764121       -20.7928
  48   2.0000      -0.722039       -19.6477
  49   2.0000      -0.711240       -19.3538
  50   2.0000      -0.687337       -18.7034
  51   2.0000      -0.685960       -18.6659
  52   2.0000      -0.675625       -18.3847
  53   2.0000      -0.650737       -17.7074
  54   2.0000      -0.635304       -17.2875
  55   2.0000      -0.599313       -16.3081
  56   2.0000      -0.583458       -15.8767
  57   2.0000      -0.573976       -15.6187
  58   2.0000      -0.573402       -15.6031
  59   2.0000      -0.558920       -15.2090
  60   2.0000      -0.505971       -13.7682
  61   2.0000      -0.501654       -13.6507
  62   2.0000      -0.475176       -12.9302
  63   2.0000      -0.472538       -12.8584
  64   2.0000      -0.447375       -12.1737
  65   2.0000      -0.445074       -12.1111
  66   2.0000      -0.441712       -12.0196
  67   2.0000      -0.437449       -11.9036
  68   2.0000      -0.428821       -11.6688
  69   2.0000      -0.420782       -11.4501
  70   2.0000      -0.411856       -11.2072
  71   2.0000      -0.398224       -10.8362
  72   2.0000      -0.392106       -10.6697
  73   2.0000      -0.386296       -10.5116
  74   2.0000      -0.382730       -10.4146
  75   2.0000      -0.371178       -10.1003
  76   2.0000      -0.358068        -9.7435
  77   2.0000      -0.357398        -9.7253
  78   2.0000      -0.354081        -9.6350
  79   2.0000      -0.351376        -9.5614
  80   2.0000      -0.347017        -9.4428
  81   2.0000      -0.345794        -9.4095
  82   2.0000      -0.340666        -9.2700
  83   2.0000      -0.337193        -9.1755
  84   2.0000      -0.328593        -8.9415
  85   2.0000      -0.315336        -8.5807
  86   2.0000      -0.312360        -8.4998
  87   2.0000      -0.296888        -8.0787
  88   2.0000      -0.294769        -8.0211
  89   2.0000      -0.291480        -7.9316
  90   2.0000      -0.286112        -7.7855
  91   2.0000      -0.276759        -7.5310
  92   2.0000      -0.272774        -7.4226
  93   2.0000      -0.264513        -7.1978
  94   2.0000      -0.259552        -7.0628
  95   2.0000      -0.235512        -6.4086
  96   2.0000      -0.223587        -6.0841
  97   2.0000      -0.211320        -5.7503
  98   2.0000      -0.200840        -5.4651
  99   2.0000      -0.196827        -5.3559
 100   2.0000      -0.189740        -5.1631
 101   0.0000      -0.046215        -1.2576
 102   0.0000      -0.033068        -0.8998
 103   0.0000      -0.011389        -0.3099
 104   0.0000       0.007485         0.2037
 105   0.0000       0.017760         0.4833

MULLIKEN ATOMIC CHARGES
-----------------------
   0 C :   -0.291461
   1 C :   -0.007336
   2 O :   -0.365038
   3 P :    0.608728
   4 S :   -0.323521
   5 O :   -0.373396
   6 C :   -0.002391
   7 C :   -0.320383
   8 S :   -0.082090
   9 C :   -0.345761
  10 S :   -0.128496
  11 P :    0.608194
  12 S :   -0.290069
  13 O :   -0.356556
  14 C :   -0.006955
  15 C :   -0.288660
  16 O :   -0.379263
  17 C :   -0.040281
  18 C :   -0.294940
  19 H :    0.107945
  20 H :    0.117499
  21 H :    0.127234
  22 H :    0.106363
  23 H :    0.105413
  24 H :    0.104659
  25 H :    0.111390
  26 H :    0.118187
  27 H :    0.114365
  28 H :    0.131255
  29 H :    0.208267
  30 H :    0.180099
  31 H :    0.111293
  32 H :    0.100374
  33 H :    0.108266
  34 H :    0.117884
  35 H :    0.119987
  36 H :    0.131807
  37 H :    0.098721
  38 H :    0.104115
  39 H :    0.112239
  40 H :    0.142310
Sum of atomic charges:    0.0000000

LOEWDIN ATOMIC CHARGES
----------------------
   0 C :   -0.353529
   1 C :   -0.115164
   2 O :   -0.242749
   3 P :    0.565738
   4 S :   -0.305203
   5 O :   -0.247805
   6 C :   -0.119603
   7 C :   -0.369614
   8 S :    0.098196
   9 C :   -0.479518
  10 S :    0.060958
  11 P :    0.564874
  12 S :   -0.281997
  13 O :   -0.239422
  14 C :   -0.112603
  15 C :   -0.360173
  16 O :   -0.243671
  17 C :   -0.121531
  18 C :   -0.363030
  19 H :    0.128518
  20 H :    0.128286
  21 H :    0.123089
  22 H :    0.103664
  23 H :    0.115264
  24 H :    0.118512
  25 H :    0.110613
  26 H :    0.124134
  27 H :    0.131660
  28 H :    0.122760
  29 H :    0.122775
  30 H :    0.134340
  31 H :    0.121958
  32 H :    0.106255
  33 H :    0.128924
  34 H :    0.119489
  35 H :    0.129030
  36 H :    0.103003
  37 H :    0.114440
  38 H :    0.128075
  39 H :    0.125304
  40 H :    0.125753

  Mayer bond orders larger than 0.100000
B(  0-C ,  1-C ) :   1.1647 B(  0-C , 19-H ) :   0.9415 B(  0-C , 20-H ) :   0.9484
B(  0-C , 21-H ) :   0.9453 B(  1-C ,  2-O ) :   0.8997 B(  1-C , 22-H ) :   0.9006
B(  1-C , 23-H ) :   0.9327 B(  2-O ,  3-P ) :   1.1290 B(  3-P ,  4-S ) :   1.6015
B(  3-P ,  5-O ) :   1.1112 B(  3-P ,  8-S ) :   0.9617 B(  4-S ,  8-S ) :   0.1128
B(  5-O ,  6-C ) :   0.9096 B(  6-C ,  7-C ) :   1.1646 B(  6-C , 24-H ) :   0.9338
B(  6-C , 25-H ) :   0.9155 B(  7-C , 26-H ) :   0.9446 B(  7-C , 27-H ) :   0.9379
B(  7-C , 28-H ) :   0.9356 B(  8-S ,  9-C ) :   1.0038 B(  9-C , 10-S ) :   0.9934
B(  9-C , 29-H ) :   0.8468 B(  9-C , 30-H ) :   0.9098 B( 10-S , 11-P ) :   0.9259
B( 10-S , 12-S ) :   0.1193 B( 11-P , 12-S ) :   1.6616 B( 11-P , 13-O ) :   1.1359
B( 11-P , 16-O ) :   1.0972 B( 12-S , 29-H ) :   0.1069 B( 13-O , 14-C ) :   0.8924
B( 14-C , 15-C ) :   1.1631 B( 14-C , 31-H ) :   0.9348 B( 14-C , 32-H ) :   0.9183
B( 15-C , 33-H ) :   0.9403 B( 15-C , 34-H ) :   0.9388 B( 15-C , 35-H ) :   0.9465
B( 16-O , 17-C ) :   0.9050 B( 17-C , 18-C ) :   1.1732 B( 17-C , 36-H ) :   0.8972
B( 17-C , 37-H ) :   0.9350 B( 18-C , 38-H ) :   0.9386 B( 18-C , 39-H ) :   0.9463
B( 18-C , 40-H ) :   0.9296

Dispersion correction           -0.065692152
FINAL SINGLE POINT ENERGY     -2929.519781393838

DIPOLE MOMENT
-------------

Method             : SCF
Type of density    : Electron Density
Multiplicity       :   1
Irrep              :   0
Energy             : -2929.6377176327368943 Eh
Relativity type    :
Basis              : AO
                                X                 Y                 Z
Electronic contribution:     -1.364961607      -9.163419802      -5.964859787
Nuclear contribution   :      2.200367877      10.415764980       6.078614792
                        -----------------------------------------
Total Dipole Moment    :      0.835406270       1.252345179       0.113755005
                        -----------------------------------------
Magnitude (a.u.)       :      1.509706026
Magnitude (Debye)      :      3.837367757

Rotational constants in cm-1:             0.011383             0.005191             0.005074
Rotational constants in MHz :           341.258505           155.627054           152.114537

                             ****ORCA TERMINATED NORMALLY****
TOTAL RUN TIME: 0 days 0 hours 0 minutes 21 seconds 199 msec
