                         Program Version 6.0.0  -   RELEASE  -
|  1> ! pbe def2-sv(p) def2/J RI DEFGRID1 loosescf d4 GCP(DFT/SV(P)) printgap
|  2> %output
|  3>     printlevel normal
|  4> end
|  5> * xyz 0 1
|  6> C 2.3807756911 2.3063509487 -2.5070731501
|  7> C 2.6601020982 1.0931612042 -1.6468712114
|  8> O 1.8991507528 1.2424935979 -0.4199818475
|  9> P 1.9974956283 0.2195540447 0.7754706604
| 10> S 1.0798969879 0.8602779031 2.3768932588
| 11> O 3.5759511051 0.0601390155 0.9150979236
| 12> C 4.2049732772 -0.4386138328 2.1097241189
| 13> C 3.8321171859 -1.8760077508 2.408539029
| 14> S 1.3681475086 -1.6736402142 0.0027982317
| 15> C -0.0928112677 -1.9599829328 1.0429439122
| 16> S -1.649630723 -2.1068792036 0.1221213863
| 17> P -1.8093260801 -0.2313104408 -0.8273284025
| 18> S -0.6812856515 0.2379662561 -2.3479677247
| 19> O -1.6847052792 0.7212217396 0.4540865203
| 20> C -1.4184152392 2.1291095285 0.3200001614
| 21> C -2.5919838685 2.8687416548 -0.2855846229
| 22> O -3.3252061426 -0.2348563668 -1.291501469
| 23> C -4.4280765263 -0.4842388565 -0.3836098665
| 24> C -5.6548211094 0.2094840209 -0.9394197676
| 25> H 2.6247355118 3.214859277 -1.9639391603
| 26> H 2.9840315272 2.247179894 -3.4068306201
| 27> H 1.3300644321 2.3256162583 -2.7850365149
| 28> H 3.7165670105 1.0146698971 -1.3851652309
| 29> H 2.3310518399 0.1750618666 -2.1414357278
| 30> H 5.2706596405 -0.3338149838 1.90138499
| 31> H 3.9224808392 0.2125120396 2.942455813
| 32> H 4.4355846542 -2.2351689051 3.2359725083
| 33> H 2.7811374629 -1.9369274898 2.6873984506
| 34> H 4.0042068987 -2.5025155534 1.5369434918
| 35> H -0.1710379535 -1.1487204883 1.7722521034
| 36> H 0.0272839975 -2.9233888662 1.5329158627
| 37> H -1.2077146214 2.4544389449 1.3405415713
| 38> H -0.5196607699 2.2555406101 -0.292879701
| 39> H -2.7750217838 2.503201473 -1.2961091205
| 40> H -3.4839973366 2.720837088 0.3180192818
| 41> H -2.3605411352 3.9283306925 -0.3300441556
| 42> H -4.5711034765 -1.5658067001 -0.3304515453
| 43> H -4.1638361306 -0.1062644048 0.6076138839
| 44> H -5.8612697442 -0.1541716571 -1.9418834275
| 45> H -6.5036651004 -0.0027523373 -0.2974396665
| 46> H -5.4971739769 1.2836295549 -0.9845272645
| 47> *
| 48>
| 49>                          ****END OF INPUT****

CARTESIAN COORDINATES (ANGSTROEM)
---------------------------------
  C      2.380776    2.306351   -2.507073
  C      2.660102    1.093161   -1.646871
  O      1.899151    1.242494   -0.419982
  P      1.997496    0.219554    0.775471
  S      1.079897    0.860278    2.376893
  O      3.575951    0.060139    0.915098
  C      4.204973   -0.438614    2.109724
  C      3.832117   -1.876008    2.408539
  S      1.368148   -1.673640    0.002798
  C     -0.092811   -1.959983    1.042944
  S     -1.649631   -2.106879    0.122121
  P     -1.809326   -0.231310   -0.827328
  S     -0.681286    0.237966   -2.347968
  O     -1.684705    0.721222    0.454087
  C     -1.418415    2.129110    0.320000
  C     -2.591984    2.868742   -0.285585
  O     -3.325206   -0.234856   -1.291501
  C     -4.428077   -0.484239   -0.383610
  C     -5.654821    0.209484   -0.939420
  H      2.624736    3.214859   -1.963939
  H      2.984032    2.247180   -3.406831
  H      1.330064    2.325616   -2.785037
  H      3.716567    1.014670   -1.385165
  H      2.331052    0.175062   -2.141436
  H      5.270660   -0.333815    1.901385
  H      3.922481    0.212512    2.942456
  H      4.435585   -2.235169    3.235973
  H      2.781137   -1.936927    2.687398
  H      4.004207   -2.502516    1.536943
  H     -0.171038   -1.148720    1.772252
  H      0.027284   -2.923389    1.532916
  H     -1.207715    2.454439    1.340542
  H     -0.519661    2.255541   -0.292880
  H     -2.775022    2.503201   -1.296109
  H     -3.483997    2.720837    0.318019
  H     -2.360541    3.928331   -0.330044
  H     -4.571103   -1.565807   -0.330452
  H     -4.163836   -0.106264    0.607614
  H     -5.861270   -0.154172   -1.941883
  H     -6.503665   -0.002752   -0.297440
  H     -5.497174    1.283630   -0.984527

 Total Charge           Charge          ....    0
 Multiplicity           Mult            ....    1
 Number of Electrons    NEL             ....  202
 Basis Dimension        Dim             ....  334

ORBITAL ENERGIES
----------------

  NO   OCC          E(Eh)            E(eV)
   0   2.0000     -88.041343     -2395.7267
   1   2.0000     -88.039285     -2395.6707
   2   2.0000     -87.991468     -2394.3696
   3   2.0000     -87.977612     -2393.9925
   4   2.0000     -76.427069     -2079.6863
   5   2.0000     -76.419875     -2079.4905
   6   2.0000     -18.792894      -511.3807
   7   2.0000     -18.789883      -511.2987
   8   2.0000     -18.788581      -511.2633
   9   2.0000     -18.785154      -511.1700
  10   2.0000      -9.955394      -270.9001
  11   2.0000      -9.955218      -270.8953
  12   2.0000      -9.954751      -270.8825
  13   2.0000      -9.948542      -270.7136
  14   2.0000      -9.937343      -270.4089
  15   2.0000      -9.889785      -269.1147
  16   2.0000      -9.886387      -269.0223
  17   2.0000      -9.879927      -268.8465
  18   2.0000      -9.879264      -268.8284
  19   2.0000      -7.686034      -209.1476
  20   2.0000      -7.684983      -209.1190
  21   2.0000      -7.636460      -207.7986
  22   2.0000      -7.622869      -207.4288
  23   2.0000      -6.424633      -174.8232
  24   2.0000      -6.417698      -174.6344
  25   2.0000      -5.713873      -155.4824
  26   2.0000      -5.713027      -155.4594
  27   2.0000      -5.710709      -155.3963
  28   2.0000      -5.709264      -155.3570
  29   2.0000      -5.702921      -155.1844
  30   2.0000      -5.701907      -155.1568
  31   2.0000      -5.665360      -154.1623
  32   2.0000      -5.657002      -153.9349
  33   2.0000      -5.656642      -153.9250
  34   2.0000      -5.651778      -153.7927
  35   2.0000      -5.643512      -153.5678
  36   2.0000      -5.642905      -153.5512
  37   2.0000      -4.647362      -126.4611
  38   2.0000      -4.646122      -126.4274
  39   2.0000      -4.645242      -126.4035
  40   2.0000      -4.640769      -126.2817
  41   2.0000      -4.639246      -126.2403
  42   2.0000      -4.637937      -126.2047
  43   2.0000      -0.987588       -26.8736
  44   2.0000      -0.979926       -26.6651
  45   2.0000      -0.942656       -25.6510
  46   2.0000      -0.939387       -25.5620
  47   2.0000      -0.759441       -20.6654
  48   2.0000      -0.720767       -19.6131
  49   2.0000      -0.709703       -19.3120
  50   2.0000      -0.689330       -18.7576
  51   2.0000      -0.686250       -18.6738
  52   2.0000      -0.671380       -18.2692
  53   2.0000      -0.649307       -17.6685
  54   2.0000      -0.638500       -17.3745
  55   2.0000      -0.596599       -16.2343
  56   2.0000      -0.581330       -15.8188
  57   2.0000      -0.571466       -15.5504
  58   2.0000      -0.567349       -15.4383
  59   2.0000      -0.560352       -15.2480
  60   2.0000      -0.506338       -13.7782
  61   2.0000      -0.498601       -13.5676
  62   2.0000      -0.473953       -12.8969
  63   2.0000      -0.471284       -12.8243
  64   2.0000      -0.453112       -12.3298
  65   2.0000      -0.446479       -12.1493
  66   2.0000      -0.440202       -11.9785
  67   2.0000      -0.435383       -11.8474
  68   2.0000      -0.425500       -11.5785
  69   2.0000      -0.416044       -11.3211
  70   2.0000      -0.402114       -10.9421
  71   2.0000      -0.394017       -10.7218
  72   2.0000      -0.391031       -10.6405
  73   2.0000      -0.390639       -10.6298
  74   2.0000      -0.384114       -10.4523
  75   2.0000      -0.364389        -9.9155
  76   2.0000      -0.362096        -9.8531
  77   2.0000      -0.356732        -9.7072
  78   2.0000      -0.352090        -9.5809
  79   2.0000      -0.350803        -9.5458
  80   2.0000      -0.342800        -9.3281
  81   2.0000      -0.342178        -9.3111
  82   2.0000      -0.338584        -9.2133
  83   2.0000      -0.336294        -9.1510
  84   2.0000      -0.327989        -8.9250
  85   2.0000      -0.314016        -8.5448
  86   2.0000      -0.312165        -8.4944
  87   2.0000      -0.307327        -8.3628
  88   2.0000      -0.300560        -8.1787
  89   2.0000      -0.297394        -8.0925
  90   2.0000      -0.272639        -7.4189
  91   2.0000      -0.267696        -7.2844
  92   2.0000      -0.266734        -7.2582
  93   2.0000      -0.261720        -7.1218
  94   2.0000      -0.259870        -7.0714
  95   2.0000      -0.238283        -6.4840
  96   2.0000      -0.220692        -6.0053
  97   2.0000      -0.209325        -5.6960
  98   2.0000      -0.205387        -5.5889
  99   2.0000      -0.193124        -5.2552
 100   2.0000      -0.190154        -5.1744
 101   0.0000      -0.041982        -1.1424
 102   0.0000      -0.033300        -0.9061
 103   0.0000      -0.010107        -0.2750
 104   0.0000       0.006211         0.1690
 105   0.0000       0.013760         0.3744

MULLIKEN ATOMIC CHARGES
-----------------------
   0 C :   -0.290540
   1 C :   -0.018488
   2 O :   -0.355269
   3 P :    0.616406
   4 S :   -0.306946
   5 O :   -0.387111
   6 C :    0.003197
   7 C :   -0.315432
   8 S :   -0.093686
   9 C :   -0.351576
  10 S :   -0.104106
  11 P :    0.616943
  12 S :   -0.313145
  13 O :   -0.384124
  14 C :   -0.029919
  15 C :   -0.315404
  16 O :   -0.373350
  17 C :   -0.030438
  18 C :   -0.282356
  19 H :    0.114175
  20 H :    0.108160
  21 H :    0.136352
  22 H :    0.107897
  23 H :    0.117367
  24 H :    0.105063
  25 H :    0.112037
  26 H :    0.113209
  27 H :    0.120111
  28 H :    0.121289
  29 H :    0.205745
  30 H :    0.180961
  31 H :    0.111545
  32 H :    0.128830
  33 H :    0.128888
  34 H :    0.110982
  35 H :    0.112197
  36 H :    0.114148
  37 H :    0.110833
  38 H :    0.123271
  39 H :    0.111302
  40 H :    0.120983
Sum of atomic charges:    0.0000000

LOEWDIN ATOMIC CHARGES
----------------------
   0 C :   -0.353071
   1 C :   -0.118776
   2 O :   -0.229565
   3 P :    0.575753
   4 S :   -0.286701
   5 O :   -0.249407
   6 C :   -0.115050
   7 C :   -0.370845
   8 S :    0.079460
   9 C :   -0.481284
  10 S :    0.076118
  11 P :    0.560838
  12 S :   -0.303152
  13 O :   -0.249358
  14 C :   -0.131125
  15 C :   -0.368437
  16 O :   -0.245623
  17 C :   -0.121795
  18 C :   -0.350625
  19 H :    0.126263
  20 H :    0.129889
  21 H :    0.126935
  22 H :    0.110758
  23 H :    0.110602
  24 H :    0.118917
  25 H :    0.112298
  26 H :    0.130771
  27 H :    0.118990
  28 H :    0.124733
  29 H :    0.123185
  30 H :    0.136173
  31 H :    0.115253
  32 H :    0.111561
  33 H :    0.123181
  34 H :    0.119513
  35 H :    0.131361
  36 H :    0.113603
  37 H :    0.109603
  38 H :    0.131143
  39 H :    0.130554
  40 H :    0.127357

  Mayer bond orders larger than 0.100000
B(  0-C ,  1-C ) :   1.1716 B(  0-C , 19-H ) :   0.9497 B(  0-C , 20-H ) :   0.9403
B(  0-C , 21-H ) :   0.9406 B(  1-C ,  2-O ) :   0.8850 B(  1-C , 22-H ) :   0.9234
B(  1-C , 23-H ) :   0.9124 B(  2-O ,  3-P ) :   1.1423 B(  3-P ,  4-S ) :   1.6130
B(  3-P ,  5-O ) :   1.0790 B(  3-P ,  8-S ) :   0.9549 B(  4-S ,  8-S ) :   0.1181
B(  4-S , 29-H ) :   0.1128 B(  5-O ,  6-C ) :   0.9120 B(  6-C ,  7-C ) :   1.1659
B(  6-C , 24-H ) :   0.9345 B(  6-C , 25-H ) :   0.9201 B(  7-C , 26-H ) :   0.9365
B(  7-C , 27-H ) :   0.9382 B(  7-C , 28-H ) :   0.9414 B(  8-S ,  9-C ) :   1.0097
B(  9-C , 10-S ) :   0.9959 B(  9-C , 29-H ) :   0.8478 B(  9-C , 30-H ) :   0.9112
B( 10-S , 11-P ) :   0.9709 B( 10-S , 12-S ) :   0.1063 B( 11-P , 12-S ) :   1.6590
B( 11-P , 13-O ) :   1.0789 B( 11-P , 16-O ) :   1.1117 B( 13-O , 14-C ) :   0.8947
B( 14-C , 15-C ) :   1.1560 B( 14-C , 31-H ) :   0.9257 B( 14-C , 32-H ) :   0.9105
B( 15-C , 33-H ) :   0.9315 B( 15-C , 34-H ) :   0.9419 B( 15-C , 35-H ) :   0.9390
B( 16-O , 17-C ) :   0.8946 B( 17-C , 18-C ) :   1.1643 B( 17-C , 36-H ) :   0.9296
B( 17-C , 37-H ) :   0.9157 B( 18-C , 38-H ) :   0.9480 B( 18-C , 39-H ) :   0.9409
B( 18-C , 40-H ) :   0.9481

Dispersion correction           -0.067225448
FINAL SINGLE POINT ENERGY     -2929.518658499716

DIPOLE MOMENT
-------------

Method             : SCF
Type of density    : Electron Density
Multiplicity       :   1
Irrep              :   0
Energy             : -2929.6383269788730104 Eh
Relativity type    :
Basis              : AO
                                X                 Y                 Z
Electronic contribution:      3.784391006     -10.906684101      -0.069102474
Nuclear contribution   :     -3.623875523      10.834519985       0.712066843
                        -----------------------------------------
Total Dipole Moment    :      0.160515483      -0.072164115       0.642964370
                        -----------------------------------------
Magnitude (a.u.)       :      0.666615377
Magnitude (Debye)      :      1.694401631

Rotational constants in cm-1:             0.012640             0.005382             0.004863
Rotational constants in MHz :           378.937890           161.338906           145.784887

                             ****ORCA TERMINATED NORMALLY****
TOTAL RUN TIME: 0 days 0 hours 0 minutes 21 seconds 651 msec
