                         Program Version 6.0.0  -   RELEASE  -
|  1> ! r2scan-3c def2/J RI DEFGRID2 scfconv6 printgap
|  2> %output
|  3>     printlevel normal
|  4> end
|  5> * xyz 0 1
|  6> C -1.2333144868 0.9642792965 -1.2561162355
|  7> C -1.0116348204 0.1121405312 -0.000645712
|  8> C -1.9538034372 -1.0907660247 -0.000484545
|  9> C -1.2303287464 0.9619130337 1.2568440527
| 10> C 0.4294033955 -0.3782243865 -0.0022454781
| 11> O 0.7668782327 -1.5439750382 0.0022996889
| 12> O 1.2924828927 0.6302928211 -0.001418525
| 13> C 2.6921582593 0.3387919532 0.0010009526
| 14> H -0.5551977403 1.8131522256 -1.2627027835
| 15> H -1.062869625 0.3721097796 -2.1525305226
| 16> H -2.2566036396 1.3291883087 -1.2706511753
| 17> H -2.9860410522 -0.7536620592 0.0017865126
| 18> H -1.7797066445 -1.7081734145 0.8773462006
| 19> H -1.7829756039 -1.7060726428 -0.8804964414
| 20> H -1.0504534352 0.3701640744 2.1516882597
| 21> H -0.5572679452 1.8147501917 1.2598465245
| 22> H -2.2556433669 1.3207217208 1.2784622411
| 23> H 3.1581576384 1.046799653 0.6816159473
| 24> H 3.0792365311 0.4703878251 -1.0090183568
| 25> H 2.8574592969 -0.6876859885 0.3302926522
| 26> *
| 27>
| 28>                          ****END OF INPUT****

CARTESIAN COORDINATES (ANGSTROEM)
---------------------------------
  C     -1.233314    0.964279   -1.256116
  C     -1.011635    0.112141   -0.000646
  C     -1.953803   -1.090766   -0.000485
  C     -1.230329    0.961913    1.256844
  C      0.429403   -0.378224   -0.002245
  O      0.766878   -1.543975    0.002300
  O      1.292483    0.630293   -0.001419
  C      2.692158    0.338792    0.001001
  H     -0.555198    1.813152   -1.262703
  H     -1.062870    0.372110   -2.152531
  H     -2.256604    1.329188   -1.270651
  H     -2.986041   -0.753662    0.001787
  H     -1.779707   -1.708173    0.877346
  H     -1.782976   -1.706073   -0.880496
  H     -1.050453    0.370164    2.151688
  H     -0.557268    1.814750    1.259847
  H     -2.255643    1.320722    1.278462
  H      3.158158    1.046800    0.681616
  H      3.079237    0.470388   -1.009018
  H      2.857459   -0.687686    0.330293

 Total Charge           Charge          ....    0
 Multiplicity           Mult            ....    1
 Number of Electrons    NEL             ....   64
 Basis Dimension        Dim             ....  222

ORBITAL ENERGIES
----------------

  NO   OCC          E(Eh)            E(eV)
   0   2.0000     -18.999159      -516.9934
   1   2.0000     -18.929048      -515.0856
   2   2.0000     -10.149575      -276.1840
   3   2.0000     -10.086121      -274.4573
   4   2.0000     -10.057732      -273.6848
   5   2.0000     -10.024874      -272.7907
   6   2.0000     -10.024847      -272.7900
   7   2.0000     -10.015784      -272.5433
   8   2.0000      -1.073535       -29.2124
   9   2.0000      -0.976490       -26.5716
  10   2.0000      -0.795309       -21.6415
  11   2.0000      -0.702257       -19.1094
  12   2.0000      -0.661462       -17.9993
  13   2.0000      -0.653762       -17.7898
  14   2.0000      -0.579680       -15.7739
  15   2.0000      -0.518072       -14.0975
  16   2.0000      -0.462986       -12.5985
  17   2.0000      -0.454532       -12.3684
  18   2.0000      -0.442171       -12.0321
  19   2.0000      -0.413284       -11.2460
  20   2.0000      -0.406409       -11.0590
  21   2.0000      -0.401176       -10.9166
  22   2.0000      -0.375017       -10.2047
  23   2.0000      -0.361659        -9.8413
  24   2.0000      -0.348219        -9.4755
  25   2.0000      -0.337912        -9.1950
  26   2.0000      -0.336115        -9.1462
  27   2.0000      -0.315592        -8.5877
  28   2.0000      -0.304856        -8.2956
  29   2.0000      -0.300740        -8.1836
  30   2.0000      -0.272370        -7.4116
  31   2.0000      -0.233622        -6.3572
  32   0.0000      -0.014117        -0.3841
  33   0.0000       0.057026         1.5518
  34   0.0000       0.087842         2.3903
  35   0.0000       0.105276         2.8647
  36   0.0000       0.130807         3.5594

MULLIKEN ATOMIC CHARGES
-----------------------
   0 C :   -0.512202
   1 C :    0.177683
   2 C :   -0.486448
   3 C :   -0.512946
   4 C :    0.305822
   5 O :   -0.411294
   6 O :   -0.190591
   7 C :   -0.300895
   8 H :    0.168074
   9 H :    0.158591
  10 H :    0.158055
  11 H :    0.152873
  12 H :    0.162351
  13 H :    0.162138
  14 H :    0.158668
  15 H :    0.167757
  16 H :    0.158268
  17 H :    0.147863
  18 H :    0.149731
  19 H :    0.186502
Sum of atomic charges:    0.0000000

LOEWDIN ATOMIC CHARGES
----------------------
   0 C :   -0.377538
   1 C :   -0.146269
   2 C :   -0.383628
   3 C :   -0.377294
   4 C :    0.367718
   5 O :   -0.433174
   6 O :   -0.612850
   7 C :   -0.044318
   8 H :    0.168441
   9 H :    0.162772
  10 H :    0.158315
  11 H :    0.154858
  12 H :    0.167749
  13 H :    0.167588
  14 H :    0.162893
  15 H :    0.168269
  16 H :    0.158207
  17 H :    0.174197
  18 H :    0.172236
  19 H :    0.191828

  Mayer bond orders larger than 0.100000
B(  0-C ,  1-C ) :   0.9054 B(  0-C ,  8-H ) :   0.9672 B(  0-C ,  9-H ) :   0.9704
B(  0-C , 10-H ) :   0.9759 B(  1-C ,  2-C ) :   0.9446 B(  1-C ,  3-C ) :   0.9046
B(  1-C ,  4-C ) :   0.9516 B(  2-C , 11-H ) :   0.9789 B(  2-C , 12-H ) :   0.9662
B(  2-C , 13-H ) :   0.9666 B(  3-C , 14-H ) :   0.9702 B(  3-C , 15-H ) :   0.9669
B(  3-C , 16-H ) :   0.9765 B(  4-C ,  5-O ) :   1.8876 B(  4-C ,  6-O ) :   1.0592
B(  6-O ,  7-C ) :   0.8397 B(  7-C , 17-H ) :   0.9686 B(  7-C , 18-H ) :   0.9608
B(  7-C , 19-H ) :   0.9688

Dispersion correction           -0.005673036
FINAL SINGLE POINT ENERGY      -386.233267392510

DIPOLE MOMENT
-------------

Method             : SCF
Type of density    : Electron Density
Multiplicity       :   1
Irrep              :   0
Energy             :  -386.2403029486708306 Eh
Relativity type    :
Basis              : AO
                                X                 Y                 Z
Electronic contribution:      4.937705187      -2.654283304      -0.001014221
Nuclear contribution   :     -4.840336374       3.440481034       0.005303443
                        -----------------------------------------
Total Dipole Moment    :      0.097368813       0.786197729       0.004289222
                        -----------------------------------------
Magnitude (a.u.)       :      0.792215850
Magnitude (Debye)      :      2.013652663

Rotational constants in cm-1:             0.105416             0.050582             0.044435
Rotational constants in MHz :          3160.293261          1516.414925          1332.132891

                             ****ORCA TERMINATED NORMALLY****
TOTAL RUN TIME: 0 days 0 hours 1 minutes 6 seconds 292 msec
