                         Program Version 6.0.0  -   RELEASE  -
|  1> ! r2scan-3c def2/J RI DEFGRID2 scfconv6 printgap
|  2> %output
|  3>     printlevel normal
|  4> end
|  5> %cpcm
|  6>     smd true
|  7>     smdsolvent "water"
|  8> end
|  9> * xyz 0 1
| 10> C -1.2333144868 0.9642792965 -1.2561162355
| 11> C -1.0116348204 0.1121405312 -0.000645712
| 12> C -1.9538034372 -1.0907660247 -0.000484545
| 13> C -1.2303287464 0.9619130337 1.2568440527
| 14> C 0.4294033955 -0.3782243865 -0.0022454781
| 15> O 0.7668782327 -1.5439750382 0.0022996889
| 16> O 1.2924828927 0.6302928211 -0.001418525
| 17> C 2.6921582593 0.3387919532 0.0010009526
| 18> H -0.5551977403 1.8131522256 -1.2627027835
| 19> H -1.062869625 0.3721097796 -2.1525305226
| 20> H -2.2566036396 1.3291883087 -1.2706511753
| 21> H -2.9860410522 -0.7536620592 0.0017865126
| 22> H -1.7797066445 -1.7081734145 0.8773462006
| 23> H -1.7829756039 -1.7060726428 -0.8804964414
| 24> H -1.0504534352 0.3701640744 2.1516882597
| 25> H -0.5572679452 1.8147501917 1.2598465245
| 26> H -2.2556433669 1.3207217208 1.2784622411
| 27> H 3.1581576384 1.046799653 0.6816159473
| 28> H 3.0792365311 0.4703878251 -1.0090183568
| 29> H 2.8574592969 -0.6876859885 0.3302926522
| 30> *
| 31>
| 32>                          ****END OF INPUT****

CARTESIAN COORDINATES (ANGSTROEM)
---------------------------------
  C     -1.233314    0.964279   -1.256116
  C     -1.011635    0.112141   -0.000646
  C     -1.953803   -1.090766   -0.000485
  C     -1.230329    0.961913    1.256844
  C      0.429403   -0.378224   -0.002245
  O      0.766878   -1.543975    0.002300
  O      1.292483    0.630293   -0.001419
  C      2.692158    0.338792    0.001001
  H     -0.555198    1.813152   -1.262703
  H     -1.062870    0.372110   -2.152531
  H     -2.256604    1.329188   -1.270651
  H     -2.986041   -0.753662    0.001787
  H     -1.779707   -1.708173    0.877346
  H     -1.782976   -1.706073   -0.880496
  H     -1.050453    0.370164    2.151688
  H     -0.557268    1.814750    1.259847
  H     -2.255643    1.320722    1.278462
  H      3.158158    1.046800    0.681616
  H      3.079237    0.470388   -1.009018
  H      2.857459   -0.687686    0.330293

 Total Charge           Charge          ....    0
 Multiplicity           Mult            ....    1
 Number of Electrons    NEL             ....   64
 Basis Dimension        Dim             ....  222

ORBITAL ENERGIES
----------------

  NO   OCC          E(Eh)            E(eV)
   0   2.0000     -19.002876      -517.0945
   1   2.0000     -18.943443      -515.4773
   2   2.0000     -10.159175      -276.4452
   3   2.0000     -10.075166      -274.1592
   4   2.0000     -10.054759      -273.6039
   5   2.0000     -10.016258      -272.5562
   6   2.0000     -10.016253      -272.5561
   7   2.0000     -10.012311      -272.4488
   8   2.0000      -1.079112       -29.3641
   9   2.0000      -0.988582       -26.9007
  10   2.0000      -0.791360       -21.5340
  11   2.0000      -0.697172       -18.9710
  12   2.0000      -0.653484       -17.7822
  13   2.0000      -0.649255       -17.6671
  14   2.0000      -0.575757       -15.6671
  15   2.0000      -0.517366       -14.0783
  16   2.0000      -0.459701       -12.5091
  17   2.0000      -0.453715       -12.3462
  18   2.0000      -0.452982       -12.3263
  19   2.0000      -0.407474       -11.0879
  20   2.0000      -0.406344       -11.0572
  21   2.0000      -0.394582       -10.7371
  22   2.0000      -0.369839       -10.0638
  23   2.0000      -0.356223        -9.6933
  24   2.0000      -0.345220        -9.3939
  25   2.0000      -0.334354        -9.0982
  26   2.0000      -0.330125        -8.9832
  27   2.0000      -0.316143        -8.6027
  28   2.0000      -0.300308        -8.1718
  29   2.0000      -0.297522        -8.0960
  30   2.0000      -0.277170        -7.5422
  31   2.0000      -0.247211        -6.7269
  32   0.0000      -0.021673        -0.5897
  33   0.0000       0.061803         1.6817
  34   0.0000       0.096585         2.6282
  35   0.0000       0.114776         3.1232
  36   0.0000       0.137498         3.7415

MULLIKEN ATOMIC CHARGES
-----------------------
   0 C :   -0.547747
   1 C :    0.231629
   2 C :   -0.554086
   3 C :   -0.548933
   4 C :    0.334032
   5 O :   -0.493121
   6 O :   -0.206211
   7 C :   -0.320114
   8 H :    0.173501
   9 H :    0.173569
  10 H :    0.178349
  11 H :    0.175824
  12 H :    0.170963
  13 H :    0.171076
  14 H :    0.173526
  15 H :    0.173592
  16 H :    0.178584
  17 H :    0.174679
  18 H :    0.177357
  19 H :    0.183532
Sum of atomic charges:    0.0000000

LOEWDIN ATOMIC CHARGES
----------------------
   0 C :   -0.379922
   1 C :   -0.141970
   2 C :   -0.392268
   3 C :   -0.379804
   4 C :    0.377160
   5 O :   -0.492481
   6 O :   -0.612331
   7 C :   -0.039396
   8 H :    0.169740
   9 H :    0.166893
  10 H :    0.165453
  11 H :    0.164079
  12 H :    0.166743
  13 H :    0.166698
  14 H :    0.166925
  15 H :    0.169658
  16 H :    0.165369
  17 H :    0.185945
  18 H :    0.182749
  19 H :    0.190764

  Mayer bond orders larger than 0.100000
B(  0-C ,  1-C ) :   0.8937 B(  0-C ,  8-H ) :   0.9645 B(  0-C ,  9-H ) :   0.9664
B(  0-C , 10-H ) :   0.9711 B(  1-C ,  2-C ) :   0.8991 B(  1-C ,  3-C ) :   0.8931
B(  1-C ,  4-C ) :   0.9589 B(  2-C , 11-H ) :   0.9706 B(  2-C , 12-H ) :   0.9713
B(  2-C , 13-H ) :   0.9717 B(  3-C , 14-H ) :   0.9663 B(  3-C , 15-H ) :   0.9642
B(  3-C , 16-H ) :   0.9717 B(  4-C ,  5-O ) :   1.8237 B(  4-C ,  6-O ) :   1.0885
B(  6-O ,  7-C ) :   0.8255 B(  7-C , 17-H ) :   0.9588 B(  7-C , 18-H ) :   0.9524
B(  7-C , 19-H ) :   0.9654

Dispersion correction           -0.005673036
FINAL SINGLE POINT ENERGY      -386.236333675116

DIPOLE MOMENT
-------------

Method             : SCF
Type of density    : Electron Density
Multiplicity       :   1
Irrep              :   0
Energy             :  -386.2433692312775406 Eh
Relativity type    :
Basis              : AO
                                X                 Y                 Z
Electronic contribution:      4.893958384      -2.277447469      -0.003078248
Nuclear contribution   :     -4.840336374       3.440481034       0.005303443
                        -----------------------------------------
Total Dipole Moment    :      0.053622010       1.163033565       0.002225195
                        -----------------------------------------
Magnitude (a.u.)       :      1.164271164
Magnitude (Debye)      :      2.959342117

Rotational constants in cm-1:             0.105416             0.050582             0.044435
Rotational constants in MHz :          3160.293261          1516.414925          1332.132891

                             ****ORCA TERMINATED NORMALLY****
TOTAL RUN TIME: 0 days 0 hours 1 minutes 12 seconds 529 msec
