                         Program Version 6.0.0  -   RELEASE  -
|  1> ! r2scan-3c def2/J RI DEFGRID2 scfconv6 printgap
|  2> %output
|  3>     printlevel normal
|  4> end
|  5> * xyz 0 1
|  6> C 1.9848625767 2.6465923868 -1.4206783769
|  7> C 2.9124238231 1.8382028179 -0.5383730489
|  8> O 2.2021849422 1.412347255 0.6581203765
|  9> P 2.0923854732 -0.1031655918 1.0723090842
| 10> S 1.3249454811 -0.3732239089 2.8472477162
| 11> O 3.6054997654 -0.5771993181 0.9163193551
| 12> C 4.0070396878 -1.9114235144 1.2845929419
| 13> C 5.5197574312 -1.9332826451 1.3694059198
| 14> S 1.118239507 -1.0927334345 -0.5614975346
| 15> C -0.3371916077 -1.7248912788 0.314497788
| 16> S -1.4982610341 -0.4375036994 0.8207418702
| 17> P -2.1443106911 0.1576565631 -1.1290786566
| 18> S -1.9815441889 -1.2080646798 -2.5208231738
| 19> O -1.3309251308 1.4671292479 -1.4865456806
| 20> C -1.6395596963 2.7968485561 -1.0009551415
| 21> C -1.404505874 2.9383945863 0.4888177561
| 22> O -3.6072691221 0.7372706236 -0.9003779681
| 23> C -4.7805389427 -0.0929664938 -0.9658579168
| 24> C -4.8302359824 -1.1143832253 0.1515662878
| 25> H 1.1572476931 2.0292619254 -1.7634900436
| 26> H 1.5943087217 3.4974702603 -0.8695176051
| 27> H 2.5400768222 3.0019511181 -2.2831376905
| 28> H 3.7521134767 2.4373666175 -0.1831170718
| 29> H 3.2881270026 0.957660147 -1.0636818005
| 30> H 3.5476147105 -2.1592935584 2.2472385403
| 31> H 3.6386351817 -2.6027435964 0.5210087415
| 32> H 5.8463937976 -2.9311026144 1.642997447
| 33> H 5.9507503173 -1.663682856 0.4096351688
| 34> H 5.859933644 -1.2256206068 2.1200649291
| 35> H -0.029400819 -2.2287971141 1.2288435964
| 36> H -0.8233195017 -2.4070681052 -0.3824858651
| 37> H -0.9697200297 3.4361949284 -1.5778351226
| 38> H -2.6769961013 3.0224311841 -1.2531732028
| 39> H -0.3997510548 2.6139912339 0.7543037361
| 40> H -1.5265594005 3.9797980361 0.7700322452
| 41> H -2.1192281993 2.3359807013 1.0466413114
| 42> H -5.6047324097 0.6185518033 -0.8975201336
| 43> H -4.7956463955 -0.5900898227 -1.9406283516
| 44> H -4.6973248191 -0.6311578004 1.1163321635
| 45> H -5.7901537518 -1.6202614094 0.1307235287
| 46> H -4.0409413345 -1.8523714602 0.0167946211
| 47> *
| 48>
| 49>                          ****END OF INPUT****

CARTESIAN COORDINATES (ANGSTROEM)
---------------------------------
  C      1.984863    2.646592   -1.420678
  C      2.912424    1.838203   -0.538373
  O      2.202185    1.412347    0.658120
  P      2.092385   -0.103166    1.072309
  S      1.324945   -0.373224    2.847248
  O      3.605500   -0.577199    0.916319
  C      4.007040   -1.911424    1.284593
  C      5.519757   -1.933283    1.369406
  S      1.118240   -1.092733   -0.561498
  C     -0.337192   -1.724891    0.314498
  S     -1.498261   -0.437504    0.820742
  P     -2.144311    0.157657   -1.129079
  S     -1.981544   -1.208065   -2.520823
  O     -1.330925    1.467129   -1.486546
  C     -1.639560    2.796849   -1.000955
  C     -1.404506    2.938395    0.488818
  O     -3.607269    0.737271   -0.900378
  C     -4.780539   -0.092966   -0.965858
  C     -4.830236   -1.114383    0.151566
  H      1.157248    2.029262   -1.763490
  H      1.594309    3.497470   -0.869518
  H      2.540077    3.001951   -2.283138
  H      3.752113    2.437367   -0.183117
  H      3.288127    0.957660   -1.063682
  H      3.547615   -2.159294    2.247239
  H      3.638635   -2.602744    0.521009
  H      5.846394   -2.931103    1.642997
  H      5.950750   -1.663683    0.409635
  H      5.859934   -1.225621    2.120065
  H     -0.029401   -2.228797    1.228844
  H     -0.823320   -2.407068   -0.382486
  H     -0.969720    3.436195   -1.577835
  H     -2.676996    3.022431   -1.253173
  H     -0.399751    2.613991    0.754304
  H     -1.526559    3.979798    0.770032
  H     -2.119228    2.335981    1.046641
  H     -5.604732    0.618552   -0.897520
  H     -4.795646   -0.590090   -1.940628
  H     -4.697325   -0.631158    1.116332
  H     -5.790154   -1.620261    0.130724
  H     -4.040941   -1.852371    0.016795

 Total Charge           Charge          ....    0
 Multiplicity           Mult            ....    1
 Number of Electrons    NEL             ....  202
 Basis Dimension        Dim             ....  539

ORBITAL ENERGIES
----------------

  NO   OCC          E(Eh)            E(eV)
   0   2.0000     -88.572041     -2410.1678
   1   2.0000     -88.569024     -2410.0857
   2   2.0000     -88.520433     -2408.7634
   3   2.0000     -88.517735     -2408.6900
   4   2.0000     -76.912711     -2092.9013
   5   2.0000     -76.912459     -2092.8944
   6   2.0000     -18.994808      -516.8750
   7   2.0000     -18.993058      -516.8274
   8   2.0000     -18.990593      -516.7603
   9   2.0000     -18.987952      -516.6884
  10   2.0000     -10.105618      -274.9878
  11   2.0000     -10.101963      -274.8884
  12   2.0000     -10.100997      -274.8621
  13   2.0000     -10.100437      -274.8469
  14   2.0000     -10.098110      -274.7836
  15   2.0000     -10.033489      -273.0251
  16   2.0000     -10.032553      -272.9996
  17   2.0000     -10.028299      -272.8839
  18   2.0000     -10.027788      -272.8700
  19   2.0000      -7.865969      -214.0439
  20   2.0000      -7.863210      -213.9688
  21   2.0000      -7.815277      -212.6645
  22   2.0000      -7.812624      -212.5923
  23   2.0000      -6.591271      -179.3576
  24   2.0000      -6.590792      -179.3446
  25   2.0000      -5.812896      -158.1770
  26   2.0000      -5.810204      -158.1037
  27   2.0000      -5.809767      -158.0918
  28   2.0000      -5.807043      -158.0177
  29   2.0000      -5.803179      -157.9125
  30   2.0000      -5.800249      -157.8328
  31   2.0000      -5.763055      -156.8207
  32   2.0000      -5.760330      -156.7465
  33   2.0000      -5.755474      -156.6144
  34   2.0000      -5.755214      -156.6073
  35   2.0000      -5.752898      -156.5443
  36   2.0000      -5.752553      -156.5349
  37   2.0000      -4.736980      -128.8998
  38   2.0000      -4.736835      -128.8958
  39   2.0000      -4.736165      -128.8776
  40   2.0000      -4.735373      -128.8561
  41   2.0000      -4.734841      -128.8416
  42   2.0000      -4.734381      -128.8291
  43   2.0000      -1.051753       -28.6197
  44   2.0000      -1.051027       -28.5999
  45   2.0000      -1.009383       -27.4667
  46   2.0000      -1.008654       -27.4469
  47   2.0000      -0.796662       -21.6783
  48   2.0000      -0.758718       -20.6458
  49   2.0000      -0.751009       -20.4360
  50   2.0000      -0.736805       -20.0495
  51   2.0000      -0.734176       -19.9779
  52   2.0000      -0.708500       -19.2793
  53   2.0000      -0.683983       -18.6121
  54   2.0000      -0.667492       -18.1634
  55   2.0000      -0.627490       -17.0749
  56   2.0000      -0.616002       -16.7623
  57   2.0000      -0.611227       -16.6323
  58   2.0000      -0.607637       -16.5346
  59   2.0000      -0.590028       -16.0555
  60   2.0000      -0.536065       -14.5871
  61   2.0000      -0.520914       -14.1748
  62   2.0000      -0.500457       -13.6181
  63   2.0000      -0.489524       -13.3206
  64   2.0000      -0.477424       -12.9914
  65   2.0000      -0.468472       -12.7478
  66   2.0000      -0.460381       -12.5276
  67   2.0000      -0.454031       -12.3548
  68   2.0000      -0.442879       -12.0513
  69   2.0000      -0.441470       -12.0130
  70   2.0000      -0.425610       -11.5814
  71   2.0000      -0.416237       -11.3264
  72   2.0000      -0.401642       -10.9292
  73   2.0000      -0.398857       -10.8535
  74   2.0000      -0.390031       -10.6133
  75   2.0000      -0.387008       -10.5310
  76   2.0000      -0.384197       -10.4545
  77   2.0000      -0.373729       -10.1697
  78   2.0000      -0.370381       -10.0786
  79   2.0000      -0.365942        -9.9578
  80   2.0000      -0.364618        -9.9218
  81   2.0000      -0.362729        -9.8703
  82   2.0000      -0.356368        -9.6973
  83   2.0000      -0.353272        -9.6130
  84   2.0000      -0.350738        -9.5441
  85   2.0000      -0.333792        -9.0829
  86   2.0000      -0.321602        -8.7512
  87   2.0000      -0.318504        -8.6669
  88   2.0000      -0.314742        -8.5646
  89   2.0000      -0.311656        -8.4806
  90   2.0000      -0.308639        -8.3985
  91   2.0000      -0.291404        -7.9295
  92   2.0000      -0.285852        -7.7784
  93   2.0000      -0.275451        -7.4954
  94   2.0000      -0.269171        -7.3245
  95   2.0000      -0.245252        -6.6737
  96   2.0000      -0.226729        -6.1696
  97   2.0000      -0.222548        -6.0558
  98   2.0000      -0.219099        -5.9620
  99   2.0000      -0.214165        -5.8277
 100   2.0000      -0.205384        -5.5888
 101   0.0000      -0.044320        -1.2060
 102   0.0000      -0.028195        -0.7672
 103   0.0000      -0.002147        -0.0584
 104   0.0000       0.001847         0.0503
 105   0.0000       0.009794         0.2665

MULLIKEN ATOMIC CHARGES
-----------------------
   0 C :   -0.491521
   1 C :   -0.095087
   2 O :   -0.284928
   3 P :    0.670513
   4 S :   -0.440667
   5 O :   -0.268392
   6 C :   -0.153324
   7 C :   -0.440375
   8 S :   -0.169036
   9 C :   -0.249717
  10 S :   -0.116210
  11 P :    0.660946
  12 S :   -0.457076
  13 O :   -0.273927
  14 C :   -0.104314
  15 C :   -0.486680
  16 O :   -0.303879
  17 C :   -0.168941
  18 C :   -0.433947
  19 H :    0.192521
  20 H :    0.152963
  21 H :    0.146215
  22 H :    0.155337
  23 H :    0.153364
  24 H :    0.166736
  25 H :    0.154395
  26 H :    0.146458
  27 H :    0.150657
  28 H :    0.158261
  29 H :    0.208004
  30 H :    0.214834
  31 H :    0.152941
  32 H :    0.161712
  33 H :    0.189427
  34 H :    0.149416
  35 H :    0.155179
  36 H :    0.147115
  37 H :    0.174725
  38 H :    0.154964
  39 H :    0.147012
  40 H :    0.174326
Sum of atomic charges:   -0.0000000

LOEWDIN ATOMIC CHARGES
----------------------
   0 C :   -0.395832
   1 C :    0.027170
   2 O :   -0.648594
   3 P :    0.383030
   4 S :   -0.091321
   5 O :   -0.683668
   6 C :    0.016569
   7 C :   -0.385716
   8 S :    0.132758
   9 C :   -0.432947
  10 S :    0.140135
  11 P :    0.390815
  12 S :   -0.108240
  13 O :   -0.662585
  14 C :    0.024896
  15 C :   -0.405247
  16 O :   -0.679906
  17 C :    0.022098
  18 C :   -0.407922
  19 H :    0.177439
  20 H :    0.159548
  21 H :    0.159991
  22 H :    0.179512
  23 H :    0.177916
  24 H :    0.179363
  25 H :    0.172545
  26 H :    0.159978
  27 H :    0.158590
  28 H :    0.161591
  29 H :    0.188704
  30 H :    0.191285
  31 H :    0.181154
  32 H :    0.179083
  33 H :    0.172726
  34 H :    0.159023
  35 H :    0.160984
  36 H :    0.179105
  37 H :    0.180699
  38 H :    0.161019
  39 H :    0.159023
  40 H :    0.165230

  Mayer bond orders larger than 0.100000
B(  0-C ,  1-C ) :   0.9572 B(  0-C , 19-H ) :   0.9537 B(  0-C , 20-H ) :   0.9669
B(  0-C , 21-H ) :   0.9617 B(  1-C ,  2-O ) :   0.7216 B(  1-C , 22-H ) :   0.9534
B(  1-C , 23-H ) :   0.9696 B(  2-O ,  3-P ) :   1.1689 B(  3-P ,  4-S ) :   1.8168
B(  3-P ,  5-O ) :   1.0615 B(  3-P ,  8-S ) :   0.9748 B(  5-O ,  6-C ) :   0.7865
B(  6-C ,  7-C ) :   0.9560 B(  6-C , 24-H ) :   0.9494 B(  6-C , 25-H ) :   0.9400
B(  7-C , 26-H ) :   0.9647 B(  7-C , 27-H ) :   0.9713 B(  7-C , 28-H ) :   0.9724
B(  8-S ,  9-C ) :   0.8964 B(  9-C , 10-S ) :   0.9085 B(  9-C , 29-H ) :   0.9145
B(  9-C , 30-H ) :   0.9096 B( 10-S , 11-P ) :   1.0145 B( 11-P , 12-S ) :   1.8051
B( 11-P , 13-O ) :   1.1314 B( 11-P , 16-O ) :   1.0431 B( 13-O , 14-C ) :   0.7620
B( 14-C , 15-C ) :   0.9054 B( 14-C , 31-H ) :   0.9600 B( 14-C , 32-H ) :   0.9610
B( 15-C , 33-H ) :   0.9631 B( 15-C , 34-H ) :   0.9674 B( 15-C , 35-H ) :   0.9589
B( 16-O , 17-C ) :   0.8191 B( 17-C , 18-C ) :   0.9205 B( 17-C , 36-H ) :   0.9612
B( 17-C , 37-H ) :   0.9676 B( 18-C , 38-H ) :   0.9662 B( 18-C , 39-H ) :   0.9569
B( 18-C , 40-H ) :   0.9646

Dispersion correction           -0.021655638
FINAL SINGLE POINT ENERGY     -2932.461163398468

DIPOLE MOMENT
-------------

Method             : SCF
Type of density    : Electron Density
Multiplicity       :   1
Irrep              :   0
Energy             : -2932.4857653856915931 Eh
Relativity type    :
Basis              : AO
                                X                 Y                 Z
Electronic contribution:     -3.366171814      -7.048906092      -0.007225630
Nuclear contribution   :      3.561854961       7.609099930      -0.175251389
                        -----------------------------------------
Total Dipole Moment    :      0.195683146       0.560193838      -0.182477019
                        -----------------------------------------
Magnitude (a.u.)       :      0.620811479
Magnitude (Debye)      :      1.577977375

Rotational constants in cm-1:             0.013138             0.004837             0.004491
Rotational constants in MHz :           393.876867           144.994873           134.622080

                             ****ORCA TERMINATED NORMALLY****
TOTAL RUN TIME: 0 days 0 hours 1 minutes 23 seconds 207 msec
