                         Program Version 6.0.0  -   RELEASE  -
|  1> ! r2scan-3c def2/J RI DEFGRID2 scfconv6 printgap
|  2> %output
|  3>     printlevel normal
|  4> end
|  5> %cpcm
|  6>     smd true
|  7>     smdsolvent "water"
|  8> end
|  9> * xyz 0 1
| 10> C 1.9848625767 2.6465923868 -1.4206783769
| 11> C 2.9124238231 1.8382028179 -0.5383730489
| 12> O 2.2021849422 1.412347255 0.6581203765
| 13> P 2.0923854732 -0.1031655918 1.0723090842
| 14> S 1.3249454811 -0.3732239089 2.8472477162
| 15> O 3.6054997654 -0.5771993181 0.9163193551
| 16> C 4.0070396878 -1.9114235144 1.2845929419
| 17> C 5.5197574312 -1.9332826451 1.3694059198
| 18> S 1.118239507 -1.0927334345 -0.5614975346
| 19> C -0.3371916077 -1.7248912788 0.314497788
| 20> S -1.4982610341 -0.4375036994 0.8207418702
| 21> P -2.1443106911 0.1576565631 -1.1290786566
| 22> S -1.9815441889 -1.2080646798 -2.5208231738
| 23> O -1.3309251308 1.4671292479 -1.4865456806
| 24> C -1.6395596963 2.7968485561 -1.0009551415
| 25> C -1.404505874 2.9383945863 0.4888177561
| 26> O -3.6072691221 0.7372706236 -0.9003779681
| 27> C -4.7805389427 -0.0929664938 -0.9658579168
| 28> C -4.8302359824 -1.1143832253 0.1515662878
| 29> H 1.1572476931 2.0292619254 -1.7634900436
| 30> H 1.5943087217 3.4974702603 -0.8695176051
| 31> H 2.5400768222 3.0019511181 -2.2831376905
| 32> H 3.7521134767 2.4373666175 -0.1831170718
| 33> H 3.2881270026 0.957660147 -1.0636818005
| 34> H 3.5476147105 -2.1592935584 2.2472385403
| 35> H 3.6386351817 -2.6027435964 0.5210087415
| 36> H 5.8463937976 -2.9311026144 1.642997447
| 37> H 5.9507503173 -1.663682856 0.4096351688
| 38> H 5.859933644 -1.2256206068 2.1200649291
| 39> H -0.029400819 -2.2287971141 1.2288435964
| 40> H -0.8233195017 -2.4070681052 -0.3824858651
| 41> H -0.9697200297 3.4361949284 -1.5778351226
| 42> H -2.6769961013 3.0224311841 -1.2531732028
| 43> H -0.3997510548 2.6139912339 0.7543037361
| 44> H -1.5265594005 3.9797980361 0.7700322452
| 45> H -2.1192281993 2.3359807013 1.0466413114
| 46> H -5.6047324097 0.6185518033 -0.8975201336
| 47> H -4.7956463955 -0.5900898227 -1.9406283516
| 48> H -4.6973248191 -0.6311578004 1.1163321635
| 49> H -5.7901537518 -1.6202614094 0.1307235287
| 50> H -4.0409413345 -1.8523714602 0.0167946211
| 51> *
| 52>
| 53>                          ****END OF INPUT****

CARTESIAN COORDINATES (ANGSTROEM)
---------------------------------
  C      1.984863    2.646592   -1.420678
  C      2.912424    1.838203   -0.538373
  O      2.202185    1.412347    0.658120
  P      2.092385   -0.103166    1.072309
  S      1.324945   -0.373224    2.847248
  O      3.605500   -0.577199    0.916319
  C      4.007040   -1.911424    1.284593
  C      5.519757   -1.933283    1.369406
  S      1.118240   -1.092733   -0.561498
  C     -0.337192   -1.724891    0.314498
  S     -1.498261   -0.437504    0.820742
  P     -2.144311    0.157657   -1.129079
  S     -1.981544   -1.208065   -2.520823
  O     -1.330925    1.467129   -1.486546
  C     -1.639560    2.796849   -1.000955
  C     -1.404506    2.938395    0.488818
  O     -3.607269    0.737271   -0.900378
  C     -4.780539   -0.092966   -0.965858
  C     -4.830236   -1.114383    0.151566
  H      1.157248    2.029262   -1.763490
  H      1.594309    3.497470   -0.869518
  H      2.540077    3.001951   -2.283138
  H      3.752113    2.437367   -0.183117
  H      3.288127    0.957660   -1.063682
  H      3.547615   -2.159294    2.247239
  H      3.638635   -2.602744    0.521009
  H      5.846394   -2.931103    1.642997
  H      5.950750   -1.663683    0.409635
  H      5.859934   -1.225621    2.120065
  H     -0.029401   -2.228797    1.228844
  H     -0.823320   -2.407068   -0.382486
  H     -0.969720    3.436195   -1.577835
  H     -2.676996    3.022431   -1.253173
  H     -0.399751    2.613991    0.754304
  H     -1.526559    3.979798    0.770032
  H     -2.119228    2.335981    1.046641
  H     -5.604732    0.618552   -0.897520
  H     -4.795646   -0.590090   -1.940628
  H     -4.697325   -0.631158    1.116332
  H     -5.790154   -1.620261    0.130724
  H     -4.040941   -1.852371    0.016795

 Total Charge           Charge          ....    0
 Multiplicity           Mult            ....    1
 Number of Electrons    NEL             ....  202
 Basis Dimension        Dim             ....  539

ORBITAL ENERGIES
----------------

  NO   OCC          E(Eh)            E(eV)
   0   2.0000     -88.577318     -2410.3113
   1   2.0000     -88.573974     -2410.2204
   2   2.0000     -88.531310     -2409.0594
   3   2.0000     -88.528251     -2408.9762
   4   2.0000     -76.919852     -2093.0956
   5   2.0000     -76.918884     -2093.0693
   6   2.0000     -18.996842      -516.9304
   7   2.0000     -18.995660      -516.8982
   8   2.0000     -18.993175      -516.8306
   9   2.0000     -18.991808      -516.7934
  10   2.0000     -10.102541      -274.9041
  11   2.0000     -10.094414      -274.6830
  12   2.0000     -10.091114      -274.5932
  13   2.0000     -10.090456      -274.5753
  14   2.0000     -10.089380      -274.5460
  15   2.0000     -10.019507      -272.6446
  16   2.0000     -10.019316      -272.6394
  17   2.0000     -10.019002      -272.6309
  18   2.0000     -10.018005      -272.6038
  19   2.0000      -7.871270      -214.1882
  20   2.0000      -7.868187      -214.1043
  21   2.0000      -7.826486      -212.9695
  22   2.0000      -7.823484      -212.8878
  23   2.0000      -6.598448      -179.5529
  24   2.0000      -6.597267      -179.5208
  25   2.0000      -5.818193      -158.3211
  26   2.0000      -5.815180      -158.2391
  27   2.0000      -5.815083      -158.2365
  28   2.0000      -5.812030      -158.1534
  29   2.0000      -5.808481      -158.0568
  30   2.0000      -5.805229      -157.9683
  31   2.0000      -5.774167      -157.1231
  32   2.0000      -5.771090      -157.0393
  33   2.0000      -5.766698      -156.9198
  34   2.0000      -5.766441      -156.9128
  35   2.0000      -5.763731      -156.8391
  36   2.0000      -5.763475      -156.8321
  37   2.0000      -4.744100      -129.0935
  38   2.0000      -4.743319      -129.0723
  39   2.0000      -4.743234      -129.0700
  40   2.0000      -4.742134      -129.0400
  41   2.0000      -4.741838      -129.0320
  42   2.0000      -4.740979      -129.0086
  43   2.0000      -1.054750       -28.7012
  44   2.0000      -1.052821       -28.6487
  45   2.0000      -1.011553       -27.5258
  46   2.0000      -1.010187       -27.4886
  47   2.0000      -0.800048       -21.7704
  48   2.0000      -0.755079       -20.5467
  49   2.0000      -0.745936       -20.2979
  50   2.0000      -0.726748       -19.7758
  51   2.0000      -0.725906       -19.7529
  52   2.0000      -0.709030       -19.2937
  53   2.0000      -0.688506       -18.7352
  54   2.0000      -0.674775       -18.3616
  55   2.0000      -0.627342       -17.0708
  56   2.0000      -0.611742       -16.6464
  57   2.0000      -0.605579       -16.4786
  58   2.0000      -0.599335       -16.3087
  59   2.0000      -0.589027       -16.0282
  60   2.0000      -0.532909       -14.5012
  61   2.0000      -0.516530       -14.0555
  62   2.0000      -0.496696       -13.5158
  63   2.0000      -0.485311       -13.2060
  64   2.0000      -0.478831       -13.0297
  65   2.0000      -0.464182       -12.6310
  66   2.0000      -0.456261       -12.4155
  67   2.0000      -0.446109       -12.1392
  68   2.0000      -0.441779       -12.0214
  69   2.0000      -0.434084       -11.8120
  70   2.0000      -0.424468       -11.5504
  71   2.0000      -0.412017       -11.2116
  72   2.0000      -0.397166       -10.8074
  73   2.0000      -0.393223       -10.7001
  74   2.0000      -0.390922       -10.6375
  75   2.0000      -0.386396       -10.5144
  76   2.0000      -0.382180       -10.3996
  77   2.0000      -0.369424       -10.0525
  78   2.0000      -0.364100        -9.9077
  79   2.0000      -0.358676        -9.7601
  80   2.0000      -0.356937        -9.7127
  81   2.0000      -0.354911        -9.6576
  82   2.0000      -0.349626        -9.5138
  83   2.0000      -0.347896        -9.4667
  84   2.0000      -0.344728        -9.3805
  85   2.0000      -0.331565        -9.0223
  86   2.0000      -0.318406        -8.6643
  87   2.0000      -0.316172        -8.6035
  88   2.0000      -0.310459        -8.4480
  89   2.0000      -0.306613        -8.3434
  90   2.0000      -0.304308        -8.2806
  91   2.0000      -0.290608        -7.9079
  92   2.0000      -0.283761        -7.7215
  93   2.0000      -0.277332        -7.5466
  94   2.0000      -0.272136        -7.4052
  95   2.0000      -0.250772        -6.8239
  96   2.0000      -0.238416        -6.4876
  97   2.0000      -0.234095        -6.3701
  98   2.0000      -0.226877        -6.1736
  99   2.0000      -0.224588        -6.1114
 100   2.0000      -0.214603        -5.8396
 101   0.0000      -0.050536        -1.3752
 102   0.0000      -0.036146        -0.9836
 103   0.0000      -0.006946        -0.1890
 104   0.0000      -0.004263        -0.1160
 105   0.0000       0.008029         0.2185

MULLIKEN ATOMIC CHARGES
-----------------------
   0 C :   -0.516455
   1 C :   -0.095959
   2 O :   -0.315643
   3 P :    0.684016
   4 S :   -0.489644
   5 O :   -0.292681
   6 C :   -0.136839
   7 C :   -0.480102
   8 S :   -0.184140
   9 C :   -0.248778
  10 S :   -0.128787
  11 P :    0.684661
  12 S :   -0.510146
  13 O :   -0.308838
  14 C :   -0.095925
  15 C :   -0.527106
  16 O :   -0.319958
  17 C :   -0.162270
  18 C :   -0.472060
  19 H :    0.174847
  20 H :    0.172761
  21 H :    0.170522
  22 H :    0.180659
  23 H :    0.170881
  24 H :    0.169613
  25 H :    0.168966
  26 H :    0.168983
  27 H :    0.165328
  28 H :    0.165740
  29 H :    0.232495
  30 H :    0.232629
  31 H :    0.180755
  32 H :    0.177993
  33 H :    0.179455
  34 H :    0.175380
  35 H :    0.165220
  36 H :    0.175241
  37 H :    0.178763
  38 H :    0.167147
  39 H :    0.171614
  40 H :    0.171665
Sum of atomic charges:    0.0000000

LOEWDIN ATOMIC CHARGES
----------------------
   0 C :   -0.394942
   1 C :    0.032561
   2 O :   -0.668370
   3 P :    0.385124
   4 S :   -0.129010
   5 O :   -0.692113
   6 C :    0.022742
   7 C :   -0.389291
   8 S :    0.127778
   9 C :   -0.425386
  10 S :    0.135015
  11 P :    0.394581
  12 S :   -0.147223
  13 O :   -0.681252
  14 C :    0.032458
  15 C :   -0.407815
  16 O :   -0.682605
  17 C :    0.027791
  18 C :   -0.410935
  19 H :    0.170214
  20 H :    0.166013
  21 H :    0.169490
  22 H :    0.190174
  23 H :    0.184544
  24 H :    0.180802
  25 H :    0.179238
  26 H :    0.168751
  27 H :    0.162925
  28 H :    0.162891
  29 H :    0.196956
  30 H :    0.197351
  31 H :    0.192705
  32 H :    0.186318
  33 H :    0.166372
  34 H :    0.169297
  35 H :    0.161093
  36 H :    0.191124
  37 H :    0.181613
  38 H :    0.163667
  39 H :    0.167916
  40 H :    0.161436

  Mayer bond orders larger than 0.100000
B(  0-C ,  1-C ) :   0.9465 B(  0-C , 19-H ) :   0.9594 B(  0-C , 20-H ) :   0.9621
B(  0-C , 21-H ) :   0.9572 B(  1-C ,  2-O ) :   0.7082 B(  1-C , 22-H ) :   0.9421
B(  1-C , 23-H ) :   0.9607 B(  2-O ,  3-P ) :   1.1766 B(  3-P ,  4-S ) :   1.7973
B(  3-P ,  5-O ) :   1.0720 B(  3-P ,  8-S ) :   0.9841 B(  5-O ,  6-C ) :   0.7809
B(  6-C ,  7-C ) :   0.9513 B(  6-C , 24-H ) :   0.9470 B(  6-C , 25-H ) :   0.9322
B(  7-C , 26-H ) :   0.9589 B(  7-C , 27-H ) :   0.9679 B(  7-C , 28-H ) :   0.9703
B(  8-S ,  9-C ) :   0.8831 B(  9-C , 10-S ) :   0.8962 B(  9-C , 29-H ) :   0.9079
B(  9-C , 30-H ) :   0.9052 B( 10-S , 11-P ) :   1.0182 B( 11-P , 12-S ) :   1.7808
B( 11-P , 13-O ) :   1.1385 B( 11-P , 16-O ) :   1.0577 B( 13-O , 14-C ) :   0.7535
B( 14-C , 15-C ) :   0.8917 B( 14-C , 31-H ) :   0.9508 B( 14-C , 32-H ) :   0.9546
B( 15-C , 33-H ) :   0.9664 B( 15-C , 34-H ) :   0.9594 B( 15-C , 35-H ) :   0.9595
B( 16-O , 17-C ) :   0.8071 B( 17-C , 18-C ) :   0.9084 B( 17-C , 36-H ) :   0.9505
B( 17-C , 37-H ) :   0.9664 B( 18-C , 38-H ) :   0.9644 B( 18-C , 39-H ) :   0.9518
B( 18-C , 40-H ) :   0.9657

Dispersion correction           -0.021655638
FINAL SINGLE POINT ENERGY     -2932.472146248919

DIPOLE MOMENT
-------------

Method             : SCF
Type of density    : Electron Density
Multiplicity       :   1
Irrep              :   0
Energy             : -2932.4967482361425937 Eh
Relativity type    :
Basis              : AO
                                X                 Y                 Z
Electronic contribution:     -3.403255179      -6.971756662      -0.098543398
Nuclear contribution   :      3.561854961       7.609099930      -0.175251389
                        -----------------------------------------
Total Dipole Moment    :      0.158599782       0.637343269      -0.273794786
                        -----------------------------------------
Magnitude (a.u.)       :      0.711564416
Magnitude (Debye)      :      1.808653010

Rotational constants in cm-1:             0.013138             0.004837             0.004491
Rotational constants in MHz :           393.876867           144.994873           134.622080

                             ****ORCA TERMINATED NORMALLY****
TOTAL RUN TIME: 0 days 0 hours 1 minutes 50 seconds 346 msec
