                         Program Version 6.0.0  -   RELEASE  -
|  1> ! pbe def2-sv(p) def2/J RI DEFGRID1 loosescf d4 GCP(DFT/SV(P)) printgap
|  2> %output
|  3>     printlevel normal
|  4> end
|  5> * xyz 0 1
|  6> C 5.7014266735 -0.2571964418 0.4469652001
|  7> C 4.396287972 -0.6419774843 -0.219876118
|  8> O 3.3420525932 0.1246862959 0.3945162728
|  9> P 1.902964673 0.2401944153 -0.2718447981
| 10> S 1.9304186983 0.7131928783 -2.1789799542
| 11> O 1.1866642621 1.2274382249 0.7325900588
| 12> C 1.2037345002 2.6562041945 0.551274652
| 13> C 2.59150595 3.2308266424 0.7334928857
| 14> S 1.0654688096 -1.6246413867 0.2174444292
| 15> C -0.136897544 -1.8373418986 -1.1383217625
| 16> S -1.8370682013 -1.9862405127 -0.5494353378
| 17> P -2.0988012561 0.0238726515 0.0898789862
| 18> S -1.5197838169 1.3869140134 -1.1890639023
| 19> O -1.3790700807 0.1451911076 1.4842967395
| 20> C -1.7100556902 -0.7084866034 2.6140535769
| 21> C -0.5271475884 -0.7085974611 3.5588097207
| 22> O -3.6281267356 0.0972935079 0.5137434442
| 23> C -4.7021610524 0.2784179999 -0.4282318397
| 24> C -5.1926112572 -1.0458454201 -0.9788737171
| 25> H 5.9062636601 0.7980739542 0.2905993781
| 26> H 5.6413986231 -0.4501706396 1.5139953421
| 27> H 6.5060673978 -0.8454543022 0.0184379178
| 28> H 4.1742381022 -1.7034595449 -0.07894734
| 29> H 4.4080948201 -0.418998724 -1.2922224425
| 30> H 0.8105997636 2.8847853893 -0.4454456914
| 31> H 0.5037224517 3.0203717149 1.3049904635
| 32> H 3.2441816678 2.8744204507 -0.0626388992
| 33> H 2.5391165622 4.3141872275 0.6889000542
| 34> H 3.0014521071 2.9227454627 1.6916764841
| 35> H 0.0903623374 -2.7719111367 -1.6445171266
| 36> H -0.0482254984 -0.9873807317 -1.8209927712
| 37> H -2.6050504922 -0.2961446571 3.082914386
| 38> H -1.9251693892 -1.7142585783 2.2412574295
| 39> H -0.3031644873 0.3056727486 3.8767153759
| 40> H -0.7667067573 -1.3151901577 4.426139047
| 41> H 0.3492280906 -1.1197388859 3.0637691962
| 42> H -5.4802136032 0.7796714879 0.1502380347
| 43> H -4.3577653227 0.9408281585 -1.2291169081
| 44> H -4.4243055007 -1.5171437136 -1.5872809752
| 45> H -5.4522174953 -1.715337068 -0.1637017439
| 46> H -6.0704035654 -0.8693475824 -1.5922189512
| 47> *
| 48>
| 49>                          ****END OF INPUT****

CARTESIAN COORDINATES (ANGSTROEM)
---------------------------------
  C      5.701427   -0.257196    0.446965
  C      4.396288   -0.641977   -0.219876
  O      3.342053    0.124686    0.394516
  P      1.902965    0.240194   -0.271845
  S      1.930419    0.713193   -2.178980
  O      1.186664    1.227438    0.732590
  C      1.203735    2.656204    0.551275
  C      2.591506    3.230827    0.733493
  S      1.065469   -1.624641    0.217444
  C     -0.136898   -1.837342   -1.138322
  S     -1.837068   -1.986241   -0.549435
  P     -2.098801    0.023873    0.089879
  S     -1.519784    1.386914   -1.189064
  O     -1.379070    0.145191    1.484297
  C     -1.710056   -0.708487    2.614054
  C     -0.527148   -0.708597    3.558810
  O     -3.628127    0.097294    0.513743
  C     -4.702161    0.278418   -0.428232
  C     -5.192611   -1.045845   -0.978874
  H      5.906264    0.798074    0.290599
  H      5.641399   -0.450171    1.513995
  H      6.506067   -0.845454    0.018438
  H      4.174238   -1.703460   -0.078947
  H      4.408095   -0.418999   -1.292222
  H      0.810600    2.884785   -0.445446
  H      0.503722    3.020372    1.304990
  H      3.244182    2.874420   -0.062639
  H      2.539117    4.314187    0.688900
  H      3.001452    2.922745    1.691676
  H      0.090362   -2.771911   -1.644517
  H     -0.048225   -0.987381   -1.820993
  H     -2.605050   -0.296145    3.082914
  H     -1.925169   -1.714259    2.241257
  H     -0.303164    0.305673    3.876715
  H     -0.766707   -1.315190    4.426139
  H      0.349228   -1.119739    3.063769
  H     -5.480214    0.779671    0.150238
  H     -4.357765    0.940828   -1.229117
  H     -4.424306   -1.517144   -1.587281
  H     -5.452217   -1.715337   -0.163702
  H     -6.070404   -0.869348   -1.592219

 Total Charge           Charge          ....    0
 Multiplicity           Mult            ....    1
 Number of Electrons    NEL             ....  202
 Basis Dimension        Dim             ....  334

ORBITAL ENERGIES
----------------

  NO   OCC          E(Eh)            E(eV)
   0   2.0000     -88.044353     -2395.8086
   1   2.0000     -88.041333     -2395.7265
   2   2.0000     -87.981133     -2394.0883
   3   2.0000     -87.980165     -2394.0620
   4   2.0000     -76.423291     -2079.5835
   5   2.0000     -76.420238     -2079.5004
   6   2.0000     -18.794467      -511.4234
   7   2.0000     -18.788687      -511.2662
   8   2.0000     -18.788301      -511.2557
   9   2.0000     -18.780737      -511.0498
  10   2.0000      -9.954485      -270.8753
  11   2.0000      -9.953478      -270.8479
  12   2.0000      -9.951683      -270.7991
  13   2.0000      -9.948407      -270.7099
  14   2.0000      -9.938930      -270.4520
  15   2.0000      -9.886428      -269.0234
  16   2.0000      -9.886187      -269.0168
  17   2.0000      -9.882329      -268.9119
  18   2.0000      -9.875709      -268.7317
  19   2.0000      -7.689390      -209.2389
  20   2.0000      -7.686516      -209.1607
  21   2.0000      -7.626109      -207.5170
  22   2.0000      -7.625087      -207.4892
  23   2.0000      -6.420987      -174.7239
  24   2.0000      -6.417907      -174.6401
  25   2.0000      -5.717140      -155.5713
  26   2.0000      -5.714358      -155.4956
  27   2.0000      -5.713697      -155.4776
  28   2.0000      -5.710984      -155.4038
  29   2.0000      -5.706674      -155.2865
  30   2.0000      -5.703490      -155.1999
  31   2.0000      -5.655118      -153.8836
  32   2.0000      -5.653965      -153.8522
  33   2.0000      -5.646603      -153.6519
  34   2.0000      -5.646267      -153.6427
  35   2.0000      -5.645884      -153.6323
  36   2.0000      -5.645128      -153.6117
  37   2.0000      -4.643840      -126.3653
  38   2.0000      -4.642778      -126.3364
  39   2.0000      -4.641130      -126.2916
  40   2.0000      -4.640172      -126.2655
  41   2.0000      -4.639612      -126.2503
  42   2.0000      -4.638662      -126.2244
  43   2.0000      -0.987447       -26.8698
  44   2.0000      -0.981059       -26.6960
  45   2.0000      -0.943221       -25.6663
  46   2.0000      -0.938503       -25.5380
  47   2.0000      -0.762261       -20.7422
  48   2.0000      -0.719959       -19.5911
  49   2.0000      -0.708532       -19.2801
  50   2.0000      -0.689154       -18.7528
  51   2.0000      -0.683320       -18.5941
  52   2.0000      -0.672471       -18.2989
  53   2.0000      -0.646621       -17.5955
  54   2.0000      -0.630798       -17.1649
  55   2.0000      -0.596870       -16.2417
  56   2.0000      -0.588047       -16.0016
  57   2.0000      -0.568065       -15.4578
  58   2.0000      -0.564024       -15.3479
  59   2.0000      -0.557559       -15.1720
  60   2.0000      -0.505545       -13.7566
  61   2.0000      -0.497965       -13.5503
  62   2.0000      -0.478214       -13.0129
  63   2.0000      -0.468405       -12.7459
  64   2.0000      -0.451368       -12.2823
  65   2.0000      -0.446868       -12.1599
  66   2.0000      -0.435165       -11.8415
  67   2.0000      -0.433473       -11.7954
  68   2.0000      -0.427061       -11.6209
  69   2.0000      -0.414432       -11.2773
  70   2.0000      -0.409016       -11.1299
  71   2.0000      -0.393541       -10.7088
  72   2.0000      -0.389700       -10.6043
  73   2.0000      -0.380758       -10.3609
  74   2.0000      -0.378217       -10.2918
  75   2.0000      -0.369758       -10.0616
  76   2.0000      -0.362904        -9.8751
  77   2.0000      -0.356730        -9.7071
  78   2.0000      -0.353710        -9.6249
  79   2.0000      -0.353060        -9.6073
  80   2.0000      -0.342956        -9.3323
  81   2.0000      -0.339591        -9.2407
  82   2.0000      -0.338210        -9.2032
  83   2.0000      -0.334885        -9.1127
  84   2.0000      -0.330582        -8.9956
  85   2.0000      -0.315935        -8.5970
  86   2.0000      -0.307536        -8.3685
  87   2.0000      -0.300919        -8.1884
  88   2.0000      -0.296599        -8.0709
  89   2.0000      -0.291989        -7.9454
  90   2.0000      -0.275930        -7.5084
  91   2.0000      -0.269524        -7.3341
  92   2.0000      -0.263933        -7.1820
  93   2.0000      -0.261226        -7.1083
  94   2.0000      -0.256800        -6.9879
  95   2.0000      -0.237607        -6.4656
  96   2.0000      -0.221241        -6.0203
  97   2.0000      -0.213879        -5.8199
  98   2.0000      -0.202020        -5.4972
  99   2.0000      -0.191864        -5.2209
 100   2.0000      -0.184615        -5.0236
 101   0.0000      -0.038097        -1.0367
 102   0.0000      -0.028347        -0.7714
 103   0.0000      -0.008209        -0.2234
 104   0.0000       0.012455         0.3389
 105   0.0000       0.024832         0.6757

MULLIKEN ATOMIC CHARGES
-----------------------
   0 C :   -0.280236
   1 C :   -0.009622
   2 O :   -0.379173
   3 P :    0.613612
   4 S :   -0.320762
   5 O :   -0.349795
   6 C :   -0.003689
   7 C :   -0.302190
   8 S :   -0.104158
   9 C :   -0.357684
  10 S :   -0.106525
  11 P :    0.598152
  12 S :   -0.295371
  13 O :   -0.346953
  14 C :   -0.011838
  15 C :   -0.277747
  16 O :   -0.382645
  17 C :   -0.005463
  18 C :   -0.311076
  19 H :    0.119707
  20 H :    0.115181
  21 H :    0.110898
  22 H :    0.098096
  23 H :    0.103668
  24 H :    0.123912
  25 H :    0.101706
  26 H :    0.120358
  27 H :    0.109071
  28 H :    0.111851
  29 H :    0.182655
  30 H :    0.211848
  31 H :    0.106044
  32 H :    0.099953
  33 H :    0.116475
  34 H :    0.105037
  35 H :    0.125443
  36 H :    0.106151
  37 H :    0.107969
  38 H :    0.129629
  39 H :    0.113657
  40 H :    0.113857
Sum of atomic charges:    0.0000000

LOEWDIN ATOMIC CHARGES
----------------------
   0 C :   -0.350272
   1 C :   -0.123111
   2 O :   -0.248918
   3 P :    0.568346
   4 S :   -0.314203
   5 O :   -0.227231
   6 C :   -0.118518
   7 C :   -0.366017
   8 S :    0.080089
   9 C :   -0.480031
  10 S :    0.073790
  11 P :    0.560867
  12 S :   -0.288349
  13 O :   -0.229717
  14 C :   -0.115781
  15 C :   -0.352169
  16 O :   -0.248761
  17 C :   -0.117789
  18 C :   -0.367479
  19 H :    0.127837
  20 H :    0.126328
  21 H :    0.130244
  22 H :    0.106762
  23 H :    0.107159
  24 H :    0.109876
  25 H :    0.118004
  26 H :    0.120587
  27 H :    0.129140
  28 H :    0.123691
  29 H :    0.137666
  30 H :    0.127361
  31 H :    0.114139
  32 H :    0.102145
  33 H :    0.127792
  34 H :    0.127626
  35 H :    0.122823
  36 H :    0.119169
  37 H :    0.109711
  38 H :    0.120249
  39 H :    0.124965
  40 H :    0.131977

  Mayer bond orders larger than 0.100000
B(  0-C ,  1-C ) :   1.1591 B(  0-C , 19-H ) :   0.9519 B(  0-C , 20-H ) :   0.9504
B(  0-C , 21-H ) :   0.9423 B(  1-C ,  2-O ) :   0.9078 B(  1-C , 22-H ) :   0.9266
B(  1-C , 23-H ) :   0.9090 B(  2-O ,  3-P ) :   1.0924 B(  3-P ,  4-S ) :   1.6077
B(  3-P ,  5-O ) :   1.1554 B(  3-P ,  8-S ) :   0.9605 B(  4-S ,  8-S ) :   0.1154
B(  5-O ,  6-C ) :   0.8999 B(  6-C ,  7-C ) :   1.1584 B(  6-C , 24-H ) :   0.9124
B(  6-C , 25-H ) :   0.9354 B(  7-C , 26-H ) :   0.9358 B(  7-C , 27-H ) :   0.9391
B(  7-C , 28-H ) :   0.9450 B(  8-S ,  9-C ) :   0.9919 B(  9-C , 10-S ) :   1.0010
B(  9-C , 29-H ) :   0.9114 B(  9-C , 30-H ) :   0.8465 B( 10-S , 11-P ) :   0.9434
B( 10-S , 12-S ) :   0.1039 B( 11-P , 12-S ) :   1.6609 B( 11-P , 13-O ) :   1.1450
B( 11-P , 16-O ) :   1.0842 B( 13-O , 14-C ) :   0.8874 B( 14-C , 15-C ) :   1.1655
B( 14-C , 31-H ) :   0.9317 B( 14-C , 32-H ) :   0.9093 B( 15-C , 33-H ) :   0.9491
B( 15-C , 34-H ) :   0.9403 B( 15-C , 35-H ) :   0.9431 B( 16-O , 17-C ) :   0.9085
B( 17-C , 18-C ) :   1.1674 B( 17-C , 36-H ) :   0.9347 B( 17-C , 37-H ) :   0.9078
B( 18-C , 38-H ) :   0.9337 B( 18-C , 39-H ) :   0.9479 B( 18-C , 40-H ) :   0.9392

Dispersion correction           -0.066790212
FINAL SINGLE POINT ENERGY     -2929.522597048064

DIPOLE MOMENT
-------------

Method             : SCF
Type of density    : Electron Density
Multiplicity       :   1
Irrep              :   0
Energy             : -2929.6410952048404397 Eh
Relativity type    :
Basis              : AO
                                X                 Y                 Z
Electronic contribution:     -5.835309698      -3.409883011     -10.870717378
Nuclear contribution   :      5.564860080       2.754954453      11.979845257
                        -----------------------------------------
Total Dipole Moment    :     -0.270449618      -0.654928558       1.109127879
                        -----------------------------------------
Magnitude (a.u.)       :      1.316145533
Magnitude (Debye)      :      3.345376082

Rotational constants in cm-1:             0.013349             0.005047             0.004969
Rotational constants in MHz :           400.183736           151.306699           148.973705

                             ****ORCA TERMINATED NORMALLY****
TOTAL RUN TIME: 0 days 0 hours 0 minutes 21 seconds 445 msec
