                         Program Version 6.0.0  -   RELEASE  -
|  1> ! r2scan-3c def2/J RI DEFGRID2 scfconv6 printgap
|  2> %output
|  3>     printlevel normal
|  4> end
|  5> * xyz 0 1
|  6> C 5.2565072095 -2.1435087004 -1.6458652578
|  7> C 4.2085773253 -1.0512977674 -1.7201176599
|  8> O 3.1766849475 -1.3583211344 -0.7605345446
|  9> P 2.2047668085 -0.2416758716 -0.1784795834
| 10> S 3.1231319987 1.3928020863 0.4029390066
| 11> O 1.4302041994 -1.0742502951 0.9176611123
| 12> C 1.8347778592 -1.1114222363 2.3066600089
| 13> C 0.9513144026 -0.2035181677 3.1387381252
| 14> S 0.7463103243 -0.0424311265 -1.6880064942
| 15> C 0.1320410159 1.5956086256 -1.198184164
| 16> S -0.6032911537 1.6200770719 0.4563778026
| 17> P -2.1652573632 0.2554705856 0.0583750914
| 18> S -3.0106865555 0.3537120963 -1.7111346958
| 19> O -3.1511061655 0.4216836552 1.2931669525
| 20> C -4.2440873012 1.3568039791 1.2915551413
| 21> C -3.766677761 2.7941969418 1.3310907674
| 22> O -1.4441579996 -1.1056524166 0.426590196
| 23> C -1.8372016243 -2.3674983766 -0.1442836171
| 24> C -3.1716830765 -2.8326686116 0.3996231513
| 25> H 5.7019955711 -2.1681654392 -0.6553557852
| 26> H 4.8011438746 -3.1078803287 -1.851525317
| 27> H 6.0290856385 -1.9452670544 -2.381424669
| 28> H 3.7475705185 -1.005605257 -2.7101843247
| 29> H 4.6322850294 -0.0714353239 -1.4748350302
| 30> H 1.724588889 -2.1567458641 2.5991735434
| 31> H 2.8843115838 -0.8144165636 2.3852170565
| 32> H -0.0953352152 -0.4428637222 2.965881525
| 33> H 1.1856143959 -0.3402858734 4.1895144255
| 34> H 1.118565076 0.8369733266 2.8675508832
| 35> H -0.6157652867 1.8728849408 -1.9403679357
| 36> H 0.9585707105 2.3049311679 -1.1780729482
| 37> H -4.8501598899 1.1777419273 0.3976261682
| 38> H -4.812536374 1.0959704434 2.1852713042
| 39> H -3.259781902 3.0452838997 0.4003550781
| 40> H -4.6202463212 3.452836959 1.4555917157
| 41> H -3.073480076 2.9399096444 2.1557815329
| 42> H -1.8767566838 -2.2593763235 -1.2335266162
| 43> H -1.0243913326 -3.0428223225 0.1272504682
| 44> H -3.1461602555 -2.8622360985 1.4856751355
| 45> H -3.9563462214 -2.1456957868 0.0842160684
| 46> H -3.3932024973 -3.8228360915 0.0139689561
| 47> *
| 48>
| 49>                          ****END OF INPUT****

CARTESIAN COORDINATES (ANGSTROEM)
---------------------------------
  C      5.256507   -2.143509   -1.645865
  C      4.208577   -1.051298   -1.720118
  O      3.176685   -1.358321   -0.760535
  P      2.204767   -0.241676   -0.178480
  S      3.123132    1.392802    0.402939
  O      1.430204   -1.074250    0.917661
  C      1.834778   -1.111422    2.306660
  C      0.951314   -0.203518    3.138738
  S      0.746310   -0.042431   -1.688006
  C      0.132041    1.595609   -1.198184
  S     -0.603291    1.620077    0.456378
  P     -2.165257    0.255471    0.058375
  S     -3.010687    0.353712   -1.711135
  O     -3.151106    0.421684    1.293167
  C     -4.244087    1.356804    1.291555
  C     -3.766678    2.794197    1.331091
  O     -1.444158   -1.105652    0.426590
  C     -1.837202   -2.367498   -0.144284
  C     -3.171683   -2.832669    0.399623
  H      5.701996   -2.168165   -0.655356
  H      4.801144   -3.107880   -1.851525
  H      6.029086   -1.945267   -2.381425
  H      3.747571   -1.005605   -2.710184
  H      4.632285   -0.071435   -1.474835
  H      1.724589   -2.156746    2.599174
  H      2.884312   -0.814417    2.385217
  H     -0.095335   -0.442864    2.965882
  H      1.185614   -0.340286    4.189514
  H      1.118565    0.836973    2.867551
  H     -0.615765    1.872885   -1.940368
  H      0.958571    2.304931   -1.178073
  H     -4.850160    1.177742    0.397626
  H     -4.812536    1.095970    2.185271
  H     -3.259782    3.045284    0.400355
  H     -4.620246    3.452837    1.455592
  H     -3.073480    2.939910    2.155782
  H     -1.876757   -2.259376   -1.233527
  H     -1.024391   -3.042822    0.127250
  H     -3.146160   -2.862236    1.485675
  H     -3.956346   -2.145696    0.084216
  H     -3.393202   -3.822836    0.013969

 Total Charge           Charge          ....    0
 Multiplicity           Mult            ....    1
 Number of Electrons    NEL             ....  202
 Basis Dimension        Dim             ....  539

ORBITAL ENERGIES
----------------

  NO   OCC          E(Eh)            E(eV)
   0   2.0000     -88.574792     -2410.2426
   1   2.0000     -88.573651     -2410.2116
   2   2.0000     -88.521613     -2408.7956
   3   2.0000     -88.519131     -2408.7280
   4   2.0000     -76.912870     -2092.9056
   5   2.0000     -76.911752     -2092.8752
   6   2.0000     -18.993510      -516.8397
   7   2.0000     -18.989277      -516.7245
   8   2.0000     -18.985534      -516.6226
   9   2.0000     -18.984856      -516.6042
  10   2.0000     -10.105416      -274.9824
  11   2.0000     -10.099505      -274.8215
  12   2.0000     -10.096234      -274.7325
  13   2.0000     -10.096096      -274.7287
  14   2.0000     -10.093418      -274.6559
  15   2.0000     -10.031811      -272.9795
  16   2.0000     -10.029161      -272.9074
  17   2.0000     -10.026711      -272.8407
  18   2.0000     -10.020891      -272.6823
  19   2.0000      -7.869051      -214.1278
  20   2.0000      -7.868149      -214.1032
  21   2.0000      -7.816365      -212.6941
  22   2.0000      -7.813985      -212.6293
  23   2.0000      -6.591486      -179.3634
  24   2.0000      -6.590270      -179.3304
  25   2.0000      -5.815950      -158.2600
  26   2.0000      -5.815040      -158.2353
  27   2.0000      -5.812934      -158.1780
  28   2.0000      -5.812063      -158.1543
  29   2.0000      -5.806132      -157.9929
  30   2.0000      -5.805146      -157.9660
  31   2.0000      -5.763952      -156.8451
  32   2.0000      -5.761570      -156.7803
  33   2.0000      -5.756642      -156.6462
  34   2.0000      -5.756434      -156.6405
  35   2.0000      -5.754347      -156.5838
  36   2.0000      -5.753956      -156.5731
  37   2.0000      -4.736826      -128.8956
  38   2.0000      -4.736349      -128.8826
  39   2.0000      -4.735647      -128.8635
  40   2.0000      -4.735416      -128.8572
  41   2.0000      -4.735179      -128.8508
  42   2.0000      -4.734137      -128.8224
  43   2.0000      -1.049049       -28.5461
  44   2.0000      -1.046134       -28.4667
  45   2.0000      -1.009636       -27.4736
  46   2.0000      -1.006208       -27.3803
  47   2.0000      -0.802103       -21.8263
  48   2.0000      -0.758024       -20.6269
  49   2.0000      -0.747750       -20.3473
  50   2.0000      -0.730090       -19.8668
  51   2.0000      -0.728489       -19.8232
  52   2.0000      -0.708780       -19.2869
  53   2.0000      -0.684285       -18.6203
  54   2.0000      -0.668758       -18.1978
  55   2.0000      -0.633348       -17.2343
  56   2.0000      -0.621399       -16.9091
  57   2.0000      -0.603891       -16.4327
  58   2.0000      -0.600851       -16.3500
  59   2.0000      -0.588858       -16.0236
  60   2.0000      -0.530512       -14.4360
  61   2.0000      -0.517066       -14.0701
  62   2.0000      -0.492832       -13.4106
  63   2.0000      -0.491677       -13.3792
  64   2.0000      -0.473746       -12.8913
  65   2.0000      -0.459420       -12.5015
  66   2.0000      -0.457711       -12.4550
  67   2.0000      -0.450962       -12.2713
  68   2.0000      -0.447355       -12.1732
  69   2.0000      -0.431518       -11.7422
  70   2.0000      -0.423724       -11.5301
  71   2.0000      -0.408636       -11.1195
  72   2.0000      -0.404213       -10.9992
  73   2.0000      -0.400161       -10.8889
  74   2.0000      -0.396385       -10.7862
  75   2.0000      -0.390862       -10.6359
  76   2.0000      -0.385301       -10.4846
  77   2.0000      -0.372815       -10.1448
  78   2.0000      -0.367498       -10.0001
  79   2.0000      -0.365763        -9.9529
  80   2.0000      -0.361473        -9.8362
  81   2.0000      -0.360135        -9.7998
  82   2.0000      -0.355582        -9.6759
  83   2.0000      -0.351785        -9.5726
  84   2.0000      -0.347510        -9.4562
  85   2.0000      -0.332339        -9.0434
  86   2.0000      -0.316140        -8.6026
  87   2.0000      -0.313443        -8.5292
  88   2.0000      -0.309841        -8.4312
  89   2.0000      -0.303456        -8.2575
  90   2.0000      -0.296069        -8.0564
  91   2.0000      -0.291622        -7.9354
  92   2.0000      -0.279700        -7.6110
  93   2.0000      -0.278226        -7.5709
  94   2.0000      -0.273960        -7.4548
  95   2.0000      -0.244064        -6.6413
  96   2.0000      -0.229446        -6.2435
  97   2.0000      -0.227460        -6.1895
  98   2.0000      -0.220686        -6.0052
  99   2.0000      -0.213628        -5.8131
 100   2.0000      -0.211926        -5.7668
 101   0.0000      -0.046814        -1.2739
 102   0.0000      -0.024665        -0.6712
 103   0.0000       0.001303         0.0355
 104   0.0000       0.003408         0.0927
 105   0.0000       0.011546         0.3142

MULLIKEN ATOMIC CHARGES
-----------------------
   0 C :   -0.444336
   1 C :   -0.149901
   2 O :   -0.283689
   3 P :    0.697766
   4 S :   -0.487118
   5 O :   -0.261348
   6 C :   -0.121916
   7 C :   -0.472887
   8 S :   -0.139284
   9 C :   -0.244429
  10 S :   -0.109564
  11 P :    0.692654
  12 S :   -0.486958
  13 O :   -0.304668
  14 C :   -0.153817
  15 C :   -0.450648
  16 O :   -0.257450
  17 C :   -0.162800
  18 C :   -0.442205
  19 H :    0.156035
  20 H :    0.153228
  21 H :    0.146318
  22 H :    0.150892
  23 H :    0.170094
  24 H :    0.146794
  25 H :    0.158454
  26 H :    0.164374
  27 H :    0.140962
  28 H :    0.177985
  29 H :    0.207916
  30 H :    0.209146
  31 H :    0.172112
  32 H :    0.148532
  33 H :    0.176712
  34 H :    0.148330
  35 H :    0.155995
  36 H :    0.173891
  37 H :    0.158051
  38 H :    0.153725
  39 H :    0.166449
  40 H :    0.146602
Sum of atomic charges:    0.0000000

LOEWDIN ATOMIC CHARGES
----------------------
   0 C :   -0.386535
   1 C :    0.018892
   2 O :   -0.664919
   3 P :    0.375904
   4 S :   -0.135077
   5 O :   -0.659078
   6 C :    0.027986
   7 C :   -0.403796
   8 S :    0.179147
   9 C :   -0.418244
  10 S :    0.178945
  11 P :    0.378567
  12 S :   -0.131037
  13 O :   -0.660270
  14 C :    0.019862
  15 C :   -0.406917
  16 O :   -0.674220
  17 C :    0.017732
  18 C :   -0.399405
  19 H :    0.160342
  20 H :    0.159442
  21 H :    0.159688
  22 H :    0.171371
  23 H :    0.180681
  24 H :    0.176755
  25 H :    0.177346
  26 H :    0.164088
  27 H :    0.155749
  28 H :    0.166734
  29 H :    0.189147
  30 H :    0.190475
  31 H :    0.179563
  32 H :    0.179547
  33 H :    0.165495
  34 H :    0.159360
  35 H :    0.160558
  36 H :    0.181440
  37 H :    0.181961
  38 H :    0.159535
  39 H :    0.164121
  40 H :    0.159071

  Mayer bond orders larger than 0.100000
B(  0-C ,  1-C ) :   0.9580 B(  0-C , 19-H ) :   0.9726 B(  0-C , 20-H ) :   0.9718
B(  0-C , 21-H ) :   0.9647 B(  1-C ,  2-O ) :   0.7777 B(  1-C , 22-H ) :   0.9448
B(  1-C , 23-H ) :   0.9517 B(  2-O ,  3-P ) :   1.0893 B(  3-P ,  4-S ) :   1.7371
B(  3-P ,  5-O ) :   1.1834 B(  3-P ,  8-S ) :   1.0663 B(  5-O ,  6-C ) :   0.7590
B(  6-C ,  7-C ) :   0.9455 B(  6-C , 24-H ) :   0.9606 B(  6-C , 25-H ) :   0.9652
B(  7-C , 26-H ) :   0.9684 B(  7-C , 27-H ) :   0.9632 B(  7-C , 28-H ) :   0.9629
B(  8-S ,  9-C ) :   0.9055 B(  9-C , 10-S ) :   0.9035 B(  9-C , 29-H ) :   0.9109
B(  9-C , 30-H ) :   0.9097 B( 10-S , 11-P ) :   1.0862 B( 11-P , 12-S ) :   1.7443
B( 11-P , 13-O ) :   1.0622 B( 11-P , 16-O ) :   1.1392 B( 13-O , 14-C ) :   0.8133
B( 14-C , 15-C ) :   0.9230 B( 14-C , 31-H ) :   0.9675 B( 14-C , 32-H ) :   0.9583
B( 15-C , 33-H ) :   0.9627 B( 15-C , 34-H ) :   0.9587 B( 15-C , 35-H ) :   0.9685
B( 16-O , 17-C ) :   0.7872 B( 17-C , 18-C ) :   0.9201 B( 17-C , 36-H ) :   0.9637
B( 17-C , 37-H ) :   0.9635 B( 18-C , 38-H ) :   0.9729 B( 18-C , 39-H ) :   0.9613
B( 18-C , 40-H ) :   0.9634

Dispersion correction           -0.021771608
FINAL SINGLE POINT ENERGY     -2932.465329381099

DIPOLE MOMENT
-------------

Method             : SCF
Type of density    : Electron Density
Multiplicity       :   1
Irrep              :   0
Energy             : -2932.4898604127047292 Eh
Relativity type    :
Basis              : AO
                                X                 Y                 Z
Electronic contribution:      1.738898657       8.245493397      -8.908523627
Nuclear contribution   :     -1.862982168      -9.028968081       9.485069401
                        -----------------------------------------
Total Dipole Moment    :     -0.124083511      -0.783474685       0.576545774
                        -----------------------------------------
Magnitude (a.u.)       :      0.980629557
Magnitude (Debye)      :      2.492562248

Rotational constants in cm-1:             0.013128             0.004948             0.004774
Rotational constants in MHz :           393.576299           148.338853           143.127771

                             ****ORCA TERMINATED NORMALLY****
TOTAL RUN TIME: 0 days 0 hours 1 minutes 26 seconds 626 msec
