                         Program Version 6.0.0  -   RELEASE  -
|  1> ! r2scan-3c def2/J RI DEFGRID2 scfconv6 printgap
|  2> %output
|  3>     printlevel normal
|  4> end
|  5> %cpcm
|  6>     smd true
|  7>     smdsolvent "water"
|  8> end
|  9> * xyz 0 1
| 10> C 5.2565072095 -2.1435087004 -1.6458652578
| 11> C 4.2085773253 -1.0512977674 -1.7201176599
| 12> O 3.1766849475 -1.3583211344 -0.7605345446
| 13> P 2.2047668085 -0.2416758716 -0.1784795834
| 14> S 3.1231319987 1.3928020863 0.4029390066
| 15> O 1.4302041994 -1.0742502951 0.9176611123
| 16> C 1.8347778592 -1.1114222363 2.3066600089
| 17> C 0.9513144026 -0.2035181677 3.1387381252
| 18> S 0.7463103243 -0.0424311265 -1.6880064942
| 19> C 0.1320410159 1.5956086256 -1.198184164
| 20> S -0.6032911537 1.6200770719 0.4563778026
| 21> P -2.1652573632 0.2554705856 0.0583750914
| 22> S -3.0106865555 0.3537120963 -1.7111346958
| 23> O -3.1511061655 0.4216836552 1.2931669525
| 24> C -4.2440873012 1.3568039791 1.2915551413
| 25> C -3.766677761 2.7941969418 1.3310907674
| 26> O -1.4441579996 -1.1056524166 0.426590196
| 27> C -1.8372016243 -2.3674983766 -0.1442836171
| 28> C -3.1716830765 -2.8326686116 0.3996231513
| 29> H 5.7019955711 -2.1681654392 -0.6553557852
| 30> H 4.8011438746 -3.1078803287 -1.851525317
| 31> H 6.0290856385 -1.9452670544 -2.381424669
| 32> H 3.7475705185 -1.005605257 -2.7101843247
| 33> H 4.6322850294 -0.0714353239 -1.4748350302
| 34> H 1.724588889 -2.1567458641 2.5991735434
| 35> H 2.8843115838 -0.8144165636 2.3852170565
| 36> H -0.0953352152 -0.4428637222 2.965881525
| 37> H 1.1856143959 -0.3402858734 4.1895144255
| 38> H 1.118565076 0.8369733266 2.8675508832
| 39> H -0.6157652867 1.8728849408 -1.9403679357
| 40> H 0.9585707105 2.3049311679 -1.1780729482
| 41> H -4.8501598899 1.1777419273 0.3976261682
| 42> H -4.812536374 1.0959704434 2.1852713042
| 43> H -3.259781902 3.0452838997 0.4003550781
| 44> H -4.6202463212 3.452836959 1.4555917157
| 45> H -3.073480076 2.9399096444 2.1557815329
| 46> H -1.8767566838 -2.2593763235 -1.2335266162
| 47> H -1.0243913326 -3.0428223225 0.1272504682
| 48> H -3.1461602555 -2.8622360985 1.4856751355
| 49> H -3.9563462214 -2.1456957868 0.0842160684
| 50> H -3.3932024973 -3.8228360915 0.0139689561
| 51> *
| 52>
| 53>                          ****END OF INPUT****

CARTESIAN COORDINATES (ANGSTROEM)
---------------------------------
  C      5.256507   -2.143509   -1.645865
  C      4.208577   -1.051298   -1.720118
  O      3.176685   -1.358321   -0.760535
  P      2.204767   -0.241676   -0.178480
  S      3.123132    1.392802    0.402939
  O      1.430204   -1.074250    0.917661
  C      1.834778   -1.111422    2.306660
  C      0.951314   -0.203518    3.138738
  S      0.746310   -0.042431   -1.688006
  C      0.132041    1.595609   -1.198184
  S     -0.603291    1.620077    0.456378
  P     -2.165257    0.255471    0.058375
  S     -3.010687    0.353712   -1.711135
  O     -3.151106    0.421684    1.293167
  C     -4.244087    1.356804    1.291555
  C     -3.766678    2.794197    1.331091
  O     -1.444158   -1.105652    0.426590
  C     -1.837202   -2.367498   -0.144284
  C     -3.171683   -2.832669    0.399623
  H      5.701996   -2.168165   -0.655356
  H      4.801144   -3.107880   -1.851525
  H      6.029086   -1.945267   -2.381425
  H      3.747571   -1.005605   -2.710184
  H      4.632285   -0.071435   -1.474835
  H      1.724589   -2.156746    2.599174
  H      2.884312   -0.814417    2.385217
  H     -0.095335   -0.442864    2.965882
  H      1.185614   -0.340286    4.189514
  H      1.118565    0.836973    2.867551
  H     -0.615765    1.872885   -1.940368
  H      0.958571    2.304931   -1.178073
  H     -4.850160    1.177742    0.397626
  H     -4.812536    1.095970    2.185271
  H     -3.259782    3.045284    0.400355
  H     -4.620246    3.452837    1.455592
  H     -3.073480    2.939910    2.155782
  H     -1.876757   -2.259376   -1.233527
  H     -1.024391   -3.042822    0.127250
  H     -3.146160   -2.862236    1.485675
  H     -3.956346   -2.145696    0.084216
  H     -3.393202   -3.822836    0.013969

 Total Charge           Charge          ....    0
 Multiplicity           Mult            ....    1
 Number of Electrons    NEL             ....  202
 Basis Dimension        Dim             ....  539

ORBITAL ENERGIES
----------------

  NO   OCC          E(Eh)            E(eV)
   0   2.0000     -88.579815     -2410.3793
   1   2.0000     -88.577323     -2410.3115
   2   2.0000     -88.528329     -2408.9783
   3   2.0000     -88.527364     -2408.9520
   4   2.0000     -76.918389     -2093.0558
   5   2.0000     -76.918026     -2093.0459
   6   2.0000     -18.995647      -516.8978
   7   2.0000     -18.993512      -516.8397
   8   2.0000     -18.991032      -516.7723
   9   2.0000     -18.989571      -516.7325
  10   2.0000     -10.105326      -274.9799
  11   2.0000     -10.090024      -274.5635
  12   2.0000     -10.089782      -274.5569
  13   2.0000     -10.088764      -274.5292
  14   2.0000     -10.088142      -274.5123
  15   2.0000     -10.019239      -272.6374
  16   2.0000     -10.018534      -272.6182
  17   2.0000     -10.018100      -272.6064
  18   2.0000     -10.015678      -272.5405
  19   2.0000      -7.874113      -214.2655
  20   2.0000      -7.871836      -214.2035
  21   2.0000      -7.823354      -212.8843
  22   2.0000      -7.822483      -212.8606
  23   2.0000      -6.596941      -179.5119
  24   2.0000      -6.596680      -179.5048
  25   2.0000      -5.820991      -158.3972
  26   2.0000      -5.818720      -158.3354
  27   2.0000      -5.817974      -158.3151
  28   2.0000      -5.815748      -158.2545
  29   2.0000      -5.811241      -158.1319
  30   2.0000      -5.808847      -158.0668
  31   2.0000      -5.770895      -157.0340
  32   2.0000      -5.770021      -157.0103
  33   2.0000      -5.763612      -156.8359
  34   2.0000      -5.763438      -156.8311
  35   2.0000      -5.762838      -156.8148
  36   2.0000      -5.762459      -156.8045
  37   2.0000      -4.742281      -129.0440
  38   2.0000      -4.741987      -129.0360
  39   2.0000      -4.741863      -129.0327
  40   2.0000      -4.741556      -129.0243
  41   2.0000      -4.740857      -129.0053
  42   2.0000      -4.740655      -128.9998
  43   2.0000      -1.052189       -28.6315
  44   2.0000      -1.050568       -28.5874
  45   2.0000      -1.012404       -27.5489
  46   2.0000      -1.010078       -27.4856
  47   2.0000      -0.804820       -21.9003
  48   2.0000      -0.756473       -20.5847
  49   2.0000      -0.743114       -20.2212
  50   2.0000      -0.722785       -19.6680
  51   2.0000      -0.722143       -19.6505
  52   2.0000      -0.709124       -19.2962
  53   2.0000      -0.688518       -18.7355
  54   2.0000      -0.675104       -18.3705
  55   2.0000      -0.632762       -17.2183
  56   2.0000      -0.619261       -16.8509
  57   2.0000      -0.598382       -16.2828
  58   2.0000      -0.595823       -16.2132
  59   2.0000      -0.587759       -15.9937
  60   2.0000      -0.528936       -14.3931
  61   2.0000      -0.514403       -13.9976
  62   2.0000      -0.492308       -13.3964
  63   2.0000      -0.489647       -13.3240
  64   2.0000      -0.474728       -12.9180
  65   2.0000      -0.457560       -12.4509
  66   2.0000      -0.453968       -12.3531
  67   2.0000      -0.448712       -12.2101
  68   2.0000      -0.444163       -12.0863
  69   2.0000      -0.430299       -11.7090
  70   2.0000      -0.422522       -11.4974
  71   2.0000      -0.406300       -11.0560
  72   2.0000      -0.404292       -11.0013
  73   2.0000      -0.399333       -10.8664
  74   2.0000      -0.395324       -10.7573
  75   2.0000      -0.388053       -10.5595
  76   2.0000      -0.383322       -10.4307
  77   2.0000      -0.368874       -10.0376
  78   2.0000      -0.363709        -9.8970
  79   2.0000      -0.358179        -9.7465
  80   2.0000      -0.355398        -9.6709
  81   2.0000      -0.353187        -9.6107
  82   2.0000      -0.348652        -9.4873
  83   2.0000      -0.347441        -9.4543
  84   2.0000      -0.344902        -9.3852
  85   2.0000      -0.330375        -8.9900
  86   2.0000      -0.315507        -8.5854
  87   2.0000      -0.311577        -8.4784
  88   2.0000      -0.304701        -8.2913
  89   2.0000      -0.303716        -8.2645
  90   2.0000      -0.297335        -8.0909
  91   2.0000      -0.292126        -7.9492
  92   2.0000      -0.279742        -7.6122
  93   2.0000      -0.279637        -7.6093
  94   2.0000      -0.276060        -7.5120
  95   2.0000      -0.248560        -6.7637
  96   2.0000      -0.235716        -6.4142
  97   2.0000      -0.235265        -6.4019
  98   2.0000      -0.228069        -6.2061
  99   2.0000      -0.221721        -6.0333
 100   2.0000      -0.218879        -5.9560
 101   0.0000      -0.052151        -1.4191
 102   0.0000      -0.031144        -0.8475
 103   0.0000      -0.003441        -0.0936
 104   0.0000      -0.001586        -0.0432
 105   0.0000       0.009644         0.2624

MULLIKEN ATOMIC CHARGES
-----------------------
   0 C :   -0.485188
   1 C :   -0.143794
   2 O :   -0.312573
   3 P :    0.725168
   4 S :   -0.528376
   5 O :   -0.290177
   6 C :   -0.125597
   7 C :   -0.496963
   8 S :   -0.152266
   9 C :   -0.257232
  10 S :   -0.118440
  11 P :    0.730506
  12 S :   -0.530224
  13 O :   -0.332012
  14 C :   -0.153940
  15 C :   -0.486861
  16 O :   -0.288663
  17 C :   -0.154865
  18 C :   -0.484795
  19 H :    0.166127
  20 H :    0.165570
  21 H :    0.169217
  22 H :    0.170959
  23 H :    0.171063
  24 H :    0.174862
  25 H :    0.170452
  26 H :    0.165579
  27 H :    0.167186
  28 H :    0.171166
  29 H :    0.230896
  30 H :    0.231110
  31 H :    0.178163
  32 H :    0.175462
  33 H :    0.172931
  34 H :    0.172957
  35 H :    0.169385
  36 H :    0.176369
  37 H :    0.178856
  38 H :    0.169170
  39 H :    0.167257
  40 H :    0.171557
Sum of atomic charges:    0.0000000

LOEWDIN ATOMIC CHARGES
----------------------
   0 C :   -0.390298
   1 C :    0.023223
   2 O :   -0.678897
   3 P :    0.379702
   4 S :   -0.161265
   5 O :   -0.675400
   6 C :    0.032550
   7 C :   -0.406039
   8 S :    0.171982
   9 C :   -0.411578
  10 S :    0.175355
  11 P :    0.383772
  12 S :   -0.157018
  13 O :   -0.671714
  14 C :    0.025636
  15 C :   -0.410043
  16 O :   -0.691318
  17 C :    0.020978
  18 C :   -0.402402
  19 H :    0.162424
  20 H :    0.162917
  21 H :    0.168711
  22 H :    0.179413
  23 H :    0.181382
  24 H :    0.188534
  25 H :    0.181547
  26 H :    0.163326
  27 H :    0.165356
  28 H :    0.162333
  29 H :    0.196442
  30 H :    0.197295
  31 H :    0.181550
  32 H :    0.191001
  33 H :    0.161585
  34 H :    0.168373
  35 H :    0.163685
  36 H :    0.182090
  37 H :    0.190406
  38 H :    0.163755
  39 H :    0.162247
  40 H :    0.168401

  Mayer bond orders larger than 0.100000
B(  0-C ,  1-C ) :   0.9541 B(  0-C , 19-H ) :   0.9701 B(  0-C , 20-H ) :   0.9688
B(  0-C , 21-H ) :   0.9586 B(  1-C ,  2-O ) :   0.7703 B(  1-C , 22-H ) :   0.9361
B(  1-C , 23-H ) :   0.9487 B(  2-O ,  3-P ) :   1.0947 B(  3-P ,  4-S ) :   1.7050
B(  3-P ,  5-O ) :   1.1853 B(  3-P ,  8-S ) :   1.0819 B(  5-O ,  6-C ) :   0.7463
B(  6-C ,  7-C ) :   0.9353 B(  6-C , 24-H ) :   0.9499 B(  6-C , 25-H ) :   0.9620
B(  7-C , 26-H ) :   0.9667 B(  7-C , 27-H ) :   0.9588 B(  7-C , 28-H ) :   0.9650
B(  8-S ,  9-C ) :   0.8961 B(  9-C , 10-S ) :   0.8954 B(  9-C , 29-H ) :   0.9047
B(  9-C , 30-H ) :   0.9042 B( 10-S , 11-P ) :   1.0962 B( 11-P , 12-S ) :   1.7058
B( 11-P , 13-O ) :   1.0702 B( 11-P , 16-O ) :   1.1424 B( 13-O , 14-C ) :   0.8012
B( 14-C , 15-C ) :   0.9100 B( 14-C , 31-H ) :   0.9660 B( 14-C , 32-H ) :   0.9484
B( 15-C , 33-H ) :   0.9637 B( 15-C , 34-H ) :   0.9533 B( 15-C , 35-H ) :   0.9657
B( 16-O , 17-C ) :   0.7752 B( 17-C , 18-C ) :   0.9131 B( 17-C , 36-H ) :   0.9589
B( 17-C , 37-H ) :   0.9532 B( 18-C , 38-H ) :   0.9713 B( 18-C , 39-H ) :   0.9606
B( 18-C , 40-H ) :   0.9572

Dispersion correction           -0.021771608
FINAL SINGLE POINT ENERGY     -2932.472718169638

DIPOLE MOMENT
-------------

Method             : SCF
Type of density    : Electron Density
Multiplicity       :   1
Irrep              :   0
Energy             : -2932.4972492012439034 Eh
Relativity type    :
Basis              : AO
                                X                 Y                 Z
Electronic contribution:      1.698006680       8.102342869      -8.784203558
Nuclear contribution   :     -1.862982168      -9.028968081       9.485069401
                        -----------------------------------------
Total Dipole Moment    :     -0.164975488      -0.926625212       0.700865843
                        -----------------------------------------
Magnitude (a.u.)       :      1.173483756
Magnitude (Debye)      :      2.982758664

Rotational constants in cm-1:             0.013128             0.004948             0.004774
Rotational constants in MHz :           393.576299           148.338853           143.127771

                             ****ORCA TERMINATED NORMALLY****
TOTAL RUN TIME: 0 days 0 hours 1 minutes 51 seconds 477 msec
