                         Program Version 6.0.0  -   RELEASE  -
|  1> ! pbe def2-sv(p) def2/J RI DEFGRID1 loosescf d4 GCP(DFT/SV(P)) printgap
|  2> %output
|  3>     printlevel normal
|  4> end
|  5> * xyz 0 1
|  6> C 1.4787069321 -2.8459216682 1.3111884801
|  7> C 1.5061260864 -1.4170748438 1.8150203152
|  8> O 2.5834114362 -0.6543755267 1.2477442449
|  9> P 2.6831268016 -0.1361590425 -0.2562056666
| 10> S 2.9268367487 -1.4509671588 -1.6863916715
| 11> O 3.9533414199 0.7875270039 -0.1680184182
| 12> C 4.3275922471 1.6263323528 0.9522777166
| 13> C 3.3141944305 2.7171176061 1.2255094244
| 14> S 0.999533213 1.1627880977 -0.5258318905
| 15> C 0.0857645459 0.1909523858 -1.7428685913
| 16> S -0.8675628726 -1.1620131301 -1.0055200327
| 17> P -2.2702794861 0.0719045888 -0.0108940188
| 18> S -2.8530532173 1.6879718826 -0.9669995077
| 19> O -1.5279763037 0.3638373558 1.3611854196
| 20> C -1.7892302977 1.5477607281 2.1393322841
| 21> C -3.1440853933 1.4689030028 2.8100911528
| 22> O -3.3878683651 -0.9449661522 0.4750175495
| 23> C -4.0635067834 -1.9097792392 -0.3514694773
| 24> C -4.6569190897 -1.3006101884 -1.6049749042
| 25> H 2.4435924885 -3.3197493308 1.4724004962
| 26> H 0.7116962167 -3.3971596923 1.8456361588
| 27> H 1.2529942279 -2.872888399 0.2468077579
| 28> H 1.7054311449 -1.3821253592 2.8881061155
| 29> H 0.5587006434 -0.9111459186 1.6051218547
| 30> H 4.4635998906 0.9871530737 1.8263683199
| 31> H 5.2878050626 2.0399532562 0.6403872739
| 32> H 2.3678518884 2.2852384601 1.5470205054
| 33> H 3.6916410792 3.3641402839 2.0112642903
| 34> H 3.1389081053 3.3067607017 0.3291935256
| 35> H 0.7865958315 -0.2672301181 -2.4417338564
| 36> H -0.595412893 0.8789629926 -2.2435713886
| 37> H -0.9755440167 1.576216846 2.8648854777
| 38> H -1.7293217491 2.4199906266 1.4802543215
| 39> H -3.2106299367 0.5715926304 3.4192393636
| 40> H -3.2930511457 2.345054488 3.4331056921
| 41> H -3.9243904658 1.4348346743 2.0503164449
| 42> H -3.3496708418 -2.6984650062 -0.6054245078
| 43> H -4.8398028134 -2.3096256291 0.3034257299
| 44> H -3.8647865186 -0.9309825159 -2.2552150224
| 45> H -5.2264910524 -2.0550325881 -2.1381630498
| 46> H -5.3102404491 -0.4688694757 -1.351692329
| 47> *
| 48>
| 49>                          ****END OF INPUT****

CARTESIAN COORDINATES (ANGSTROEM)
---------------------------------
  C      1.478707   -2.845922    1.311188
  C      1.506126   -1.417075    1.815020
  O      2.583411   -0.654376    1.247744
  P      2.683127   -0.136159   -0.256206
  S      2.926837   -1.450967   -1.686392
  O      3.953341    0.787527   -0.168018
  C      4.327592    1.626332    0.952278
  C      3.314194    2.717118    1.225509
  S      0.999533    1.162788   -0.525832
  C      0.085765    0.190952   -1.742869
  S     -0.867563   -1.162013   -1.005520
  P     -2.270279    0.071905   -0.010894
  S     -2.853053    1.687972   -0.967000
  O     -1.527976    0.363837    1.361185
  C     -1.789230    1.547761    2.139332
  C     -3.144085    1.468903    2.810091
  O     -3.387868   -0.944966    0.475018
  C     -4.063507   -1.909779   -0.351469
  C     -4.656919   -1.300610   -1.604975
  H      2.443592   -3.319749    1.472400
  H      0.711696   -3.397160    1.845636
  H      1.252994   -2.872888    0.246808
  H      1.705431   -1.382125    2.888106
  H      0.558701   -0.911146    1.605122
  H      4.463600    0.987153    1.826368
  H      5.287805    2.039953    0.640387
  H      2.367852    2.285238    1.547021
  H      3.691641    3.364140    2.011264
  H      3.138908    3.306761    0.329194
  H      0.786596   -0.267230   -2.441734
  H     -0.595413    0.878963   -2.243571
  H     -0.975544    1.576217    2.864885
  H     -1.729322    2.419991    1.480254
  H     -3.210630    0.571593    3.419239
  H     -3.293051    2.345054    3.433106
  H     -3.924390    1.434835    2.050316
  H     -3.349671   -2.698465   -0.605425
  H     -4.839803   -2.309626    0.303426
  H     -3.864787   -0.930983   -2.255215
  H     -5.226491   -2.055033   -2.138163
  H     -5.310240   -0.468869   -1.351692

 Total Charge           Charge          ....    0
 Multiplicity           Mult            ....    1
 Number of Electrons    NEL             ....  202
 Basis Dimension        Dim             ....  334

ORBITAL ENERGIES
----------------

  NO   OCC          E(Eh)            E(eV)
   0   2.0000     -88.048050     -2395.9093
   1   2.0000     -88.041702     -2395.7365
   2   2.0000     -87.992136     -2394.3878
   3   2.0000     -87.983331     -2394.1482
   4   2.0000     -76.432090     -2079.8229
   5   2.0000     -76.426280     -2079.6648
   6   2.0000     -18.798315      -511.5282
   7   2.0000     -18.793954      -511.4095
   8   2.0000     -18.792095      -511.3589
   9   2.0000     -18.791500      -511.3427
  10   2.0000      -9.962891      -271.1040
  11   2.0000      -9.958539      -270.9856
  12   2.0000      -9.953490      -270.8482
  13   2.0000      -9.952035      -270.8086
  14   2.0000      -9.948843      -270.7218
  15   2.0000      -9.893160      -269.2066
  16   2.0000      -9.887140      -269.0428
  17   2.0000      -9.885999      -269.0117
  18   2.0000      -9.875287      -268.7202
  19   2.0000      -7.692796      -209.3316
  20   2.0000      -7.686201      -209.1522
  21   2.0000      -7.636998      -207.8133
  22   2.0000      -7.628540      -207.5831
  23   2.0000      -6.429338      -174.9512
  24   2.0000      -6.423421      -174.7902
  25   2.0000      -5.720498      -155.6627
  26   2.0000      -5.717343      -155.5768
  27   2.0000      -5.714122      -155.4892
  28   2.0000      -5.710661      -155.3950
  29   2.0000      -5.709948      -155.3756
  30   2.0000      -5.703306      -155.1948
  31   2.0000      -5.665844      -154.1755
  32   2.0000      -5.657728      -153.9546
  33   2.0000      -5.657579      -153.9505
  34   2.0000      -5.657159      -153.9391
  35   2.0000      -5.648925      -153.7151
  36   2.0000      -5.648764      -153.7107
  37   2.0000      -4.651827      -126.5827
  38   2.0000      -4.651289      -126.5680
  39   2.0000      -4.649739      -126.5258
  40   2.0000      -4.646317      -126.4327
  41   2.0000      -4.645190      -126.4020
  42   2.0000      -4.643660      -126.3604
  43   2.0000      -0.991891       -26.9907
  44   2.0000      -0.987550       -26.8726
  45   2.0000      -0.950575       -25.8665
  46   2.0000      -0.942436       -25.6450
  47   2.0000      -0.765581       -20.8325
  48   2.0000      -0.723704       -19.6930
  49   2.0000      -0.713095       -19.4043
  50   2.0000      -0.691885       -18.8271
  51   2.0000      -0.688881       -18.7454
  52   2.0000      -0.677235       -18.4285
  53   2.0000      -0.654104       -17.7991
  54   2.0000      -0.639868       -17.4117
  55   2.0000      -0.602194       -16.3865
  56   2.0000      -0.592474       -16.1220
  57   2.0000      -0.578951       -15.7541
  58   2.0000      -0.577855       -15.7242
  59   2.0000      -0.563449       -15.3322
  60   2.0000      -0.502464       -13.6728
  61   2.0000      -0.493854       -13.4384
  62   2.0000      -0.474843       -12.9211
  63   2.0000      -0.472199       -12.8492
  64   2.0000      -0.462380       -12.5820
  65   2.0000      -0.448985       -12.2175
  66   2.0000      -0.442701       -12.0465
  67   2.0000      -0.438553       -11.9336
  68   2.0000      -0.425155       -11.5691
  69   2.0000      -0.424277       -11.5452
  70   2.0000      -0.416580       -11.3357
  71   2.0000      -0.400920       -10.9096
  72   2.0000      -0.395739       -10.7686
  73   2.0000      -0.391179       -10.6445
  74   2.0000      -0.384961       -10.4753
  75   2.0000      -0.380222       -10.3464
  76   2.0000      -0.366343        -9.9687
  77   2.0000      -0.357289        -9.7223
  78   2.0000      -0.352306        -9.5867
  79   2.0000      -0.351531        -9.5656
  80   2.0000      -0.350940        -9.5496
  81   2.0000      -0.346130        -9.4187
  82   2.0000      -0.345285        -9.3957
  83   2.0000      -0.339805        -9.2466
  84   2.0000      -0.332390        -9.0448
  85   2.0000      -0.324068        -8.8183
  86   2.0000      -0.312599        -8.5062
  87   2.0000      -0.300660        -8.1814
  88   2.0000      -0.296679        -8.0731
  89   2.0000      -0.293858        -7.9963
  90   2.0000      -0.287273        -7.8171
  91   2.0000      -0.279871        -7.6157
  92   2.0000      -0.275912        -7.5079
  93   2.0000      -0.265946        -7.2368
  94   2.0000      -0.258258        -7.0276
  95   2.0000      -0.237799        -6.4708
  96   2.0000      -0.218898        -5.9565
  97   2.0000      -0.212160        -5.7732
  98   2.0000      -0.206490        -5.6189
  99   2.0000      -0.200197        -5.4476
 100   2.0000      -0.198020        -5.3884
 101   0.0000      -0.047214        -1.2847
 102   0.0000      -0.028696        -0.7808
 103   0.0000      -0.007222        -0.1965
 104   0.0000      -0.002963        -0.0806
 105   0.0000       0.006743         0.1835

MULLIKEN ATOMIC CHARGES
-----------------------
   0 C :   -0.304314
   1 C :   -0.039017
   2 O :   -0.384101
   3 P :    0.619900
   4 S :   -0.313084
   5 O :   -0.360713
   6 C :    0.006668
   7 C :   -0.334654
   8 S :   -0.114287
   9 C :   -0.346420
  10 S :   -0.094113
  11 P :    0.612170
  12 S :   -0.327509
  13 O :   -0.355219
  14 C :   -0.005537
  15 C :   -0.302649
  16 O :   -0.372876
  17 C :   -0.012753
  18 C :   -0.311263
  19 H :    0.113289
  20 H :    0.103505
  21 H :    0.134602
  22 H :    0.097029
  23 H :    0.137708
  24 H :    0.111260
  25 H :    0.112499
  26 H :    0.128843
  27 H :    0.117779
  28 H :    0.131825
  29 H :    0.196178
  30 H :    0.193488
  31 H :    0.101780
  32 H :    0.114964
  33 H :    0.114379
  34 H :    0.112006
  35 H :    0.124103
  36 H :    0.116131
  37 H :    0.110860
  38 H :    0.126934
  39 H :    0.113921
  40 H :    0.126686
Sum of atomic charges:    0.0000000

LOEWDIN ATOMIC CHARGES
----------------------
   0 C :   -0.367989
   1 C :   -0.124707
   2 O :   -0.246729
   3 P :    0.569714
   4 S :   -0.300662
   5 O :   -0.235747
   6 C :   -0.108346
   7 C :   -0.371393
   8 S :    0.077470
   9 C :   -0.487360
  10 S :    0.093487
  11 P :    0.573024
  12 S :   -0.314073
  13 O :   -0.236450
  14 C :   -0.120456
  15 C :   -0.363441
  16 O :   -0.243617
  17 C :   -0.113626
  18 C :   -0.369490
  19 H :    0.125388
  20 H :    0.127513
  21 H :    0.116421
  22 H :    0.115360
  23 H :    0.105979
  24 H :    0.115256
  25 H :    0.123763
  26 H :    0.116402
  27 H :    0.133711
  28 H :    0.130422
  29 H :    0.129112
  30 H :    0.130004
  31 H :    0.115932
  32 H :    0.109630
  33 H :    0.125438
  34 H :    0.130405
  35 H :    0.123528
  36 H :    0.110877
  37 H :    0.122319
  38 H :    0.121839
  39 H :    0.131278
  40 H :    0.129818

  Mayer bond orders larger than 0.100000
B(  0-C ,  1-C ) :   1.1674 B(  0-C , 19-H ) :   0.9452 B(  0-C , 20-H ) :   0.9383
B(  0-C , 21-H ) :   0.9281 B(  1-C ,  2-O ) :   0.9068 B(  1-C , 22-H ) :   0.9346
B(  1-C , 23-H ) :   0.8973 B(  2-O ,  3-P ) :   1.0747 B(  3-P ,  4-S ) :   1.6501
B(  3-P ,  5-O ) :   1.1436 B(  3-P ,  8-S ) :   0.9301 B(  4-S ,  8-S ) :   0.1136
B(  5-O ,  6-C ) :   0.9008 B(  6-C ,  7-C ) :   1.1692 B(  6-C , 24-H ) :   0.9269
B(  6-C , 25-H ) :   0.9337 B(  7-C , 26-H ) :   0.9319 B(  7-C , 27-H ) :   0.9355
B(  7-C , 28-H ) :   0.9423 B(  8-S ,  9-C ) :   1.0172 B(  9-C , 10-S ) :   0.9989
B(  9-C , 29-H ) :   0.8620 B(  9-C , 30-H ) :   0.8732 B( 10-S , 11-P ) :   0.9538
B( 10-S , 12-S ) :   0.1081 B( 11-P , 12-S ) :   1.5977 B( 11-P , 13-O ) :   1.1102
B( 11-P , 16-O ) :   1.1150 B( 13-O , 14-C ) :   0.9001 B( 14-C , 15-C ) :   1.1639
B( 14-C , 31-H ) :   0.9327 B( 14-C , 32-H ) :   0.9119 B( 15-C , 33-H ) :   0.9465
B( 15-C , 34-H ) :   0.9399 B( 15-C , 35-H ) :   0.9357 B( 16-O , 17-C ) :   0.9121
B( 17-C , 18-C ) :   1.1646 B( 17-C , 36-H ) :   0.9280 B( 17-C , 37-H ) :   0.9339
B( 18-C , 38-H ) :   0.9330 B( 18-C , 39-H ) :   0.9349 B( 18-C , 40-H ) :   0.9427

Dispersion correction           -0.066193522
FINAL SINGLE POINT ENERGY     -2929.519956366113

DIPOLE MOMENT
-------------

Method             : SCF
Type of density    : Electron Density
Multiplicity       :   1
Irrep              :   0
Energy             : -2929.6396815679868268 Eh
Relativity type    :
Basis              : AO
                                X                 Y                 Z
Electronic contribution:      9.009562131      -0.500182463     -14.648057319
Nuclear contribution   :     -9.648606675       0.603629786      16.284099144
                        -----------------------------------------
Total Dipole Moment    :     -0.639044545       0.103447323       1.636041825
                        -----------------------------------------
Magnitude (a.u.)       :      1.759463592
Magnitude (Debye)      :      4.472201039

Rotational constants in cm-1:             0.012402             0.005062             0.004600
Rotational constants in MHz :           371.810125           151.749971           137.890658

                             ****ORCA TERMINATED NORMALLY****
TOTAL RUN TIME: 0 days 0 hours 0 minutes 21 seconds 255 msec
