                         Program Version 6.0.1  -  RELEASE   -
|  1> ! pbe def2-sv(p) def2/J RI DEFGRID1 loosescf d4 GCP(DFT/SV(P)) printgap
|  2> %output
|  3>     printlevel normal
|  4> end
|  5> * xyz 0 1
|  6> C 3.9774886618 -2.6398090792 0.8012841358
|  7> C 2.4764235421 -2.7270455847 0.5789920709
|  8> O 2.0840324856 -2.0013380732 -0.6015651704
|  9> C 1.9278570622 -0.7000203109 -0.5225020463
| 10> O 2.0630541348 -0.0352015999 0.4852689386
| 11> C 1.5703363151 -0.0863697105 -1.8634691406
| 12> C 0.3710354226 0.8563123964 -1.7278108021
| 13> H 0.3479996244 1.5513650744 -2.5699613574
| 14> C 0.4304732221 1.6451934083 -0.4346982627
| 15> O -0.3951001493 1.5044430774 0.4535570427
| 16> O 1.392108465 2.5157802618 -0.4260453447
| 17> C 1.6151771594 3.2687358676 0.786580117
| 18> C 2.7279996516 4.2608620724 0.5179760942
| 19> S -1.2272848554 -0.0239804991 -1.7982312583
| 20> P -1.8495316478 -0.4133818593 0.1926741073
| 21> S -0.7205346221 -1.2423245877 1.5761042744
| 22> O -2.9039223527 0.6928750872 0.6336238992
| 23> C -2.8109857345 1.4922489073 1.8129170839
| 24> O -2.9998356603 -1.4567829817 -0.244998926
| 25> C -2.6909087882 -2.7830963514 -0.6742187094
| 26> H 4.266309467 -1.611406832 1.0055888664
| 27> H 4.2463420118 -3.2553645341 1.653121126
| 28> H 4.5068768713 -2.9924109212 -0.0796609007
| 29> H 1.9242567686 -2.3243375114 1.4339564416
| 30> H 2.1597727191 -3.7508189454 0.3807169165
| 31> H 1.3562690266 -0.8708053138 -2.5872547286
| 32> H 2.4354350012 0.4935074417 -2.1923872667
| 33> H 0.6795881658 3.7637635947 1.0634762041
| 34> H 1.8793347314 2.552793166 1.5710645528
| 35> H 3.6346711427 3.7340261104 0.2377242309
| 36> H 2.4447560919 4.9318114794 -0.2872603749
| 37> H 2.9139670869 4.8380380005 1.4174030992
| 38> H -3.7866436196 1.4487002321 2.293075965
| 39> H -2.5648162623 2.5134490007 1.5270547922
| 40> H -2.041657431 1.1018110657 2.4815491412
| 41> H -3.6295415502 -3.3301010431 -0.6339987677
| 42> H -1.9600615465 -3.2333531524 0.0015538193
| 43> H -2.2994212343 -2.7692643997 -1.6918006817
| 44> *
| 45>
| 46>                          ****END OF INPUT****

CARTESIAN COORDINATES (ANGSTROEM)
---------------------------------
  C      3.977489   -2.639809    0.801284
  C      2.476424   -2.727046    0.578992
  O      2.084032   -2.001338   -0.601565
  C      1.927857   -0.700020   -0.522502
  O      2.063054   -0.035202    0.485269
  C      1.570336   -0.086370   -1.863469
  C      0.371035    0.856312   -1.727811
  H      0.348000    1.551365   -2.569961
  C      0.430473    1.645193   -0.434698
  O     -0.395100    1.504443    0.453557
  O      1.392108    2.515780   -0.426045
  C      1.615177    3.268736    0.786580
  C      2.728000    4.260862    0.517976
  S     -1.227285   -0.023980   -1.798231
  P     -1.849532   -0.413382    0.192674
  S     -0.720535   -1.242325    1.576104
  O     -2.903922    0.692875    0.633624
  C     -2.810986    1.492249    1.812917
  O     -2.999836   -1.456783   -0.244999
  C     -2.690909   -2.783096   -0.674219
  H      4.266309   -1.611407    1.005589
  H      4.246342   -3.255365    1.653121
  H      4.506877   -2.992411   -0.079661
  H      1.924257   -2.324338    1.433956
  H      2.159773   -3.750819    0.380717
  H      1.356269   -0.870805   -2.587255
  H      2.435435    0.493507   -2.192387
  H      0.679588    3.763764    1.063476
  H      1.879335    2.552793    1.571065
  H      3.634671    3.734026    0.237724
  H      2.444756    4.931811   -0.287260
  H      2.913967    4.838038    1.417403
  H     -3.786644    1.448700    2.293076
  H     -2.564816    2.513449    1.527055
  H     -2.041657    1.101811    2.481549
  H     -3.629542   -3.330101   -0.633999
  H     -1.960062   -3.233353    0.001554
  H     -2.299421   -2.769264   -1.691801

 Total Charge           Charge          ....    0
 Multiplicity           Mult            ....    1
 Number of Electrons    NEL             ....  174
 Basis Dimension        Dim             ....  316

ORBITAL ENERGIES
----------------

  NO   OCC          E(Eh)            E(eV)
   0   2.0000     -88.031577     -2395.4610
   1   2.0000     -87.961053     -2393.5419
   2   2.0000     -76.413470     -2079.3162
   3   2.0000     -18.818702      -512.0829
   4   2.0000     -18.806792      -511.7588
   5   2.0000     -18.769516      -510.7445
   6   2.0000     -18.763623      -510.5841
   7   2.0000     -18.760024      -510.4862
   8   2.0000     -18.740887      -509.9655
   9   2.0000     -10.030582      -272.9460
  10   2.0000     -10.015011      -272.5223
  11   2.0000      -9.955283      -270.8970
  12   2.0000      -9.954787      -270.8835
  13   2.0000      -9.942584      -270.5515
  14   2.0000      -9.926016      -270.1006
  15   2.0000      -9.923716      -270.0380
  16   2.0000      -9.918303      -269.8907
  17   2.0000      -9.895227      -269.2628
  18   2.0000      -9.885525      -268.9988
  19   2.0000      -7.676714      -208.8940
  20   2.0000      -7.606136      -206.9735
  21   2.0000      -6.408273      -174.3780
  22   2.0000      -5.704986      -155.2406
  23   2.0000      -5.700850      -155.1280
  24   2.0000      -5.693622      -154.9313
  25   2.0000      -5.635230      -153.3424
  26   2.0000      -5.627051      -153.1198
  27   2.0000      -5.625745      -153.0843
  28   2.0000      -4.630845      -126.0117
  29   2.0000      -4.630470      -126.0015
  30   2.0000      -4.628890      -125.9585
  31   2.0000      -1.031723       -28.0746
  32   2.0000      -1.012842       -27.5608
  33   2.0000      -0.962595       -26.1935
  34   2.0000      -0.936027       -25.4706
  35   2.0000      -0.919862       -25.0307
  36   2.0000      -0.916513       -24.9396
  37   2.0000      -0.767464       -20.8838
  38   2.0000      -0.717200       -19.5160
  39   2.0000      -0.707497       -19.2520
  40   2.0000      -0.683648       -18.6030
  41   2.0000      -0.652692       -17.7606
  42   2.0000      -0.623945       -16.9784
  43   2.0000      -0.611831       -16.6488
  44   2.0000      -0.603040       -16.4095
  45   2.0000      -0.596583       -16.2339
  46   2.0000      -0.562809       -15.3148
  47   2.0000      -0.520439       -14.1619
  48   2.0000      -0.499670       -13.5967
  49   2.0000      -0.498979       -13.5779
  50   2.0000      -0.487289       -13.2598
  51   2.0000      -0.461445       -12.5566
  52   2.0000      -0.459447       -12.5022
  53   2.0000      -0.450726       -12.2649
  54   2.0000      -0.437704       -11.9105
  55   2.0000      -0.434785       -11.8311
  56   2.0000      -0.423725       -11.5301
  57   2.0000      -0.410275       -11.1641
  58   2.0000      -0.403346       -10.9756
  59   2.0000      -0.399855       -10.8806
  60   2.0000      -0.397790       -10.8244
  61   2.0000      -0.392814       -10.6890
  62   2.0000      -0.388730       -10.5779
  63   2.0000      -0.377645       -10.2762
  64   2.0000      -0.374498       -10.1906
  65   2.0000      -0.367420        -9.9980
  66   2.0000      -0.360820        -9.8184
  67   2.0000      -0.358964        -9.7679
  68   2.0000      -0.357049        -9.7158
  69   2.0000      -0.340075        -9.2539
  70   2.0000      -0.333572        -9.0770
  71   2.0000      -0.328467        -8.9380
  72   2.0000      -0.321332        -8.7439
  73   2.0000      -0.316948        -8.6246
  74   2.0000      -0.297048        -8.0831
  75   2.0000      -0.293394        -7.9837
  76   2.0000      -0.284658        -7.7459
  77   2.0000      -0.279435        -7.6038
  78   2.0000      -0.270444        -7.3592
  79   2.0000      -0.259422        -7.0592
  80   2.0000      -0.256101        -6.9689
  81   2.0000      -0.239532        -6.5180
  82   2.0000      -0.236311        -6.4304
  83   2.0000      -0.228518        -6.2183
  84   2.0000      -0.219240        -5.9658
  85   2.0000      -0.182936        -4.9779
  86   2.0000      -0.171650        -4.6708
  87   0.0000      -0.042225        -1.1490
  88   0.0000      -0.031051        -0.8449
  89   0.0000      -0.027163        -0.7391
  90   0.0000       0.005311         0.1445
  91   0.0000       0.034415         0.9365

MULLIKEN ATOMIC CHARGES
-----------------------
   0 C :   -0.307687
   1 C :   -0.020503
   2 O :   -0.216243
   3 C :    0.108594
   4 O :   -0.203033
   5 C :   -0.031571
   6 C :   -0.290906
   7 H :    0.146001
   8 C :    0.229107
   9 O :   -0.210613
  10 O :   -0.217733
  11 C :   -0.031829
  12 C :   -0.276755
  13 S :   -0.106906
  14 P :    0.634926
  15 S :   -0.348340
  16 O :   -0.373705
  17 C :   -0.083269
  18 O :   -0.383146
  19 C :   -0.096969
  20 H :    0.124261
  21 H :    0.114864
  22 H :    0.109728
  23 H :    0.133931
  24 H :    0.102741
  25 H :    0.117133
  26 H :    0.122934
  27 H :    0.110051
  28 H :    0.128527
  29 H :    0.119886
  30 H :    0.114856
  31 H :    0.115484
  32 H :    0.115957
  33 H :    0.104031
  34 H :    0.118993
  35 H :    0.117122
  36 H :    0.105373
  37 H :    0.104709
Sum of atomic charges:   -0.0000000

LOEWDIN ATOMIC CHARGES
----------------------
   0 C :   -0.357695
   1 C :   -0.112046
   2 O :   -0.041720
   3 C :    0.031226
   4 O :   -0.156128
   5 C :   -0.246800
   6 C :   -0.260449
   7 H :    0.148043
   8 C :    0.029372
   9 O :   -0.147684
  10 O :   -0.035889
  11 C :   -0.102115
  12 C :   -0.350217
  13 S :    0.098320
  14 P :    0.581105
  15 S :   -0.334233
  16 O :   -0.244245
  17 C :   -0.209381
  18 O :   -0.266252
  19 C :   -0.223126
  20 H :    0.128484
  21 H :    0.131916
  22 H :    0.122473
  23 H :    0.122021
  24 H :    0.119235
  25 H :    0.136906
  26 H :    0.147908
  27 H :    0.117707
  28 H :    0.128716
  29 H :    0.129147
  30 H :    0.126384
  31 H :    0.133393
  32 H :    0.115449
  33 H :    0.108010
  34 H :    0.109961
  35 H :    0.118235
  36 H :    0.102433
  37 H :    0.101537

  Mayer bond orders larger than 0.100000
B(  0-C ,  1-C ) :   1.1656 B(  0-C , 20-H ) :   0.9459 B(  0-C , 21-H ) :   0.9446
B(  0-C , 22-H ) :   0.9476 B(  1-C ,  2-O ) :   0.9064 B(  1-C , 23-H ) :   0.9074
B(  1-C , 24-H ) :   0.9390 B(  2-O ,  3-C ) :   1.2701 B(  3-C ,  4-O ) :   1.9439
B(  3-C ,  5-C ) :   1.0030 B(  4-O ,  8-C ) :   0.1159 B(  5-C ,  6-C ) :   1.0202
B(  5-C , 25-H ) :   0.9039 B(  5-C , 26-H ) :   0.8756 B(  6-C ,  7-H ) :   0.8768
B(  6-C ,  8-C ) :   0.9170 B(  6-C , 13-S ) :   1.0311 B(  8-C ,  9-O ) :   1.8739
B(  8-C , 10-O ) :   1.2772 B(  9-O , 14-P ) :   0.1590 B( 10-O , 11-C ) :   0.8891
B( 11-C , 12-C ) :   1.1561 B( 11-C , 27-H ) :   0.9312 B( 11-C , 28-H ) :   0.9250
B( 12-C , 29-H ) :   0.9491 B( 12-C , 30-H ) :   0.9507 B( 12-C , 31-H ) :   0.9427
B( 13-S , 14-P ) :   0.9345 B( 13-S , 15-S ) :   0.1146 B( 14-P , 15-S ) :   1.5704
B( 14-P , 16-O ) :   1.1203 B( 14-P , 18-O ) :   1.0505 B( 16-O , 17-C ) :   0.9325
B( 17-C , 32-H ) :   0.9547 B( 17-C , 33-H ) :   0.9571 B( 17-C , 34-H ) :   0.9314
B( 18-O , 19-C ) :   0.9516 B( 19-C , 35-H ) :   0.9599 B( 19-C , 36-H ) :   0.9283
B( 19-C , 37-H ) :   0.9459

Dispersion correction           -0.053412923
FINAL SINGLE POINT ENERGY     -1979.008042999096

DIPOLE MOMENT
-------------

Method             : SCF
Type of density    : Electron Density
Multiplicity       :   1
Irrep              :   0
Energy             : -1979.1381234145646886 Eh
Relativity type    :
Basis              : AO
                                X                 Y                 Z
Electronic contribution:    -15.808575876      -2.326055576      -5.144725570
Nuclear contribution   :     17.190137826       3.042896199       4.552051498
                        -----------------------------------------
Total Dipole Moment    :      1.381561950       0.716840623      -0.592674072
                        -----------------------------------------
Magnitude (a.u.)       :      1.665483850
Magnitude (Debye)      :      4.233323519

Rotational constants in cm-1:             0.011113             0.009051             0.006555
Rotational constants in MHz :           333.158553           271.345847           196.505425

                             ****ORCA TERMINATED NORMALLY****
TOTAL RUN TIME: 0 days 0 hours 0 minutes 34 seconds 35 msec
