                         Program Version 6.0.0  -   RELEASE  -
|  1> ! pbe def2-sv(p) def2/J RI DEFGRID1 loosescf d4 GCP(DFT/SV(P)) printgap
|  2> %output
|  3>     printlevel normal
|  4> end
|  5> * xyz 0 1
|  6> C 5.200930777 -1.2483028423 -0.1364877673
|  7> C 3.8379503038 -1.6376984684 0.3974585017
|  8> O 2.8066055104 -1.3959953769 -0.594271308
|  9> P 1.9447907748 -0.0774834223 -0.6741104102
| 10> S 0.8556269751 -0.0522871573 -2.2974096754
| 11> O 3.0277517334 1.0827083102 -0.5870215335
| 12> C 2.7467937907 2.4463309838 -0.9441467544
| 13> C 1.9578080526 3.1614583232 0.1337449045
| 14> S 1.0280884263 0.0274292665 1.2521102712
| 15> C 0.1796096264 -1.5756149774 1.2679433576
| 16> S -1.0855517189 -1.7895727195 -0.0206652923
| 17> P -2.2528613729 -0.0464338741 0.3228973679
| 18> S -1.6380062571 1.750121264 -0.182100809
| 19> O -2.6057592064 -0.1941755257 1.8571895289
| 20> C -2.5713832952 0.8732070985 2.8281222104
| 21> C -1.513785055 0.5953765925 3.8780598224
| 22> O -3.641220108 -0.4714994294 -0.3219746935
| 23> C -3.8142563917 -1.0420473256 -1.629675942
| 24> C -3.1722657622 -0.2146715007 -2.7248536761
| 25> H 5.9578147731 -1.5206366508 0.5925541565
| 26> H 5.39744026 -1.7687157364 -1.0699106956
| 27> H 5.2445630341 -0.1777586733 -0.3167801433
| 28> H 3.5973519632 -1.0801214379 1.3066583531
| 29> H 3.782468298 -2.7110803026 0.5890686106
| 30> H 3.7343693327 2.8904104338 -1.0792590802
| 31> H 2.2027790584 2.4547150356 -1.8943250474
| 32> H 1.9063214023 4.2191212006 -0.103275868
| 33> H 0.9416598361 2.771871193 0.1837739428
| 34> H 2.4354970114 3.0306250019 1.1012540008
| 35> H -0.2870681158 -1.6595899169 2.2471758614
| 36> H 0.8943455175 -2.379537622 1.1035578966
| 37> H -2.3750709698 1.8179400045 2.3099363925
| 38> H -3.5707678521 0.8968329363 3.2659179611
| 39> H -1.6829079569 -0.3771416664 4.3319864884
| 40> H -0.520971126 0.6198176407 3.4322432906
| 41> H -1.5729712319 1.3610940494 4.6445728959
| 42> H -3.4014379857 -2.0554451033 -1.619909543
| 43> H -4.8985013615 -1.0861537877 -1.748505564
| 44> H -3.5311485257 0.8114138466 -2.6851904406
| 45> H -2.0871080423 -0.2042103887 -2.6120457848
| 46> H -3.4148235233 -0.6432563932 -3.6918884482
| 47> *
| 48>
| 49>                          ****END OF INPUT****

CARTESIAN COORDINATES (ANGSTROEM)
---------------------------------
  C      5.200931   -1.248303   -0.136488
  C      3.837950   -1.637698    0.397459
  O      2.806606   -1.395995   -0.594271
  P      1.944791   -0.077483   -0.674110
  S      0.855627   -0.052287   -2.297410
  O      3.027752    1.082708   -0.587022
  C      2.746794    2.446331   -0.944147
  C      1.957808    3.161458    0.133745
  S      1.028088    0.027429    1.252110
  C      0.179610   -1.575615    1.267943
  S     -1.085552   -1.789573   -0.020665
  P     -2.252861   -0.046434    0.322897
  S     -1.638006    1.750121   -0.182101
  O     -2.605759   -0.194176    1.857190
  C     -2.571383    0.873207    2.828122
  C     -1.513785    0.595377    3.878060
  O     -3.641220   -0.471499   -0.321975
  C     -3.814256   -1.042047   -1.629676
  C     -3.172266   -0.214672   -2.724854
  H      5.957815   -1.520637    0.592554
  H      5.397440   -1.768716   -1.069911
  H      5.244563   -0.177759   -0.316780
  H      3.597352   -1.080121    1.306658
  H      3.782468   -2.711080    0.589069
  H      3.734369    2.890410   -1.079259
  H      2.202779    2.454715   -1.894325
  H      1.906321    4.219121   -0.103276
  H      0.941660    2.771871    0.183774
  H      2.435497    3.030625    1.101254
  H     -0.287068   -1.659590    2.247176
  H      0.894346   -2.379538    1.103558
  H     -2.375071    1.817940    2.309936
  H     -3.570768    0.896833    3.265918
  H     -1.682908   -0.377142    4.331986
  H     -0.520971    0.619818    3.432243
  H     -1.572971    1.361094    4.644573
  H     -3.401438   -2.055445   -1.619910
  H     -4.898501   -1.086154   -1.748506
  H     -3.531149    0.811414   -2.685190
  H     -2.087108   -0.204210   -2.612046
  H     -3.414824   -0.643256   -3.691888

 Total Charge           Charge          ....    0
 Multiplicity           Mult            ....    1
 Number of Electrons    NEL             ....  202
 Basis Dimension        Dim             ....  334

ORBITAL ENERGIES
----------------

  NO   OCC          E(Eh)            E(eV)
   0   2.0000     -88.044089     -2395.8015
   1   2.0000     -88.037068     -2395.6104
   2   2.0000     -87.976881     -2393.9726
   3   2.0000     -87.976127     -2393.9521
   4   2.0000     -76.423752     -2079.5960
   5   2.0000     -76.421655     -2079.5389
   6   2.0000     -18.793598      -511.3998
   7   2.0000     -18.792931      -511.3816
   8   2.0000     -18.787108      -511.2232
   9   2.0000     -18.781952      -511.0829
  10   2.0000      -9.963574      -271.1226
  11   2.0000      -9.958125      -270.9744
  12   2.0000      -9.950077      -270.7554
  13   2.0000      -9.949214      -270.7319
  14   2.0000      -9.948236      -270.7053
  15   2.0000      -9.887623      -269.0559
  16   2.0000      -9.887403      -269.0499
  17   2.0000      -9.878138      -268.7978
  18   2.0000      -9.872212      -268.6365
  19   2.0000      -7.688095      -209.2037
  20   2.0000      -7.682232      -209.0442
  21   2.0000      -7.621824      -207.4004
  22   2.0000      -7.620885      -207.3748
  23   2.0000      -6.421134      -174.7279
  24   2.0000      -6.418625      -174.6597
  25   2.0000      -5.715972      -155.5395
  26   2.0000      -5.712642      -155.4489
  27   2.0000      -5.710338      -155.3862
  28   2.0000      -5.706784      -155.2895
  29   2.0000      -5.705149      -155.2450
  30   2.0000      -5.698882      -155.0745
  31   2.0000      -5.650933      -153.7697
  32   2.0000      -5.649785      -153.7385
  33   2.0000      -5.642334      -153.5357
  34   2.0000      -5.641897      -153.5238
  35   2.0000      -5.641443      -153.5115
  36   2.0000      -5.641130      -153.5029
  37   2.0000      -4.644256      -126.3766
  38   2.0000      -4.642954      -126.3412
  39   2.0000      -4.641248      -126.2948
  40   2.0000      -4.641029      -126.2888
  41   2.0000      -4.640765      -126.2816
  42   2.0000      -4.638751      -126.2268
  43   2.0000      -0.988114       -26.8879
  44   2.0000      -0.980170       -26.6718
  45   2.0000      -0.946368       -25.7520
  46   2.0000      -0.939522       -25.5657
  47   2.0000      -0.762499       -20.7487
  48   2.0000      -0.718377       -19.5480
  49   2.0000      -0.710270       -19.3274
  50   2.0000      -0.688751       -18.7419
  51   2.0000      -0.681176       -18.5357
  52   2.0000      -0.669958       -18.2305
  53   2.0000      -0.648772       -17.6540
  54   2.0000      -0.635069       -17.2811
  55   2.0000      -0.592151       -16.1133
  56   2.0000      -0.587343       -15.9824
  57   2.0000      -0.577111       -15.7040
  58   2.0000      -0.568683       -15.4747
  59   2.0000      -0.563274       -15.3275
  60   2.0000      -0.502308       -13.6685
  61   2.0000      -0.495684       -13.4882
  62   2.0000      -0.476158       -12.9569
  63   2.0000      -0.466342       -12.6898
  64   2.0000      -0.459898       -12.5145
  65   2.0000      -0.447032       -12.1644
  66   2.0000      -0.434613       -11.8264
  67   2.0000      -0.430758       -11.7215
  68   2.0000      -0.427858       -11.6426
  69   2.0000      -0.415371       -11.3028
  70   2.0000      -0.410776       -11.1778
  71   2.0000      -0.397797       -10.8246
  72   2.0000      -0.391076       -10.6417
  73   2.0000      -0.382803       -10.4166
  74   2.0000      -0.378719       -10.3055
  75   2.0000      -0.375409       -10.2154
  76   2.0000      -0.363951        -9.9036
  77   2.0000      -0.360830        -9.8187
  78   2.0000      -0.353121        -9.6089
  79   2.0000      -0.350973        -9.5505
  80   2.0000      -0.347495        -9.4558
  81   2.0000      -0.341270        -9.2864
  82   2.0000      -0.337604        -9.1867
  83   2.0000      -0.335947        -9.1416
  84   2.0000      -0.328505        -8.9391
  85   2.0000      -0.318361        -8.6630
  86   2.0000      -0.309943        -8.4340
  87   2.0000      -0.297308        -8.0901
  88   2.0000      -0.291210        -7.9242
  89   2.0000      -0.288317        -7.8455
  90   2.0000      -0.280616        -7.6360
  91   2.0000      -0.274776        -7.4770
  92   2.0000      -0.268915        -7.3176
  93   2.0000      -0.260025        -7.0756
  94   2.0000      -0.250584        -6.8187
  95   2.0000      -0.248635        -6.7657
  96   2.0000      -0.219747        -5.9796
  97   2.0000      -0.204310        -5.5596
  98   2.0000      -0.186107        -5.0642
  99   2.0000      -0.182031        -4.9533
 100   2.0000      -0.181293        -4.9332
 101   0.0000      -0.050958        -1.3866
 102   0.0000      -0.027077        -0.7368
 103   0.0000      -0.013072        -0.3557
 104   0.0000      -0.004411        -0.1200
 105   0.0000       0.017082         0.4648

MULLIKEN ATOMIC CHARGES
-----------------------
   0 C :   -0.284393
   1 C :   -0.022843
   2 O :   -0.364638
   3 P :    0.617401
   4 S :   -0.279807
   5 O :   -0.382819
   6 C :   -0.000381
   7 C :   -0.343958
   8 S :   -0.122513
   9 C :   -0.335376
  10 S :   -0.105214
  11 P :    0.606782
  12 S :   -0.306566
  13 O :   -0.369320
  14 C :   -0.003274
  15 C :   -0.314621
  16 O :   -0.365379
  17 C :   -0.014791
  18 C :   -0.329066
  19 H :    0.108172
  20 H :    0.120781
  21 H :    0.124791
  22 H :    0.101736
  23 H :    0.106513
  24 H :    0.101772
  25 H :    0.113660
  26 H :    0.112989
  27 H :    0.161337
  28 H :    0.109765
  29 H :    0.189319
  30 H :    0.185034
  31 H :    0.112196
  32 H :    0.104636
  33 H :    0.116526
  34 H :    0.129804
  35 H :    0.112812
  36 H :    0.114140
  37 H :    0.107636
  38 H :    0.123911
  39 H :    0.155330
  40 H :    0.107914
Sum of atomic charges:    0.0000000

LOEWDIN ATOMIC CHARGES
----------------------
   0 C :   -0.358031
   1 C :   -0.119381
   2 O :   -0.239979
   3 P :    0.565797
   4 S :   -0.288913
   5 O :   -0.246287
   6 C :   -0.117509
   7 C :   -0.375772
   8 S :    0.080073
   9 C :   -0.471352
  10 S :    0.077364
  11 P :    0.567260
  12 S :   -0.298942
  13 O :   -0.243374
  14 C :   -0.119030
  15 C :   -0.361759
  16 O :   -0.244428
  17 C :   -0.115833
  18 C :   -0.373236
  19 H :    0.129111
  20 H :    0.129301
  21 H :    0.127537
  22 H :    0.103164
  23 H :    0.117648
  24 H :    0.116409
  25 H :    0.112863
  26 H :    0.132322
  27 H :    0.121844
  28 H :    0.121446
  29 H :    0.133287
  30 H :    0.132809
  31 H :    0.106683
  32 H :    0.117561
  33 H :    0.123501
  34 H :    0.115977
  35 H :    0.132289
  36 H :    0.107320
  37 H :    0.120678
  38 H :    0.128877
  39 H :    0.123913
  40 H :    0.128790

  Mayer bond orders larger than 0.100000
B(  0-C ,  1-C ) :   1.1696 B(  0-C , 19-H ) :   0.9393 B(  0-C , 20-H ) :   0.9472
B(  0-C , 21-H ) :   0.9414 B(  1-C ,  2-O ) :   0.8939 B(  1-C , 22-H ) :   0.9065
B(  1-C , 23-H ) :   0.9339 B(  2-O ,  3-P ) :   1.1154 B(  3-P ,  4-S ) :   1.6991
B(  3-P ,  5-O ) :   1.0811 B(  3-P ,  8-S ) :   0.9311 B(  4-S ,  8-S ) :   0.1115
B(  5-O ,  6-C ) :   0.9047 B(  6-C ,  7-C ) :   1.1667 B(  6-C , 24-H ) :   0.9337
B(  6-C , 25-H ) :   0.9109 B(  7-C , 26-H ) :   0.9379 B(  7-C , 27-H ) :   0.9176
B(  7-C , 28-H ) :   0.9444 B(  8-S ,  9-C ) :   1.0019 B(  9-C , 10-S ) :   1.0074
B(  9-C , 29-H ) :   0.9008 B(  9-C , 30-H ) :   0.9065 B( 10-S , 11-P ) :   0.9441
B( 10-S , 12-S ) :   0.1149 B( 11-P , 12-S ) :   1.6315 B( 11-P , 13-O ) :   1.1131
B( 11-P , 16-O ) :   1.1218 B( 13-O , 14-C ) :   0.9073 B( 14-C , 15-C ) :   1.1655
B( 14-C , 31-H ) :   0.8942 B( 14-C , 32-H ) :   0.9329 B( 15-C , 33-H ) :   0.9449
B( 15-C , 34-H ) :   0.9325 B( 15-C , 35-H ) :   0.9384 B( 16-O , 17-C ) :   0.9200
B( 17-C , 18-C ) :   1.1632 B( 17-C , 36-H ) :   0.9233 B( 17-C , 37-H ) :   0.9342
B( 18-C , 38-H ) :   0.9415 B( 18-C , 39-H ) :   0.9249 B( 18-C , 40-H ) :   0.9346

Dispersion correction           -0.068082957
FINAL SINGLE POINT ENERGY     -2929.507688318292

DIPOLE MOMENT
-------------

Method             : SCF
Type of density    : Electron Density
Multiplicity       :   1
Irrep              :   0
Energy             : -2929.6242039297148949 Eh
Relativity type    :
Basis              : AO
                                X                 Y                 Z
Electronic contribution:     -7.793621774      -5.354787007      -6.830136989
Nuclear contribution   :      8.504186445       4.986140546       8.130381587
                        -----------------------------------------
Total Dipole Moment    :      0.710564671      -0.368646460       1.300244598
                        -----------------------------------------
Magnitude (a.u.)       :      1.526904836
Magnitude (Debye)      :      3.881083660

Rotational constants in cm-1:             0.011441             0.005650             0.005282
Rotational constants in MHz :           342.989768           169.368907           158.364409

                             ****ORCA TERMINATED NORMALLY****
TOTAL RUN TIME: 0 days 0 hours 0 minutes 21 seconds 414 msec
