                         Program Version 6.0.0  -   RELEASE  -
|  1> ! pbe def2-sv(p) def2/J RI DEFGRID1 loosescf d4 GCP(DFT/SV(P)) printgap
|  2> %output
|  3>     printlevel normal
|  4> end
|  5> * xyz 0 1
|  6> C 5.7591809884 -0.4344785706 -1.24399626
|  7> C 4.6841031172 -1.4083520544 -1.680716228
|  8> O 3.3612502806 -0.8336062142 -1.6085783559
|  9> P 2.682993346 -0.3207901269 -0.2742682944
| 10> S 3.1560863123 1.4649975967 0.4021791939
| 11> O 3.0321974397 -1.5058234617 0.7322846278
| 12> C 2.9494563701 -1.3574188025 2.1585591618
| 13> C 1.5207989392 -1.4592759784 2.6510490325
| 14> S 0.6837643391 -0.5515835728 -0.934668225
| 15> C -0.0465537277 0.9890804818 -0.3015529063
| 16> S -1.19772479 0.7338531292 1.0711099924
| 17> P -2.9749758623 0.3744557177 -0.055971509
| 18> S -2.9188886942 0.9941563253 -1.9225011861
| 19> O -4.1433549546 0.9445468413 0.8385784869
| 20> C -4.6031597379 2.3035375819 0.7222909083
| 21> C -3.5733031686 3.3035889403 1.2091978211
| 22> O -3.3570918918 -1.1474979084 0.1503803048
| 23> C -2.6422314357 -2.2265418364 -0.4827012045
| 24> C -1.7379136653 -2.9223641074 0.5155544117
| 25> H 5.6377279483 -0.1866284612 -0.1902094378
| 26> H 6.7360890319 -0.8838814354 -1.3920069276
| 27> H 5.6945838401 0.4842282767 -1.8225964617
| 28> H 4.7011750657 -2.3119414957 -1.067665852
| 29> H 4.7876665992 -1.6719772383 -2.7345873716
| 30> H 3.5657116056 -2.1693699902 2.5473641243
| 31> H 3.3866052906 -0.3921057193 2.4353487636
| 32> H 1.0709462905 -2.38758153 2.3086306269
| 33> H 1.5122381151 -1.4363526924 3.735890268
| 34> H 0.932551091 -0.6190595026 2.2820342866
| 35> H -0.5894800109 1.4535494182 -1.126375848
| 36> H 0.7575981596 1.6353515629 0.0591621547
| 37> H -4.8623596757 2.4955946939 -0.3239838329
| 38> H -5.504773242 2.325085954 1.3360138469
| 39> H -3.2319091584 3.0386720832 2.2066616918
| 40> H -2.7170847742 3.3181911561 0.5360450002
| 41> H -4.0178711592 4.2935016146 1.2309290235
| 42> H -3.4187843205 -2.9011997509 -0.8489677004
| 43> H -2.0705431579 -1.8400508882 -1.3341139788
| 44> H -2.3179668803 -3.2503033391 1.37323041
| 45> H -1.2772065004 -3.7806209271 0.0373042198
| 46> H -0.9584757103 -2.2452168497 0.8542380994
| 47> *
| 48>
| 49>                          ****END OF INPUT****

CARTESIAN COORDINATES (ANGSTROEM)
---------------------------------
  C      5.759181   -0.434479   -1.243996
  C      4.684103   -1.408352   -1.680716
  O      3.361250   -0.833606   -1.608578
  P      2.682993   -0.320790   -0.274268
  S      3.156086    1.464998    0.402179
  O      3.032197   -1.505823    0.732285
  C      2.949456   -1.357419    2.158559
  C      1.520799   -1.459276    2.651049
  S      0.683764   -0.551584   -0.934668
  C     -0.046554    0.989080   -0.301553
  S     -1.197725    0.733853    1.071110
  P     -2.974976    0.374456   -0.055972
  S     -2.918889    0.994156   -1.922501
  O     -4.143355    0.944547    0.838578
  C     -4.603160    2.303538    0.722291
  C     -3.573303    3.303589    1.209198
  O     -3.357092   -1.147498    0.150380
  C     -2.642231   -2.226542   -0.482701
  C     -1.737914   -2.922364    0.515554
  H      5.637728   -0.186628   -0.190209
  H      6.736089   -0.883881   -1.392007
  H      5.694584    0.484228   -1.822596
  H      4.701175   -2.311941   -1.067666
  H      4.787667   -1.671977   -2.734587
  H      3.565712   -2.169370    2.547364
  H      3.386605   -0.392106    2.435349
  H      1.070946   -2.387582    2.308631
  H      1.512238   -1.436353    3.735890
  H      0.932551   -0.619060    2.282034
  H     -0.589480    1.453549   -1.126376
  H      0.757598    1.635352    0.059162
  H     -4.862360    2.495595   -0.323984
  H     -5.504773    2.325086    1.336014
  H     -3.231909    3.038672    2.206662
  H     -2.717085    3.318191    0.536045
  H     -4.017871    4.293502    1.230929
  H     -3.418784   -2.901200   -0.848968
  H     -2.070543   -1.840051   -1.334114
  H     -2.317967   -3.250303    1.373230
  H     -1.277207   -3.780621    0.037304
  H     -0.958476   -2.245217    0.854238

 Total Charge           Charge          ....    0
 Multiplicity           Mult            ....    1
 Number of Electrons    NEL             ....  202
 Basis Dimension        Dim             ....  334

ORBITAL ENERGIES
----------------

  NO   OCC          E(Eh)            E(eV)
   0   2.0000     -88.045863     -2395.8497
   1   2.0000     -88.044060     -2395.8007
   2   2.0000     -87.994649     -2394.4561
   3   2.0000     -87.991893     -2394.3811
   4   2.0000     -76.431431     -2079.8050
   5   2.0000     -76.428121     -2079.7149
   6   2.0000     -18.798747      -511.5399
   7   2.0000     -18.795620      -511.4548
   8   2.0000     -18.792630      -511.3735
   9   2.0000     -18.787933      -511.2457
  10   2.0000      -9.958909      -270.9957
  11   2.0000      -9.955879      -270.9132
  12   2.0000      -9.953756      -270.8555
  13   2.0000      -9.951637      -270.7978
  14   2.0000      -9.948403      -270.7098
  15   2.0000      -9.887327      -269.0479
  16   2.0000      -9.887327      -269.0478
  17   2.0000      -9.884115      -268.9604
  18   2.0000      -9.880735      -268.8685
  19   2.0000      -7.690086      -209.2579
  20   2.0000      -7.688967      -209.2274
  21   2.0000      -7.639466      -207.8804
  22   2.0000      -7.636769      -207.8071
  23   2.0000      -6.428981      -174.9415
  24   2.0000      -6.425614      -174.8499
  25   2.0000      -5.717815      -155.5897
  26   2.0000      -5.716777      -155.5614
  27   2.0000      -5.714632      -155.5030
  28   2.0000      -5.713487      -155.4719
  29   2.0000      -5.707301      -155.3035
  30   2.0000      -5.706013      -155.2685
  31   2.0000      -5.668211      -154.2399
  32   2.0000      -5.665549      -154.1674
  33   2.0000      -5.660357      -154.0262
  34   2.0000      -5.659547      -154.0041
  35   2.0000      -5.657448      -153.9470
  36   2.0000      -5.657049      -153.9361
  37   2.0000      -4.651758      -126.5808
  38   2.0000      -4.650405      -126.5440
  39   2.0000      -4.649572      -126.5213
  40   2.0000      -4.647831      -126.4739
  41   2.0000      -4.647557      -126.4664
  42   2.0000      -4.646155      -126.4283
  43   2.0000      -0.993144       -27.0248
  44   2.0000      -0.990004       -26.9394
  45   2.0000      -0.949262       -25.8307
  46   2.0000      -0.945075       -25.7168
  47   2.0000      -0.761770       -20.7288
  48   2.0000      -0.724885       -19.7251
  49   2.0000      -0.712333       -19.3836
  50   2.0000      -0.692671       -18.8485
  51   2.0000      -0.683667       -18.6035
  52   2.0000      -0.678588       -18.4653
  53   2.0000      -0.654069       -17.7981
  54   2.0000      -0.639773       -17.4091
  55   2.0000      -0.605982       -16.4896
  56   2.0000      -0.597776       -16.2663
  57   2.0000      -0.582125       -15.8404
  58   2.0000      -0.565608       -15.3910
  59   2.0000      -0.557510       -15.1706
  60   2.0000      -0.502310       -13.6686
  61   2.0000      -0.498045       -13.5525
  62   2.0000      -0.476689       -12.9714
  63   2.0000      -0.471468       -12.8293
  64   2.0000      -0.462029       -12.5725
  65   2.0000      -0.449788       -12.2394
  66   2.0000      -0.438118       -11.9218
  67   2.0000      -0.435334       -11.8460
  68   2.0000      -0.424277       -11.5452
  69   2.0000      -0.422681       -11.5017
  70   2.0000      -0.416625       -11.3370
  71   2.0000      -0.406718       -11.0674
  72   2.0000      -0.393743       -10.7143
  73   2.0000      -0.390055       -10.6139
  74   2.0000      -0.382840       -10.4176
  75   2.0000      -0.377372       -10.2688
  76   2.0000      -0.367008        -9.9868
  77   2.0000      -0.357298        -9.7226
  78   2.0000      -0.356168        -9.6918
  79   2.0000      -0.351424        -9.5627
  80   2.0000      -0.348961        -9.4957
  81   2.0000      -0.345377        -9.3982
  82   2.0000      -0.341024        -9.2797
  83   2.0000      -0.339153        -9.2288
  84   2.0000      -0.334879        -9.1125
  85   2.0000      -0.324766        -8.8373
  86   2.0000      -0.313107        -8.5201
  87   2.0000      -0.301051        -8.1920
  88   2.0000      -0.298408        -8.1201
  89   2.0000      -0.294076        -8.0022
  90   2.0000      -0.290667        -7.9095
  91   2.0000      -0.280033        -7.6201
  92   2.0000      -0.270382        -7.3575
  93   2.0000      -0.267935        -7.2909
  94   2.0000      -0.259130        -7.0513
  95   2.0000      -0.231755        -6.3064
  96   2.0000      -0.224696        -6.1143
  97   2.0000      -0.216386        -5.8882
  98   2.0000      -0.210180        -5.7193
  99   2.0000      -0.208112        -5.6630
 100   2.0000      -0.202090        -5.4992
 101   0.0000      -0.046366        -1.2617
 102   0.0000      -0.037317        -1.0154
 103   0.0000      -0.013256        -0.3607
 104   0.0000       0.001453         0.0395
 105   0.0000       0.008983         0.2444

MULLIKEN ATOMIC CHARGES
-----------------------
   0 C :   -0.316317
   1 C :   -0.001949
   2 O :   -0.371126
   3 P :    0.629041
   4 S :   -0.323376
   5 O :   -0.380915
   6 C :   -0.008499
   7 C :   -0.325320
   8 S :   -0.083638
   9 C :   -0.366989
  10 S :   -0.108826
  11 P :    0.594229
  12 S :   -0.321132
  13 O :   -0.356990
  14 C :   -0.001341
  15 C :   -0.314259
  16 O :   -0.352721
  17 C :   -0.011215
  18 C :   -0.314140
  19 H :    0.127803
  20 H :    0.112122
  21 H :    0.127233
  22 H :    0.110140
  23 H :    0.110843
  24 H :    0.103033
  25 H :    0.112754
  26 H :    0.130339
  27 H :    0.113438
  28 H :    0.131700
  29 H :    0.199872
  30 H :    0.194737
  31 H :    0.113893
  32 H :    0.108648
  33 H :    0.119616
  34 H :    0.124872
  35 H :    0.113636
  36 H :    0.109556
  37 H :    0.106279
  38 H :    0.112399
  39 H :    0.106778
  40 H :    0.145790
Sum of atomic charges:    0.0000000

LOEWDIN ATOMIC CHARGES
----------------------
   0 C :   -0.366441
   1 C :   -0.110556
   2 O :   -0.241982
   3 P :    0.569237
   4 S :   -0.301749
   5 O :   -0.246804
   6 C :   -0.122635
   7 C :   -0.365705
   8 S :    0.096897
   9 C :   -0.494928
  10 S :    0.086333
  11 P :    0.569950
  12 S :   -0.307954
  13 O :   -0.232464
  14 C :   -0.115678
  15 C :   -0.368901
  16 O :   -0.236558
  17 C :   -0.116017
  18 C :   -0.366424
  19 H :    0.121878
  20 H :    0.130285
  21 H :    0.131366
  22 H :    0.113333
  23 H :    0.122381
  24 H :    0.117372
  25 H :    0.108092
  26 H :    0.127444
  27 H :    0.132498
  28 H :    0.113723
  29 H :    0.125583
  30 H :    0.123802
  31 H :    0.112277
  32 H :    0.120612
  33 H :    0.125299
  34 H :    0.120806
  35 H :    0.131187
  36 H :    0.120568
  37 H :    0.102819
  38 H :    0.125258
  39 H :    0.128882
  40 H :    0.116915

  Mayer bond orders larger than 0.100000
B(  0-C ,  1-C ) :   1.1659 B(  0-C , 19-H ) :   0.9366 B(  0-C , 20-H ) :   0.9363
B(  0-C , 21-H ) :   0.9452 B(  1-C ,  2-O ) :   0.9062 B(  1-C , 22-H ) :   0.9288
B(  1-C , 23-H ) :   0.9345 B(  2-O ,  3-P ) :   1.1367 B(  3-P ,  4-S ) :   1.6029
B(  3-P ,  5-O ) :   1.0763 B(  3-P ,  8-S ) :   0.9696 B(  4-S ,  8-S ) :   0.1213
B(  4-S , 30-H ) :   0.1179 B(  5-O ,  6-C ) :   0.9119 B(  6-C ,  7-C ) :   1.1629
B(  6-C , 24-H ) :   0.9318 B(  6-C , 25-H ) :   0.9086 B(  7-C , 26-H ) :   0.9367
B(  7-C , 27-H ) :   0.9368 B(  7-C , 28-H ) :   0.9310 B(  8-S ,  9-C ) :   1.0087
B(  9-C , 10-S ) :   1.0087 B(  9-C , 29-H ) :   0.8583 B(  9-C , 30-H ) :   0.8460
B( 10-S , 11-P ) :   0.9326 B( 10-S , 12-S ) :   0.1229 B( 11-P , 12-S ) :   1.6037
B( 11-P , 13-O ) :   1.1376 B( 11-P , 16-O ) :   1.1333 B( 12-S , 29-H ) :   0.1017
B( 13-O , 14-C ) :   0.9090 B( 14-C , 15-C ) :   1.1645 B( 14-C , 31-H ) :   0.9178
B( 14-C , 32-H ) :   0.9343 B( 15-C , 33-H ) :   0.9441 B( 15-C , 34-H ) :   0.9381
B( 15-C , 35-H ) :   0.9376 B( 16-O , 17-C ) :   0.9070 B( 17-C , 18-C ) :   1.1655
B( 17-C , 36-H ) :   0.9354 B( 17-C , 37-H ) :   0.9040 B( 18-C , 38-H ) :   0.9452
B( 18-C , 39-H ) :   0.9403 B( 18-C , 40-H ) :   0.9221

Dispersion correction           -0.063562674
FINAL SINGLE POINT ENERGY     -2929.522727076971

DIPOLE MOMENT
-------------

Method             : SCF
Type of density    : Electron Density
Multiplicity       :   1
Irrep              :   0
Energy             : -2929.6437323133982318 Eh
Relativity type    :
Basis              : AO
                                X                 Y                 Z
Electronic contribution:     -6.969595644       5.838700989      -9.033148446
Nuclear contribution   :      7.585666699      -6.759397642       9.814534401
                        -----------------------------------------
Total Dipole Moment    :      0.616071056      -0.920696654       0.781385955
                        -----------------------------------------
Magnitude (a.u.)       :      1.355651093
Magnitude (Debye)      :      3.445791236

Rotational constants in cm-1:             0.013956             0.004010             0.003883
Rotational constants in MHz :           418.380735           120.205562           116.420054

                             ****ORCA TERMINATED NORMALLY****
TOTAL RUN TIME: 0 days 0 hours 0 minutes 20 seconds 397 msec
