                         Program Version 6.0.0  -   RELEASE  -
|  1> ! pbe def2-sv(p) def2/J RI DEFGRID1 loosescf d4 GCP(DFT/SV(P)) printgap
|  2> %output
|  3>     printlevel normal
|  4> end
|  5> * xyz 0 1
|  6> C 4.7110738882 -2.1607853675 -0.1222309601
|  7> C 4.5869452212 -0.6873380069 0.2091691055
|  8> O 3.8796838303 -0.0010602871 -0.8586377156
|  9> P 2.4478340337 0.6280533449 -0.68295198
| 10> S 1.8091512277 1.3837387576 -2.3673899507
| 11> O 2.7124500985 1.6509580226 0.5070488247
| 12> C 1.7578424813 2.6219902306 0.9732214319
| 13> C 1.078323009 2.147466714 2.2427316361
| 14> S 1.2652506713 -0.9187077015 0.1889988469
| 15> C 0.255080922 -1.3565531424 -1.2635458344
| 16> S -1.3884085525 -1.911429263 -0.779067284
| 17> P -2.0168773272 -0.1356982312 0.2302159814
| 18> S -1.4340428838 1.558345401 -0.5580388976
| 19> O -1.563195682 -0.2809376441 1.7278904164
| 20> C -1.9067322938 -1.4167622635 2.5643121533
| 21> C -3.1093549971 -1.096048472 3.4269296248
| 22> O -3.5879651365 -0.3503585141 0.3120751924
| 23> C -4.4193440832 -0.2478709218 -0.8619463552
| 24> C -5.8622705802 -0.1902610891 -0.40351262
| 25> H 5.1633339142 -2.2825128796 -1.1024243937
| 26> H 5.3364226779 -2.6404985214 0.6238858638
| 27> H 3.7322713047 -2.6338115926 -0.1230713733
| 28> H 5.5638421384 -0.2043973421 0.2572414446
| 29> H 4.0542910619 -0.5331721627 1.1500757438
| 30> H 2.3475194917 3.5226958209 1.1543324969
| 31> H 1.0273717727 2.8224951302 0.1827270353
| 32> H 1.8228535606 1.869758674 2.9833602587
| 33> H 0.4621804045 2.9519292267 2.6315308288
| 34> H 0.4394031338 1.290618467 2.03922206
| 35> H 0.7146722414 -2.1871178672 -1.7937372675
| 36> H 0.1788417268 -0.4722087073 -1.9033692947
| 37> H -2.0941756061 -2.2834281016 1.9248028604
| 38> H -1.013258848 -1.5892509151 3.1667631544
| 39> H -2.9139227051 -0.2100168415 4.0244329925
| 40> H -3.9808344996 -0.9132434029 2.804191859
| 41> H -3.3076311524 -1.9363455667 4.0848323193
| 42> H -4.1350709035 0.6548750791 -1.4126461615
| 43> H -4.2336290177 -1.1231040595 -1.4905320726
| 44> H -6.111268956 -1.0886523024 0.1536044578
| 45> H -6.017453851 0.6763300662 0.2329633446
| 46> H -6.5082815742 -0.116117948 -1.2720733681
| 47> *
| 48>
| 49>                          ****END OF INPUT****

CARTESIAN COORDINATES (ANGSTROEM)
---------------------------------
  C      4.711074   -2.160785   -0.122231
  C      4.586945   -0.687338    0.209169
  O      3.879684   -0.001060   -0.858638
  P      2.447834    0.628053   -0.682952
  S      1.809151    1.383739   -2.367390
  O      2.712450    1.650958    0.507049
  C      1.757842    2.621990    0.973221
  C      1.078323    2.147467    2.242732
  S      1.265251   -0.918708    0.188999
  C      0.255081   -1.356553   -1.263546
  S     -1.388409   -1.911429   -0.779067
  P     -2.016877   -0.135698    0.230216
  S     -1.434043    1.558345   -0.558039
  O     -1.563196   -0.280938    1.727890
  C     -1.906732   -1.416762    2.564312
  C     -3.109355   -1.096048    3.426930
  O     -3.587965   -0.350359    0.312075
  C     -4.419344   -0.247871   -0.861946
  C     -5.862271   -0.190261   -0.403513
  H      5.163334   -2.282513   -1.102424
  H      5.336423   -2.640499    0.623886
  H      3.732271   -2.633812   -0.123071
  H      5.563842   -0.204397    0.257241
  H      4.054291   -0.533172    1.150076
  H      2.347519    3.522696    1.154332
  H      1.027372    2.822495    0.182727
  H      1.822854    1.869759    2.983360
  H      0.462180    2.951929    2.631531
  H      0.439403    1.290618    2.039222
  H      0.714672   -2.187118   -1.793737
  H      0.178842   -0.472209   -1.903369
  H     -2.094176   -2.283428    1.924803
  H     -1.013259   -1.589251    3.166763
  H     -2.913923   -0.210017    4.024433
  H     -3.980834   -0.913243    2.804192
  H     -3.307631   -1.936346    4.084832
  H     -4.135071    0.654875   -1.412646
  H     -4.233629   -1.123104   -1.490532
  H     -6.111269   -1.088652    0.153604
  H     -6.017454    0.676330    0.232963
  H     -6.508282   -0.116118   -1.272073

 Total Charge           Charge          ....    0
 Multiplicity           Mult            ....    1
 Number of Electrons    NEL             ....  202
 Basis Dimension        Dim             ....  334

ORBITAL ENERGIES
----------------

  NO   OCC          E(Eh)            E(eV)
   0   2.0000     -88.047007     -2395.8809
   1   2.0000     -88.039460     -2395.6755
   2   2.0000     -87.983485     -2394.1523
   3   2.0000     -87.977613     -2393.9926
   4   2.0000     -76.428057     -2079.7132
   5   2.0000     -76.419209     -2079.4724
   6   2.0000     -18.798509      -511.5334
   7   2.0000     -18.797231      -511.4987
   8   2.0000     -18.784828      -511.1611
   9   2.0000     -18.784192      -511.1438
  10   2.0000      -9.960154      -271.0296
  11   2.0000      -9.957501      -270.9574
  12   2.0000      -9.954174      -270.8669
  13   2.0000      -9.951852      -270.8037
  14   2.0000      -9.939894      -270.4783
  15   2.0000      -9.892970      -269.2014
  16   2.0000      -9.890348      -269.1301
  17   2.0000      -9.884818      -268.9796
  18   2.0000      -9.870556      -268.5915
  19   2.0000      -7.691991      -209.3097
  20   2.0000      -7.683869      -209.0887
  21   2.0000      -7.628388      -207.5790
  22   2.0000      -7.622979      -207.4318
  23   2.0000      -6.425451      -174.8454
  24   2.0000      -6.416815      -174.6104
  25   2.0000      -5.719802      -155.6437
  26   2.0000      -5.716345      -155.5496
  27   2.0000      -5.711669      -155.4224
  28   2.0000      -5.709255      -155.3567
  29   2.0000      -5.708477      -155.3356
  30   2.0000      -5.700906      -155.1295
  31   2.0000      -5.657431      -153.9465
  32   2.0000      -5.652026      -153.7994
  33   2.0000      -5.648742      -153.7101
  34   2.0000      -5.648677      -153.7083
  35   2.0000      -5.643418      -153.5652
  36   2.0000      -5.643106      -153.5567
  37   2.0000      -4.648317      -126.4871
  38   2.0000      -4.647353      -126.4609
  39   2.0000      -4.645493      -126.4103
  40   2.0000      -4.639521      -126.2478
  41   2.0000      -4.638582      -126.2222
  42   2.0000      -4.637153      -126.1834
  43   2.0000      -0.994075       -27.0501
  44   2.0000      -0.980790       -26.6887
  45   2.0000      -0.951213       -25.8838
  46   2.0000      -0.936306       -25.4782
  47   2.0000      -0.762077       -20.7372
  48   2.0000      -0.722114       -19.6497
  49   2.0000      -0.711150       -19.3514
  50   2.0000      -0.697192       -18.9716
  51   2.0000      -0.682008       -18.5584
  52   2.0000      -0.673308       -18.3216
  53   2.0000      -0.647925       -17.6309
  54   2.0000      -0.631164       -17.1748
  55   2.0000      -0.591855       -16.1052
  56   2.0000      -0.584447       -15.9036
  57   2.0000      -0.574072       -15.6213
  58   2.0000      -0.569899       -15.5077
  59   2.0000      -0.561905       -15.2902
  60   2.0000      -0.511848       -13.9281
  61   2.0000      -0.498162       -13.5557
  62   2.0000      -0.486818       -13.2470
  63   2.0000      -0.470660       -12.8073
  64   2.0000      -0.450468       -12.2579
  65   2.0000      -0.448601       -12.2071
  66   2.0000      -0.445307       -12.1174
  67   2.0000      -0.434595       -11.8259
  68   2.0000      -0.431705       -11.7473
  69   2.0000      -0.415401       -11.3036
  70   2.0000      -0.408500       -11.1159
  71   2.0000      -0.393939       -10.7196
  72   2.0000      -0.392219       -10.6728
  73   2.0000      -0.386037       -10.5046
  74   2.0000      -0.375471       -10.2171
  75   2.0000      -0.367215        -9.9924
  76   2.0000      -0.361859        -9.8467
  77   2.0000      -0.358790        -9.7632
  78   2.0000      -0.355916        -9.6850
  79   2.0000      -0.354167        -9.6374
  80   2.0000      -0.349486        -9.5100
  81   2.0000      -0.345401        -9.3989
  82   2.0000      -0.342629        -9.3234
  83   2.0000      -0.337921        -9.1953
  84   2.0000      -0.324894        -8.8408
  85   2.0000      -0.320861        -8.7311
  86   2.0000      -0.308526        -8.3954
  87   2.0000      -0.304228        -8.2785
  88   2.0000      -0.298698        -8.1280
  89   2.0000      -0.294397        -8.0110
  90   2.0000      -0.282017        -7.6741
  91   2.0000      -0.279681        -7.6105
  92   2.0000      -0.269270        -7.3272
  93   2.0000      -0.264264        -7.1910
  94   2.0000      -0.254617        -6.9285
  95   2.0000      -0.235063        -6.3964
  96   2.0000      -0.221503        -6.0274
  97   2.0000      -0.207208        -5.6384
  98   2.0000      -0.200163        -5.4467
  99   2.0000      -0.194453        -5.2913
 100   2.0000      -0.185794        -5.0557
 101   0.0000      -0.044555        -1.2124
 102   0.0000      -0.031061        -0.8452
 103   0.0000      -0.008253        -0.2246
 104   0.0000       0.010890         0.2963
 105   0.0000       0.015146         0.4121

MULLIKEN ATOMIC CHARGES
-----------------------
   0 C :   -0.283743
   1 C :   -0.011057
   2 O :   -0.358440
   3 P :    0.607264
   4 S :   -0.291951
   5 O :   -0.380866
   6 C :   -0.008691
   7 C :   -0.316337
   8 S :   -0.139837
   9 C :   -0.341954
  10 S :   -0.115862
  11 P :    0.595671
  12 S :   -0.295974
  13 O :   -0.345688
  14 C :   -0.009032
  15 C :   -0.291717
  16 O :   -0.381862
  17 C :   -0.013220
  18 C :   -0.283709
  19 H :    0.120192
  20 H :    0.107184
  21 H :    0.114779
  22 H :    0.112047
  23 H :    0.104050
  24 H :    0.100445
  25 H :    0.123801
  26 H :    0.099577
  27 H :    0.106169
  28 H :    0.147877
  29 H :    0.178721
  30 H :    0.213539
  31 H :    0.102172
  32 H :    0.110850
  33 H :    0.120260
  34 H :    0.123650
  35 H :    0.110661
  36 H :    0.110468
  37 H :    0.105996
  38 H :    0.115754
  39 H :    0.123197
  40 H :    0.115618
Sum of atomic charges:    0.0000000

LOEWDIN ATOMIC CHARGES
----------------------
   0 C :   -0.358831
   1 C :   -0.112669
   2 O :   -0.241689
   3 P :    0.565476
   4 S :   -0.287203
   5 O :   -0.247305
   6 C :   -0.116327
   7 C :   -0.368472
   8 S :    0.054420
   9 C :   -0.479792
  10 S :    0.064325
  11 P :    0.562282
  12 S :   -0.291207
  13 O :   -0.226560
  14 C :   -0.114149
  15 C :   -0.359388
  16 O :   -0.249637
  17 C :   -0.120172
  18 C :   -0.350633
  19 H :    0.129261
  20 H :    0.128360
  21 H :    0.119701
  22 H :    0.121986
  23 H :    0.106095
  24 H :    0.116114
  25 H :    0.109008
  26 H :    0.118124
  27 H :    0.129662
  28 H :    0.121599
  29 H :    0.133413
  30 H :    0.124115
  31 H :    0.104096
  32 H :    0.120958
  33 H :    0.129067
  34 H :    0.126448
  35 H :    0.129959
  36 H :    0.112531
  37 H :    0.108976
  38 H :    0.125539
  39 H :    0.129816
  40 H :    0.132703

  Mayer bond orders larger than 0.100000
B(  0-C ,  1-C ) :   1.1627 B(  0-C , 19-H ) :   0.9463 B(  0-C , 20-H ) :   0.9404
B(  0-C , 21-H ) :   0.9405 B(  1-C ,  2-O ) :   0.8907 B(  1-C , 22-H ) :   0.9343
B(  1-C , 23-H ) :   0.9178 B(  2-O ,  3-P ) :   1.1352 B(  3-P ,  4-S ) :   1.6669
B(  3-P ,  5-O ) :   1.1053 B(  3-P ,  8-S ) :   0.9228 B(  4-S ,  8-S ) :   0.1176
B(  4-S , 30-H ) :   0.1002 B(  5-O ,  6-C ) :   0.8973 B(  6-C ,  7-C ) :   1.1714
B(  6-C , 24-H ) :   0.9347 B(  6-C , 25-H ) :   0.9031 B(  7-C , 26-H ) :   0.9465
B(  7-C , 27-H ) :   0.9402 B(  7-C , 28-H ) :   0.9244 B(  8-S ,  9-C ) :   0.9917
B(  9-C , 10-S ) :   1.0051 B(  9-C , 29-H ) :   0.9096 B(  9-C , 30-H ) :   0.8431
B( 10-S , 11-P ) :   0.9404 B( 10-S , 12-S ) :   0.1103 B( 11-P , 12-S ) :   1.6680
B( 11-P , 13-O ) :   1.1252 B( 11-P , 16-O ) :   1.0790 B( 13-O , 14-C ) :   0.8871
B( 14-C , 15-C ) :   1.1653 B( 14-C , 31-H ) :   0.9120 B( 14-C , 32-H ) :   0.9345
B( 15-C , 33-H ) :   0.9471 B( 15-C , 34-H ) :   0.9412 B( 15-C , 35-H ) :   0.9398
B( 16-O , 17-C ) :   0.9023 B( 17-C , 18-C ) :   1.1596 B( 17-C , 36-H ) :   0.9120
B( 17-C , 37-H ) :   0.9269 B( 18-C , 38-H ) :   0.9507 B( 18-C , 39-H ) :   0.9508
B( 18-C , 40-H ) :   0.9416

Dispersion correction           -0.064483624
FINAL SINGLE POINT ENERGY     -2929.519837151768

DIPOLE MOMENT
-------------

Method             : SCF
Type of density    : Electron Density
Multiplicity       :   1
Irrep              :   0
Energy             : -2929.6397327156241772 Eh
Relativity type    :
Basis              : AO
                                X                 Y                 Z
Electronic contribution:      8.547889053       5.099530602     -16.223043651
Nuclear contribution   :     -9.257868860      -6.455995457      17.714951638
                        -----------------------------------------
Total Dipole Moment    :     -0.709979807      -1.356464855       1.491907987
                        -----------------------------------------
Magnitude (a.u.)       :      2.137722543
Magnitude (Debye)      :      5.433658883

Rotational constants in cm-1:             0.012766             0.004701             0.004602
Rotational constants in MHz :           382.715526           140.918067           137.960135

                             ****ORCA TERMINATED NORMALLY****
TOTAL RUN TIME: 0 days 0 hours 0 minutes 21 seconds 42 msec
