                         Program Version 6.0.0  -   RELEASE  -
|  1> ! pbe def2-sv(p) def2/J RI DEFGRID1 loosescf d4 GCP(DFT/SV(P)) printgap
|  2> %output
|  3>     printlevel normal
|  4> end
|  5> * xyz 0 1
|  6> C 4.4063605415 -1.6819326398 -0.7901715951
|  7> C 4.6287140214 -0.1838548219 -0.7569284537
|  8> O 3.5987557493 0.5135676391 -0.0340436233
|  9> P 2.0859139539 0.5702865744 -0.530434206
| 10> S 1.8716405802 0.6883938574 -2.4727360941
| 11> O 1.5596919761 1.8432302705 0.2384522532
| 12> C 2.0419798444 2.3180774582 1.5181594478
| 13> C 1.7273426856 1.3541654995 2.6422044441
| 14> S 1.2139495446 -1.1515241107 0.3750812751
| 15> C 0.127718873 -1.7319903801 -0.9646447886
| 16> S -1.5648267859 -2.0170649063 -0.4103358975
| 17> P -2.0170603852 -0.0248182478 0.1891208643
| 18> S -1.3570307166 1.4068181825 -0.975888403
| 19> O -1.4322660345 0.1599548885 1.6418510205
| 20> C -1.7571793989 -0.7304314326 2.7426942574
| 21> C -2.7513721038 -0.069522015 3.6746206056
| 22> O -3.5774916305 -0.098076046 0.474869892
| 23> C -4.5626317707 -0.6451943079 -0.4216056452
| 24> C -4.5166137374 -0.0175712085 -1.7985992111
| 25> H 4.2455081762 -2.0664378079 0.2136854334
| 26> H 3.5365121164 -1.9125584263 -1.4033321352
| 27> H 5.2777823918 -2.1602207871 -1.2255698003
| 28> H 4.6668210455 0.2194043699 -1.7734902053
| 29> H 5.5409057795 0.0764069813 -0.2179792597
| 30> H 3.1164164906 2.4941825012 1.4358994189
| 31> H 1.5156076298 3.2661379834 1.6415927422
| 32> H 2.2691993467 0.4201460217 2.5005432405
| 33> H 2.0234477909 1.7997211658 3.5866866189
| 34> H 0.6603852216 1.1458258214 2.6591466587
| 35> H 0.4905682455 -2.6939514177 -1.3182330659
| 36> H 0.1413171959 -0.9861284314 -1.7649377826
| 37> H -2.1526314377 -1.6661169968 2.3386051914
| 38> H -0.8037906165 -0.9229637827 3.238975114
| 39> H -3.6806901133 0.1327001639 3.1485317386
| 40> H -2.9478354725 -0.7325242056 4.5111764468
| 41> H -2.3504273722 0.8692515107 4.0466222992
| 42> H -4.4036362185 -1.725226704 -0.4837049111
| 43> H -5.5096441426 -0.4360782515 0.0790542298
| 44> H -3.5678324381 -0.2432510936 -2.2840367949
| 45> H -5.3262903422 -0.4122602486 -2.4038182997
| 46> H -4.612403172 1.0634594356 -1.7271329713
| 47> *
| 48>
| 49>                          ****END OF INPUT****

CARTESIAN COORDINATES (ANGSTROEM)
---------------------------------
  C      4.406361   -1.681933   -0.790172
  C      4.628714   -0.183855   -0.756928
  O      3.598756    0.513568   -0.034044
  P      2.085914    0.570287   -0.530434
  S      1.871641    0.688394   -2.472736
  O      1.559692    1.843230    0.238452
  C      2.041980    2.318077    1.518159
  C      1.727343    1.354165    2.642204
  S      1.213950   -1.151524    0.375081
  C      0.127719   -1.731990   -0.964645
  S     -1.564827   -2.017065   -0.410336
  P     -2.017060   -0.024818    0.189121
  S     -1.357031    1.406818   -0.975888
  O     -1.432266    0.159955    1.641851
  C     -1.757179   -0.730431    2.742694
  C     -2.751372   -0.069522    3.674621
  O     -3.577492   -0.098076    0.474870
  C     -4.562632   -0.645194   -0.421606
  C     -4.516614   -0.017571   -1.798599
  H      4.245508   -2.066438    0.213685
  H      3.536512   -1.912558   -1.403332
  H      5.277782   -2.160221   -1.225570
  H      4.666821    0.219404   -1.773490
  H      5.540906    0.076407   -0.217979
  H      3.116416    2.494183    1.435899
  H      1.515608    3.266138    1.641593
  H      2.269199    0.420146    2.500543
  H      2.023448    1.799721    3.586687
  H      0.660385    1.145826    2.659147
  H      0.490568   -2.693951   -1.318233
  H      0.141317   -0.986128   -1.764938
  H     -2.152631   -1.666117    2.338605
  H     -0.803791   -0.922964    3.238975
  H     -3.680690    0.132700    3.148532
  H     -2.947835   -0.732524    4.511176
  H     -2.350427    0.869252    4.046622
  H     -4.403636   -1.725227   -0.483705
  H     -5.509644   -0.436078    0.079054
  H     -3.567832   -0.243251   -2.284037
  H     -5.326290   -0.412260   -2.403818
  H     -4.612403    1.063459   -1.727133

 Total Charge           Charge          ....    0
 Multiplicity           Mult            ....    1
 Number of Electrons    NEL             ....  202
 Basis Dimension        Dim             ....  334

ORBITAL ENERGIES
----------------

  NO   OCC          E(Eh)            E(eV)
   0   2.0000     -88.043769     -2395.7928
   1   2.0000     -88.037242     -2395.6151
   2   2.0000     -87.978319     -2394.0118
   3   2.0000     -87.974490     -2393.9076
   4   2.0000     -76.421802     -2079.5430
   5   2.0000     -76.421054     -2079.5226
   6   2.0000     -18.793454      -511.3959
   7   2.0000     -18.789055      -511.2762
   8   2.0000     -18.787924      -511.2454
   9   2.0000     -18.780333      -511.0388
  10   2.0000      -9.959022      -270.9988
  11   2.0000      -9.954105      -270.8650
  12   2.0000      -9.951570      -270.7960
  13   2.0000      -9.950340      -270.7625
  14   2.0000      -9.949086      -270.7284
  15   2.0000      -9.887219      -269.0449
  16   2.0000      -9.882687      -268.9216
  17   2.0000      -9.881840      -268.8985
  18   2.0000      -9.881304      -268.8840
  19   2.0000      -7.688790      -209.2226
  20   2.0000      -7.681651      -209.0284
  21   2.0000      -7.623506      -207.4461
  22   2.0000      -7.619394      -207.3343
  23   2.0000      -6.418947      -174.6684
  24   2.0000      -6.418103      -174.6455
  25   2.0000      -5.716534      -155.5548
  26   2.0000      -5.713093      -155.4612
  27   2.0000      -5.709564      -155.3651
  28   2.0000      -5.706268      -155.2754
  29   2.0000      -5.706145      -155.2721
  30   2.0000      -5.698543      -155.0652
  31   2.0000      -5.652556      -153.8139
  32   2.0000      -5.648617      -153.7067
  33   2.0000      -5.643994      -153.5809
  34   2.0000      -5.643620      -153.5707
  35   2.0000      -5.639824      -153.4674
  36   2.0000      -5.639477      -153.4580
  37   2.0000      -4.641817      -126.3103
  38   2.0000      -4.641108      -126.2910
  39   2.0000      -4.641085      -126.2903
  40   2.0000      -4.639520      -126.2478
  41   2.0000      -4.638796      -126.2281
  42   2.0000      -4.638578      -126.2221
  43   2.0000      -0.987292       -26.8656
  44   2.0000      -0.981775       -26.7155
  45   2.0000      -0.943491       -25.6737
  46   2.0000      -0.936134       -25.4735
  47   2.0000      -0.759866       -20.6770
  48   2.0000      -0.716821       -19.5057
  49   2.0000      -0.708352       -19.2752
  50   2.0000      -0.690584       -18.7917
  51   2.0000      -0.686573       -18.6826
  52   2.0000      -0.675583       -18.3836
  53   2.0000      -0.646934       -17.6040
  54   2.0000      -0.629846       -17.1390
  55   2.0000      -0.593815       -16.1585
  56   2.0000      -0.585416       -15.9300
  57   2.0000      -0.574918       -15.6443
  58   2.0000      -0.572993       -15.5919
  59   2.0000      -0.562263       -15.2999
  60   2.0000      -0.501716       -13.6524
  61   2.0000      -0.490706       -13.3528
  62   2.0000      -0.473869       -12.8946
  63   2.0000      -0.464500       -12.6397
  64   2.0000      -0.451003       -12.2724
  65   2.0000      -0.446655       -12.1541
  66   2.0000      -0.441444       -12.0123
  67   2.0000      -0.437136       -11.8951
  68   2.0000      -0.428324       -11.6553
  69   2.0000      -0.420506       -11.4426
  70   2.0000      -0.409355       -11.1391
  71   2.0000      -0.398206       -10.8357
  72   2.0000      -0.394144       -10.7252
  73   2.0000      -0.385129       -10.4799
  74   2.0000      -0.382616       -10.4115
  75   2.0000      -0.365667        -9.9503
  76   2.0000      -0.358488        -9.7549
  77   2.0000      -0.356966        -9.7135
  78   2.0000      -0.349994        -9.5238
  79   2.0000      -0.347865        -9.4659
  80   2.0000      -0.344909        -9.3854
  81   2.0000      -0.343978        -9.3601
  82   2.0000      -0.337956        -9.1962
  83   2.0000      -0.337139        -9.1740
  84   2.0000      -0.332483        -9.0473
  85   2.0000      -0.319181        -8.6854
  86   2.0000      -0.308146        -8.3851
  87   2.0000      -0.296102        -8.0573
  88   2.0000      -0.291743        -7.9387
  89   2.0000      -0.290828        -7.9138
  90   2.0000      -0.286900        -7.8070
  91   2.0000      -0.277861        -7.5610
  92   2.0000      -0.266437        -7.2501
  93   2.0000      -0.259715        -7.0672
  94   2.0000      -0.253228        -6.8907
  95   2.0000      -0.232505        -6.3268
  96   2.0000      -0.217622        -5.9218
  97   2.0000      -0.208434        -5.6718
  98   2.0000      -0.193397        -5.2626
  99   2.0000      -0.186592        -5.0774
 100   2.0000      -0.180266        -4.9053
 101   0.0000      -0.039801        -1.0830
 102   0.0000      -0.032533        -0.8853
 103   0.0000      -0.009239        -0.2514
 104   0.0000       0.011126         0.3027
 105   0.0000       0.017345         0.4720

MULLIKEN ATOMIC CHARGES
-----------------------
   0 C :   -0.310939
   1 C :    0.003357
   2 O :   -0.391152
   3 P :    0.630731
   4 S :   -0.300341
   5 O :   -0.348669
   6 C :    0.011963
   7 C :   -0.356048
   8 S :   -0.128540
   9 C :   -0.336674
  10 S :   -0.123085
  11 P :    0.574650
  12 S :   -0.273185
  13 O :   -0.348699
  14 C :   -0.008550
  15 C :   -0.283494
  16 O :   -0.379032
  17 C :   -0.013622
  18 C :   -0.308184
  19 H :    0.115841
  20 H :    0.119606
  21 H :    0.110911
  22 H :    0.111980
  23 H :    0.101195
  24 H :    0.106133
  25 H :    0.111085
  26 H :    0.118535
  27 H :    0.108991
  28 H :    0.156685
  29 H :    0.177680
  30 H :    0.209460
  31 H :    0.098952
  32 H :    0.109063
  33 H :    0.119631
  34 H :    0.108296
  35 H :    0.116699
  36 H :    0.112826
  37 H :    0.108308
  38 H :    0.129775
  39 H :    0.110279
  40 H :    0.127579
Sum of atomic charges:   -0.0000000

LOEWDIN ATOMIC CHARGES
----------------------
   0 C :   -0.370903
   1 C :   -0.116646
   2 O :   -0.251920
   3 P :    0.579137
   4 S :   -0.296577
   5 O :   -0.228082
   6 C :   -0.105824
   7 C :   -0.374281
   8 S :    0.067604
   9 C :   -0.480133
  10 S :    0.059365
  11 P :    0.555870
  12 S :   -0.282741
  13 O :   -0.231496
  14 C :   -0.118483
  15 C :   -0.357004
  16 O :   -0.247274
  17 C :   -0.115619
  18 C :   -0.369290
  19 H :    0.122264
  20 H :    0.119117
  21 H :    0.129701
  22 H :    0.112127
  23 H :    0.116745
  24 H :    0.111791
  25 H :    0.123877
  26 H :    0.114806
  27 H :    0.129268
  28 H :    0.132429
  29 H :    0.133688
  30 H :    0.125857
  31 H :    0.102099
  32 H :    0.116036
  33 H :    0.126958
  34 H :    0.128651
  35 H :    0.127056
  36 H :    0.107339
  37 H :    0.120558
  38 H :    0.123102
  39 H :    0.129594
  40 H :    0.131235

  Mayer bond orders larger than 0.100000
B(  0-C ,  1-C ) :   1.1676 B(  0-C , 19-H ) :   0.9428 B(  0-C , 20-H ) :   0.9361
B(  0-C , 21-H ) :   0.9368 B(  1-C ,  2-O ) :   0.9114 B(  1-C , 22-H ) :   0.9168
B(  1-C , 23-H ) :   0.9345 B(  2-O ,  3-P ) :   1.0625 B(  3-P ,  4-S ) :   1.6227
B(  3-P ,  5-O ) :   1.1402 B(  3-P ,  8-S ) :   0.9353 B(  4-S ,  8-S ) :   0.1182
B(  5-O ,  6-C ) :   0.9059 B(  6-C ,  7-C ) :   1.1710 B(  6-C , 24-H ) :   0.9264
B(  6-C , 25-H ) :   0.9317 B(  7-C , 26-H ) :   0.9369 B(  7-C , 27-H ) :   0.9352
B(  7-C , 28-H ) :   0.9240 B(  8-S ,  9-C ) :   1.0004 B(  9-C , 10-S ) :   0.9999
B(  9-C , 29-H ) :   0.9096 B(  9-C , 30-H ) :   0.8431 B( 10-S , 11-P ) :   0.9335
B( 10-S , 12-S ) :   0.1092 B( 11-P , 12-S ) :   1.6880 B( 11-P , 13-O ) :   1.1163
B( 11-P , 16-O ) :   1.0738 B( 13-O , 14-C ) :   0.8777 B( 14-C , 15-C ) :   1.1687
B( 14-C , 31-H ) :   0.9118 B( 14-C , 32-H ) :   0.9294 B( 15-C , 33-H ) :   0.9426
B( 15-C , 34-H ) :   0.9407 B( 15-C , 35-H ) :   0.9493 B( 16-O , 17-C ) :   0.9141
B( 17-C , 18-C ) :   1.1672 B( 17-C , 36-H ) :   0.9261 B( 17-C , 37-H ) :   0.9332
B( 18-C , 38-H ) :   0.9314 B( 18-C , 39-H ) :   0.9346 B( 18-C , 40-H ) :   0.9428

Dispersion correction           -0.068077644
FINAL SINGLE POINT ENERGY     -2929.511089487202

DIPOLE MOMENT
-------------

Method             : SCF
Type of density    : Electron Density
Multiplicity       :   1
Irrep              :   0
Energy             : -2929.6295276599003046 Eh
Relativity type    :
Basis              : AO
                                X                 Y                 Z
Electronic contribution:      1.686635003       3.505995461     -12.777738495
Nuclear contribution   :     -1.819105818      -4.614566807      14.323522997
                        -----------------------------------------
Total Dipole Moment    :     -0.132470815      -1.108571346       1.545784502
                        -----------------------------------------
Magnitude (a.u.)       :      1.906811127
Magnitude (Debye)      :      4.846728709

Rotational constants in cm-1:             0.012620             0.005467             0.004962
Rotational constants in MHz :           378.349694           163.910879           148.770114

                             ****ORCA TERMINATED NORMALLY****
TOTAL RUN TIME: 0 days 0 hours 0 minutes 21 seconds 579 msec
