                         Program Version 6.0.0  -   RELEASE  -
|  1> ! pbe def2-sv(p) def2/J RI DEFGRID1 loosescf d4 GCP(DFT/SV(P)) printgap
|  2> %output
|  3>     printlevel normal
|  4> end
|  5> * xyz 0 1
|  6> C 5.9638340345 -0.8930068334 -1.3163265443
|  7> C 4.5609935441 -0.3295776158 -1.419471574
|  8> O 3.8421558468 -0.7083988264 -0.22908776
|  9> P 2.5445339338 0.0798629847 0.2344789157
| 10> S 2.7573234528 2.0236723254 0.3285006041
| 11> O 2.2351278503 -0.5368432389 1.6475908478
| 12> C 1.678012903 -1.8476869658 1.9134288213
| 13> C 2.48194124 -2.9697781002 1.294418363
| 14> S 1.0368106962 -0.6052136804 -1.1116829892
| 15> C -0.0842846842 0.7955104262 -0.9054954689
| 16> S -0.9532436154 0.7703291402 0.6885757786
| 17> P -2.9120510885 0.2118790953 0.0211516022
| 18> S -3.1344767168 -0.0060439813 -1.9199662059
| 19> O -3.9050194221 1.2616277891 0.6696844694
| 20> C -4.3204379378 2.4473242546 -0.0265304329
| 21> C -3.1913194626 3.4498871275 -0.1650491017
| 22> O -3.338557208 -0.9871842707 0.9584905899
| 23> C -2.5228556701 -2.1293961266 1.2750346622
| 24> C -1.9923843185 -2.8345377036 0.0425250945
| 25> H 6.4653414739 -0.4853733542 -0.4430197933
| 26> H 5.925168719 -1.9746533201 -1.2282814698
| 27> H 6.5217654363 -0.6240916316 -2.2072010745
| 28> H 4.0281451778 -0.7377504197 -2.282415589
| 29> H 4.5731207545 0.7635878272 -1.4892461587
| 30> H 1.6795744505 -1.8993920923 3.0030842742
| 31> H 0.6495009189 -1.8578660486 1.5435148096
| 32> H 2.4197061554 -2.9245914553 0.2089642393
| 33> H 3.5243963178 -2.8929812453 1.5913496726
| 34> H 2.0807852044 -3.9202235881 1.6327498635
| 35> H -0.8176151435 0.7380601475 -1.7141126607
| 36> H 0.4988861984 1.7158528163 -0.9477447457
| 37> H -4.7031997918 2.1605804871 -1.0117351279
| 38> H -5.1331788719 2.8404894269 0.5855452821
| 39> H -3.5798602032 4.3766526713 -0.5748740681
| 40> H -2.7390197677 3.6465782976 0.8040313953
| 41> H -2.4275434272 3.0621196221 -0.8385704705
| 42> H -1.7063062787 -1.7953468648 1.9224341259
| 43> H -3.1961745974 -2.7744073019 1.8425008646
| 44> H -1.3028796983 -2.190883984 -0.504421185
| 45> H -1.4700134848 -3.738593661 0.3391928564
| 46> H -2.8121353558 -3.0964169147 -0.6223393394
| 47> *
| 48>
| 49>                          ****END OF INPUT****

CARTESIAN COORDINATES (ANGSTROEM)
---------------------------------
  C      5.963834   -0.893007   -1.316327
  C      4.560994   -0.329578   -1.419472
  O      3.842156   -0.708399   -0.229088
  P      2.544534    0.079863    0.234479
  S      2.757323    2.023672    0.328501
  O      2.235128   -0.536843    1.647591
  C      1.678013   -1.847687    1.913429
  C      2.481941   -2.969778    1.294418
  S      1.036811   -0.605214   -1.111683
  C     -0.084285    0.795510   -0.905495
  S     -0.953244    0.770329    0.688576
  P     -2.912051    0.211879    0.021152
  S     -3.134477   -0.006044   -1.919966
  O     -3.905019    1.261628    0.669684
  C     -4.320438    2.447324   -0.026530
  C     -3.191319    3.449887   -0.165049
  O     -3.338557   -0.987184    0.958491
  C     -2.522856   -2.129396    1.275035
  C     -1.992384   -2.834538    0.042525
  H      6.465341   -0.485373   -0.443020
  H      5.925169   -1.974653   -1.228281
  H      6.521765   -0.624092   -2.207201
  H      4.028145   -0.737750   -2.282416
  H      4.573121    0.763588   -1.489246
  H      1.679574   -1.899392    3.003084
  H      0.649501   -1.857866    1.543515
  H      2.419706   -2.924591    0.208964
  H      3.524396   -2.892981    1.591350
  H      2.080785   -3.920224    1.632750
  H     -0.817615    0.738060   -1.714113
  H      0.498886    1.715853   -0.947745
  H     -4.703200    2.160580   -1.011735
  H     -5.133179    2.840489    0.585545
  H     -3.579860    4.376653   -0.574874
  H     -2.739020    3.646578    0.804031
  H     -2.427543    3.062120   -0.838570
  H     -1.706306   -1.795347    1.922434
  H     -3.196175   -2.774407    1.842501
  H     -1.302880   -2.190884   -0.504421
  H     -1.470013   -3.738594    0.339193
  H     -2.812135   -3.096417   -0.622339

 Total Charge           Charge          ....    0
 Multiplicity           Mult            ....    1
 Number of Electrons    NEL             ....  202
 Basis Dimension        Dim             ....  334

ORBITAL ENERGIES
----------------

  NO   OCC          E(Eh)            E(eV)
   0   2.0000     -88.048626     -2395.9249
   1   2.0000     -88.047169     -2395.8853
   2   2.0000     -87.993796     -2394.4329
   3   2.0000     -87.986331     -2394.2298
   4   2.0000     -76.430453     -2079.7784
   5   2.0000     -76.429043     -2079.7400
   6   2.0000     -18.797818      -511.5146
   7   2.0000     -18.796926      -511.4903
   8   2.0000     -18.794268      -511.4180
   9   2.0000     -18.789439      -511.2866
  10   2.0000      -9.962281      -271.0874
  11   2.0000      -9.961085      -271.0549
  12   2.0000      -9.955984      -270.9161
  13   2.0000      -9.952228      -270.8139
  14   2.0000      -9.950584      -270.7692
  15   2.0000      -9.893802      -269.2240
  16   2.0000      -9.891177      -269.1526
  17   2.0000      -9.887700      -269.0580
  18   2.0000      -9.883047      -268.9314
  19   2.0000      -7.693002      -209.3372
  20   2.0000      -7.691539      -209.2974
  21   2.0000      -7.638685      -207.8592
  22   2.0000      -7.631606      -207.6666
  23   2.0000      -6.427635      -174.9048
  24   2.0000      -6.426727      -174.8801
  25   2.0000      -5.720610      -155.6657
  26   2.0000      -5.719307      -155.6303
  27   2.0000      -5.717516      -155.5815
  28   2.0000      -5.716045      -155.5415
  29   2.0000      -5.710375      -155.3872
  30   2.0000      -5.708775      -155.3437
  31   2.0000      -5.667474      -154.2198
  32   2.0000      -5.660612      -154.0331
  33   2.0000      -5.659322      -153.9980
  34   2.0000      -5.658983      -153.9888
  35   2.0000      -5.652109      -153.8017
  36   2.0000      -5.651747      -153.7919
  37   2.0000      -4.649879      -126.5296
  38   2.0000      -4.649668      -126.5239
  39   2.0000      -4.649441      -126.5177
  40   2.0000      -4.648644      -126.4960
  41   2.0000      -4.648143      -126.4824
  42   2.0000      -4.646864      -126.4476
  43   2.0000      -0.992246       -27.0004
  44   2.0000      -0.991263       -26.9736
  45   2.0000      -0.951133       -25.8817
  46   2.0000      -0.946648       -25.7596
  47   2.0000      -0.764913       -20.8144
  48   2.0000      -0.725013       -19.7286
  49   2.0000      -0.716546       -19.4982
  50   2.0000      -0.697496       -18.9798
  51   2.0000      -0.685494       -18.6532
  52   2.0000      -0.681721       -18.5506
  53   2.0000      -0.653604       -17.7855
  54   2.0000      -0.641041       -17.4436
  55   2.0000      -0.603176       -16.4132
  56   2.0000      -0.599053       -16.3011
  57   2.0000      -0.575708       -15.6658
  58   2.0000      -0.572239       -15.5714
  59   2.0000      -0.565812       -15.3965
  60   2.0000      -0.508153       -13.8275
  61   2.0000      -0.497468       -13.5368
  62   2.0000      -0.483618       -13.1599
  63   2.0000      -0.469413       -12.7734
  64   2.0000      -0.461257       -12.5514
  65   2.0000      -0.451178       -12.2772
  66   2.0000      -0.440394       -11.9837
  67   2.0000      -0.438098       -11.9213
  68   2.0000      -0.429391       -11.6843
  69   2.0000      -0.427399       -11.6301
  70   2.0000      -0.416109       -11.3229
  71   2.0000      -0.412337       -11.2203
  72   2.0000      -0.402260       -10.9461
  73   2.0000      -0.384984       -10.4760
  74   2.0000      -0.381146       -10.3715
  75   2.0000      -0.376170       -10.2361
  76   2.0000      -0.370610       -10.0848
  77   2.0000      -0.364501        -9.9186
  78   2.0000      -0.357794        -9.7361
  79   2.0000      -0.353417        -9.6170
  80   2.0000      -0.352057        -9.5800
  81   2.0000      -0.350812        -9.5461
  82   2.0000      -0.344848        -9.3838
  83   2.0000      -0.339833        -9.2473
  84   2.0000      -0.338450        -9.2097
  85   2.0000      -0.321219        -8.7408
  86   2.0000      -0.313051        -8.5185
  87   2.0000      -0.303878        -8.2689
  88   2.0000      -0.301374        -8.2008
  89   2.0000      -0.295550        -8.0423
  90   2.0000      -0.290976        -7.9179
  91   2.0000      -0.281114        -7.6495
  92   2.0000      -0.273704        -7.4479
  93   2.0000      -0.265518        -7.2251
  94   2.0000      -0.260304        -7.0832
  95   2.0000      -0.240221        -6.5368
  96   2.0000      -0.222404        -6.0519
  97   2.0000      -0.215344        -5.8598
  98   2.0000      -0.209089        -5.6896
  99   2.0000      -0.204574        -5.5668
 100   2.0000      -0.201652        -5.4872
 101   0.0000      -0.048582        -1.3220
 102   0.0000      -0.036513        -0.9936
 103   0.0000      -0.012181        -0.3315
 104   0.0000       0.002334         0.0635
 105   0.0000       0.008388         0.2282

MULLIKEN ATOMIC CHARGES
-----------------------
   0 C :   -0.281586
   1 C :   -0.011806
   2 O :   -0.377362
   3 P :    0.597866
   4 S :   -0.309427
   5 O :   -0.352569
   6 C :   -0.034029
   7 C :   -0.306172
   8 S :   -0.112560
   9 C :   -0.365073
  10 S :   -0.093835
  11 P :    0.590229
  12 S :   -0.323165
  13 O :   -0.352975
  14 C :   -0.003102
  15 C :   -0.314738
  16 O :   -0.355671
  17 C :   -0.013802
  18 C :   -0.322925
  19 H :    0.122809
  20 H :    0.114844
  21 H :    0.114018
  22 H :    0.103140
  23 H :    0.108322
  24 H :    0.113067
  25 H :    0.135101
  26 H :    0.119070
  27 H :    0.125726
  28 H :    0.113393
  29 H :    0.194211
  30 H :    0.199208
  31 H :    0.113777
  32 H :    0.107311
  33 H :    0.113152
  34 H :    0.123063
  35 H :    0.121148
  36 H :    0.119127
  37 H :    0.110311
  38 H :    0.133869
  39 H :    0.108725
  40 H :    0.129308
Sum of atomic charges:    0.0000000

LOEWDIN ATOMIC CHARGES
----------------------
   0 C :   -0.350336
   1 C :   -0.120923
   2 O :   -0.244665
   3 P :    0.565750
   4 S :   -0.306394
   5 O :   -0.230858
   6 C :   -0.115800
   7 C :   -0.365456
   8 S :    0.074007
   9 C :   -0.492719
  10 S :    0.081331
  11 P :    0.571943
  12 S :   -0.304446
  13 O :   -0.234085
  14 C :   -0.119836
  15 C :   -0.366871
  16 O :   -0.231379
  17 C :   -0.115565
  18 C :   -0.373555
  19 H :    0.130151
  20 H :    0.125787
  21 H :    0.131981
  22 H :    0.109846
  23 H :    0.109818
  24 H :    0.124146
  25 H :    0.107225
  26 H :    0.118387
  27 H :    0.130253
  28 H :    0.131246
  29 H :    0.123559
  30 H :    0.127690
  31 H :    0.109946
  32 H :    0.120055
  33 H :    0.130847
  34 H :    0.127475
  35 H :    0.119445
  36 H :    0.105984
  37 H :    0.122890
  38 H :    0.112697
  39 H :    0.128438
  40 H :    0.131995

  Mayer bond orders larger than 0.100000
B(  0-C ,  1-C ) :   1.1609 B(  0-C , 19-H ) :   0.9505 B(  0-C , 20-H ) :   0.9515
B(  0-C , 21-H ) :   0.9415 B(  1-C ,  2-O ) :   0.9008 B(  1-C , 22-H ) :   0.9295
B(  1-C , 23-H ) :   0.9073 B(  2-O ,  3-P ) :   1.0938 B(  3-P ,  4-S ) :   1.6442
B(  3-P ,  5-O ) :   1.1514 B(  3-P ,  8-S ) :   0.9380 B(  4-S ,  8-S ) :   0.1098
B(  5-O ,  6-C ) :   0.8983 B(  6-C ,  7-C ) :   1.1692 B(  6-C , 24-H ) :   0.9346
B(  6-C , 25-H ) :   0.9003 B(  7-C , 26-H ) :   0.9378 B(  7-C , 27-H ) :   0.9426
B(  7-C , 28-H ) :   0.9354 B(  8-S ,  9-C ) :   1.0086 B(  9-C , 10-S ) :   1.0049
B(  9-C , 29-H ) :   0.8463 B(  9-C , 30-H ) :   0.8638 B( 10-S , 11-P ) :   0.9342
B( 10-S , 12-S ) :   0.1252 B( 11-P , 12-S ) :   1.5902 B( 11-P , 13-O ) :   1.1307
B( 11-P , 16-O ) :   1.1349 B( 12-S , 29-H ) :   0.1185 B( 13-O , 14-C ) :   0.9145
B( 14-C , 15-C ) :   1.1609 B( 14-C , 31-H ) :   0.9145 B( 14-C , 32-H ) :   0.9335
B( 15-C , 33-H ) :   0.9388 B( 15-C , 34-H ) :   0.9439 B( 15-C , 35-H ) :   0.9402
B( 16-O , 17-C ) :   0.9149 B( 17-C , 18-C ) :   1.1651 B( 17-C , 36-H ) :   0.9217
B( 17-C , 37-H ) :   0.9303 B( 18-C , 38-H ) :   0.9209 B( 18-C , 39-H ) :   0.9350
B( 18-C , 40-H ) :   0.9399

Dispersion correction           -0.064137516
FINAL SINGLE POINT ENERGY     -2929.520333703398

DIPOLE MOMENT
-------------

Method             : SCF
Type of density    : Electron Density
Multiplicity       :   1
Irrep              :   0
Energy             : -2929.6407585123511126 Eh
Relativity type    :
Basis              : AO
                                X                 Y                 Z
Electronic contribution:     -7.908303456      10.070361297       0.691431331
Nuclear contribution   :      8.273859970     -11.229143870      -0.491413535
                        -----------------------------------------
Total Dipole Moment    :      0.365556514      -1.158782572       0.200017796
                        -----------------------------------------
Magnitude (a.u.)       :      1.231428331
Magnitude (Debye)      :      3.130042069

Rotational constants in cm-1:             0.013334             0.004406             0.003938
Rotational constants in MHz :           399.732202           132.080109           118.055062

                             ****ORCA TERMINATED NORMALLY****
TOTAL RUN TIME: 0 days 0 hours 0 minutes 20 seconds 689 msec
