                         Program Version 6.0.0  -   RELEASE  -
|  1> ! pbe def2-sv(p) def2/J RI DEFGRID1 loosescf d4 GCP(DFT/SV(P)) printgap
|  2> %output
|  3>     printlevel normal
|  4> end
|  5> * xyz 0 1
|  6> C -0.6119939424 -0.4416871507 1.2923877982
|  7> C 0.6123238315 0.4407196636 1.292946243
|  8> Br 1.7891037058 0.0526754217 -0.2372813806
|  9> Br -1.789162805 -0.0524942138 -0.2372318782
| 10> H -1.2068069109 -0.262837176 2.1880041341
| 11> H -0.3540394684 -1.4973652124 1.2157091142
| 12> H 0.3544410224 1.4964887829 1.2173884793
| 13> H 1.207159393 0.2608772096 2.18834513
| 14> *
| 15>
| 16>                          ****END OF INPUT****

CARTESIAN COORDINATES (ANGSTROEM)
---------------------------------
  C     -0.611994   -0.441687    1.292388
  C      0.612324    0.440720    1.292946
  Br     1.789104    0.052675   -0.237281
  Br    -1.789163   -0.052494   -0.237232
  H     -1.206807   -0.262837    2.188004
  H     -0.354039   -1.497365    1.215709
  H      0.354441    1.496489    1.217388
  H      1.207159    0.260877    2.188345

 Total Charge           Charge          ....    0
 Multiplicity           Mult            ....    1
 Number of Electrons    NEL             ....   86
 Basis Dimension        Dim             ....  100

ORBITAL ENERGIES
----------------

  NO   OCC          E(Eh)            E(eV)
   0   2.0000    -480.928182    -13086.7211
   1   2.0000    -480.928167    -13086.7207
   2   2.0000     -61.770644     -1680.8647
   3   2.0000     -61.770629     -1680.8643
   4   2.0000     -55.701321     -1515.7100
   5   2.0000     -55.701311     -1515.7097
   6   2.0000     -55.698114     -1515.6227
   7   2.0000     -55.698106     -1515.6225
   8   2.0000     -55.698015     -1515.6200
   9   2.0000     -55.697997     -1515.6196
  10   2.0000      -9.959791      -271.0197
  11   2.0000      -9.959759      -271.0188
  12   2.0000      -8.396143      -228.4707
  13   2.0000      -8.396125      -228.4702
  14   2.0000      -6.278541      -170.8478
  15   2.0000      -6.278538      -170.8477
  16   2.0000      -6.263569      -170.4404
  17   2.0000      -6.263566      -170.4403
  18   2.0000      -6.263319      -170.4336
  19   2.0000      -6.263315      -170.4335
  20   2.0000      -2.479496       -67.4705
  21   2.0000      -2.479493       -67.4704
  22   2.0000      -2.475876       -67.3720
  23   2.0000      -2.475873       -67.3719
  24   2.0000      -2.475719       -67.3677
  25   2.0000      -2.475715       -67.3676
  26   2.0000      -2.464471       -67.0617
  27   2.0000      -2.464468       -67.0616
  28   2.0000      -2.464457       -67.0613
  29   2.0000      -2.464454       -67.0612
  30   2.0000      -0.771914       -21.0048
  31   2.0000      -0.714525       -19.4432
  32   2.0000      -0.648871       -17.6567
  33   2.0000      -0.557250       -15.1635
  34   2.0000      -0.441067       -12.0020
  35   2.0000      -0.429732       -11.6936
  36   2.0000      -0.389823       -10.6076
  37   2.0000      -0.345009        -9.3882
  38   2.0000      -0.334749        -9.1090
  39   2.0000      -0.250096        -6.8054
  40   2.0000      -0.246255        -6.7010
  41   2.0000      -0.241128        -6.5614
  42   2.0000      -0.233106        -6.3431
  43   0.0000      -0.051021        -1.3884
  44   0.0000      -0.025907        -0.7050
  45   0.0000       0.034520         0.9393
  46   0.0000       0.071642         1.9495
  47   0.0000       0.086745         2.3605

MULLIKEN ATOMIC CHARGES
-----------------------
   0 C :   -0.218990
   1 C :   -0.218918
   2 Br:   -0.097680
   3 Br:   -0.097650
   4 H :    0.155200
   5 H :    0.161415
   6 H :    0.161408
   7 H :    0.155214
Sum of atomic charges:   -0.0000000

LOEWDIN ATOMIC CHARGES
----------------------
   0 C :   -0.298311
   1 C :   -0.298274
   2 Br:    0.022289
   3 Br:    0.022296
   4 H :    0.138933
   5 H :    0.137056
   6 H :    0.137061
   7 H :    0.138949

  Mayer bond orders larger than 0.100000
B(  0-C ,  1-C ) :   1.0880 B(  0-C ,  3-Br) :   1.0520 B(  0-C ,  4-H ) :   0.9103
B(  0-C ,  5-H ) :   0.9196 B(  1-C ,  2-Br) :   1.0520 B(  1-C ,  6-H ) :   0.9196
B(  1-C ,  7-H ) :   0.9103

Dispersion correction           -0.007122121
FINAL SINGLE POINT ENERGY     -5225.322574333234

DIPOLE MOMENT
-------------

Method             : SCF
Type of density    : Electron Density
Multiplicity       :   1
Irrep              :   0
Energy             : -5225.3573760610979662 Eh
Relativity type    :
Basis              : AO
                                X                 Y                 Z
Electronic contribution:     -0.001177095       0.003956080      -9.835128292
Nuclear contribution   :      0.001256182      -0.004343640      10.794537861
                        -----------------------------------------
Total Dipole Moment    :      0.000079088      -0.000387560       0.959409569
                        -----------------------------------------
Magnitude (a.u.)       :      0.959409651
Magnitude (Debye)      :      2.438625532

Rotational constants in cm-1:             0.239122             0.031599             0.028741
Rotational constants in MHz :          7168.687392           947.317127           861.641156

                             ****ORCA TERMINATED NORMALLY****
TOTAL RUN TIME: 0 days 0 hours 0 minutes 4 seconds 307 msec
