                         Program Version 6.0.0  -   RELEASE  -
|  1> ! pbe def2-sv(p) def2/J RI DEFGRID1 loosescf d4 GCP(DFT/SV(P)) printgap
|  2> %output
|  3>     printlevel normal
|  4> end
|  5> * xyz 0 1
|  6> C 5.1514253362 -1.5553158344 -0.8563419168
|  7> C 4.454922154 -0.5948297988 -1.7972714737
|  8> O 3.0853565823 -0.356073674 -1.411213594
|  9> P 2.715246776 0.4204123138 -0.0757911082
| 10> S 3.9236835705 1.8612936306 0.466475638
| 11> O 2.5829253626 -0.7847457788 0.9600282007
| 12> C 2.6202321434 -0.5777577629 2.3820209215
| 13> C 1.3740214702 0.1223588141 2.8836697387
| 14> S 0.7394015931 0.9697390122 -0.5893252086
| 15> C 0.0578651768 -0.7079824854 -0.8549941353
| 16> S -1.1768024705 -1.1476134902 0.3816240603
| 17> P -2.7426822605 0.0667658997 -0.403707714
| 18> S -2.8139283024 0.1904376848 -2.3569491715
| 19> O -2.5791080212 1.493348141 0.2443198279
| 20> C -2.1618575232 1.8025984904 1.596145136
| 21> C -2.9562301017 1.059478474 2.6475806127
| 22> O -4.0644122763 -0.48880336 0.2804270471
| 23> C -4.8420300308 -1.5559489922 -0.2893726696
| 24> C -4.102332532 -2.8783203528 -0.2762951762
| 25> H 6.1388769697 -1.7838407106 -1.2449931861
| 26> H 5.2560994201 -1.0988103732 0.1269491128
| 27> H 4.5786541233 -2.4739943644 -0.7610116339
| 28> H 4.3723030327 -1.0007020753 -2.8064557466
| 29> H 4.9779822904 0.36623297 -1.8243487554
| 30> H 2.7111165646 -1.5840332717 2.7924759673
| 31> H 3.5126165022 0.0094688885 2.621382529
| 32> H 1.4154813702 0.2007536281 3.9651075324
| 33> H 1.3239145482 1.1257548969 2.4595852243
| 34> H 0.4861137268 -0.4362747588 2.5961419188
| 35> H 0.8614011968 -1.435563624 -0.7941458389
| 36> H -0.4141263421 -0.71021332 -1.8384513396
| 37> H -1.0944192841 1.5814833965 1.6762759737
| 38> H -2.3134569702 2.881055369 1.6604349175
| 39> H -2.6485093393 1.4045563893 3.6298566113
| 40> H -4.018991582 1.2450602529 2.5167250684
| 41> H -2.7745551403 -0.0108941728 2.5736294252
| 42> H -5.7352071225 -1.5876920338 0.3360993774
| 43> H -5.1142517785 -1.2779530916 -1.3124736505
| 44> H -3.2625544629 -2.8423792505 -0.9683298433
| 45> H -3.7287638067 -3.094418853 0.7212530697
| 46> H -4.7781835327 -3.6683906116 -0.5875152767
| 47> *
| 48>
| 49>                          ****END OF INPUT****

CARTESIAN COORDINATES (ANGSTROEM)
---------------------------------
  C      5.151425   -1.555316   -0.856342
  C      4.454922   -0.594830   -1.797271
  O      3.085357   -0.356074   -1.411214
  P      2.715247    0.420412   -0.075791
  S      3.923684    1.861294    0.466476
  O      2.582925   -0.784746    0.960028
  C      2.620232   -0.577758    2.382021
  C      1.374021    0.122359    2.883670
  S      0.739402    0.969739   -0.589325
  C      0.057865   -0.707982   -0.854994
  S     -1.176802   -1.147613    0.381624
  P     -2.742682    0.066766   -0.403708
  S     -2.813928    0.190438   -2.356949
  O     -2.579108    1.493348    0.244320
  C     -2.161858    1.802598    1.596145
  C     -2.956230    1.059478    2.647581
  O     -4.064412   -0.488803    0.280427
  C     -4.842030   -1.555949   -0.289373
  C     -4.102333   -2.878320   -0.276295
  H      6.138877   -1.783841   -1.244993
  H      5.256099   -1.098810    0.126949
  H      4.578654   -2.473994   -0.761012
  H      4.372303   -1.000702   -2.806456
  H      4.977982    0.366233   -1.824349
  H      2.711117   -1.584033    2.792476
  H      3.512617    0.009469    2.621383
  H      1.415481    0.200754    3.965108
  H      1.323915    1.125755    2.459585
  H      0.486114   -0.436275    2.596142
  H      0.861401   -1.435564   -0.794146
  H     -0.414126   -0.710213   -1.838451
  H     -1.094419    1.581483    1.676276
  H     -2.313457    2.881055    1.660435
  H     -2.648509    1.404556    3.629857
  H     -4.018992    1.245060    2.516725
  H     -2.774555   -0.010894    2.573629
  H     -5.735207   -1.587692    0.336099
  H     -5.114252   -1.277953   -1.312474
  H     -3.262554   -2.842379   -0.968330
  H     -3.728764   -3.094419    0.721253
  H     -4.778184   -3.668391   -0.587515

 Total Charge           Charge          ....    0
 Multiplicity           Mult            ....    1
 Number of Electrons    NEL             ....  202
 Basis Dimension        Dim             ....  334

ORBITAL ENERGIES
----------------

  NO   OCC          E(Eh)            E(eV)
   0   2.0000     -88.050496     -2395.9758
   1   2.0000     -88.042145     -2395.7486
   2   2.0000     -87.991713     -2394.3762
   3   2.0000     -87.987117     -2394.2512
   4   2.0000     -76.430387     -2079.7766
   5   2.0000     -76.428630     -2079.7288
   6   2.0000     -18.798023      -511.5202
   7   2.0000     -18.796780      -511.4864
   8   2.0000     -18.793732      -511.4034
   9   2.0000     -18.792438      -511.3682
  10   2.0000      -9.956601      -270.9329
  11   2.0000      -9.956561      -270.9318
  12   2.0000      -9.956378      -270.9268
  13   2.0000      -9.956294      -270.9245
  14   2.0000      -9.954364      -270.8720
  15   2.0000      -9.890204      -269.1261
  16   2.0000      -9.887906      -269.0636
  17   2.0000      -9.887021      -269.0395
  18   2.0000      -9.887006      -269.0391
  19   2.0000      -7.694989      -209.3913
  20   2.0000      -7.687188      -209.1790
  21   2.0000      -7.636813      -207.8082
  22   2.0000      -7.632343      -207.6866
  23   2.0000      -6.427758      -174.9082
  24   2.0000      -6.426413      -174.8716
  25   2.0000      -5.722602      -155.7199
  26   2.0000      -5.719531      -155.6364
  27   2.0000      -5.715425      -155.5246
  28   2.0000      -5.712259      -155.4385
  29   2.0000      -5.711601      -155.4206
  30   2.0000      -5.703887      -155.2107
  31   2.0000      -5.665793      -154.1741
  32   2.0000      -5.661331      -154.0527
  33   2.0000      -5.657409      -153.9459
  34   2.0000      -5.656953      -153.9335
  35   2.0000      -5.652921      -153.8238
  36   2.0000      -5.652439      -153.8107
  37   2.0000      -4.650518      -126.5470
  38   2.0000      -4.649580      -126.5215
  39   2.0000      -4.648776      -126.4996
  40   2.0000      -4.648349      -126.4880
  41   2.0000      -4.648016      -126.4789
  42   2.0000      -4.646883      -126.4481
  43   2.0000      -0.990564       -26.9546
  44   2.0000      -0.989930       -26.9374
  45   2.0000      -0.949202       -25.8291
  46   2.0000      -0.948759       -25.8171
  47   2.0000      -0.766218       -20.8499
  48   2.0000      -0.725004       -19.7284
  49   2.0000      -0.712994       -19.4016
  50   2.0000      -0.693816       -18.8797
  51   2.0000      -0.690612       -18.7925
  52   2.0000      -0.678400       -18.4602
  53   2.0000      -0.657593       -17.8940
  54   2.0000      -0.640550       -17.4303
  55   2.0000      -0.603546       -16.4233
  56   2.0000      -0.598847       -16.2955
  57   2.0000      -0.579923       -15.7805
  58   2.0000      -0.575534       -15.6611
  59   2.0000      -0.564618       -15.3640
  60   2.0000      -0.498940       -13.5768
  61   2.0000      -0.494358       -13.4522
  62   2.0000      -0.477256       -12.9868
  63   2.0000      -0.474350       -12.9077
  64   2.0000      -0.460191       -12.5224
  65   2.0000      -0.448900       -12.2152
  66   2.0000      -0.445796       -12.1307
  67   2.0000      -0.444803       -12.1037
  68   2.0000      -0.435621       -11.8539
  69   2.0000      -0.421592       -11.4721
  70   2.0000      -0.411101       -11.1866
  71   2.0000      -0.401353       -10.9214
  72   2.0000      -0.399854       -10.8806
  73   2.0000      -0.396699       -10.7947
  74   2.0000      -0.387263       -10.5380
  75   2.0000      -0.374618       -10.1939
  76   2.0000      -0.368431       -10.0255
  77   2.0000      -0.365331        -9.9412
  78   2.0000      -0.357095        -9.7170
  79   2.0000      -0.355633        -9.6773
  80   2.0000      -0.351614        -9.5679
  81   2.0000      -0.350092        -9.5265
  82   2.0000      -0.345692        -9.4067
  83   2.0000      -0.341256        -9.2861
  84   2.0000      -0.333935        -9.0868
  85   2.0000      -0.324351        -8.8260
  86   2.0000      -0.314597        -8.5606
  87   2.0000      -0.299779        -8.1574
  88   2.0000      -0.296162        -8.0590
  89   2.0000      -0.295286        -8.0351
  90   2.0000      -0.289824        -7.8865
  91   2.0000      -0.277818        -7.5598
  92   2.0000      -0.273919        -7.4537
  93   2.0000      -0.267876        -7.2893
  94   2.0000      -0.265406        -7.2221
  95   2.0000      -0.238198        -6.4817
  96   2.0000      -0.220241        -5.9931
  97   2.0000      -0.211258        -5.7486
  98   2.0000      -0.208169        -5.6646
  99   2.0000      -0.206920        -5.6306
 100   2.0000      -0.201193        -5.4747
 101   0.0000      -0.043606        -1.1866
 102   0.0000      -0.033284        -0.9057
 103   0.0000      -0.020286        -0.5520
 104   0.0000       0.003908         0.1063
 105   0.0000       0.016233         0.4417

MULLIKEN ATOMIC CHARGES
-----------------------
   0 C :   -0.308084
   1 C :   -0.004909
   2 O :   -0.378085
   3 P :    0.595820
   4 S :   -0.317652
   5 O :   -0.382283
   6 C :    0.002158
   7 C :   -0.349063
   8 S :   -0.054485
   9 C :   -0.353981
  10 S :   -0.109216
  11 P :    0.596637
  12 S :   -0.306843
  13 O :   -0.354321
  14 C :   -0.022134
  15 C :   -0.309706
  16 O :   -0.374479
  17 C :   -0.002021
  18 C :   -0.317154
  19 H :    0.113766
  20 H :    0.122973
  21 H :    0.114949
  22 H :    0.108211
  23 H :    0.115600
  24 H :    0.104839
  25 H :    0.110929
  26 H :    0.111171
  27 H :    0.139051
  28 H :    0.132368
  29 H :    0.192466
  30 H :    0.200099
  31 H :    0.134088
  32 H :    0.112902
  33 H :    0.114519
  34 H :    0.123682
  35 H :    0.117788
  36 H :    0.106238
  37 H :    0.115942
  38 H :    0.127889
  39 H :    0.115138
  40 H :    0.115192
Sum of atomic charges:    0.0000000

LOEWDIN ATOMIC CHARGES
----------------------
   0 C :   -0.365584
   1 C :   -0.115143
   2 O :   -0.249074
   3 P :    0.567571
   4 S :   -0.317546
   5 O :   -0.248536
   6 C :   -0.119462
   7 C :   -0.375888
   8 S :    0.098887
   9 C :   -0.480038
  10 S :    0.086664
  11 P :    0.571229
  12 S :   -0.305942
  13 O :   -0.232038
  14 C :   -0.115922
  15 C :   -0.366539
  16 O :   -0.241398
  17 C :   -0.117015
  18 C :   -0.370785
  19 H :    0.131293
  20 H :    0.122490
  21 H :    0.125359
  22 H :    0.120409
  23 H :    0.113466
  24 H :    0.118627
  25 H :    0.109965
  26 H :    0.130714
  27 H :    0.121697
  28 H :    0.116415
  29 H :    0.135224
  30 H :    0.129704
  31 H :    0.109590
  32 H :    0.125054
  33 H :    0.132055
  34 H :    0.129133
  35 H :    0.115674
  36 H :    0.119355
  37 H :    0.114027
  38 H :    0.121576
  39 H :    0.122541
  40 H :    0.132190

  Mayer bond orders larger than 0.100000
B(  0-C ,  1-C ) :   1.1622 B(  0-C , 19-H ) :   0.9380 B(  0-C , 20-H ) :   0.9361
B(  0-C , 21-H ) :   0.9464 B(  1-C ,  2-O ) :   0.9070 B(  1-C , 22-H ) :   0.9355
B(  1-C , 23-H ) :   0.9191 B(  2-O ,  3-P ) :   1.0989 B(  3-P ,  4-S ) :   1.6323
B(  3-P ,  5-O ) :   1.0615 B(  3-P ,  8-S ) :   0.9969 B(  5-O ,  6-C ) :   0.9103
B(  6-C ,  7-C ) :   1.1645 B(  6-C , 24-H ) :   0.9331 B(  6-C , 25-H ) :   0.9137
B(  7-C , 26-H ) :   0.9350 B(  7-C , 27-H ) :   0.9278 B(  7-C , 28-H ) :   0.9295
B(  8-S ,  9-C ) :   0.9698 B(  9-C , 10-S ) :   1.0073 B(  9-C , 29-H ) :   0.8888
B(  9-C , 30-H ) :   0.8625 B( 10-S , 11-P ) :   0.9336 B( 10-S , 12-S ) :   0.1079
B( 11-P , 12-S ) :   1.6298 B( 11-P , 13-O ) :   1.1538 B( 11-P , 16-O ) :   1.0961
B( 13-O , 14-C ) :   0.8941 B( 14-C , 15-C ) :   1.1709 B( 14-C , 31-H ) :   0.9074
B( 14-C , 32-H ) :   0.9328 B( 15-C , 33-H ) :   0.9358 B( 15-C , 34-H ) :   0.9424
B( 15-C , 35-H ) :   0.9371 B( 16-O , 17-C ) :   0.9045 B( 17-C , 18-C ) :   1.1656
B( 17-C , 36-H ) :   0.9339 B( 17-C , 37-H ) :   0.9164 B( 18-C , 38-H ) :   0.9348
B( 18-C , 39-H ) :   0.9449 B( 18-C , 40-H ) :   0.9374

Dispersion correction           -0.064776003
FINAL SINGLE POINT ENERGY     -2929.517641996905

DIPOLE MOMENT
-------------

Method             : SCF
Type of density    : Electron Density
Multiplicity       :   1
Irrep              :   0
Energy             : -2929.6395392892968630 Eh
Relativity type    :
Basis              : AO
                                X                 Y                 Z
Electronic contribution:      0.083831022      12.291885729     -13.758141147
Nuclear contribution   :     -0.242490306     -13.804960861      15.067753663
                        -----------------------------------------
Total Dipole Moment    :     -0.158659283      -1.513075132       1.309612516
                        -----------------------------------------
Magnitude (a.u.)       :      2.007399827
Magnitude (Debye)      :      5.102404865

Rotational constants in cm-1:             0.013967             0.004221             0.003947
Rotational constants in MHz :           418.727538           126.557267           118.314410

                             ****ORCA TERMINATED NORMALLY****
TOTAL RUN TIME: 0 days 0 hours 0 minutes 20 seconds 860 msec
