                         Program Version 6.0.0  -   RELEASE  -
|  1> ! pbe def2-sv(p) def2/J RI DEFGRID1 loosescf d4 GCP(DFT/SV(P)) printgap
|  2> %output
|  3>     printlevel normal
|  4> end
|  5> * xyz 0 1
|  6> C 5.7613826094 -1.3712701257 -0.7724543528
|  7> C 4.8166820317 -0.2032382302 -0.579332735
|  8> O 3.5422316806 -0.7297505999 -0.1452068317
|  9> P 2.2088454739 0.1007183739 -0.336810215
| 10> S 1.9049044927 0.7918175661 -2.1490871147
| 11> O 2.3801650197 1.2083041602 0.7946520591
| 12> C 1.6841997324 2.4641226186 0.8409138662
| 13> C 2.63685071 3.5145138559 1.3747144536
| 14> S 0.9011875734 -1.3483829319 0.4394235181
| 15> C -0.1794785481 -1.6292342137 -1.0145665208
| 16> S -1.8978379879 -1.8415957341 -0.5214288809
| 17> P -2.1921485214 0.08529786 0.3403424282
| 18> S -1.3096947818 1.5826562919 -0.5646943851
| 19> O -1.7298161555 -0.0072443883 1.8437238112
| 20> C -1.8679771264 -1.1484901312 2.7269671883
| 21> C -3.2922682216 -1.6488597704 2.8228133059
| 22> O -3.7683808504 0.225226961 0.4641507446
| 23> C -4.5927781576 0.74807995 -0.5917657613
| 24> C -4.6136881153 -0.1541287599 -1.8086388251
| 25> H 5.8566235552 -1.9265115563 0.1559986902
| 26> H 5.3799672807 -2.0359767829 -1.542286583
| 27> H 6.7347441436 -0.9963971789 -1.0716539676
| 28> H 4.6646831975 0.349920132 -1.5127709546
| 29> H 5.1772437201 0.4829443032 0.1906142746
| 30> H 1.331687833 2.715720423 -0.1652931338
| 31> H 0.8150871354 2.3404352987 1.4927646809
| 32> H 3.4764377785 3.637673192 0.695699768
| 33> H 2.1078752083 4.4576388347 1.4635029086
| 34> H 3.0088261912 3.2145688698 2.3502294765
| 35> H 0.1164581644 -2.5520547545 -1.5066681603
| 36> H -0.0814109975 -0.7711099959 -1.6858019323
| 37> H -1.1939260447 -1.9329738932 2.3701931372
| 38> H -1.5083550026 -0.7641590988 3.6825286674
| 39> H -3.3393506186 -2.4350874738 3.5699013157
| 40> H -3.9576356828 -0.8386572641 3.1090478403
| 41> H -3.6165741924 -2.0501145632 1.8648676767
| 42> H -5.5791582966 0.8284064736 -0.1329312279
| 43> H -4.2242360821 1.7438417358 -0.8578485243
| 44> H -4.8634459725 -1.1723828662 -1.5222252385
| 45> H -5.3514755901 0.2144280912 -2.5141372057
| 46> H -3.6373678248 -0.1536949541 -2.2908739179
| 47> *
| 48>
| 49>                          ****END OF INPUT****

CARTESIAN COORDINATES (ANGSTROEM)
---------------------------------
  C      5.761383   -1.371270   -0.772454
  C      4.816682   -0.203238   -0.579333
  O      3.542232   -0.729751   -0.145207
  P      2.208845    0.100718   -0.336810
  S      1.904904    0.791818   -2.149087
  O      2.380165    1.208304    0.794652
  C      1.684200    2.464123    0.840914
  C      2.636851    3.514514    1.374714
  S      0.901188   -1.348383    0.439424
  C     -0.179479   -1.629234   -1.014567
  S     -1.897838   -1.841596   -0.521429
  P     -2.192149    0.085298    0.340342
  S     -1.309695    1.582656   -0.564694
  O     -1.729816   -0.007244    1.843724
  C     -1.867977   -1.148490    2.726967
  C     -3.292268   -1.648860    2.822813
  O     -3.768381    0.225227    0.464151
  C     -4.592778    0.748080   -0.591766
  C     -4.613688   -0.154129   -1.808639
  H      5.856624   -1.926512    0.155999
  H      5.379967   -2.035977   -1.542287
  H      6.734744   -0.996397   -1.071654
  H      4.664683    0.349920   -1.512771
  H      5.177244    0.482944    0.190614
  H      1.331688    2.715720   -0.165293
  H      0.815087    2.340435    1.492765
  H      3.476438    3.637673    0.695700
  H      2.107875    4.457639    1.463503
  H      3.008826    3.214569    2.350229
  H      0.116458   -2.552055   -1.506668
  H     -0.081411   -0.771110   -1.685802
  H     -1.193926   -1.932974    2.370193
  H     -1.508355   -0.764159    3.682529
  H     -3.339351   -2.435087    3.569901
  H     -3.957636   -0.838657    3.109048
  H     -3.616574   -2.050115    1.864868
  H     -5.579158    0.828406   -0.132931
  H     -4.224236    1.743842   -0.857849
  H     -4.863446   -1.172383   -1.522225
  H     -5.351476    0.214428   -2.514137
  H     -3.637368   -0.153695   -2.290874

 Total Charge           Charge          ....    0
 Multiplicity           Mult            ....    1
 Number of Electrons    NEL             ....  202
 Basis Dimension        Dim             ....  334

ORBITAL ENERGIES
----------------

  NO   OCC          E(Eh)            E(eV)
   0   2.0000     -88.048315     -2395.9165
   1   2.0000     -88.038969     -2395.6621
   2   2.0000     -87.981778     -2394.1059
   3   2.0000     -87.980688     -2394.0762
   4   2.0000     -76.426718     -2079.6767
   5   2.0000     -76.419292     -2079.4747
   6   2.0000     -18.794156      -511.4150
   7   2.0000     -18.790525      -511.3162
   8   2.0000     -18.783402      -511.1223
   9   2.0000     -18.782745      -511.1045
  10   2.0000      -9.955428      -270.9010
  11   2.0000      -9.953865      -270.8584
  12   2.0000      -9.953535      -270.8495
  13   2.0000      -9.946908      -270.6691
  14   2.0000      -9.937034      -270.4004
  15   2.0000      -9.888263      -269.0733
  16   2.0000      -9.884672      -268.9756
  17   2.0000      -9.883667      -268.9483
  18   2.0000      -9.878310      -268.8025
  19   2.0000      -7.693012      -209.3375
  20   2.0000      -7.684113      -209.0954
  21   2.0000      -7.626748      -207.5344
  22   2.0000      -7.625636      -207.5041
  23   2.0000      -6.423806      -174.8007
  24   2.0000      -6.417240      -174.6220
  25   2.0000      -5.720870      -155.6728
  26   2.0000      -5.717364      -155.5774
  27   2.0000      -5.712062      -155.4331
  28   2.0000      -5.710230      -155.3833
  29   2.0000      -5.708762      -155.3433
  30   2.0000      -5.700807      -155.1268
  31   2.0000      -5.655559      -153.8956
  32   2.0000      -5.654642      -153.8706
  33   2.0000      -5.647609      -153.6792
  34   2.0000      -5.646758      -153.6561
  35   2.0000      -5.646077      -153.6376
  36   2.0000      -5.645846      -153.6313
  37   2.0000      -4.646551      -126.4391
  38   2.0000      -4.645715      -126.4163
  39   2.0000      -4.644038      -126.3707
  40   2.0000      -4.639600      -126.2499
  41   2.0000      -4.638843      -126.2293
  42   2.0000      -4.637996      -126.2063
  43   2.0000      -0.987210       -26.8633
  44   2.0000      -0.978751       -26.6332
  45   2.0000      -0.945766       -25.7356
  46   2.0000      -0.935389       -25.4532
  47   2.0000      -0.762822       -20.7574
  48   2.0000      -0.720690       -19.6110
  49   2.0000      -0.709944       -19.3185
  50   2.0000      -0.691146       -18.8070
  51   2.0000      -0.681695       -18.5499
  52   2.0000      -0.673703       -18.3324
  53   2.0000      -0.648259       -17.6400
  54   2.0000      -0.631316       -17.1790
  55   2.0000      -0.598979       -16.2991
  56   2.0000      -0.586819       -15.9681
  57   2.0000      -0.576547       -15.6886
  58   2.0000      -0.562887       -15.3169
  59   2.0000      -0.557092       -15.1593
  60   2.0000      -0.502213       -13.6659
  61   2.0000      -0.491271       -13.3682
  62   2.0000      -0.474339       -12.9074
  63   2.0000      -0.471642       -12.8340
  64   2.0000      -0.448707       -12.2099
  65   2.0000      -0.443792       -12.0762
  66   2.0000      -0.439903       -11.9704
  67   2.0000      -0.433646       -11.8001
  68   2.0000      -0.428759       -11.6671
  69   2.0000      -0.419245       -11.4082
  70   2.0000      -0.411570       -11.1994
  71   2.0000      -0.398541       -10.8448
  72   2.0000      -0.385502       -10.4900
  73   2.0000      -0.380459       -10.3528
  74   2.0000      -0.379521       -10.3273
  75   2.0000      -0.368252       -10.0206
  76   2.0000      -0.364442        -9.9170
  77   2.0000      -0.358952        -9.7676
  78   2.0000      -0.353258        -9.6126
  79   2.0000      -0.350872        -9.5477
  80   2.0000      -0.347685        -9.4610
  81   2.0000      -0.345282        -9.3956
  82   2.0000      -0.337118        -9.1734
  83   2.0000      -0.334530        -9.1030
  84   2.0000      -0.331796        -9.0286
  85   2.0000      -0.313917        -8.5421
  86   2.0000      -0.306817        -8.3489
  87   2.0000      -0.293554        -7.9880
  88   2.0000      -0.292367        -7.9557
  89   2.0000      -0.288491        -7.8502
  90   2.0000      -0.285066        -7.7570
  91   2.0000      -0.274364        -7.4658
  92   2.0000      -0.267068        -7.2673
  93   2.0000      -0.262914        -7.1543
  94   2.0000      -0.256519        -6.9802
  95   2.0000      -0.234256        -6.3744
  96   2.0000      -0.220045        -5.9877
  97   2.0000      -0.211765        -5.7624
  98   2.0000      -0.198012        -5.3882
  99   2.0000      -0.196017        -5.3339
 100   2.0000      -0.186806        -5.0832
 101   0.0000      -0.044931        -1.2226
 102   0.0000      -0.033386        -0.9085
 103   0.0000      -0.008222        -0.2237
 104   0.0000       0.010520         0.2863
 105   0.0000       0.022082         0.6009

MULLIKEN ATOMIC CHARGES
-----------------------
   0 C :   -0.276731
   1 C :   -0.010012
   2 O :   -0.373194
   3 P :    0.638600
   4 S :   -0.322709
   5 O :   -0.385314
   6 C :   -0.021242
   7 C :   -0.277003
   8 S :   -0.109018
   9 C :   -0.343543
  10 S :   -0.117591
  11 P :    0.594992
  12 S :   -0.308671
  13 O :   -0.352830
  14 C :   -0.001799
  15 C :   -0.306239
  16 O :   -0.372572
  17 C :    0.000159
  18 C :   -0.320145
  19 H :    0.116325
  20 H :    0.118391
  21 H :    0.109132
  22 H :    0.102355
  23 H :    0.101161
  24 H :    0.120468
  25 H :    0.111589
  26 H :    0.108758
  27 H :    0.111229
  28 H :    0.110491
  29 H :    0.182669
  30 H :    0.214405
  31 H :    0.112549
  32 H :    0.109477
  33 H :    0.113784
  34 H :    0.122381
  35 H :    0.118588
  36 H :    0.104570
  37 H :    0.114019
  38 H :    0.115667
  39 H :    0.114745
  40 H :    0.132110
Sum of atomic charges:   -0.0000000

LOEWDIN ATOMIC CHARGES
----------------------
   0 C :   -0.350354
   1 C :   -0.118640
   2 O :   -0.250293
   3 P :    0.567722
   4 S :   -0.305343
   5 O :   -0.247770
   6 C :   -0.122817
   7 C :   -0.353076
   8 S :    0.080735
   9 C :   -0.475542
  10 S :    0.078414
  11 P :    0.567863
  12 S :   -0.296926
  13 O :   -0.233693
  14 C :   -0.114792
  15 C :   -0.366499
  16 O :   -0.242458
  17 C :   -0.117151
  18 C :   -0.371049
  19 H :    0.126901
  20 H :    0.128365
  21 H :    0.129400
  22 H :    0.106743
  23 H :    0.111402
  24 H :    0.105648
  25 H :    0.112674
  26 H :    0.123083
  27 H :    0.130469
  28 H :    0.123522
  29 H :    0.135706
  30 H :    0.125072
  31 H :    0.103197
  32 H :    0.122901
  33 H :    0.131615
  34 H :    0.128840
  35 H :    0.116744
  36 H :    0.118572
  37 H :    0.113377
  38 H :    0.122447
  39 H :    0.131985
  40 H :    0.123006

  Mayer bond orders larger than 0.100000
B(  0-C ,  1-C ) :   1.1624 B(  0-C , 19-H ) :   0.9506 B(  0-C , 20-H ) :   0.9510
B(  0-C , 21-H ) :   0.9421 B(  1-C ,  2-O ) :   0.9039 B(  1-C , 22-H ) :   0.9091
B(  1-C , 23-H ) :   0.9306 B(  2-O ,  3-P ) :   1.1264 B(  3-P ,  4-S ) :   1.6245
B(  3-P ,  5-O ) :   1.1116 B(  3-P ,  8-S ) :   0.9561 B(  4-S ,  8-S ) :   0.1167
B(  5-O ,  6-C ) :   0.9009 B(  6-C ,  7-C ) :   1.1516 B(  6-C , 24-H ) :   0.9073
B(  6-C , 25-H ) :   0.9290 B(  7-C , 26-H ) :   0.9495 B(  7-C , 27-H ) :   0.9429
B(  7-C , 28-H ) :   0.9505 B(  8-S ,  9-C ) :   0.9958 B(  9-C , 10-S ) :   1.0070
B(  9-C , 29-H ) :   0.9092 B(  9-C , 30-H ) :   0.8479 B( 10-S , 11-P ) :   0.9303
B( 10-S , 12-S ) :   0.1060 B( 11-P , 12-S ) :   1.6329 B( 11-P , 13-O ) :   1.1436
B( 11-P , 16-O ) :   1.0950 B( 13-O , 14-C ) :   0.8993 B( 14-C , 15-C ) :   1.1696
B( 14-C , 31-H ) :   0.9136 B( 14-C , 32-H ) :   0.9343 B( 15-C , 33-H ) :   0.9361
B( 15-C , 34-H ) :   0.9428 B( 15-C , 35-H ) :   0.9377 B( 16-O , 17-C ) :   0.9048
B( 17-C , 18-C ) :   1.1657 B( 17-C , 36-H ) :   0.9341 B( 17-C , 37-H ) :   0.9160
B( 18-C , 38-H ) :   0.9446 B( 18-C , 39-H ) :   0.9373 B( 18-C , 40-H ) :   0.9346

Dispersion correction           -0.064690433
FINAL SINGLE POINT ENERGY     -2929.518378161182

DIPOLE MOMENT
-------------

Method             : SCF
Type of density    : Electron Density
Multiplicity       :   1
Irrep              :   0
Energy             : -2929.6375078427618064 Eh
Relativity type    :
Basis              : AO
                                X                 Y                 Z
Electronic contribution:     -1.626504648      -2.614930964      -5.070183286
Nuclear contribution   :      1.238272987       2.078477458       5.884628524
                        -----------------------------------------
Total Dipole Moment    :     -0.388231661      -0.536453506       0.814445237
                        -----------------------------------------
Magnitude (a.u.)       :      1.049679585
Magnitude (Debye)      :      2.668073471

Rotational constants in cm-1:             0.012977             0.004643             0.004492
Rotational constants in MHz :           389.047964           139.181161           134.669846

                             ****ORCA TERMINATED NORMALLY****
TOTAL RUN TIME: 0 days 0 hours 0 minutes 20 seconds 758 msec
