                         Program Version 6.0.0  -   RELEASE  -
|  1> ! pbe def2-sv(p) def2/J RI DEFGRID1 loosescf d4 GCP(DFT/SV(P)) printgap
|  2> %output
|  3>     printlevel normal
|  4> end
|  5> * xyz 0 1
|  6> C 4.3359102825 -1.4452157652 -2.2189275126
|  7> C 4.8688005744 -1.0840762309 -0.8476964853
|  8> O 3.8305892217 -1.0313893675 0.1476677437
|  9> P 2.6676589791 0.0509667942 0.1151856564
| 10> S 3.1894787173 1.8631550645 -0.4015397815
| 11> O 2.0995627173 0.0171430458 1.5836986164
| 12> C 1.6228585459 -1.1771856045 2.252117982
| 13> C 2.7169351586 -1.7986434166 3.0953378006
| 14> S 1.152450646 -0.8555540094 -1.0847571893
| 15> C 0.1083926122 0.615061024 -1.1821803848
| 16> S -0.8422518585 0.9083152965 0.3320069058
| 17> P -2.8134857267 0.4471318731 -0.3900986494
| 18> S -2.9633255297 -0.0237747855 -2.2810967243
| 19> O -3.6447877478 1.7404886147 -0.0462468134
| 20> C -3.6404760318 2.4318331638 1.2254957492
| 21> C -4.6126523116 1.8096944861 2.2065693342
| 22> O -3.4055216528 -0.630606555 0.6209785643
| 23> C -3.2593304419 -2.0462749372 0.4133476768
| 24> C -1.8375225056 -2.5134006047 0.649056812
| 25> H 3.7205975942 -0.6345400413 -2.6065924978
| 26> H 5.1689710903 -1.6055231345 -2.8958041232
| 27> H 3.7335520503 -2.3487873748 -2.1666008073
| 28> H 5.3702818711 -0.1118403949 -0.8736183466
| 29> H 5.5530583656 -1.8447329554 -0.4691549564
| 30> H 0.794231383 -0.8227005488 2.8682064628
| 31> H 1.2556576798 -1.881528674 1.5004166056
| 32> H 3.1063333168 -1.0673337255 3.7982746127
| 33> H 2.3060592977 -2.6403469607 3.6440104909
| 34> H 3.5297921961 -2.1447220723 2.4628175934
| 35> H -0.5852005978 0.4673642112 -2.013569296
| 36> H 0.7484884604 1.4828457284 -1.3465775071
| 37> H -2.6210244619 2.4307777795 1.6220025022
| 38> H -3.9335020816 3.451018761 0.9669275035
| 39> H -4.6524275359 2.4247015729 3.1003477109
| 40> H -5.6037585425 1.7562225295 1.7642165232
| 41> H -4.2931741981 0.8069611781 2.4753867872
| 42> H -3.9517201459 -2.4879409613 1.1315028771
| 43> H -3.5805416417 -2.2824669052 -0.605860056
| 44> H -1.8073723804 -3.5977274668 0.6197414112
| 45> H -1.1810925756 -2.1270319765 -0.1299102051
| 46> H -1.484905362 -2.1689694965 1.6179972662
| 47> *
| 48>
| 49>                          ****END OF INPUT****

CARTESIAN COORDINATES (ANGSTROEM)
---------------------------------
  C      4.335910   -1.445216   -2.218928
  C      4.868801   -1.084076   -0.847696
  O      3.830589   -1.031389    0.147668
  P      2.667659    0.050967    0.115186
  S      3.189479    1.863155   -0.401540
  O      2.099563    0.017143    1.583699
  C      1.622859   -1.177186    2.252118
  C      2.716935   -1.798643    3.095338
  S      1.152451   -0.855554   -1.084757
  C      0.108393    0.615061   -1.182180
  S     -0.842252    0.908315    0.332007
  P     -2.813486    0.447132   -0.390099
  S     -2.963326   -0.023775   -2.281097
  O     -3.644788    1.740489   -0.046247
  C     -3.640476    2.431833    1.225496
  C     -4.612652    1.809694    2.206569
  O     -3.405522   -0.630607    0.620979
  C     -3.259330   -2.046275    0.413348
  C     -1.837523   -2.513401    0.649057
  H      3.720598   -0.634540   -2.606592
  H      5.168971   -1.605523   -2.895804
  H      3.733552   -2.348787   -2.166601
  H      5.370282   -0.111840   -0.873618
  H      5.553058   -1.844733   -0.469155
  H      0.794231   -0.822701    2.868206
  H      1.255658   -1.881529    1.500417
  H      3.106333   -1.067334    3.798275
  H      2.306059   -2.640347    3.644010
  H      3.529792   -2.144722    2.462818
  H     -0.585201    0.467364   -2.013569
  H      0.748488    1.482846   -1.346578
  H     -2.621024    2.430778    1.622003
  H     -3.933502    3.451019    0.966928
  H     -4.652428    2.424702    3.100348
  H     -5.603759    1.756223    1.764217
  H     -4.293174    0.806961    2.475387
  H     -3.951720   -2.487941    1.131503
  H     -3.580542   -2.282467   -0.605860
  H     -1.807372   -3.597727    0.619741
  H     -1.181093   -2.127032   -0.129910
  H     -1.484905   -2.168969    1.617997

 Total Charge           Charge          ....    0
 Multiplicity           Mult            ....    1
 Number of Electrons    NEL             ....  202
 Basis Dimension        Dim             ....  334

ORBITAL ENERGIES
----------------

  NO   OCC          E(Eh)            E(eV)
   0   2.0000     -88.045445     -2395.8384
   1   2.0000     -88.042474     -2395.7575
   2   2.0000     -87.991536     -2394.3714
   3   2.0000     -87.987610     -2394.2646
   4   2.0000     -76.428872     -2079.7353
   5   2.0000     -76.428585     -2079.7275
   6   2.0000     -18.799516      -511.5608
   7   2.0000     -18.795308      -511.4463
   8   2.0000     -18.794614      -511.4274
   9   2.0000     -18.793968      -511.4099
  10   2.0000      -9.959733      -271.0181
  11   2.0000      -9.957762      -270.9645
  12   2.0000      -9.957454      -270.9561
  13   2.0000      -9.955588      -270.9053
  14   2.0000      -9.949342      -270.7354
  15   2.0000      -9.888779      -269.0874
  16   2.0000      -9.888692      -269.0850
  17   2.0000      -9.887356      -269.0486
  18   2.0000      -9.887060      -269.0406
  19   2.0000      -7.689843      -209.2513
  20   2.0000      -7.687092      -209.1764
  21   2.0000      -7.636688      -207.8048
  22   2.0000      -7.632857      -207.7006
  23   2.0000      -6.426594      -174.8765
  24   2.0000      -6.426299      -174.8685
  25   2.0000      -5.717423      -155.5790
  26   2.0000      -5.714841      -155.5087
  27   2.0000      -5.714453      -155.4982
  28   2.0000      -5.711695      -155.4231
  29   2.0000      -5.707114      -155.2985
  30   2.0000      -5.704176      -155.2185
  31   2.0000      -5.665576      -154.1682
  32   2.0000      -5.661891      -154.0679
  33   2.0000      -5.657342      -153.9441
  34   2.0000      -5.656797      -153.9293
  35   2.0000      -5.653376      -153.8362
  36   2.0000      -5.652978      -153.8253
  37   2.0000      -4.649313      -126.5142
  38   2.0000      -4.649249      -126.5125
  39   2.0000      -4.648158      -126.4828
  40   2.0000      -4.647951      -126.4772
  41   2.0000      -4.647078      -126.4534
  42   2.0000      -4.646482      -126.4372
  43   2.0000      -0.992363       -27.0036
  44   2.0000      -0.990127       -26.9427
  45   2.0000      -0.950291       -25.8587
  46   2.0000      -0.948433       -25.8082
  47   2.0000      -0.762553       -20.7501
  48   2.0000      -0.724405       -19.7121
  49   2.0000      -0.714445       -19.4410
  50   2.0000      -0.694012       -18.8850
  51   2.0000      -0.693091       -18.8600
  52   2.0000      -0.679038       -18.4776
  53   2.0000      -0.652944       -17.7675
  54   2.0000      -0.640126       -17.4187
  55   2.0000      -0.601859       -16.3774
  56   2.0000      -0.596329       -16.2269
  57   2.0000      -0.579799       -15.7771
  58   2.0000      -0.577308       -15.7093
  59   2.0000      -0.559694       -15.2300
  60   2.0000      -0.506484       -13.7821
  61   2.0000      -0.497836       -13.5468
  62   2.0000      -0.478817       -13.0293
  63   2.0000      -0.478206       -13.0127
  64   2.0000      -0.457143       -12.4395
  65   2.0000      -0.450871       -12.2688
  66   2.0000      -0.450201       -12.2506
  67   2.0000      -0.436711       -11.8835
  68   2.0000      -0.432922       -11.7804
  69   2.0000      -0.430129       -11.7044
  70   2.0000      -0.411741       -11.2041
  71   2.0000      -0.398128       -10.8336
  72   2.0000      -0.395945       -10.7742
  73   2.0000      -0.388978       -10.5846
  74   2.0000      -0.378766       -10.3067
  75   2.0000      -0.373764       -10.1706
  76   2.0000      -0.369031       -10.0419
  77   2.0000      -0.362229        -9.8567
  78   2.0000      -0.357634        -9.7317
  79   2.0000      -0.355797        -9.6817
  80   2.0000      -0.351792        -9.5728
  81   2.0000      -0.350584        -9.5399
  82   2.0000      -0.347661        -9.4603
  83   2.0000      -0.343629        -9.3506
  84   2.0000      -0.340383        -9.2623
  85   2.0000      -0.321024        -8.7355
  86   2.0000      -0.315925        -8.5968
  87   2.0000      -0.301284        -8.1984
  88   2.0000      -0.298667        -8.1272
  89   2.0000      -0.295249        -8.0341
  90   2.0000      -0.293241        -7.9795
  91   2.0000      -0.278421        -7.5762
  92   2.0000      -0.272635        -7.4188
  93   2.0000      -0.267008        -7.2657
  94   2.0000      -0.260155        -7.0792
  95   2.0000      -0.233350        -6.3498
  96   2.0000      -0.221144        -6.0176
  97   2.0000      -0.213894        -5.8204
  98   2.0000      -0.208034        -5.6609
  99   2.0000      -0.206606        -5.6220
 100   2.0000      -0.201039        -5.4706
 101   0.0000      -0.042950        -1.1687
 102   0.0000      -0.033066        -0.8998
 103   0.0000      -0.017497        -0.4761
 104   0.0000       0.002794         0.0760
 105   0.0000       0.014521         0.3951

MULLIKEN ATOMIC CHARGES
-----------------------
   0 C :   -0.321888
   1 C :   -0.000565
   2 O :   -0.381712
   3 P :    0.599293
   4 S :   -0.308802
   5 O :   -0.351118
   6 C :   -0.026288
   7 C :   -0.286666
   8 S :   -0.097823
   9 C :   -0.360041
  10 S :   -0.112849
  11 P :    0.610559
  12 S :   -0.306140
  13 O :   -0.354397
  14 C :   -0.021095
  15 C :   -0.296004
  16 O :   -0.379298
  17 C :    0.004934
  18 C :   -0.333610
  19 H :    0.132965
  20 H :    0.116462
  21 H :    0.118020
  22 H :    0.115270
  23 H :    0.105804
  24 H :    0.113209
  25 H :    0.114172
  26 H :    0.120048
  27 H :    0.108728
  28 H :    0.121284
  29 H :    0.195829
  30 H :    0.196646
  31 H :    0.114689
  32 H :    0.115162
  33 H :    0.111601
  34 H :    0.121187
  35 H :    0.122763
  36 H :    0.103698
  37 H :    0.113996
  38 H :    0.111388
  39 H :    0.135034
  40 H :    0.115556
Sum of atomic charges:   -0.0000000

LOEWDIN ATOMIC CHARGES
----------------------
   0 C :   -0.371486
   1 C :   -0.115832
   2 O :   -0.246629
   3 P :    0.570191
   4 S :   -0.307383
   5 O :   -0.232999
   6 C :   -0.117873
   7 C :   -0.359381
   8 S :    0.088551
   9 C :   -0.490683
  10 S :    0.067322
  11 P :    0.571768
  12 S :   -0.294913
  13 O :   -0.234852
  14 C :   -0.113243
  15 C :   -0.362300
  16 O :   -0.246744
  17 C :   -0.117172
  18 C :   -0.372045
  19 H :    0.123618
  20 H :    0.132940
  21 H :    0.123498
  22 H :    0.114562
  23 H :    0.118820
  24 H :    0.119072
  25 H :    0.105329
  26 H :    0.128960
  27 H :    0.129191
  28 H :    0.125984
  29 H :    0.125642
  30 H :    0.127683
  31 H :    0.105424
  32 H :    0.124354
  33 H :    0.130231
  34 H :    0.129806
  35 H :    0.124686
  36 H :    0.117895
  37 H :    0.112024
  38 H :    0.130511
  39 H :    0.113589
  40 H :    0.121882

  Mayer bond orders larger than 0.100000
B(  0-C ,  1-C ) :   1.1659 B(  0-C , 19-H ) :   0.9341 B(  0-C , 20-H ) :   0.9369
B(  0-C , 21-H ) :   0.9436 B(  1-C ,  2-O ) :   0.9030 B(  1-C , 22-H ) :   0.9189
B(  1-C , 23-H ) :   0.9339 B(  2-O ,  3-P ) :   1.0880 B(  3-P ,  4-S ) :   1.6386
B(  3-P ,  5-O ) :   1.1442 B(  3-P ,  8-S ) :   0.9490 B(  4-S ,  8-S ) :   0.1071
B(  5-O ,  6-C ) :   0.8913 B(  6-C ,  7-C ) :   1.1599 B(  6-C , 24-H ) :   0.9325
B(  6-C , 25-H ) :   0.9076 B(  7-C , 26-H ) :   0.9468 B(  7-C , 27-H ) :   0.9400
B(  7-C , 28-H ) :   0.9415 B(  8-S ,  9-C ) :   1.0054 B(  9-C , 10-S ) :   1.0069
B(  9-C , 29-H ) :   0.8482 B(  9-C , 30-H ) :   0.8654 B( 10-S , 11-P ) :   0.9434
B( 10-S , 12-S ) :   0.1146 B( 11-P , 12-S ) :   1.6272 B( 11-P , 13-O ) :   1.1492
B( 11-P , 16-O ) :   1.0818 B( 12-S , 29-H ) :   0.1193 B( 13-O , 14-C ) :   0.9010
B( 14-C , 15-C ) :   1.1615 B( 14-C , 31-H ) :   0.9134 B( 14-C , 32-H ) :   0.9359
B( 15-C , 33-H ) :   0.9385 B( 15-C , 34-H ) :   0.9468 B( 15-C , 35-H ) :   0.9395
B( 16-O , 17-C ) :   0.9113 B( 17-C , 18-C ) :   1.1612 B( 17-C , 36-H ) :   0.9333
B( 17-C , 37-H ) :   0.9151 B( 18-C , 38-H ) :   0.9375 B( 18-C , 39-H ) :   0.9273
B( 18-C , 40-H ) :   0.9413

Dispersion correction           -0.063345858
FINAL SINGLE POINT ENERGY     -2929.518587244761

DIPOLE MOMENT
-------------

Method             : SCF
Type of density    : Electron Density
Multiplicity       :   1
Irrep              :   0
Energy             : -2929.6405547018853213 Eh
Relativity type    :
Basis              : AO
                                X                 Y                 Z
Electronic contribution:     -1.516983749      13.165276883     -12.561837868
Nuclear contribution   :      1.592035842     -14.520607763      13.949102481
                        -----------------------------------------
Total Dipole Moment    :      0.075052093      -1.355330880       1.387264612
                        -----------------------------------------
Magnitude (a.u.)       :      1.940890959
Magnitude (Debye)      :      4.933352758

Rotational constants in cm-1:             0.012772             0.004214             0.004116
Rotational constants in MHz :           382.903335           126.340128           123.379915

                             ****ORCA TERMINATED NORMALLY****
TOTAL RUN TIME: 0 days 0 hours 0 minutes 20 seconds 837 msec
