                         Program Version 6.0.1  -  RELEASE   -
|  1> ! pbe def2-sv(p) def2/J RI DEFGRID1 loosescf d4 GCP(DFT/SV(P)) printgap
|  2> %output
|  3>     printlevel normal
|  4> end
|  5> * xyz 0 1
|  6> C 4.86160679 0.4213528413 -1.8851087343
|  7> C 4.5892201343 -0.9734152292 -1.346957831
|  8> O 3.1696501773 -1.2230633408 -1.3487200358
|  9> C 2.5319422184 -1.3356893813 -0.2021238533
| 10> O 3.0524431526 -1.3114507295 0.889466312
| 11> C 1.0398626988 -1.5211364328 -0.4275393477
| 12> C 0.4558371435 -0.2991052276 -1.1428201997
| 13> H 0.9606965329 -0.1534089005 -2.1008175374
| 14> C 0.6007156627 0.9402529889 -0.2837685688
| 15> O -0.3639097052 1.5275310349 0.1684692
| 16> O 1.8446213018 1.2771618491 -0.0956691592
| 17> C 2.1308482249 2.3323444477 0.8522023566
| 18> C 2.1320538808 1.7795029812 2.2673195646
| 19> S -1.3100311814 -0.5113156639 -1.5286311483
| 20> P -2.2207397385 -0.0942305109 0.3344419686
| 21> S -1.447810517 -0.4418069177 2.101863398
| 22> O -3.0108721795 1.2941468562 0.3038046999
| 23> C -3.6364576413 1.7772258413 -0.8967241686
| 24> O -3.3862841332 -1.1772120135 -0.0036795379
| 25> C -4.4192964309 -1.4467700254 0.9437708357
| 26> H 4.3664135587 1.1620695402 -1.2629876763
| 27> H 5.930701971 0.6058991812 -1.8787641357
| 28> H 4.4886462638 0.509962931 -2.9010664251
| 29> H 4.9617271328 -1.0877849307 -0.3254980482
| 30> H 5.0256381358 -1.738088457 -1.9920167137
| 31> H 0.5574525628 -1.6712504713 0.5411889662
| 32> H 0.881791892 -2.3990433015 -1.05476418
| 33> H 3.1172279938 2.6946769333 0.5635892739
| 34> H 1.3808491971 3.1188515825 0.7367492715
| 35> H 2.803996336 0.9266878827 2.3339994114
| 36> H 2.4545657638 2.5508848643 2.9580968122
| 37> H 1.1328011238 1.4490959574 2.5472046831
| 38> H -4.4102760131 2.4656946907 -0.5656450888
| 39> H -4.067879864 0.9517970595 -1.4649670794
| 40> H -2.8952361441 2.2980490696 -1.5018428245
| 41> H -5.022205137 -0.5546921419 1.1204381713
| 42> H -3.9827519313 -1.7796748069 1.8873662185
| 43> H -5.0218632454 -2.2368949279 0.5031955307
| 44> *
| 45>
| 46>                          ****END OF INPUT****

CARTESIAN COORDINATES (ANGSTROEM)
---------------------------------
  C      4.861607    0.421353   -1.885109
  C      4.589220   -0.973415   -1.346958
  O      3.169650   -1.223063   -1.348720
  C      2.531942   -1.335689   -0.202124
  O      3.052443   -1.311451    0.889466
  C      1.039863   -1.521136   -0.427539
  C      0.455837   -0.299105   -1.142820
  H      0.960697   -0.153409   -2.100818
  C      0.600716    0.940253   -0.283769
  O     -0.363910    1.527531    0.168469
  O      1.844621    1.277162   -0.095669
  C      2.130848    2.332344    0.852202
  C      2.132054    1.779503    2.267320
  S     -1.310031   -0.511316   -1.528631
  P     -2.220740   -0.094231    0.334442
  S     -1.447811   -0.441807    2.101863
  O     -3.010872    1.294147    0.303805
  C     -3.636458    1.777226   -0.896724
  O     -3.386284   -1.177212   -0.003680
  C     -4.419296   -1.446770    0.943771
  H      4.366414    1.162070   -1.262988
  H      5.930702    0.605899   -1.878764
  H      4.488646    0.509963   -2.901066
  H      4.961727   -1.087785   -0.325498
  H      5.025638   -1.738088   -1.992017
  H      0.557453   -1.671250    0.541189
  H      0.881792   -2.399043   -1.054764
  H      3.117228    2.694677    0.563589
  H      1.380849    3.118852    0.736749
  H      2.803996    0.926688    2.333999
  H      2.454566    2.550885    2.958097
  H      1.132801    1.449096    2.547205
  H     -4.410276    2.465695   -0.565645
  H     -4.067880    0.951797   -1.464967
  H     -2.895236    2.298049   -1.501843
  H     -5.022205   -0.554692    1.120438
  H     -3.982752   -1.779675    1.887366
  H     -5.021863   -2.236895    0.503196

 Total Charge           Charge          ....    0
 Multiplicity           Mult            ....    1
 Number of Electrons    NEL             ....  174
 Basis Dimension        Dim             ....  316

ORBITAL ENERGIES
----------------

  NO   OCC          E(Eh)            E(eV)
   0   2.0000     -88.038132     -2395.6394
   1   2.0000     -87.971669     -2393.8308
   2   2.0000     -76.417949     -2079.4381
   3   2.0000     -18.826506      -512.2953
   4   2.0000     -18.805712      -511.7295
   5   2.0000     -18.780276      -511.0373
   6   2.0000     -18.772750      -510.8325
   7   2.0000     -18.761131      -510.5163
   8   2.0000     -18.740724      -509.9610
   9   2.0000     -10.030498      -272.9437
  10   2.0000     -10.012449      -272.4526
  11   2.0000      -9.956679      -270.9350
  12   2.0000      -9.955322      -270.8981
  13   2.0000      -9.951377      -270.7907
  14   2.0000      -9.942837      -270.5584
  15   2.0000      -9.931517      -270.2503
  16   2.0000      -9.908011      -269.6107
  17   2.0000      -9.894242      -269.2360
  18   2.0000      -9.878865      -268.8176
  19   2.0000      -7.683311      -209.0735
  20   2.0000      -7.616847      -207.2649
  21   2.0000      -6.414036      -174.5348
  22   2.0000      -5.711446      -155.4163
  23   2.0000      -5.707944      -155.3210
  24   2.0000      -5.699814      -155.0998
  25   2.0000      -5.646189      -153.6406
  26   2.0000      -5.637720      -153.4102
  27   2.0000      -5.636240      -153.3699
  28   2.0000      -4.637045      -126.1804
  29   2.0000      -4.636009      -126.1522
  30   2.0000      -4.634342      -126.1068
  31   2.0000      -1.036140       -28.1948
  32   2.0000      -1.013201       -27.5706
  33   2.0000      -0.969779       -26.3890
  34   2.0000      -0.940650       -25.5964
  35   2.0000      -0.924826       -25.1658
  36   2.0000      -0.917844       -24.9758
  37   2.0000      -0.770417       -20.9641
  38   2.0000      -0.715408       -19.4672
  39   2.0000      -0.711764       -19.3681
  40   2.0000      -0.687574       -18.7098
  41   2.0000      -0.657942       -17.9035
  42   2.0000      -0.630588       -17.1592
  43   2.0000      -0.617754       -16.8099
  44   2.0000      -0.609825       -16.5942
  45   2.0000      -0.594097       -16.1662
  46   2.0000      -0.568866       -15.4796
  47   2.0000      -0.512550       -13.9472
  48   2.0000      -0.507571       -13.8117
  49   2.0000      -0.504451       -13.7268
  50   2.0000      -0.486926       -13.2499
  51   2.0000      -0.466348       -12.6900
  52   2.0000      -0.463583       -12.6147
  53   2.0000      -0.452490       -12.3129
  54   2.0000      -0.445690       -12.1278
  55   2.0000      -0.434303       -11.8180
  56   2.0000      -0.423157       -11.5147
  57   2.0000      -0.421306       -11.4643
  58   2.0000      -0.409845       -11.1524
  59   2.0000      -0.406513       -11.0618
  60   2.0000      -0.402620       -10.9558
  61   2.0000      -0.396873       -10.7995
  62   2.0000      -0.391352       -10.6492
  63   2.0000      -0.380075       -10.3424
  64   2.0000      -0.372302       -10.1308
  65   2.0000      -0.365307        -9.9405
  66   2.0000      -0.362899        -9.8750
  67   2.0000      -0.356504        -9.7010
  68   2.0000      -0.346068        -9.4170
  69   2.0000      -0.342492        -9.3197
  70   2.0000      -0.339480        -9.2377
  71   2.0000      -0.330933        -9.0051
  72   2.0000      -0.325042        -8.8449
  73   2.0000      -0.315600        -8.5879
  74   2.0000      -0.308294        -8.3891
  75   2.0000      -0.301201        -8.1961
  76   2.0000      -0.297492        -8.0952
  77   2.0000      -0.281023        -7.6470
  78   2.0000      -0.272895        -7.4259
  79   2.0000      -0.261600        -7.1185
  80   2.0000      -0.260741        -7.0951
  81   2.0000      -0.256942        -6.9918
  82   2.0000      -0.241875        -6.5818
  83   2.0000      -0.229430        -6.2431
  84   2.0000      -0.213304        -5.8043
  85   2.0000      -0.192769        -5.2455
  86   2.0000      -0.183325        -4.9885
  87   0.0000      -0.047331        -1.2879
  88   0.0000      -0.041919        -1.1407
  89   0.0000      -0.023527        -0.6402
  90   0.0000       0.008277         0.2252
  91   0.0000       0.027488         0.7480

MULLIKEN ATOMIC CHARGES
-----------------------
   0 C :   -0.302533
   1 C :   -0.023544
   2 O :   -0.242733
   3 C :    0.102910
   4 O :   -0.187645
   5 C :   -0.039902
   6 C :   -0.335940
   7 H :    0.154678
   8 C :    0.227515
   9 O :   -0.186431
  10 O :   -0.217974
  11 C :   -0.017847
  12 C :   -0.329131
  13 S :   -0.060552
  14 P :    0.624104
  15 S :   -0.321375
  16 O :   -0.375210
  17 C :   -0.104522
  18 O :   -0.404064
  19 C :   -0.102485
  20 H :    0.122991
  21 H :    0.113611
  22 H :    0.113554
  23 H :    0.117142
  24 H :    0.107043
  25 H :    0.124794
  26 H :    0.121993
  27 H :    0.109546
  28 H :    0.115516
  29 H :    0.138489
  30 H :    0.110479
  31 H :    0.145248
  32 H :    0.126368
  33 H :    0.114302
  34 H :    0.119767
  35 H :    0.103483
  36 H :    0.119356
  37 H :    0.118997
Sum of atomic charges:    0.0000000

LOEWDIN ATOMIC CHARGES
----------------------
   0 C :   -0.354004
   1 C :   -0.111550
   2 O :   -0.063572
   3 C :    0.023911
   4 O :   -0.157710
   5 C :   -0.247735
   6 C :   -0.267742
   7 H :    0.148276
   8 C :    0.027038
   9 O :   -0.147576
  10 O :   -0.028379
  11 C :   -0.104443
  12 C :   -0.363347
  13 S :    0.121055
  14 P :    0.590684
  15 S :   -0.315571
  16 O :   -0.250245
  17 C :   -0.213394
  18 O :   -0.284541
  19 C :   -0.219443
  20 H :    0.125952
  21 H :    0.130677
  22 H :    0.124767
  23 H :    0.122048
  24 H :    0.118709
  25 H :    0.136221
  26 H :    0.144188
  27 H :    0.116820
  28 H :    0.123129
  29 H :    0.134016
  30 H :    0.130077
  31 H :    0.133922
  32 H :    0.122757
  33 H :    0.107090
  34 H :    0.113826
  35 H :    0.105553
  36 H :    0.110042
  37 H :    0.118494

  Mayer bond orders larger than 0.100000
B(  0-C ,  1-C ) :   1.1726 B(  0-C , 20-H ) :   0.9418 B(  0-C , 21-H ) :   0.9435
B(  0-C , 22-H ) :   0.9495 B(  1-C ,  2-O ) :   0.9106 B(  1-C , 23-H ) :   0.9052
B(  1-C , 24-H ) :   0.9366 B(  2-O ,  3-C ) :   1.1960 B(  3-C ,  4-O ) :   2.0535
B(  3-C ,  5-C ) :   1.0080 B(  5-C ,  6-C ) :   1.0233 B(  5-C , 25-H ) :   0.8773
B(  5-C , 26-H ) :   0.8872 B(  6-C ,  7-H ) :   0.8680 B(  6-C ,  8-C ) :   0.9010
B(  6-C , 13-S ) :   1.0428 B(  8-C ,  9-O ) :   1.9431 B(  8-C , 10-O ) :   1.2676
B(  9-O , 14-P ) :   0.1342 B( 10-O , 11-C ) :   0.8862 B( 11-C , 12-C ) :   1.1796
B( 11-C , 27-H ) :   0.9296 B( 11-C , 28-H ) :   0.9171 B( 12-C , 29-H ) :   0.9361
B( 12-C , 30-H ) :   0.9396 B( 12-C , 31-H ) :   0.9311 B( 13-S , 14-P ) :   0.9336
B( 13-S , 15-S ) :   0.1073 B( 14-P , 15-S ) :   1.5990 B( 14-P , 16-O ) :   1.0852
B( 14-P , 18-O ) :   1.0285 B( 16-O , 17-C ) :   0.9308 B( 17-C , 32-H ) :   0.9576
B( 17-C , 33-H ) :   0.9393 B( 17-C , 34-H ) :   0.9501 B( 18-O , 19-C ) :   0.9449
B( 19-C , 35-H ) :   0.9481 B( 19-C , 36-H ) :   0.9376 B( 19-C , 37-H ) :   0.9591

Dispersion correction           -0.053102316
FINAL SINGLE POINT ENERGY     -1979.010124234951

DIPOLE MOMENT
-------------

Method             : SCF
Type of density    : Electron Density
Multiplicity       :   1
Irrep              :   0
Energy             : -1979.1414070338669262 Eh
Relativity type    :
Basis              : AO
                                X                 Y                 Z
Electronic contribution:    -13.394151793      -5.997683724       0.564207442
Nuclear contribution   :     13.962821199       6.790575314      -2.058452926
                        -----------------------------------------
Total Dipole Moment    :      0.568669406       0.792891589      -1.494245483
                        -----------------------------------------
Magnitude (a.u.)       :      1.784609629
Magnitude (Debye)      :      4.536117187

Rotational constants in cm-1:             0.017940             0.006008             0.005714
Rotational constants in MHz :           537.841984           180.123557           171.314810

                             ****ORCA TERMINATED NORMALLY****
TOTAL RUN TIME: 0 days 0 hours 0 minutes 40 seconds 716 msec
