                         Program Version 6.0.0  -   RELEASE  -
|  1> ! pbe def2-sv(p) def2/J RI DEFGRID1 loosescf d4 GCP(DFT/SV(P)) printgap
|  2> %output
|  3>     printlevel normal
|  4> end
|  5> * xyz 0 1
|  6> C 1.3399895834 2.0025560071 2.0346264904
|  7> C 2.1006608808 0.8563689182 2.6670677628
|  8> O 1.983042159 -0.3738817258 1.9124654558
|  9> P 2.5400501115 -0.6491334546 0.4633624331
| 10> S 2.7676109665 -2.5825820683 0.2367135795
| 11> O 3.8261875865 0.2801676489 0.4305714544
| 12> C 4.5333395998 0.6798472476 -0.7588301014
| 13> C 4.9907989924 -0.4974006573 -1.5934981556
| 14> S 1.2442716452 0.2420764869 -0.9882867999
| 15> C 0.1185245529 -1.1579355754 -1.1284561532
| 16> S -0.9790200841 -1.3173950636 0.3056108611
| 17> P -2.29493741 0.2467364705 -0.2513922326
| 18> S -2.7218825051 0.3420506965 -2.1671381157
| 19> O -1.5706777419 1.5184735349 0.3448346293
| 20> C -1.7673854275 2.8374355324 -0.2103583746
| 21> C -3.1481087783 3.3654079358 0.1143418863
| 22> O -3.5013761353 0.0737589672 0.7663728747
| 23> C -4.4386441146 -1.0182584708 0.6888574566
| 24> C -5.6356875757 -0.6506374885 -0.1669446824
| 25> H 1.3829431185 2.8621890858 2.6963614232
| 26> H 1.7811837458 2.268867459 1.07576305
| 27> H 0.3007197006 1.7227610141 1.8782248731
| 28> H 1.6855472614 0.5887608304 3.6401439956
| 29> H 3.1611377461 1.0947668438 2.7666962629
| 30> H 3.8791597497 1.3345560791 -1.3411705617
| 31> H 5.3811257314 1.2482255107 -0.3720864488
| 32> H 5.5790419366 -1.1851149802 -0.9906274938
| 33> H 4.1305791224 -1.03717081 -1.9866570429
| 34> H 5.5928020675 -0.1392333814 -2.4223366338
| 35> H 0.699401717 -2.0799887438 -1.1849168568
| 36> H -0.48078905 -1.0039401103 -2.0269269586
| 37> H -0.9802307327 3.4379356321 0.2465619969
| 38> H -1.6146049728 2.7851679668 -1.2928886873
| 39> H -3.3160053543 3.3455681808 1.1877584427
| 40> H -3.2418419188 4.3833771097 -0.2502859023
| 41> H -3.9002465736 2.7436571934 -0.3702019825
| 42> H -3.9301206052 -1.9038410023 0.2962954785
| 43> H -4.7315362685 -1.1990434906 1.7248563652
| 44> H -6.1157760411 0.2413992972 0.2256310712
| 45> H -5.324342828 -0.4604030987 -1.1917431656
| 46> H -6.3448684799 -1.4720419219 -0.1605589573
| 47> *
| 48>
| 49>                          ****END OF INPUT****

CARTESIAN COORDINATES (ANGSTROEM)
---------------------------------
  C      1.339990    2.002556    2.034626
  C      2.100661    0.856369    2.667068
  O      1.983042   -0.373882    1.912465
  P      2.540050   -0.649133    0.463362
  S      2.767611   -2.582582    0.236714
  O      3.826188    0.280168    0.430571
  C      4.533340    0.679847   -0.758830
  C      4.990799   -0.497401   -1.593498
  S      1.244272    0.242076   -0.988287
  C      0.118525   -1.157936   -1.128456
  S     -0.979020   -1.317395    0.305611
  P     -2.294937    0.246736   -0.251392
  S     -2.721883    0.342051   -2.167138
  O     -1.570678    1.518474    0.344835
  C     -1.767385    2.837436   -0.210358
  C     -3.148109    3.365408    0.114342
  O     -3.501376    0.073759    0.766373
  C     -4.438644   -1.018258    0.688857
  C     -5.635688   -0.650637   -0.166945
  H      1.382943    2.862189    2.696361
  H      1.781184    2.268867    1.075763
  H      0.300720    1.722761    1.878225
  H      1.685547    0.588761    3.640144
  H      3.161138    1.094767    2.766696
  H      3.879160    1.334556   -1.341171
  H      5.381126    1.248226   -0.372086
  H      5.579042   -1.185115   -0.990627
  H      4.130579   -1.037171   -1.986657
  H      5.592802   -0.139233   -2.422337
  H      0.699402   -2.079989   -1.184917
  H     -0.480789   -1.003940   -2.026927
  H     -0.980231    3.437936    0.246562
  H     -1.614605    2.785168   -1.292889
  H     -3.316005    3.345568    1.187758
  H     -3.241842    4.383377   -0.250286
  H     -3.900247    2.743657   -0.370202
  H     -3.930121   -1.903841    0.296295
  H     -4.731536   -1.199043    1.724856
  H     -6.115776    0.241399    0.225631
  H     -5.324343   -0.460403   -1.191743
  H     -6.344868   -1.472042   -0.160559

 Total Charge           Charge          ....    0
 Multiplicity           Mult            ....    1
 Number of Electrons    NEL             ....  202
 Basis Dimension        Dim             ....  334

ORBITAL ENERGIES
----------------

  NO   OCC          E(Eh)            E(eV)
   0   2.0000     -88.041389     -2395.7280
   1   2.0000     -88.040970     -2395.7166
   2   2.0000     -87.992000     -2394.3841
   3   2.0000     -87.979945     -2394.0560
   4   2.0000     -76.429371     -2079.7489
   5   2.0000     -76.426224     -2079.6633
   6   2.0000     -18.799328      -511.5557
   7   2.0000     -18.797355      -511.5020
   8   2.0000     -18.795284      -511.4457
   9   2.0000     -18.787003      -511.2203
  10   2.0000      -9.961695      -271.0715
  11   2.0000      -9.958194      -270.9762
  12   2.0000      -9.954495      -270.8756
  13   2.0000      -9.953212      -270.8407
  14   2.0000      -9.948578      -270.7146
  15   2.0000      -9.886835      -269.0345
  16   2.0000      -9.883989      -268.9570
  17   2.0000      -9.883842      -268.9530
  18   2.0000      -9.883662      -268.9481
  19   2.0000      -7.686208      -209.1523
  20   2.0000      -7.686158      -209.1510
  21   2.0000      -7.636855      -207.8094
  22   2.0000      -7.625280      -207.4944
  23   2.0000      -6.427145      -174.8915
  24   2.0000      -6.423229      -174.7850
  25   2.0000      -5.713972      -155.4851
  26   2.0000      -5.713799      -155.4804
  27   2.0000      -5.710816      -155.3992
  28   2.0000      -5.710757      -155.3976
  29   2.0000      -5.703355      -155.1962
  30   2.0000      -5.703174      -155.1913
  31   2.0000      -5.665573      -154.1681
  32   2.0000      -5.657472      -153.9476
  33   2.0000      -5.657230      -153.9411
  34   2.0000      -5.654362      -153.8630
  35   2.0000      -5.645874      -153.6320
  36   2.0000      -5.645251      -153.6151
  37   2.0000      -4.649622      -126.5226
  38   2.0000      -4.648918      -126.5035
  39   2.0000      -4.647631      -126.4685
  40   2.0000      -4.646358      -126.4338
  41   2.0000      -4.645017      -126.3973
  42   2.0000      -4.643226      -126.3486
  43   2.0000      -0.991852       -26.9897
  44   2.0000      -0.989541       -26.9268
  45   2.0000      -0.950793       -25.8724
  46   2.0000      -0.943824       -25.6827
  47   2.0000      -0.763733       -20.7822
  48   2.0000      -0.722615       -19.6633
  49   2.0000      -0.711139       -19.3511
  50   2.0000      -0.691907       -18.8277
  51   2.0000      -0.689626       -18.7657
  52   2.0000      -0.676916       -18.4198
  53   2.0000      -0.651953       -17.7405
  54   2.0000      -0.637140       -17.3375
  55   2.0000      -0.600927       -16.3520
  56   2.0000      -0.591222       -16.0880
  57   2.0000      -0.581780       -15.8310
  58   2.0000      -0.572658       -15.5828
  59   2.0000      -0.560634       -15.2556
  60   2.0000      -0.504445       -13.7266
  61   2.0000      -0.496801       -13.5187
  62   2.0000      -0.479960       -13.0604
  63   2.0000      -0.471219       -12.8225
  64   2.0000      -0.460269       -12.5246
  65   2.0000      -0.446694       -12.1552
  66   2.0000      -0.442487       -12.0407
  67   2.0000      -0.435135       -11.8406
  68   2.0000      -0.433087       -11.7849
  69   2.0000      -0.413418       -11.2497
  70   2.0000      -0.410041       -11.1578
  71   2.0000      -0.407001       -11.0751
  72   2.0000      -0.397861       -10.8263
  73   2.0000      -0.393864       -10.7176
  74   2.0000      -0.383168       -10.4265
  75   2.0000      -0.374007       -10.1772
  76   2.0000      -0.359634        -9.7861
  77   2.0000      -0.355647        -9.6776
  78   2.0000      -0.353224        -9.6117
  79   2.0000      -0.350494        -9.5374
  80   2.0000      -0.350100        -9.5267
  81   2.0000      -0.346569        -9.4306
  82   2.0000      -0.341502        -9.2927
  83   2.0000      -0.337543        -9.1850
  84   2.0000      -0.334909        -9.1133
  85   2.0000      -0.328665        -8.9434
  86   2.0000      -0.314187        -8.5495
  87   2.0000      -0.300903        -8.1880
  88   2.0000      -0.298768        -8.1299
  89   2.0000      -0.293016        -7.9734
  90   2.0000      -0.287495        -7.8231
  91   2.0000      -0.279743        -7.6122
  92   2.0000      -0.276455        -7.5227
  93   2.0000      -0.267903        -7.2900
  94   2.0000      -0.254928        -6.9369
  95   2.0000      -0.234111        -6.3705
  96   2.0000      -0.220875        -6.0103
  97   2.0000      -0.211812        -5.7637
  98   2.0000      -0.204025        -5.5518
  99   2.0000      -0.198908        -5.4125
 100   2.0000      -0.193610        -5.2684
 101   0.0000      -0.044657        -1.2152
 102   0.0000      -0.024639        -0.6705
 103   0.0000      -0.006252        -0.1701
 104   0.0000      -0.003498        -0.0952
 105   0.0000       0.017060         0.4642

MULLIKEN ATOMIC CHARGES
-----------------------
   0 C :   -0.349846
   1 C :    0.011767
   2 O :   -0.352495
   3 P :    0.615383
   4 S :   -0.314398
   5 O :   -0.385761
   6 C :   -0.010992
   7 C :   -0.307468
   8 S :   -0.109599
   9 C :   -0.380607
  10 S :   -0.058370
  11 P :    0.610045
  12 S :   -0.336620
  13 O :   -0.355786
  14 C :   -0.006391
  15 C :   -0.306158
  16 O :   -0.370786
  17 C :   -0.013872
  18 C :   -0.297084
  19 H :    0.107055
  20 H :    0.114429
  21 H :    0.154420
  22 H :    0.108894
  23 H :    0.107030
  24 H :    0.113273
  25 H :    0.108434
  26 H :    0.127122
  27 H :    0.127285
  28 H :    0.111500
  29 H :    0.198100
  30 H :    0.192487
  31 H :    0.107674
  32 H :    0.114418
  33 H :    0.116511
  34 H :    0.112638
  35 H :    0.124663
  36 H :    0.107085
  37 H :    0.110409
  38 H :    0.114240
  39 H :    0.131550
  40 H :    0.109821
Sum of atomic charges:    0.0000000

LOEWDIN ATOMIC CHARGES
----------------------
   0 C :   -0.375537
   1 C :   -0.107031
   2 O :   -0.233859
   3 P :    0.572107
   4 S :   -0.307219
   5 O :   -0.244960
   6 C :   -0.114231
   7 C :   -0.368448
   8 S :    0.067586
   9 C :   -0.492907
  10 S :    0.093356
  11 P :    0.571844
  12 S :   -0.317776
  13 O :   -0.231466
  14 C :   -0.117309
  15 C :   -0.363805
  16 O :   -0.243577
  17 C :   -0.115344
  18 C :   -0.364184
  19 H :    0.127920
  20 H :    0.114216
  21 H :    0.131316
  22 H :    0.122520
  23 H :    0.112642
  24 H :    0.107850
  25 H :    0.120692
  26 H :    0.130956
  27 H :    0.122453
  28 H :    0.130371
  29 H :    0.127487
  30 H :    0.126449
  31 H :    0.117391
  32 H :    0.110575
  33 H :    0.126430
  34 H :    0.130850
  35 H :    0.123075
  36 H :    0.109014
  37 H :    0.120445
  38 H :    0.125316
  39 H :    0.124830
  40 H :    0.129961

  Mayer bond orders larger than 0.100000
B(  0-C ,  1-C ) :   1.1697 B(  0-C , 19-H ) :   0.9354 B(  0-C , 20-H ) :   0.9410
B(  0-C , 21-H ) :   0.9222 B(  1-C ,  2-O ) :   0.9012 B(  1-C , 22-H ) :   0.9338
B(  1-C , 23-H ) :   0.9283 B(  2-O ,  3-P ) :   1.1423 B(  3-P ,  4-S ) :   1.6417
B(  3-P ,  5-O ) :   1.0800 B(  3-P ,  8-S ) :   0.9283 B(  4-S ,  8-S ) :   0.1136
B(  5-O ,  6-C ) :   0.9091 B(  6-C ,  7-C ) :   1.1683 B(  6-C , 24-H ) :   0.9253
B(  6-C , 25-H ) :   0.9333 B(  7-C , 26-H ) :   0.9434 B(  7-C , 27-H ) :   0.9316
B(  7-C , 28-H ) :   0.9349 B(  8-S ,  9-C ) :   1.0101 B(  9-C , 10-S ) :   1.0068
B(  9-C , 29-H ) :   0.8604 B(  9-C , 30-H ) :   0.8653 B( 10-S , 11-P ) :   0.9727
B( 10-S , 12-S ) :   0.1115 B( 11-P , 12-S ) :   1.5885 B( 11-P , 13-O ) :   1.1228
B( 11-P , 16-O ) :   1.1156 B( 13-O , 14-C ) :   0.8960 B( 14-C , 15-C ) :   1.1643
B( 14-C , 31-H ) :   0.9309 B( 14-C , 32-H ) :   0.9138 B( 15-C , 33-H ) :   0.9467
B( 15-C , 34-H ) :   0.9391 B( 15-C , 35-H ) :   0.9348 B( 16-O , 17-C ) :   0.9034
B( 17-C , 18-C ) :   1.1672 B( 17-C , 36-H ) :   0.9164 B( 17-C , 37-H ) :   0.9356
B( 18-C , 38-H ) :   0.9467 B( 18-C , 39-H ) :   0.9317 B( 18-C , 40-H ) :   0.9392

Dispersion correction           -0.065151473
FINAL SINGLE POINT ENERGY     -2929.519057824303

DIPOLE MOMENT
-------------

Method             : SCF
Type of density    : Electron Density
Multiplicity       :   1
Irrep              :   0
Energy             : -2929.6394736187580747 Eh
Relativity type    :
Basis              : AO
                                X                 Y                 Z
Electronic contribution:      6.087346977     -15.326366687      -1.481205602
Nuclear contribution   :     -6.227698640      16.967456027       1.952495546
                        -----------------------------------------
Total Dipole Moment    :     -0.140351663       1.641089340       0.471289945
                        -----------------------------------------
Magnitude (a.u.)       :      1.713180383
Magnitude (Debye)      :      4.354558471

Rotational constants in cm-1:             0.013824             0.004506             0.004251
Rotational constants in MHz :           414.433187           135.099649           127.445671

                             ****ORCA TERMINATED NORMALLY****
TOTAL RUN TIME: 0 days 0 hours 0 minutes 21 seconds 168 msec
