                         Program Version 6.0.0  -   RELEASE  -
|  1> ! pbe def2-sv(p) def2/J RI DEFGRID1 loosescf d4 GCP(DFT/SV(P)) printgap
|  2> %output
|  3>     printlevel normal
|  4> end
|  5> * xyz 0 1
|  6> C 1.6883392004 2.5977944007 -1.5698821495
|  7> C 2.5636027113 1.3850977861 -1.328706476
|  8> O 1.7458746312 0.3250920249 -0.7823142844
|  9> P 2.1840217345 -0.5266427111 0.4743756297
| 10> S 2.9753212876 0.4753693625 1.9660521781
| 11> O 3.1575279379 -1.5984751959 -0.1828332307
| 12> C 4.058516526 -2.4021896767 0.6008623337
| 13> C 3.3203031171 -3.40580255 1.4626066852
| 14> S 0.3906144751 -1.5603099771 0.8446468944
| 15> C -0.3392157471 -0.3247431829 1.9530694893
| 16> S -0.8385418684 1.2071013283 1.1162053593
| 17> P -2.0405334299 0.4077231635 -0.4453684031
| 18> S -1.2300693157 -0.0298574501 -2.1799123383
| 19> O -3.2359324271 1.4524122705 -0.5637961367
| 20> C -3.1754330051 2.5968147713 -1.4274589944
| 21> C -2.2794369004 3.6757675276 -0.8538632714
| 22> O -2.7216202526 -0.7817585156 0.3448086702
| 23> C -3.2861346203 -1.9206173 -0.3384307839
| 24> C -4.556684098 -1.5536911928 -1.075316047
| 25> H 0.8521875278 2.3206533221 -2.2076914815
| 26> H 1.305935124 2.9754604404 -0.6238365603
| 27> H 2.272264231 3.3717250466 -2.0567870239
| 28> H 3.3698371744 1.6120747859 -0.6229372019
| 29> H 2.98664998 1.0040259489 -2.2600928234
| 30> H 4.6870344607 -2.891704161 -0.1440833367
| 31> H 4.6643605696 -1.7337229924 1.2209941355
| 32> H 4.0377591068 -4.0628719949 1.943479036
| 33> H 2.7467602745 -2.8863887747 2.2294468008
| 34> H 2.6386325831 -3.9959103869 0.8550482744
| 35> H 0.3994507774 -0.0253768843 2.6982713131
| 36> H -1.2059062676 -0.7884193043 2.4158872747
| 37> H -2.8143957045 2.2720757352 -2.4097233422
| 38> H -4.2110995192 2.9303811411 -1.5047628876
| 39> H -1.2579489466 3.3036049667 -0.7768047259
| 40> H -2.2919496548 4.5440215213 -1.5045554676
| 41> H -2.6185070204 3.9599209642 0.1386732251
| 42> H -2.5357578695 -2.3185737303 -1.0292803643
| 43> H -3.4706481234 -2.6401520985 0.460190479
| 44> H -4.3264180573 -0.8640618738 -1.8863603631
| 45> H -5.0042324564 -2.4510685656 -1.4907364983
| 46> H -5.2592772198 -1.076756527 -0.3972120455
| 47> *
| 48>
| 49>                          ****END OF INPUT****

CARTESIAN COORDINATES (ANGSTROEM)
---------------------------------
  C      1.688339    2.597794   -1.569882
  C      2.563603    1.385098   -1.328706
  O      1.745875    0.325092   -0.782314
  P      2.184022   -0.526643    0.474376
  S      2.975321    0.475369    1.966052
  O      3.157528   -1.598475   -0.182833
  C      4.058517   -2.402190    0.600862
  C      3.320303   -3.405803    1.462607
  S      0.390614   -1.560310    0.844647
  C     -0.339216   -0.324743    1.953069
  S     -0.838542    1.207101    1.116205
  P     -2.040533    0.407723   -0.445368
  S     -1.230069   -0.029857   -2.179912
  O     -3.235932    1.452412   -0.563796
  C     -3.175433    2.596815   -1.427459
  C     -2.279437    3.675768   -0.853863
  O     -2.721620   -0.781759    0.344809
  C     -3.286135   -1.920617   -0.338431
  C     -4.556684   -1.553691   -1.075316
  H      0.852188    2.320653   -2.207691
  H      1.305935    2.975460   -0.623837
  H      2.272264    3.371725   -2.056787
  H      3.369837    1.612075   -0.622937
  H      2.986650    1.004026   -2.260093
  H      4.687034   -2.891704   -0.144083
  H      4.664361   -1.733723    1.220994
  H      4.037759   -4.062872    1.943479
  H      2.746760   -2.886389    2.229447
  H      2.638633   -3.995910    0.855048
  H      0.399451   -0.025377    2.698271
  H     -1.205906   -0.788419    2.415887
  H     -2.814396    2.272076   -2.409723
  H     -4.211100    2.930381   -1.504763
  H     -1.257949    3.303605   -0.776805
  H     -2.291950    4.544022   -1.504555
  H     -2.618507    3.959921    0.138673
  H     -2.535758   -2.318574   -1.029280
  H     -3.470648   -2.640152    0.460190
  H     -4.326418   -0.864062   -1.886360
  H     -5.004232   -2.451069   -1.490736
  H     -5.259277   -1.076757   -0.397212

 Total Charge           Charge          ....    0
 Multiplicity           Mult            ....    1
 Number of Electrons    NEL             ....  202
 Basis Dimension        Dim             ....  334

ORBITAL ENERGIES
----------------

  NO   OCC          E(Eh)            E(eV)
   0   2.0000     -88.043418     -2395.7832
   1   2.0000     -88.037712     -2395.6279
   2   2.0000     -87.985995     -2394.2206
   3   2.0000     -87.983232     -2394.1455
   4   2.0000     -76.424995     -2079.6298
   5   2.0000     -76.423328     -2079.5845
   6   2.0000     -18.795049      -511.4393
   7   2.0000     -18.791249      -511.3359
   8   2.0000     -18.789944      -511.3004
   9   2.0000     -18.781489      -511.0703
  10   2.0000      -9.955531      -270.9038
  11   2.0000      -9.953325      -270.8437
  12   2.0000      -9.951268      -270.7878
  13   2.0000      -9.950632      -270.7705
  14   2.0000      -9.944253      -270.5969
  15   2.0000      -9.886728      -269.0315
  16   2.0000      -9.884216      -268.9632
  17   2.0000      -9.883493      -268.9435
  18   2.0000      -9.874517      -268.6993
  19   2.0000      -7.688591      -209.2172
  20   2.0000      -7.682792      -209.0594
  21   2.0000      -7.630999      -207.6500
  22   2.0000      -7.628175      -207.5732
  23   2.0000      -6.422518      -174.7656
  24   2.0000      -6.421135      -174.7280
  25   2.0000      -5.716477      -155.5533
  26   2.0000      -5.713175      -155.4634
  27   2.0000      -5.710977      -155.4036
  28   2.0000      -5.707323      -155.3042
  29   2.0000      -5.705391      -155.2516
  30   2.0000      -5.699414      -155.0889
  31   2.0000      -5.659703      -154.0084
  32   2.0000      -5.656949      -153.9334
  33   2.0000      -5.651829      -153.7941
  34   2.0000      -5.651179      -153.7764
  35   2.0000      -5.649050      -153.7185
  36   2.0000      -5.648239      -153.6964
  37   2.0000      -4.645151      -126.4010
  38   2.0000      -4.644323      -126.3784
  39   2.0000      -4.643602      -126.3588
  40   2.0000      -4.642869      -126.3389
  41   2.0000      -4.642778      -126.3364
  42   2.0000      -4.641763      -126.3088
  43   2.0000      -0.987966       -26.8839
  44   2.0000      -0.982227       -26.7278
  45   2.0000      -0.947795       -25.7908
  46   2.0000      -0.939975       -25.5780
  47   2.0000      -0.763491       -20.7756
  48   2.0000      -0.719690       -19.5837
  49   2.0000      -0.706031       -19.2121
  50   2.0000      -0.688079       -18.7236
  51   2.0000      -0.683074       -18.5874
  52   2.0000      -0.670688       -18.2503
  53   2.0000      -0.650580       -17.7032
  54   2.0000      -0.636930       -17.3317
  55   2.0000      -0.600623       -16.3438
  56   2.0000      -0.591623       -16.0989
  57   2.0000      -0.573226       -15.5983
  58   2.0000      -0.568617       -15.4729
  59   2.0000      -0.555628       -15.1194
  60   2.0000      -0.498423       -13.5628
  61   2.0000      -0.493885       -13.4393
  62   2.0000      -0.475765       -12.9462
  63   2.0000      -0.468905       -12.7596
  64   2.0000      -0.459488       -12.5033
  65   2.0000      -0.440256       -11.9800
  66   2.0000      -0.438343       -11.9279
  67   2.0000      -0.435613       -11.8536
  68   2.0000      -0.423904       -11.5350
  69   2.0000      -0.413935       -11.2637
  70   2.0000      -0.410646       -11.1742
  71   2.0000      -0.394149       -10.7253
  72   2.0000      -0.390096       -10.6151
  73   2.0000      -0.383643       -10.4394
  74   2.0000      -0.381937       -10.3930
  75   2.0000      -0.377447       -10.2709
  76   2.0000      -0.368734       -10.0338
  77   2.0000      -0.356943        -9.7129
  78   2.0000      -0.351750        -9.5716
  79   2.0000      -0.350262        -9.5311
  80   2.0000      -0.347441        -9.4543
  81   2.0000      -0.346131        -9.4187
  82   2.0000      -0.339831        -9.2473
  83   2.0000      -0.336165        -9.1475
  84   2.0000      -0.328786        -8.9467
  85   2.0000      -0.319419        -8.6918
  86   2.0000      -0.303572        -8.2606
  87   2.0000      -0.295190        -8.0325
  88   2.0000      -0.293976        -7.9995
  89   2.0000      -0.285723        -7.7749
  90   2.0000      -0.283236        -7.7072
  91   2.0000      -0.275152        -7.4873
  92   2.0000      -0.269481        -7.3330
  93   2.0000      -0.261354        -7.1118
  94   2.0000      -0.260614        -7.0917
  95   2.0000      -0.234659        -6.3854
  96   2.0000      -0.217721        -5.9245
  97   2.0000      -0.208198        -5.6654
  98   2.0000      -0.203391        -5.5345
  99   2.0000      -0.197760        -5.3813
 100   2.0000      -0.191723        -5.2170
 101   0.0000      -0.046895        -1.2761
 102   0.0000      -0.021250        -0.5782
 103   0.0000      -0.020125        -0.5476
 104   0.0000       0.004243         0.1155
 105   0.0000       0.020597         0.5605

MULLIKEN ATOMIC CHARGES
-----------------------
   0 C :   -0.310554
   1 C :    0.001653
   2 O :   -0.347902
   3 P :    0.618960
   4 S :   -0.343651
   5 O :   -0.373395
   6 C :   -0.002882
   7 C :   -0.316047
   8 S :   -0.079791
   9 C :   -0.341944
  10 S :   -0.098862
  11 P :    0.618783
  12 S :   -0.310064
  13 O :   -0.367333
  14 C :   -0.005226
  15 C :   -0.337352
  16 O :   -0.377881
  17 C :   -0.006125
  18 C :   -0.303772
  19 H :    0.128995
  20 H :    0.132349
  21 H :    0.101864
  22 H :    0.099808
  23 H :    0.104335
  24 H :    0.105540
  25 H :    0.111412
  26 H :    0.112922
  27 H :    0.124439
  28 H :    0.117975
  29 H :    0.191097
  30 H :    0.187169
  31 H :    0.106804
  32 H :    0.105333
  33 H :    0.144304
  34 H :    0.115123
  35 H :    0.122207
  36 H :    0.116527
  37 H :    0.102659
  38 H :    0.123182
  39 H :    0.112260
  40 H :    0.117078
Sum of atomic charges:    0.0000000

LOEWDIN ATOMIC CHARGES
----------------------
   0 C :   -0.360697
   1 C :   -0.111894
   2 O :   -0.232012
   3 P :    0.573548
   4 S :   -0.330376
   5 O :   -0.245679
   6 C :   -0.119343
   7 C :   -0.369369
   8 S :    0.099999
   9 C :   -0.477055
  10 S :    0.082497
  11 P :    0.571198
  12 S :   -0.305382
  13 O :   -0.243748
  14 C :   -0.122531
  15 C :   -0.368263
  16 O :   -0.241175
  17 C :   -0.118061
  18 C :   -0.364124
  19 H :    0.123762
  20 H :    0.124399
  21 H :    0.125871
  22 H :    0.104957
  23 H :    0.116060
  24 H :    0.118857
  25 H :    0.110442
  26 H :    0.130985
  27 H :    0.120102
  28 H :    0.124501
  29 H :    0.129758
  30 H :    0.134195
  31 H :    0.106626
  32 H :    0.118744
  33 H :    0.122565
  34 H :    0.132376
  35 H :    0.127800
  36 H :    0.112342
  37 H :    0.117204
  38 H :    0.123368
  39 H :    0.130736
  40 H :    0.126818

  Mayer bond orders larger than 0.100000
B(  0-C ,  1-C ) :   1.1683 B(  0-C , 19-H ) :   0.9358 B(  0-C , 20-H ) :   0.9381
B(  0-C , 21-H ) :   0.9366 B(  1-C ,  2-O ) :   0.8939 B(  1-C , 22-H ) :   0.9067
B(  1-C , 23-H ) :   0.9328 B(  2-O ,  3-P ) :   1.1558 B(  3-P ,  4-S ) :   1.5884
B(  3-P ,  5-O ) :   1.1110 B(  3-P ,  8-S ) :   0.9567 B(  4-S ,  8-S ) :   0.1088
B(  5-O ,  6-C ) :   0.9097 B(  6-C ,  7-C ) :   1.1645 B(  6-C , 24-H ) :   0.9337
B(  6-C , 25-H ) :   0.9149 B(  7-C , 26-H ) :   0.9381 B(  7-C , 27-H ) :   0.9352
B(  7-C , 28-H ) :   0.9452 B(  8-S ,  9-C ) :   1.0102 B(  9-C , 10-S ) :   1.0033
B(  9-C , 29-H ) :   0.8763 B(  9-C , 30-H ) :   0.9025 B( 10-S , 11-P ) :   0.9528
B( 10-S , 12-S ) :   0.1043 B( 11-P , 12-S ) :   1.6276 B( 11-P , 13-O ) :   1.0976
B( 11-P , 16-O ) :   1.1089 B( 13-O , 14-C ) :   0.9151 B( 14-C , 15-C ) :   1.1631
B( 14-C , 31-H ) :   0.9087 B( 14-C , 32-H ) :   0.9322 B( 15-C , 33-H ) :   0.9268
B( 15-C , 34-H ) :   0.9391 B( 15-C , 35-H ) :   0.9440 B( 16-O , 17-C ) :   0.8993
B( 17-C , 18-C ) :   1.1657 B( 17-C , 36-H ) :   0.9147 B( 17-C , 37-H ) :   0.9343
B( 18-C , 38-H ) :   0.9356 B( 18-C , 39-H ) :   0.9389 B( 18-C , 40-H ) :   0.9460

Dispersion correction           -0.067185397
FINAL SINGLE POINT ENERGY     -2929.522366900565

DIPOLE MOMENT
-------------

Method             : SCF
Type of density    : Electron Density
Multiplicity       :   1
Irrep              :   0
Energy             : -2929.6395919018427776 Eh
Relativity type    :
Basis              : AO
                                X                 Y                 Z
Electronic contribution:      4.393879232      -2.823213583       6.436523714
Nuclear contribution   :     -4.905320985       2.495378876      -6.617015966
                        -----------------------------------------
Total Dipole Moment    :     -0.511441754      -0.327834707      -0.180492252
                        -----------------------------------------
Magnitude (a.u.)       :      0.633739470
Magnitude (Debye)      :      1.610837717

Rotational constants in cm-1:             0.012353             0.005493             0.004720
Rotational constants in MHz :           370.331006           164.670759           141.492175

                             ****ORCA TERMINATED NORMALLY****
TOTAL RUN TIME: 0 days 0 hours 0 minutes 21 seconds 308 msec
