                         Program Version 6.0.0  -   RELEASE  -
|  1> ! wb97x-v def2-tzvp def2/J RIJCOSX DEFGRID2 scfconv7 GCP(DFT/TZ) printgap
|  2> %output
|  3>     printlevel normal
|  4> end
|  5> * xyz 0 1
|  6> C 2.1579890787054774 -1.2164688171952782 0.17940287188372564
|  7> C 1.408122208654713 0.08229622151719074 0.04205938902884355
|  8> O 2.005835197784897 1.176456237170635 -0.07398839661551275
|  9> N 0.06804543816189072 0.016111271997202137 0.04369886770217215
| 10> C -0.7401417373414745 -1.2185675222243886 0.09480470064319808
| 11> C -2.115358636596115 -0.7450979269240368 -0.3741421775744023
| 12> C -2.183972325964968 0.689736252464446 0.15723436902981572
| 13> C -0.7731411681120375 1.219972749530058 -0.09403848627172709
| 14> H 3.215542191988453 -1.0029314800983977 0.33565014755942474
| 15> H 2.0479048258888106 -1.8128042460643006 -0.7331280494881783
| 16> H 1.7768665407499675 -1.815293188026597 1.0119496395807783
| 17> H -0.3143198716468956 -1.9924638046649294 -0.5488653521907382
| 18> H -0.7840355213820345 -1.6051937095610547 1.1214283091446167
| 19> H -2.1532823043018823 -0.7422608865187975 -1.469075057379765
| 20> H -2.9174986179341236 -1.3848745319011482 5.035183797173123e-05
| 21> H -2.9440642501232843 1.2978199423369572 -0.3378492490136226
| 22> H -2.393260700875201 0.680357380704187 1.2325008147039225
| 23> H -0.6709348265781303 1.6363081392843961 -1.1044550850476968
| 24> H -0.4646309239255868 1.9865674241836146 0.6223234470106576
| 25> *
| 26>
| 27>                          ****END OF INPUT****

CARTESIAN COORDINATES (ANGSTROEM)
---------------------------------
  C      2.157989   -1.216469    0.179403
  C      1.408122    0.082296    0.042059
  O      2.005835    1.176456   -0.073988
  N      0.068045    0.016111    0.043699
  C     -0.740142   -1.218568    0.094805
  C     -2.115359   -0.745098   -0.374142
  C     -2.183972    0.689736    0.157234
  C     -0.773141    1.219973   -0.094038
  H      3.215542   -1.002931    0.335650
  H      2.047905   -1.812804   -0.733128
  H      1.776867   -1.815293    1.011950
  H     -0.314320   -1.992464   -0.548865
  H     -0.784036   -1.605194    1.121428
  H     -2.153282   -0.742261   -1.469075
  H     -2.917499   -1.384875    0.000050
  H     -2.944064    1.297820   -0.337849
  H     -2.393261    0.680357    1.232501
  H     -0.670935    1.636308   -1.104455
  H     -0.464631    1.986567    0.622323

 Total Charge           Charge          ....    0
 Multiplicity           Mult            ....    1
 Number of Electrons    NEL             ....   62
 Basis Dimension        Dim             ....  314

ORBITAL ENERGIES
----------------

  NO   OCC          E(Eh)            E(eV)
   0   2.0000     -21.615489      -588.1873
   1   2.0000     -16.551080      -450.3778
   2   2.0000     -12.137708      -330.2838
   3   2.0000     -12.093933      -329.0926
   4   2.0000     -12.080124      -328.7169
   5   2.0000     -12.062004      -328.2238
   6   2.0000     -12.057715      -328.1071
   7   2.0000     -12.047617      -327.8323
   8   2.0000      -1.660423       -45.1824
   9   2.0000      -1.528246       -41.5857
  10   2.0000      -1.335038       -36.3282
  11   2.0000      -1.264597       -34.4114
  12   2.0000      -1.241252       -33.7762
  13   2.0000      -1.165918       -31.7262
  14   2.0000      -1.090231       -29.6667
  15   2.0000      -1.046422       -28.4746
  16   2.0000      -1.014836       -27.6151
  17   2.0000      -0.962881       -26.2013
  18   2.0000      -0.939252       -25.5584
  19   2.0000      -0.900802       -24.5121
  20   2.0000      -0.890730       -24.2380
  21   2.0000      -0.878888       -23.9158
  22   2.0000      -0.872988       -23.7552
  23   2.0000      -0.846893       -23.0451
  24   2.0000      -0.834781       -22.7155
  25   2.0000      -0.821793       -22.3621
  26   2.0000      -0.814190       -22.1552
  27   2.0000      -0.811303       -22.0767
  28   2.0000      -0.805572       -21.9207
  29   2.0000      -0.772553       -21.0222
  30   2.0000      -0.730911       -19.8891
  31   0.0000      -0.267770        -7.2864
  32   0.0000      -0.131157        -3.5690
  33   0.0000      -0.115099        -3.1320
  34   0.0000      -0.064279        -1.7491
  35   0.0000      -0.039173        -1.0659

MULLIKEN ATOMIC CHARGES
-----------------------
   0 C :   -0.368320
   1 C :    0.233877
   2 O :   -0.425806
   3 N :   -0.053536
   4 C :   -0.174833
   5 C :   -0.171532
   6 C :   -0.168814
   7 C :   -0.146022
   8 H :    0.146153
   9 H :    0.127739
  10 H :    0.121344
  11 H :    0.114412
  12 H :    0.107966
  13 H :    0.100340
  14 H :    0.111476
  15 H :    0.111369
  16 H :    0.098330
  17 H :    0.109883
  18 H :    0.125972
Sum of atomic charges:   -0.0000000

LOEWDIN ATOMIC CHARGES
----------------------
   0 C :   -0.258234
   1 C :   -0.443294
   2 O :    0.006548
   3 N :    0.198047
   4 C :   -0.236062
   5 C :   -0.246695
   6 C :   -0.247837
   7 C :   -0.223655
   8 H :    0.134131
   9 H :    0.130357
  10 H :    0.126547
  11 H :    0.129505
  12 H :    0.126579
  13 H :    0.136793
  14 H :    0.132461
  15 H :    0.133130
  16 H :    0.135387
  17 H :    0.131316
  18 H :    0.134975

  Mayer bond orders larger than 0.100000
B(  0-C ,  1-C ) :   0.9666 B(  0-C ,  8-H ) :   0.9827 B(  0-C ,  9-H ) :   0.9606
B(  0-C , 10-H ) :   0.9597 B(  1-C ,  2-O ) :   2.0105 B(  1-C ,  3-N ) :   1.2541
B(  3-N ,  4-C ) :   0.9576 B(  3-N ,  7-C ) :   0.9273 B(  4-C ,  5-C ) :   1.0110
B(  4-C , 11-H ) :   0.9610 B(  4-C , 12-H ) :   0.9651 B(  5-C ,  6-C ) :   0.9764
B(  5-C , 13-H ) :   0.9705 B(  5-C , 14-H ) :   0.9760 B(  6-C ,  7-C ) :   0.9833
B(  6-C , 15-H ) :   0.9753 B(  6-C , 16-H ) :   0.9721 B(  7-C , 17-H ) :   0.9774
B(  7-C , 18-H ) :   0.9714

FINAL SINGLE POINT ENERGY      -365.276482982413

DIPOLE MOMENT
-------------

Method             : SCF
Type of density    : Electron Density
Multiplicity       :   1
Irrep              :   0
Energy             :  -365.2893314255131259 Eh
Relativity type    :
Basis              : AO
                                X                 Y                 Z
Electronic contribution:      3.893113882       3.245732976      -0.084805712
Nuclear contribution   :     -5.263295658      -4.441896096       0.155979791
                        -----------------------------------------
Total Dipole Moment    :     -1.370181776      -1.196163120       0.071174079
                        -----------------------------------------
Magnitude (a.u.)       :      1.820239011
Magnitude (Debye)      :      4.626679877

Rotational constants in cm-1:             0.135209             0.051499             0.039196
Rotational constants in MHz :          4053.452775          1543.909668          1175.063179

                             ****ORCA TERMINATED NORMALLY****
TOTAL RUN TIME: 0 days 0 hours 3 minutes 23 seconds 887 msec
