                         Program Version 6.0.0  -   RELEASE  -
|  1> ! wb97x-v def2-tzvp def2/J RIJCOSX DEFGRID2 scfconv7 GCP(DFT/TZ) printgap
|  2> %output
|  3>     printlevel normal
|  4> end
|  5> %cpcm
|  6>     smd true
|  7>     smdsolvent "water"
|  8> end
|  9> * xyz 0 1
| 10> C 2.1579890787054774 -1.2164688171952782 0.17940287188372564
| 11> C 1.408122208654713 0.08229622151719074 0.04205938902884355
| 12> O 2.005835197784897 1.176456237170635 -0.07398839661551275
| 13> N 0.06804543816189072 0.016111271997202137 0.04369886770217215
| 14> C -0.7401417373414745 -1.2185675222243886 0.09480470064319808
| 15> C -2.115358636596115 -0.7450979269240368 -0.3741421775744023
| 16> C -2.183972325964968 0.689736252464446 0.15723436902981572
| 17> C -0.7731411681120375 1.219972749530058 -0.09403848627172709
| 18> H 3.215542191988453 -1.0029314800983977 0.33565014755942474
| 19> H 2.0479048258888106 -1.8128042460643006 -0.7331280494881783
| 20> H 1.7768665407499675 -1.815293188026597 1.0119496395807783
| 21> H -0.3143198716468956 -1.9924638046649294 -0.5488653521907382
| 22> H -0.7840355213820345 -1.6051937095610547 1.1214283091446167
| 23> H -2.1532823043018823 -0.7422608865187975 -1.469075057379765
| 24> H -2.9174986179341236 -1.3848745319011482 5.035183797173123e-05
| 25> H -2.9440642501232843 1.2978199423369572 -0.3378492490136226
| 26> H -2.393260700875201 0.680357380704187 1.2325008147039225
| 27> H -0.6709348265781303 1.6363081392843961 -1.1044550850476968
| 28> H -0.4646309239255868 1.9865674241836146 0.6223234470106576
| 29> *
| 30>
| 31>                          ****END OF INPUT****

CARTESIAN COORDINATES (ANGSTROEM)
---------------------------------
  C      2.157989   -1.216469    0.179403
  C      1.408122    0.082296    0.042059
  O      2.005835    1.176456   -0.073988
  N      0.068045    0.016111    0.043699
  C     -0.740142   -1.218568    0.094805
  C     -2.115359   -0.745098   -0.374142
  C     -2.183972    0.689736    0.157234
  C     -0.773141    1.219973   -0.094038
  H      3.215542   -1.002931    0.335650
  H      2.047905   -1.812804   -0.733128
  H      1.776867   -1.815293    1.011950
  H     -0.314320   -1.992464   -0.548865
  H     -0.784036   -1.605194    1.121428
  H     -2.153282   -0.742261   -1.469075
  H     -2.917499   -1.384875    0.000050
  H     -2.944064    1.297820   -0.337849
  H     -2.393261    0.680357    1.232501
  H     -0.670935    1.636308   -1.104455
  H     -0.464631    1.986567    0.622323

 Total Charge           Charge          ....    0
 Multiplicity           Mult            ....    1
 Number of Electrons    NEL             ....   62
 Basis Dimension        Dim             ....  314

ORBITAL ENERGIES
----------------

  NO   OCC          E(Eh)            E(eV)
   0   2.0000     -21.637600      -588.7890
   1   2.0000     -16.552865      -450.4264
   2   2.0000     -12.150274      -330.6258
   3   2.0000     -12.075090      -328.5799
   4   2.0000     -12.072189      -328.5010
   5   2.0000     -12.040925      -327.6502
   6   2.0000     -12.040068      -327.6269
   7   2.0000     -12.039645      -327.6154
   8   2.0000      -1.685103       -45.8540
   9   2.0000      -1.527604       -41.5682
  10   2.0000      -1.323793       -36.0222
  11   2.0000      -1.254009       -34.1233
  12   2.0000      -1.234205       -33.5844
  13   2.0000      -1.159144       -31.5419
  14   2.0000      -1.077191       -29.3119
  15   2.0000      -1.055429       -28.7197
  16   2.0000      -1.018034       -27.7021
  17   2.0000      -0.959080       -26.0979
  18   2.0000      -0.939171       -25.5561
  19   2.0000      -0.905827       -24.6488
  20   2.0000      -0.880235       -23.9524
  21   2.0000      -0.877703       -23.8835
  22   2.0000      -0.857354       -23.3298
  23   2.0000      -0.839412       -22.8416
  24   2.0000      -0.827691       -22.5226
  25   2.0000      -0.820744       -22.3336
  26   2.0000      -0.820303       -22.3216
  27   2.0000      -0.796784       -21.6816
  28   2.0000      -0.795285       -21.6408
  29   2.0000      -0.753392       -20.5008
  30   2.0000      -0.726850       -19.7786
  31   0.0000      -0.274010        -7.4562
  32   0.0000      -0.121210        -3.2983
  33   0.0000      -0.108558        -2.9540
  34   0.0000      -0.058005        -1.5784
  35   0.0000      -0.022714        -0.6181

MULLIKEN ATOMIC CHARGES
-----------------------
   0 C :   -0.400153
   1 C :    0.293225
   2 O :   -0.599328
   3 N :   -0.041739
   4 C :   -0.184816
   5 C :   -0.188378
   6 C :   -0.191145
   7 C :   -0.171850
   8 H :    0.144565
   9 H :    0.165611
  10 H :    0.158680
  11 H :    0.143182
  12 H :    0.132479
  13 H :    0.113071
  14 H :    0.129049
  15 H :    0.127882
  16 H :    0.112597
  17 H :    0.126122
  18 H :    0.130948
Sum of atomic charges:   -0.0000000

LOEWDIN ATOMIC CHARGES
----------------------
   0 C :   -0.254639
   1 C :   -0.435412
   2 O :   -0.097567
   3 N :    0.212358
   4 C :   -0.223183
   5 C :   -0.243404
   6 C :   -0.244861
   7 C :   -0.227256
   8 H :    0.132379
   9 H :    0.143674
  10 H :    0.139638
  11 H :    0.138917
  12 H :    0.135917
  13 H :    0.140173
  14 H :    0.137993
  15 H :    0.137641
  16 H :    0.139802
  17 H :    0.134282
  18 H :    0.133547

  Mayer bond orders larger than 0.100000
B(  0-C ,  1-C ) :   0.9954 B(  0-C ,  8-H ) :   0.9722 B(  0-C ,  9-H ) :   0.9498
B(  0-C , 10-H ) :   0.9527 B(  1-C ,  2-O ) :   1.8112 B(  1-C ,  3-N ) :   1.3237
B(  3-N ,  4-C ) :   0.9385 B(  3-N ,  7-C ) :   0.9183 B(  4-C ,  5-C ) :   1.0091
B(  4-C , 11-H ) :   0.9566 B(  4-C , 12-H ) :   0.9640 B(  5-C ,  6-C ) :   0.9811
B(  5-C , 13-H ) :   0.9690 B(  5-C , 14-H ) :   0.9698 B(  6-C ,  7-C ) :   1.0018
B(  6-C , 15-H ) :   0.9698 B(  6-C , 16-H ) :   0.9694 B(  7-C , 17-H ) :   0.9687
B(  7-C , 18-H ) :   0.9631

FINAL SINGLE POINT ENERGY      -365.292698294613

DIPOLE MOMENT
-------------

Method             : SCF
Type of density    : Electron Density
Multiplicity       :   1
Irrep              :   0
Energy             :  -365.3055467377125751 Eh
Relativity type    :
Basis              : AO
                                X                 Y                 Z
Electronic contribution:      3.312849001       2.600186087      -0.043115821
Nuclear contribution   :     -5.263295658      -4.441896096       0.155979791
                        -----------------------------------------
Total Dipole Moment    :     -1.950446657      -1.841710009       0.112863970
                        -----------------------------------------
Magnitude (a.u.)       :      2.684935044
Magnitude (Debye)      :      6.824562525

Rotational constants in cm-1:             0.135209             0.051499             0.039196
Rotational constants in MHz :          4053.452775          1543.909668          1175.063179

                             ****ORCA TERMINATED NORMALLY****
TOTAL RUN TIME: 0 days 0 hours 3 minutes 7 seconds 308 msec
