                         Program Version 6.0.0  -   RELEASE  -
|  1> ! r2scan-3c def2/J RI DEFGRID2 scfconv6 printgap
|  2> %output
|  3>     printlevel normal
|  4> end
|  5> * xyz 0 1
|  6> C -1.7848594063 -0.3850110059 0.4961667615
|  7> C -0.7541615618 -0.4243500142 -0.6325326815
|  8> N 0.4979451684 0.1147004487 -0.1147921414
|  9> O 0.6940514906 1.3079782139 -0.2226168114
| 10> O 1.265168164 -0.6507458463 0.4324029703
| 11> H -2.7246222846 -0.7878236933 0.1334448216
| 12> H -1.4464374806 -0.9834668663 1.3384040699
| 13> H -1.944675385 0.6377561107 0.8284382557
| 14> H -1.0739772197 0.2040448801 -1.4636604573
| 15> H -0.5740460432 -1.452476295 -0.9464934622
| 16> *
| 17>
| 18>                          ****END OF INPUT****

CARTESIAN COORDINATES (ANGSTROEM)
---------------------------------
  C     -1.784859   -0.385011    0.496167
  C     -0.754162   -0.424350   -0.632533
  N      0.497945    0.114700   -0.114792
  O      0.694051    1.307978   -0.222617
  O      1.265168   -0.650746    0.432403
  H     -2.724622   -0.787824    0.133445
  H     -1.446437   -0.983467    1.338404
  H     -1.944675    0.637756    0.828438
  H     -1.073977    0.204045   -1.463660
  H     -0.574046   -1.452476   -0.946493

 Total Charge           Charge          ....    0
 Multiplicity           Mult            ....    1
 Number of Electrons    NEL             ....   40
 Basis Dimension        Dim             ....  135

ORBITAL ENERGIES
----------------

  NO   OCC          E(Eh)            E(eV)
   0   2.0000     -18.984513      -516.5949
   1   2.0000     -18.984102      -516.5837
   2   2.0000     -14.391459      -391.6115
   3   2.0000     -10.101562      -274.8775
   4   2.0000     -10.057005      -273.6650
   5   2.0000      -1.207012       -32.8445
   6   2.0000      -1.027916       -27.9710
   7   2.0000      -0.814022       -22.1507
   8   2.0000      -0.683946       -18.6111
   9   2.0000      -0.575385       -15.6570
  10   2.0000      -0.522390       -14.2150
  11   2.0000      -0.499744       -13.5987
  12   2.0000      -0.493886       -13.4393
  13   2.0000      -0.446181       -12.1412
  14   2.0000      -0.394062       -10.7230
  15   2.0000      -0.374777       -10.1982
  16   2.0000      -0.360343        -9.8054
  17   2.0000      -0.292612        -7.9624
  18   2.0000      -0.276307        -7.5187
  19   2.0000      -0.257066        -6.9951
  20   0.0000      -0.101140        -2.7522
  21   0.0000       0.078050         2.1239
  22   0.0000       0.089829         2.4444
  23   0.0000       0.103939         2.8283
  24   0.0000       0.130217         3.5434

MULLIKEN ATOMIC CHARGES
-----------------------
   0 C :   -0.458443
   1 C :   -0.229308
   2 N :    0.222530
   3 O :   -0.193739
   4 O :   -0.192026
   5 H :    0.159152
   6 H :    0.168721
   7 H :    0.167645
   8 H :    0.178147
   9 H :    0.177320
Sum of atomic charges:    0.0000000

LOEWDIN ATOMIC CHARGES
----------------------
   0 C :   -0.357082
   1 C :    0.019874
   2 N :   -0.548140
   3 O :   -0.002129
   4 O :   -0.001500
   5 H :    0.161229
   6 H :    0.166536
   7 H :    0.165932
   8 H :    0.197538
   9 H :    0.197742

  Mayer bond orders larger than 0.100000
B(  0-C ,  1-C ) :   0.9113 B(  0-C ,  5-H ) :   0.9668 B(  0-C ,  6-H ) :   0.9661
B(  0-C ,  7-H ) :   0.9660 B(  1-C ,  2-N ) :   0.8499 B(  1-C ,  8-H ) :   0.9564
B(  1-C ,  9-H ) :   0.9555 B(  2-N ,  3-O ) :   1.8553 B(  2-N ,  4-O ) :   1.8571
B(  3-O ,  4-O ) :   0.2777

Dispersion correction           -0.001898661
FINAL SINGLE POINT ENERGY      -284.280866415957

DIPOLE MOMENT
-------------

Method             : SCF
Type of density    : Electron Density
Multiplicity       :   1
Irrep              :   0
Energy             :  -284.2901808507273245 Eh
Relativity type    :
Basis              : AO
                                X                 Y                 Z
Electronic contribution:      5.932087963       1.696518239      -0.302513521
Nuclear contribution   :     -7.251945733      -2.224315623      -0.100593775
                        -----------------------------------------
Total Dipole Moment    :     -1.319857770      -0.527797385      -0.403107297
                        -----------------------------------------
Magnitude (a.u.)       :      1.477528377
Magnitude (Debye)      :      3.755578674

Rotational constants in cm-1:             0.308630             0.144594             0.118815
Rotational constants in MHz :          9252.484431          4334.812802          3561.970607

                             ****ORCA TERMINATED NORMALLY****
TOTAL RUN TIME: 0 days 0 hours 0 minutes 18 seconds 503 msec
