                         Program Version 6.0.0  -   RELEASE  -
|  1> ! r2scan-3c def2/J RI DEFGRID2 scfconv6 printgap
|  2> %output
|  3>     printlevel normal
|  4> end
|  5> %cpcm
|  6>     smd true
|  7>     smdsolvent "water"
|  8> end
|  9> * xyz 0 1
| 10> C -1.7848594063 -0.3850110059 0.4961667615
| 11> C -0.7541615618 -0.4243500142 -0.6325326815
| 12> N 0.4979451684 0.1147004487 -0.1147921414
| 13> O 0.6940514906 1.3079782139 -0.2226168114
| 14> O 1.265168164 -0.6507458463 0.4324029703
| 15> H -2.7246222846 -0.7878236933 0.1334448216
| 16> H -1.4464374806 -0.9834668663 1.3384040699
| 17> H -1.944675385 0.6377561107 0.8284382557
| 18> H -1.0739772197 0.2040448801 -1.4636604573
| 19> H -0.5740460432 -1.452476295 -0.9464934622
| 20> *
| 21>
| 22>                          ****END OF INPUT****

CARTESIAN COORDINATES (ANGSTROEM)
---------------------------------
  C     -1.784859   -0.385011    0.496167
  C     -0.754162   -0.424350   -0.632533
  N      0.497945    0.114700   -0.114792
  O      0.694051    1.307978   -0.222617
  O      1.265168   -0.650746    0.432403
  H     -2.724622   -0.787824    0.133445
  H     -1.446437   -0.983467    1.338404
  H     -1.944675    0.637756    0.828438
  H     -1.073977    0.204045   -1.463660
  H     -0.574046   -1.452476   -0.946493

 Total Charge           Charge          ....    0
 Multiplicity           Mult            ....    1
 Number of Electrons    NEL             ....   40
 Basis Dimension        Dim             ....  135

ORBITAL ENERGIES
----------------

  NO   OCC          E(Eh)            E(eV)
   0   2.0000     -18.996401      -516.9183
   1   2.0000     -18.996113      -516.9105
   2   2.0000     -14.398155      -391.7937
   3   2.0000     -10.082926      -274.3704
   4   2.0000     -10.033025      -273.0125
   5   2.0000      -1.216385       -33.0995
   6   2.0000      -1.038782       -28.2667
   7   2.0000      -0.802803       -21.8454
   8   2.0000      -0.668546       -18.1921
   9   2.0000      -0.573091       -15.5946
  10   2.0000      -0.526313       -14.3217
  11   2.0000      -0.504207       -13.7202
  12   2.0000      -0.496872       -13.5206
  13   2.0000      -0.430227       -11.7071
  14   2.0000      -0.373233       -10.1562
  15   2.0000      -0.354071        -9.6348
  16   2.0000      -0.338608        -9.2140
  17   2.0000      -0.305408        -8.3106
  18   2.0000      -0.286983        -7.8092
  19   2.0000      -0.270091        -7.3495
  20   0.0000      -0.109352        -2.9756
  21   0.0000       0.095461         2.5976
  22   0.0000       0.108292         2.9468
  23   0.0000       0.125888         3.4256
  24   0.0000       0.154854         4.2138

MULLIKEN ATOMIC CHARGES
-----------------------
   0 C :   -0.482394
   1 C :   -0.231399
   2 N :    0.265081
   3 O :   -0.249694
   4 O :   -0.249164
   5 H :    0.185058
   6 H :    0.175512
   7 H :    0.175435
   8 H :    0.205712
   9 H :    0.205853
Sum of atomic charges:    0.0000000

LOEWDIN ATOMIC CHARGES
----------------------
   0 C :   -0.353817
   1 C :    0.035047
   2 N :   -0.539032
   3 O :   -0.035684
   4 O :   -0.036250
   5 H :    0.172360
   6 H :    0.168127
   7 H :    0.167890
   8 H :    0.210449
   9 H :    0.210911

  Mayer bond orders larger than 0.100000
B(  0-C ,  1-C ) :   0.8825 B(  0-C ,  5-H ) :   0.9580 B(  0-C ,  6-H ) :   0.9641
B(  0-C ,  7-H ) :   0.9639 B(  1-C ,  2-N ) :   0.8643 B(  1-C ,  8-H ) :   0.9442
B(  1-C ,  9-H ) :   0.9433 B(  2-N ,  3-O ) :   1.8108 B(  2-N ,  4-O ) :   1.8115
B(  3-O ,  4-O ) :   0.2675

Dispersion correction           -0.001898661
FINAL SINGLE POINT ENERGY      -284.286340812025

DIPOLE MOMENT
-------------

Method             : SCF
Type of density    : Electron Density
Multiplicity       :   1
Irrep              :   0
Energy             :  -284.2956552467954907 Eh
Relativity type    :
Basis              : AO
                                X                 Y                 Z
Electronic contribution:      5.536071912       1.527107683      -0.471726971
Nuclear contribution   :     -7.251945733      -2.224315623      -0.100593775
                        -----------------------------------------
Total Dipole Moment    :     -1.715873822      -0.697207941      -0.572320746
                        -----------------------------------------
Magnitude (a.u.)       :      1.938523387
Magnitude (Debye)      :      4.927334868

Rotational constants in cm-1:             0.308630             0.144594             0.118815
Rotational constants in MHz :          9252.484431          4334.812802          3561.970607

                             ****ORCA TERMINATED NORMALLY****
TOTAL RUN TIME: 0 days 0 hours 0 minutes 20 seconds 906 msec
