                         Program Version 6.0.1  -  RELEASE   -
|  1> ! pbe def2-sv(p) def2/J RI DEFGRID1 loosescf d4 GCP(DFT/SV(P)) printgap
|  2> %output
|  3>     printlevel normal
|  4> end
|  5> * xyz 0 1
|  6> C 3.974807902 -2.4076668397 1.5787649248
|  7> C 4.2914119699 -1.8908937062 0.1846845908
|  8> O 3.0956530056 -1.8282082799 -0.6188716542
|  9> C 2.3445308253 -0.7534270856 -0.5446240657
| 10> O 2.6149447695 0.237708545 0.1043503251
| 11> C 1.0773200234 -0.8996229827 -1.3518653549
| 12> C 0.3891344955 0.4492079488 -1.5324337302
| 13> H 0.7616918688 0.9828079653 -2.4076841424
| 14> C 0.5155521958 1.351165347 -0.31681344
| 15> O -0.0244856193 1.0834562578 0.7418104715
| 16> O 1.0974694891 2.4820683103 -0.6072403711
| 17> C 1.2869801125 3.4677087365 0.4305418051
| 18> C 2.7432930686 3.4897907652 0.8619962743
| 19> S -1.4098451421 0.2620704307 -1.79135059
| 20> P -2.1093653923 -0.3404022096 0.1118416446
| 21> S -1.2051292626 -1.7206127496 1.1876661543
| 22> O -2.6404048415 0.9848884167 0.8145685475
| 23> C -2.5969610206 1.1829131479 2.2333326337
| 24> O -3.5513479744 -0.8710103368 -0.3627933488
| 25> C -3.7124289311 -2.127998429 -1.0258413105
| 26> H 3.5004560661 -3.383258596 1.5181712819
| 27> H 4.8926076053 -2.4879799845 2.1516408518
| 28> H 3.2980580994 -1.7236846755 2.0875046059
| 29> H 4.945211143 -2.5753184535 -0.355414753
| 30> H 4.7342590925 -0.8920200095 0.2306165502
| 31> H 0.4417140479 -1.5813903013 -0.7741418269
| 32> H 1.2856873323 -1.3713041734 -2.3104630664
| 33> H 0.9889863691 4.4149109331 -0.0221568829
| 34> H 0.6287329145 3.2214810867 1.2679887847
| 35> H 3.3774289395 3.7545257822 0.0212364099
| 36> H 2.872483832 4.2161915949 1.6573186163
| 37> H 3.0330868887 2.5049527675 1.2202328847
| 38> H -1.6297020601 0.8665060629 2.6254445898
| 39> H -3.3962491442 0.6166901505 2.7102032799
| 40> H -2.7373286918 2.2505577023 2.3828267941
| 41> H -3.3761487448 -2.0499748086 -2.0594028613
| 42> H -4.7762670121 -2.3470816532 -0.984946993
| 43> H -3.143733337 -2.8999787435 -0.5035487551
| 44> *
| 45>
| 46>                          ****END OF INPUT****

CARTESIAN COORDINATES (ANGSTROEM)
---------------------------------
  C      3.974808   -2.407667    1.578765
  C      4.291412   -1.890894    0.184685
  O      3.095653   -1.828208   -0.618872
  C      2.344531   -0.753427   -0.544624
  O      2.614945    0.237709    0.104350
  C      1.077320   -0.899623   -1.351865
  C      0.389134    0.449208   -1.532434
  H      0.761692    0.982808   -2.407684
  C      0.515552    1.351165   -0.316813
  O     -0.024486    1.083456    0.741810
  O      1.097469    2.482068   -0.607240
  C      1.286980    3.467709    0.430542
  C      2.743293    3.489791    0.861996
  S     -1.409845    0.262070   -1.791351
  P     -2.109365   -0.340402    0.111842
  S     -1.205129   -1.720613    1.187666
  O     -2.640405    0.984888    0.814569
  C     -2.596961    1.182913    2.233333
  O     -3.551348   -0.871010   -0.362793
  C     -3.712429   -2.127998   -1.025841
  H      3.500456   -3.383259    1.518171
  H      4.892608   -2.487980    2.151641
  H      3.298058   -1.723685    2.087505
  H      4.945211   -2.575318   -0.355415
  H      4.734259   -0.892020    0.230617
  H      0.441714   -1.581390   -0.774142
  H      1.285687   -1.371304   -2.310463
  H      0.988986    4.414911   -0.022157
  H      0.628733    3.221481    1.267989
  H      3.377429    3.754526    0.021236
  H      2.872484    4.216192    1.657319
  H      3.033087    2.504953    1.220233
  H     -1.629702    0.866506    2.625445
  H     -3.396249    0.616690    2.710203
  H     -2.737329    2.250558    2.382827
  H     -3.376149   -2.049975   -2.059403
  H     -4.776267   -2.347082   -0.984947
  H     -3.143733   -2.899979   -0.503549

 Total Charge           Charge          ....    0
 Multiplicity           Mult            ....    1
 Number of Electrons    NEL             ....  174
 Basis Dimension        Dim             ....  316

ORBITAL ENERGIES
----------------

  NO   OCC          E(Eh)            E(eV)
   0   2.0000     -88.038208     -2395.6414
   1   2.0000     -87.971191     -2393.8178
   2   2.0000     -76.417921     -2079.4373
   3   2.0000     -18.810367      -511.8561
   4   2.0000     -18.804566      -511.6983
   5   2.0000     -18.776306      -510.9293
   6   2.0000     -18.774199      -510.8719
   7   2.0000     -18.751949      -510.2665
   8   2.0000     -18.736814      -509.8546
   9   2.0000     -10.019502      -272.6445
  10   2.0000     -10.017776      -272.5976
  11   2.0000      -9.953523      -270.8491
  12   2.0000      -9.946575      -270.6601
  13   2.0000      -9.945901      -270.6417
  14   2.0000      -9.931042      -270.2374
  15   2.0000      -9.930843      -270.2320
  16   2.0000      -9.908101      -269.6131
  17   2.0000      -9.888720      -269.0858
  18   2.0000      -9.881610      -268.8923
  19   2.0000      -7.683165      -209.0695
  20   2.0000      -7.616350      -207.2514
  21   2.0000      -6.413701      -174.5257
  22   2.0000      -5.711188      -155.4093
  23   2.0000      -5.707574      -155.3110
  24   2.0000      -5.700078      -155.1070
  25   2.0000      -5.645433      -153.6200
  26   2.0000      -5.637381      -153.4009
  27   2.0000      -5.635889      -153.3603
  28   2.0000      -4.636033      -126.1529
  29   2.0000      -4.635679      -126.1432
  30   2.0000      -4.634561      -126.1128
  31   2.0000      -1.021139       -27.7866
  32   2.0000      -1.013388       -27.5757
  33   2.0000      -0.969012       -26.3682
  34   2.0000      -0.928739       -25.2723
  35   2.0000      -0.926344       -25.2071
  36   2.0000      -0.916739       -24.9457
  37   2.0000      -0.763090       -20.7647
  38   2.0000      -0.715976       -19.4827
  39   2.0000      -0.703976       -19.1562
  40   2.0000      -0.685735       -18.6598
  41   2.0000      -0.655438       -17.8354
  42   2.0000      -0.622676       -16.9439
  43   2.0000      -0.615995       -16.7621
  44   2.0000      -0.611468       -16.6389
  45   2.0000      -0.597915       -16.2701
  46   2.0000      -0.559006       -15.2113
  47   2.0000      -0.507502       -13.8098
  48   2.0000      -0.503411       -13.6985
  49   2.0000      -0.495755       -13.4902
  50   2.0000      -0.482606       -13.1324
  51   2.0000      -0.459513       -12.5040
  52   2.0000      -0.458698       -12.4818
  53   2.0000      -0.442889       -12.0516
  54   2.0000      -0.437076       -11.8934
  55   2.0000      -0.434198       -11.8151
  56   2.0000      -0.423843       -11.5334
  57   2.0000      -0.415661       -11.3107
  58   2.0000      -0.410568       -11.1721
  59   2.0000      -0.401115       -10.9149
  60   2.0000      -0.398750       -10.8506
  61   2.0000      -0.394931       -10.7466
  62   2.0000      -0.385485       -10.4896
  63   2.0000      -0.382510       -10.4086
  64   2.0000      -0.381462       -10.3801
  65   2.0000      -0.365719        -9.9517
  66   2.0000      -0.357925        -9.7396
  67   2.0000      -0.353481        -9.6187
  68   2.0000      -0.350751        -9.5444
  69   2.0000      -0.336379        -9.1533
  70   2.0000      -0.331130        -9.0105
  71   2.0000      -0.327831        -8.9207
  72   2.0000      -0.323769        -8.8102
  73   2.0000      -0.303101        -8.2478
  74   2.0000      -0.299221        -8.1422
  75   2.0000      -0.292218        -7.9517
  76   2.0000      -0.288023        -7.8375
  77   2.0000      -0.276535        -7.5249
  78   2.0000      -0.272283        -7.4092
  79   2.0000      -0.263762        -7.1773
  80   2.0000      -0.252273        -6.8647
  81   2.0000      -0.245174        -6.6715
  82   2.0000      -0.237837        -6.4719
  83   2.0000      -0.236003        -6.4220
  84   2.0000      -0.220498        -6.0000
  85   2.0000      -0.192125        -5.2280
  86   2.0000      -0.180331        -4.9070
  87   0.0000      -0.047091        -1.2814
  88   0.0000      -0.030173        -0.8211
  89   0.0000      -0.014436        -0.3928
  90   0.0000       0.015273         0.4156
  91   0.0000       0.036552         0.9946

MULLIKEN ATOMIC CHARGES
-----------------------
   0 C :   -0.305174
   1 C :   -0.017074
   2 O :   -0.223434
   3 C :    0.141166
   4 O :   -0.206700
   5 C :   -0.066369
   6 C :   -0.300678
   7 H :    0.130086
   8 C :    0.212352
   9 O :   -0.207446
  10 O :   -0.216330
  11 C :   -0.021501
  12 C :   -0.296334
  13 S :   -0.081226
  14 P :    0.621758
  15 S :   -0.339965
  16 O :   -0.371498
  17 C :   -0.094674
  18 O :   -0.379290
  19 C :   -0.100175
  20 H :    0.120537
  21 H :    0.113740
  22 H :    0.134697
  23 H :    0.105903
  24 H :    0.109300
  25 H :    0.142431
  26 H :    0.118265
  27 H :    0.104481
  28 H :    0.112120
  29 H :    0.109331
  30 H :    0.107759
  31 H :    0.137352
  32 H :    0.138193
  33 H :    0.113912
  34 H :    0.114552
  35 H :    0.108176
  36 H :    0.120281
  37 H :    0.111476
Sum of atomic charges:    0.0000000

LOEWDIN ATOMIC CHARGES
----------------------
   0 C :   -0.355258
   1 C :   -0.109609
   2 O :   -0.050644
   3 C :    0.051196
   4 O :   -0.152796
   5 C :   -0.265395
   6 C :   -0.256964
   7 H :    0.140198
   8 C :    0.015167
   9 O :   -0.172891
  10 O :   -0.039921
  11 C :   -0.106728
  12 C :   -0.355153
  13 S :    0.117774
  14 P :    0.587076
  15 S :   -0.326499
  16 O :   -0.244855
  17 C :   -0.207767
  18 O :   -0.264406
  19 C :   -0.221744
  20 H :    0.128338
  21 H :    0.131010
  22 H :    0.134276
  23 H :    0.119369
  24 H :    0.119341
  25 H :    0.141666
  26 H :    0.143667
  27 H :    0.117720
  28 H :    0.120499
  29 H :    0.123767
  30 H :    0.127552
  31 H :    0.134209
  32 H :    0.117374
  33 H :    0.111802
  34 H :    0.117848
  35 H :    0.105321
  36 H :    0.119891
  37 H :    0.105570

  Mayer bond orders larger than 0.100000
B(  0-C ,  1-C ) :   1.1756 B(  0-C , 20-H ) :   0.9480 B(  0-C , 21-H ) :   0.9434
B(  0-C , 22-H ) :   0.9442 B(  1-C ,  2-O ) :   0.9091 B(  1-C , 23-H ) :   0.9367
B(  1-C , 24-H ) :   0.9149 B(  2-O ,  3-C ) :   1.2560 B(  3-C ,  4-O ) :   1.9328
B(  3-C ,  5-C ) :   1.0183 B(  4-O ,  8-C ) :   0.1275 B(  5-C ,  6-C ) :   1.0073
B(  5-C , 25-H ) :   0.8310 B(  5-C , 26-H ) :   0.8993 B(  6-C ,  7-H ) :   0.8825
B(  6-C ,  8-C ) :   0.8984 B(  6-C , 13-S ) :   1.0156 B(  8-C ,  9-O ) :   1.9247
B(  8-C , 10-O ) :   1.2674 B(  9-O , 14-P ) :   0.1176 B( 10-O , 11-C ) :   0.9076
B( 11-C , 12-C ) :   1.1780 B( 11-C , 27-H ) :   0.9369 B( 11-C , 28-H ) :   0.9073
B( 12-C , 29-H ) :   0.9502 B( 12-C , 30-H ) :   0.9436 B( 12-C , 31-H ) :   0.9366
B( 13-S , 14-P ) :   0.9578 B( 13-S , 15-S ) :   0.1184 B( 14-P , 15-S ) :   1.5579
B( 14-P , 16-O ) :   1.1193 B( 14-P , 18-O ) :   1.0762 B( 15-S , 25-H ) :   0.1093
B( 16-O , 17-C ) :   0.9203 B( 17-C , 32-H ) :   0.9350 B( 17-C , 33-H ) :   0.9530
B( 17-C , 34-H ) :   0.9602 B( 18-O , 19-C ) :   0.9417 B( 19-C , 35-H ) :   0.9481
B( 19-C , 36-H ) :   0.9597 B( 19-C , 37-H ) :   0.9290

Dispersion correction           -0.051929989
FINAL SINGLE POINT ENERGY     -1979.012405330271

DIPOLE MOMENT
-------------

Method             : SCF
Type of density    : Electron Density
Multiplicity       :   1
Irrep              :   0
Energy             : -1979.1444520278896562 Eh
Relativity type    :
Basis              : AO
                                X                 Y                 Z
Electronic contribution:    -15.583927761      -1.536992825      -8.163013372
Nuclear contribution   :     16.699401521       1.800172710       7.851245975
                        -----------------------------------------
Total Dipole Moment    :      1.115473760       0.263179885      -0.311767398
                        -----------------------------------------
Magnitude (a.u.)       :      1.187747563
Magnitude (Debye)      :      3.019014379

Rotational constants in cm-1:             0.012542             0.007339             0.005945
Rotational constants in MHz :           376.005194           220.028131           178.221061

                             ****ORCA TERMINATED NORMALLY****
TOTAL RUN TIME: 0 days 0 hours 0 minutes 36 seconds 961 msec
