                         Program Version 6.0.1  -  RELEASE   -
|  1> ! pbe def2-sv(p) def2/J RI DEFGRID1 loosescf d4 GCP(DFT/SV(P)) printgap
|  2> %output
|  3>     printlevel normal
|  4> end
|  5> * xyz 0 1
|  6> C 5.3630588459 -1.6979023671 -0.3452891442
|  7> C 4.1795172138 -2.3185073388 0.3796954016
|  8> O 2.9719345312 -2.1814652583 -0.3972686014
|  9> C 2.2683177394 -1.0796767197 -0.2784641577
| 10> O 2.5571899114 -0.1479711177 0.4473784347
| 11> C 1.0178378742 -1.1209123972 -1.1232871117
| 12> C 0.4344678186 0.2772633063 -1.311653372
| 13> H 0.8598763372 0.7792961305 -2.1819212122
| 14> C 0.6211051525 1.1646184018 -0.0930564869
| 15> O -0.0259133858 1.002827549 0.9273482663
| 16> O 1.4006467222 2.1814880449 -0.3351518507
| 17> C 1.6723000072 3.1049463512 0.7396650457
| 18> C 2.1900279539 4.3943332093 0.1336267328
| 19> S -1.3630822892 0.2202062013 -1.5887000109
| 20> P -2.1378469296 -0.2955410557 0.3381289749
| 21> S -1.3147737608 -1.7058588123 1.4278736639
| 22> O -2.5928845219 1.0163139832 1.1015153211
| 23> C -3.5232628229 1.9520966918 0.5232413192
| 24> O -3.5904797169 -0.7691646243 -0.1755416932
| 25> C -3.7834155453 -2.0162320204 -0.846647911
| 26> H 5.4709511196 -2.1411021429 -1.3311756087
| 27> H 5.2168222469 -0.6253144893 -0.4505968822
| 28> H 6.2664218079 -1.8755110601 0.2286766605
| 29> H 4.0239032981 -1.8441340225 1.3528147333
| 30> H 4.30272424 -3.3949130714 0.4982050163
| 31> H 0.3161087574 -1.7547988451 -0.5664924377
| 32> H 1.2175793657 -1.6010758492 -2.079692599
| 33> H 0.7497600977 3.252804598 1.3099957265
| 34> H 2.4127515815 2.6307135418 1.3907950621
| 35> H 2.4239732106 5.0924904782 0.9302717194
| 36> H 3.0867115479 4.1958926072 -0.4451351913
| 37> H 1.4392049468 4.8316668473 -0.5177534655
| 38> H -3.4728078505 2.8311872115 1.1608469889
| 39> H -4.52408744 1.5242475347 0.5281828645
| 40> H -3.2292182756 2.1963452371 -0.4981999032
| 41> H -3.4220641514 -1.9444425284 -1.8720719866
| 42> H -4.8551551479 -2.1964601956 -0.828894005
| 43> H -3.2547147601 -2.8106882666 -0.316802815
| 44> *
| 45>
| 46>                          ****END OF INPUT****

CARTESIAN COORDINATES (ANGSTROEM)
---------------------------------
  C      5.363059   -1.697902   -0.345289
  C      4.179517   -2.318507    0.379695
  O      2.971935   -2.181465   -0.397269
  C      2.268318   -1.079677   -0.278464
  O      2.557190   -0.147971    0.447378
  C      1.017838   -1.120912   -1.123287
  C      0.434468    0.277263   -1.311653
  H      0.859876    0.779296   -2.181921
  C      0.621105    1.164618   -0.093056
  O     -0.025913    1.002828    0.927348
  O      1.400647    2.181488   -0.335152
  C      1.672300    3.104946    0.739665
  C      2.190028    4.394333    0.133627
  S     -1.363082    0.220206   -1.588700
  P     -2.137847   -0.295541    0.338129
  S     -1.314774   -1.705859    1.427874
  O     -2.592885    1.016314    1.101515
  C     -3.523263    1.952097    0.523241
  O     -3.590480   -0.769165   -0.175542
  C     -3.783416   -2.016232   -0.846648
  H      5.470951   -2.141102   -1.331176
  H      5.216822   -0.625314   -0.450597
  H      6.266422   -1.875511    0.228677
  H      4.023903   -1.844134    1.352815
  H      4.302724   -3.394913    0.498205
  H      0.316109   -1.754799   -0.566492
  H      1.217579   -1.601076   -2.079693
  H      0.749760    3.252805    1.309996
  H      2.412752    2.630714    1.390795
  H      2.423973    5.092490    0.930272
  H      3.086712    4.195893   -0.445135
  H      1.439205    4.831667   -0.517753
  H     -3.472808    2.831187    1.160847
  H     -4.524087    1.524248    0.528183
  H     -3.229218    2.196345   -0.498200
  H     -3.422064   -1.944443   -1.872072
  H     -4.855155   -2.196460   -0.828894
  H     -3.254715   -2.810688   -0.316803

 Total Charge           Charge          ....    0
 Multiplicity           Mult            ....    1
 Number of Electrons    NEL             ....  174
 Basis Dimension        Dim             ....  316

ORBITAL ENERGIES
----------------

  NO   OCC          E(Eh)            E(eV)
   0   2.0000     -88.036568     -2395.5968
   1   2.0000     -87.966988     -2393.7034
   2   2.0000     -76.417685     -2079.4309
   3   2.0000     -18.808049      -511.7930
   4   2.0000     -18.803635      -511.6729
   5   2.0000     -18.777732      -510.9681
   6   2.0000     -18.776805      -510.9428
   7   2.0000     -18.749446      -510.1984
   8   2.0000     -18.733459      -509.7633
   9   2.0000     -10.016794      -272.5708
  10   2.0000     -10.014267      -272.5021
  11   2.0000      -9.952393      -270.8184
  12   2.0000      -9.945853      -270.6404
  13   2.0000      -9.944759      -270.6106
  14   2.0000      -9.939520      -270.4681
  15   2.0000      -9.932307      -270.2718
  16   2.0000      -9.906768      -269.5768
  17   2.0000      -9.891944      -269.1735
  18   2.0000      -9.888704      -269.0853
  19   2.0000      -7.681161      -209.0150
  20   2.0000      -7.612239      -207.1396
  21   2.0000      -6.413034      -174.5075
  22   2.0000      -5.709082      -155.3520
  23   2.0000      -5.705448      -155.2531
  24   2.0000      -5.698378      -155.0607
  25   2.0000      -5.641599      -153.5157
  26   2.0000      -5.633128      -153.2852
  27   2.0000      -5.631620      -153.2442
  28   2.0000      -4.636135      -126.1556
  29   2.0000      -4.635091      -126.1272
  30   2.0000      -4.633203      -126.0759
  31   2.0000      -1.019112       -27.7314
  32   2.0000      -1.012197       -27.5433
  33   2.0000      -0.973020       -26.4772
  34   2.0000      -0.926868       -25.2214
  35   2.0000      -0.925144       -25.1744
  36   2.0000      -0.914379       -24.8815
  37   2.0000      -0.761611       -20.7245
  38   2.0000      -0.715674       -19.4745
  39   2.0000      -0.706433       -19.2230
  40   2.0000      -0.684710       -18.6319
  41   2.0000      -0.657773       -17.8989
  42   2.0000      -0.625644       -17.0246
  43   2.0000      -0.618421       -16.8281
  44   2.0000      -0.606756       -16.5107
  45   2.0000      -0.597358       -16.2549
  46   2.0000      -0.556229       -15.1358
  47   2.0000      -0.511281       -13.9127
  48   2.0000      -0.504153       -13.7187
  49   2.0000      -0.498943       -13.5769
  50   2.0000      -0.480556       -13.0766
  51   2.0000      -0.463704       -12.6180
  52   2.0000      -0.453977       -12.3534
  53   2.0000      -0.447276       -12.1710
  54   2.0000      -0.443033       -12.0555
  55   2.0000      -0.429875       -11.6975
  56   2.0000      -0.421235       -11.4624
  57   2.0000      -0.419013       -11.4019
  58   2.0000      -0.411503       -11.1976
  59   2.0000      -0.404904       -11.0180
  60   2.0000      -0.400357       -10.8943
  61   2.0000      -0.394870       -10.7450
  62   2.0000      -0.387760       -10.5515
  63   2.0000      -0.384812       -10.4713
  64   2.0000      -0.369343       -10.0503
  65   2.0000      -0.367551       -10.0016
  66   2.0000      -0.359396        -9.7796
  67   2.0000      -0.353547        -9.6205
  68   2.0000      -0.351151        -9.5553
  69   2.0000      -0.340510        -9.2657
  70   2.0000      -0.330547        -8.9946
  71   2.0000      -0.325056        -8.8452
  72   2.0000      -0.318777        -8.6744
  73   2.0000      -0.309956        -8.4343
  74   2.0000      -0.302152        -8.2220
  75   2.0000      -0.297529        -8.0962
  76   2.0000      -0.286363        -7.7923
  77   2.0000      -0.282754        -7.6941
  78   2.0000      -0.270930        -7.3724
  79   2.0000      -0.260831        -7.0976
  80   2.0000      -0.253120        -6.8877
  81   2.0000      -0.245096        -6.6694
  82   2.0000      -0.233710        -6.3596
  83   2.0000      -0.232179        -6.3179
  84   2.0000      -0.221417        -6.0251
  85   2.0000      -0.187388        -5.0991
  86   2.0000      -0.175333        -4.7711
  87   0.0000      -0.044573        -1.2129
  88   0.0000      -0.028356        -0.7716
  89   0.0000      -0.012903        -0.3511
  90   0.0000       0.016790         0.4569
  91   0.0000       0.033634         0.9152

MULLIKEN ATOMIC CHARGES
-----------------------
   0 C :   -0.306228
   1 C :   -0.012890
   2 O :   -0.224761
   3 C :    0.138750
   4 O :   -0.209312
   5 C :   -0.064577
   6 C :   -0.289800
   7 H :    0.127296
   8 C :    0.203793
   9 O :   -0.196318
  10 O :   -0.219295
  11 C :   -0.025440
  12 C :   -0.276552
  13 S :   -0.101692
  14 P :    0.624395
  15 S :   -0.310071
  16 O :   -0.358071
  17 C :   -0.098881
  18 O :   -0.403235
  19 C :   -0.098718
  20 H :    0.115174
  21 H :    0.125059
  22 H :    0.115917
  23 H :    0.116028
  24 H :    0.108201
  25 H :    0.139771
  26 H :    0.114797
  27 H :    0.113554
  28 H :    0.114898
  29 H :    0.112297
  30 H :    0.114880
  31 H :    0.113018
  32 H :    0.125390
  33 H :    0.123013
  34 H :    0.109469
  35 H :    0.108665
  36 H :    0.118211
  37 H :    0.113266
Sum of atomic charges:    0.0000000

LOEWDIN ATOMIC CHARGES
----------------------
   0 C :   -0.356021
   1 C :   -0.108170
   2 O :   -0.051057
   3 C :    0.048483
   4 O :   -0.153063
   5 C :   -0.264797
   6 C :   -0.258947
   7 H :    0.139162
   8 C :    0.009954
   9 O :   -0.160972
  10 O :   -0.043661
  11 C :   -0.104256
  12 C :   -0.350896
  13 S :    0.095411
  14 P :    0.590986
  15 S :   -0.310050
  16 O :   -0.235151
  17 C :   -0.209257
  18 O :   -0.270421
  19 C :   -0.221701
  20 H :    0.125376
  21 H :    0.129436
  22 H :    0.132119
  23 H :    0.123363
  24 H :    0.120732
  25 H :    0.142040
  26 H :    0.141164
  27 H :    0.119881
  28 H :    0.122931
  29 H :    0.131144
  30 H :    0.126580
  31 H :    0.125505
  32 H :    0.122515
  33 H :    0.115849
  34 H :    0.105243
  35 H :    0.104654
  36 H :    0.118908
  37 H :    0.106987

  Mayer bond orders larger than 0.100000
B(  0-C ,  1-C ) :   1.1730 B(  0-C , 20-H ) :   0.9485 B(  0-C , 21-H ) :   0.9468
B(  0-C , 22-H ) :   0.9441 B(  1-C ,  2-O ) :   0.9093 B(  1-C , 23-H ) :   0.9159
B(  1-C , 24-H ) :   0.9370 B(  2-O ,  3-C ) :   1.2539 B(  3-C ,  4-O ) :   1.9417
B(  3-C ,  5-C ) :   1.0202 B(  4-O ,  8-C ) :   0.1335 B(  5-C ,  6-C ) :   1.0094
B(  5-C , 25-H ) :   0.8276 B(  5-C , 26-H ) :   0.9024 B(  6-C ,  7-H ) :   0.8811
B(  6-C ,  8-C ) :   0.9042 B(  6-C , 13-S ) :   1.0170 B(  8-C ,  9-O ) :   1.9418
B(  8-C , 10-O ) :   1.2557 B(  9-O , 14-P ) :   0.1340 B( 10-O , 11-C ) :   0.9035
B( 11-C , 12-C ) :   1.1544 B( 11-C , 27-H ) :   0.9214 B( 11-C , 28-H ) :   0.9306
B( 12-C , 29-H ) :   0.9441 B( 12-C , 30-H ) :   0.9487 B( 12-C , 31-H ) :   0.9520
B( 13-S , 14-P ) :   0.9327 B( 13-S , 15-S ) :   0.1144 B( 14-P , 15-S ) :   1.5972
B( 14-P , 16-O ) :   1.1112 B( 14-P , 18-O ) :   1.0244 B( 15-S , 25-H ) :   0.1128
B( 16-O , 17-C ) :   0.9269 B( 17-C , 32-H ) :   0.9584 B( 17-C , 33-H ) :   0.9489
B( 17-C , 34-H ) :   0.9380 B( 18-O , 19-C ) :   0.9416 B( 19-C , 35-H ) :   0.9479
B( 19-C , 36-H ) :   0.9589 B( 19-C , 37-H ) :   0.9289

Dispersion correction           -0.051140081
FINAL SINGLE POINT ENERGY     -1979.007195630351

DIPOLE MOMENT
-------------

Method             : SCF
Type of density    : Electron Density
Multiplicity       :   1
Irrep              :   0
Energy             : -1979.1391915205954319 Eh
Relativity type    :
Basis              : AO
                                X                 Y                 Z
Electronic contribution:    -15.246508708      -6.417599915       2.517830263
Nuclear contribution   :     16.097904938       7.027760270      -3.735103004
                        -----------------------------------------
Total Dipole Moment    :      0.851396230       0.610160355      -1.217272741
                        -----------------------------------------
Magnitude (a.u.)       :      1.605902901
Magnitude (Debye)      :      4.081880781

Rotational constants in cm-1:             0.012994             0.006966             0.005310
Rotational constants in MHz :           389.543775           208.833910           159.195189

                             ****ORCA TERMINATED NORMALLY****
TOTAL RUN TIME: 0 days 0 hours 0 minutes 43 seconds 348 msec
