                         Program Version 6.0.0  -   RELEASE  -
|  1> ! pbe def2-sv(p) def2/J RI DEFGRID1 loosescf d4 GCP(DFT/SV(P)) printgap
|  2> %output
|  3>     printlevel normal
|  4> end
|  5> * xyz 0 1
|  6> C 4.6586548103 -1.3489783604 -0.7583926839
|  7> C 4.6352871181 0.0623794448 -0.2076923981
|  8> O 3.4490298244 0.3311192617 0.5576273163
|  9> P 2.0024103439 0.4086282207 -0.1006252434
| 10> S 1.9667169567 1.2369082679 -1.8814729476
| 11> O 1.1898465064 1.112108311 1.0651844351
| 12> C 1.0883584734 2.5463838569 1.1777846684
| 13> C 2.4346051601 3.2092234416 1.3741960231
| 14> S 1.2921853581 -1.5707359929 0.0748318568
| 15> C 0.2589044348 -1.6834873917 -1.423238984
| 16> S -1.4485219309 -2.1718641021 -1.064863319
| 17> P -2.0691155857 -0.4538605701 -0.0381689687
| 18> S -1.5194489279 1.2871713615 -0.7720313659
| 19> O -1.5979434182 -0.7837742919 1.4322118081
| 20> C -1.7832729784 0.1499770127 2.521611505
| 21> C -0.7405608964 -0.1519079667 3.5775056344
| 22> O -3.6445222168 -0.6219297057 0.0818868113
| 23> C -4.5446088777 -0.2653250362 -0.9872190911
| 24> C -5.8944398625 0.055469562 -0.3775822713
| 25> H 4.4820319871 -2.0686071367 0.0369004071
| 26> H 3.8845916608 -1.464170574 -1.5158704336
| 27> H 5.6257801265 -1.540300387 -1.2121103188
| 28> H 4.6918183293 0.7911295112 -1.0227586924
| 29> H 5.4469860247 0.2320120481 0.5009699164
| 30> H 0.5903801547 2.9255365425 0.2788770671
| 31> H 0.4382303344 2.6929260139 2.041953402
| 32> H 3.0409338185 3.0933815352 0.4765556444
| 33> H 2.2855163625 4.2678031304 1.5630244081
| 34> H 2.9562804604 2.7584623241 2.2145339436
| 35> H 0.6598095996 -2.469781671 -2.0576860639
| 36> H 0.2745277374 -0.7175432669 -1.9361348348
| 37> H -1.681048318 1.1674253637 2.1282521813
| 38> H -2.7971253058 0.0124101105 2.9040427552
| 39> H 0.256363825 -0.0113592267 3.1673261547
| 40> H -0.8823309587 0.5153759237 4.4215719288
| 41> H -0.839285409 -1.1816305637 3.9082962414
| 42> H -4.1301645857 0.5971032787 -1.5204092301
| 43> H -4.6059604866 -1.1156379818 -1.6705294585
| 44> H -6.5969379556 0.2848030207 -1.1720206984
| 45> H -6.2560695131 -0.7979059191 0.1886350183
| 46> H -5.8129303273 0.9116927779 0.2862207738
| 47> *
| 48>
| 49>                          ****END OF INPUT****

CARTESIAN COORDINATES (ANGSTROEM)
---------------------------------
  C      4.658655   -1.348978   -0.758393
  C      4.635287    0.062379   -0.207692
  O      3.449030    0.331119    0.557627
  P      2.002410    0.408628   -0.100625
  S      1.966717    1.236908   -1.881473
  O      1.189847    1.112108    1.065184
  C      1.088358    2.546384    1.177785
  C      2.434605    3.209223    1.374196
  S      1.292185   -1.570736    0.074832
  C      0.258904   -1.683487   -1.423239
  S     -1.448522   -2.171864   -1.064863
  P     -2.069116   -0.453861   -0.038169
  S     -1.519449    1.287171   -0.772031
  O     -1.597943   -0.783774    1.432212
  C     -1.783273    0.149977    2.521612
  C     -0.740561   -0.151908    3.577506
  O     -3.644522   -0.621930    0.081887
  C     -4.544609   -0.265325   -0.987219
  C     -5.894440    0.055470   -0.377582
  H      4.482032   -2.068607    0.036900
  H      3.884592   -1.464171   -1.515870
  H      5.625780   -1.540300   -1.212110
  H      4.691818    0.791130   -1.022759
  H      5.446986    0.232012    0.500970
  H      0.590380    2.925537    0.278877
  H      0.438230    2.692926    2.041953
  H      3.040934    3.093382    0.476556
  H      2.285516    4.267803    1.563024
  H      2.956280    2.758462    2.214534
  H      0.659810   -2.469782   -2.057686
  H      0.274528   -0.717543   -1.936135
  H     -1.681048    1.167425    2.128252
  H     -2.797125    0.012410    2.904043
  H      0.256364   -0.011359    3.167326
  H     -0.882331    0.515376    4.421572
  H     -0.839285   -1.181631    3.908296
  H     -4.130165    0.597103   -1.520409
  H     -4.605960   -1.115638   -1.670529
  H     -6.596938    0.284803   -1.172021
  H     -6.256070   -0.797906    0.188635
  H     -5.812930    0.911693    0.286221

 Total Charge           Charge          ....    0
 Multiplicity           Mult            ....    1
 Number of Electrons    NEL             ....  202
 Basis Dimension        Dim             ....  334

ORBITAL ENERGIES
----------------

  NO   OCC          E(Eh)            E(eV)
   0   2.0000     -88.042419     -2395.7560
   1   2.0000     -88.039936     -2395.6884
   2   2.0000     -87.985463     -2394.2062
   3   2.0000     -87.980651     -2394.0752
   4   2.0000     -76.424095     -2079.6053
   5   2.0000     -76.422232     -2079.5546
   6   2.0000     -18.791682      -511.3477
   7   2.0000     -18.790108      -511.3048
   8   2.0000     -18.786957      -511.2191
   9   2.0000     -18.785771      -511.1868
  10   2.0000      -9.954066      -270.8639
  11   2.0000      -9.950975      -270.7798
  12   2.0000      -9.950084      -270.7555
  13   2.0000      -9.948522      -270.7131
  14   2.0000      -9.946386      -270.6549
  15   2.0000      -9.887602      -269.0553
  16   2.0000      -9.881997      -268.9028
  17   2.0000      -9.880365      -268.8584
  18   2.0000      -9.879514      -268.8353
  19   2.0000      -7.688347      -209.2105
  20   2.0000      -7.685066      -209.1213
  21   2.0000      -7.630354      -207.6325
  22   2.0000      -7.625432      -207.4985
  23   2.0000      -6.421532      -174.7388
  24   2.0000      -6.420128      -174.7006
  25   2.0000      -5.716328      -155.5492
  26   2.0000      -5.712950      -155.4573
  27   2.0000      -5.712691      -155.4502
  28   2.0000      -5.709717      -155.3693
  29   2.0000      -5.705250      -155.2477
  30   2.0000      -5.701828      -155.1546
  31   2.0000      -5.659226      -153.9954
  32   2.0000      -5.654172      -153.8579
  33   2.0000      -5.651190      -153.7767
  34   2.0000      -5.650354      -153.7539
  35   2.0000      -5.646118      -153.6387
  36   2.0000      -5.645697      -153.6272
  37   2.0000      -4.643831      -126.3651
  38   2.0000      -4.643139      -126.3462
  39   2.0000      -4.642699      -126.3343
  40   2.0000      -4.642394      -126.3260
  41   2.0000      -4.641884      -126.3121
  42   2.0000      -4.640514      -126.2748
  43   2.0000      -0.984447       -26.7882
  44   2.0000      -0.983717       -26.7683
  45   2.0000      -0.942210       -25.6388
  46   2.0000      -0.941410       -25.6171
  47   2.0000      -0.762129       -20.7386
  48   2.0000      -0.720826       -19.6147
  49   2.0000      -0.707101       -19.2412
  50   2.0000      -0.686969       -18.6934
  51   2.0000      -0.684527       -18.6269
  52   2.0000      -0.673115       -18.3164
  53   2.0000      -0.647768       -17.6267
  54   2.0000      -0.631937       -17.1959
  55   2.0000      -0.601387       -16.3646
  56   2.0000      -0.586475       -15.9588
  57   2.0000      -0.569944       -15.5090
  58   2.0000      -0.568517       -15.4701
  59   2.0000      -0.555324       -15.1111
  60   2.0000      -0.506510       -13.7828
  61   2.0000      -0.488958       -13.3052
  62   2.0000      -0.479447       -13.0464
  63   2.0000      -0.468722       -12.7546
  64   2.0000      -0.449090       -12.2203
  65   2.0000      -0.444111       -12.0849
  66   2.0000      -0.437752       -11.9118
  67   2.0000      -0.433875       -11.8063
  68   2.0000      -0.430658       -11.7188
  69   2.0000      -0.416868       -11.3436
  70   2.0000      -0.405710       -11.0399
  71   2.0000      -0.393257       -10.7011
  72   2.0000      -0.386986       -10.5304
  73   2.0000      -0.384806       -10.4711
  74   2.0000      -0.379831       -10.3357
  75   2.0000      -0.377217       -10.2646
  76   2.0000      -0.368084       -10.0161
  77   2.0000      -0.354967        -9.6592
  78   2.0000      -0.351871        -9.5749
  79   2.0000      -0.348701        -9.4886
  80   2.0000      -0.345670        -9.4062
  81   2.0000      -0.340532        -9.2663
  82   2.0000      -0.338618        -9.2143
  83   2.0000      -0.333835        -9.0841
  84   2.0000      -0.330070        -8.9817
  85   2.0000      -0.311673        -8.4810
  86   2.0000      -0.309978        -8.4349
  87   2.0000      -0.299022        -8.1368
  88   2.0000      -0.292639        -7.9631
  89   2.0000      -0.288268        -7.8442
  90   2.0000      -0.283184        -7.7058
  91   2.0000      -0.271075        -7.3763
  92   2.0000      -0.267255        -7.2724
  93   2.0000      -0.262104        -7.1322
  94   2.0000      -0.259367        -7.0577
  95   2.0000      -0.235071        -6.3966
  96   2.0000      -0.218532        -5.9466
  97   2.0000      -0.215079        -5.8526
  98   2.0000      -0.203420        -5.5353
  99   2.0000      -0.194188        -5.2841
 100   2.0000      -0.187096        -5.0911
 101   0.0000      -0.039887        -1.0854
 102   0.0000      -0.031655        -0.8614
 103   0.0000      -0.007396        -0.2012
 104   0.0000       0.016320         0.4441
 105   0.0000       0.024522         0.6673

MULLIKEN ATOMIC CHARGES
-----------------------
   0 C :   -0.308874
   1 C :   -0.002786
   2 O :   -0.375792
   3 P :    0.616249
   4 S :   -0.315615
   5 O :   -0.362384
   6 C :   -0.010317
   7 C :   -0.301955
   8 S :   -0.078210
   9 C :   -0.367334
  10 S :   -0.086523
  11 P :    0.613134
  12 S :   -0.325866
  13 O :   -0.358845
  14 C :   -0.007632
  15 C :   -0.292652
  16 O :   -0.384718
  17 C :   -0.010224
  18 C :   -0.282139
  19 H :    0.118529
  20 H :    0.119297
  21 H :    0.111122
  22 H :    0.108751
  23 H :    0.103491
  24 H :    0.125017
  25 H :    0.103604
  26 H :    0.123213
  27 H :    0.110179
  28 H :    0.114009
  29 H :    0.182062
  30 H :    0.212294
  31 H :    0.103330
  32 H :    0.101183
  33 H :    0.134721
  34 H :    0.102661
  35 H :    0.114711
  36 H :    0.106873
  37 H :    0.101893
  38 H :    0.112269
  39 H :    0.116497
  40 H :    0.116776
Sum of atomic charges:   -0.0000000

LOEWDIN ATOMIC CHARGES
----------------------
   0 C :   -0.369074
   1 C :   -0.119863
   2 O :   -0.245814
   3 P :    0.574667
   4 S :   -0.307017
   5 O :   -0.234948
   6 C :   -0.118119
   7 C :   -0.367024
   8 S :    0.092977
   9 C :   -0.478527
  10 S :    0.083311
  11 P :    0.560554
  12 S :   -0.307974
  13 O :   -0.238288
  14 C :   -0.112592
  15 C :   -0.356096
  16 O :   -0.252674
  17 C :   -0.120547
  18 C :   -0.350871
  19 H :    0.124174
  20 H :    0.119126
  21 H :    0.129788
  22 H :    0.109114
  23 H :    0.117821
  24 H :    0.111587
  25 H :    0.114402
  26 H :    0.121756
  27 H :    0.130020
  28 H :    0.124817
  29 H :    0.135993
  30 H :    0.126694
  31 H :    0.105434
  32 H :    0.111997
  33 H :    0.128081
  34 H :    0.126379
  35 H :    0.127176
  36 H :    0.107461
  37 H :    0.111305
  38 H :    0.130965
  39 H :    0.126567
  40 H :    0.127264

  Mayer bond orders larger than 0.100000
B(  0-C ,  1-C ) :   1.1676 B(  0-C , 19-H ) :   0.9435 B(  0-C , 20-H ) :   0.9374
B(  0-C , 21-H ) :   0.9378 B(  1-C ,  2-O ) :   0.9131 B(  1-C , 22-H ) :   0.9147
B(  1-C , 23-H ) :   0.9340 B(  2-O ,  3-P ) :   1.0959 B(  3-P ,  4-S ) :   1.5902
B(  3-P ,  5-O ) :   1.1214 B(  3-P ,  8-S ) :   0.9693 B(  4-S ,  8-S ) :   0.1184
B(  5-O ,  6-C ) :   0.9007 B(  6-C ,  7-C ) :   1.1628 B(  6-C , 24-H ) :   0.9151
B(  6-C , 25-H ) :   0.9308 B(  7-C , 26-H ) :   0.9339 B(  7-C , 27-H ) :   0.9375
B(  7-C , 28-H ) :   0.9442 B(  8-S ,  9-C ) :   0.9992 B(  9-C , 10-S ) :   1.0013
B(  9-C , 29-H ) :   0.9113 B(  9-C , 30-H ) :   0.8487 B( 10-S , 11-P ) :   0.9712
B( 10-S , 12-S ) :   0.1115 B( 11-P , 12-S ) :   1.6282 B( 11-P , 13-O ) :   1.1437
B( 11-P , 16-O ) :   1.0971 B( 13-O , 14-C ) :   0.8949 B( 14-C , 15-C ) :   1.1657
B( 14-C , 31-H ) :   0.9051 B( 14-C , 32-H ) :   0.9319 B( 15-C , 33-H ) :   0.9376
B( 15-C , 34-H ) :   0.9408 B( 15-C , 35-H ) :   0.9482 B( 16-O , 17-C ) :   0.9061
B( 17-C , 18-C ) :   1.1613 B( 17-C , 36-H ) :   0.9044 B( 17-C , 37-H ) :   0.9319
B( 18-C , 38-H ) :   0.9420 B( 18-C , 39-H ) :   0.9509 B( 18-C , 40-H ) :   0.9511

Dispersion correction           -0.066866071
FINAL SINGLE POINT ENERGY     -2929.523013704958

DIPOLE MOMENT
-------------

Method             : SCF
Type of density    : Electron Density
Multiplicity       :   1
Irrep              :   0
Energy             : -2929.6415799779701956 Eh
Relativity type    :
Basis              : AO
                                X                 Y                 Z
Electronic contribution:     -1.108887343      -8.492231349     -10.793718270
Nuclear contribution   :      1.009868614       8.410141120      11.543047537
                        -----------------------------------------
Total Dipole Moment    :     -0.099018728      -0.082090229       0.749329267
                        -----------------------------------------
Magnitude (a.u.)       :      0.760288014
Magnitude (Debye)      :      1.932498553

Rotational constants in cm-1:             0.012884             0.005226             0.004825
Rotational constants in MHz :           386.262154           156.673325           144.642368

                             ****ORCA TERMINATED NORMALLY****
TOTAL RUN TIME: 0 days 0 hours 0 minutes 21 seconds 328 msec
