                         Program Version 6.0.0  -   RELEASE  -
|  1> ! pbe def2-sv(p) def2/J RI DEFGRID1 loosescf d4 GCP(DFT/SV(P)) printgap
|  2> %output
|  3>     printlevel normal
|  4> end
|  5> * xyz 0 1
|  6> C 1.4352629671 -1.6158801324 2.7076001693
|  7> C 2.9072307771 -1.3608995789 2.4549755759
|  8> O 3.1286063684 -0.1178627209 1.7626846061
|  9> P 2.9234213577 0.0360185298 0.2008196394
| 10> S 3.312700089 -1.560327776 -0.8770091894
| 11> O 3.9100753019 1.2619843801 0.023574842
| 12> C 4.4668156148 1.6237349581 -1.2525048784
| 13> C 3.4191780582 2.1291483326 -2.2247851469
| 14> S 0.988177323 0.9040881332 -0.0622935097
| 15> C 0.1783974496 -0.4198186738 -1.0082278723
| 16> S -1.1328057444 -1.2364351778 -0.0788722765
| 17> P -2.6143262931 0.2653234991 -0.406917088
| 18> S -2.6517855468 0.9135889796 -2.254933102
| 19> O -2.4022581529 1.4536633814 0.6007562708
| 20> C -2.7046864878 1.4503688132 2.018954633
| 21> C -1.6764087313 0.675509426 2.8160171714
| 22> O -3.9400482378 -0.4199492083 0.1300840545
| 23> C -4.5445097695 -1.5227887854 -0.5791611951
| 24> C -5.9422660337 -1.7160356296 -0.0278438428
| 25> H 0.99323808 -0.7743784809 3.2336295633
| 26> H 0.907563851 -1.7637154615 1.7657347112
| 27> H 1.3266898446 -2.5118178123 3.310197932
| 28> H 3.3472235511 -2.1732421916 1.866950798
| 29> H 3.4586064208 -1.2422308257 3.3888322903
| 30> H 5.1925692402 2.4005150522 -1.0076112739
| 31> H 4.9832328163 0.7512248479 -1.6654973476
| 32> H 2.7526250593 1.3177810029 -2.5157223842
| 33> H 2.8300146832 2.9219543854 -1.7700764293
| 34> H 3.9107080699 2.5117385986 -3.1137071531
| 35> H 0.9224726293 -1.1757893791 -1.2708058651
| 36> H -0.2647536573 0.0250016858 -1.9010068465
| 37> H -2.6915437763 2.5109877904 2.2750763593
| 38> H -3.7071662248 1.0438485913 2.1593978159
| 39> H -1.8607573537 0.8298585947 3.8746944577
| 40> H -1.7411370329 -0.3875749646 2.5953612727
| 41> H -0.6776897807 1.0302809554 2.5704638819
| 42> H -4.5615200206 -1.2818758573 -1.6469634472
| 43> H -3.9245695591 -2.4093096199 -0.4220717174
| 44> H -5.896587294 -1.9358217661 1.0346559654
| 45> H -6.5308564331 -0.8152348002 -0.1780448326
| 46> H -6.4165934122 -2.5432110744 -0.5454669951
| 47> *
| 48>
| 49>                          ****END OF INPUT****

CARTESIAN COORDINATES (ANGSTROEM)
---------------------------------
  C      1.435263   -1.615880    2.707600
  C      2.907231   -1.360900    2.454976
  O      3.128606   -0.117863    1.762685
  P      2.923421    0.036019    0.200820
  S      3.312700   -1.560328   -0.877009
  O      3.910075    1.261984    0.023575
  C      4.466816    1.623735   -1.252505
  C      3.419178    2.129148   -2.224785
  S      0.988177    0.904088   -0.062294
  C      0.178397   -0.419819   -1.008228
  S     -1.132806   -1.236435   -0.078872
  P     -2.614326    0.265323   -0.406917
  S     -2.651786    0.913589   -2.254933
  O     -2.402258    1.453663    0.600756
  C     -2.704686    1.450369    2.018955
  C     -1.676409    0.675509    2.816017
  O     -3.940048   -0.419949    0.130084
  C     -4.544510   -1.522789   -0.579161
  C     -5.942266   -1.716036   -0.027844
  H      0.993238   -0.774378    3.233630
  H      0.907564   -1.763715    1.765735
  H      1.326690   -2.511818    3.310198
  H      3.347224   -2.173242    1.866951
  H      3.458606   -1.242231    3.388832
  H      5.192569    2.400515   -1.007611
  H      4.983233    0.751225   -1.665497
  H      2.752625    1.317781   -2.515722
  H      2.830015    2.921954   -1.770076
  H      3.910708    2.511739   -3.113707
  H      0.922473   -1.175789   -1.270806
  H     -0.264754    0.025002   -1.901007
  H     -2.691544    2.510988    2.275076
  H     -3.707166    1.043849    2.159398
  H     -1.860757    0.829859    3.874694
  H     -1.741137   -0.387575    2.595361
  H     -0.677690    1.030281    2.570464
  H     -4.561520   -1.281876   -1.646963
  H     -3.924570   -2.409310   -0.422072
  H     -5.896587   -1.935822    1.034656
  H     -6.530856   -0.815235   -0.178045
  H     -6.416593   -2.543211   -0.545467

 Total Charge           Charge          ....    0
 Multiplicity           Mult            ....    1
 Number of Electrons    NEL             ....  202
 Basis Dimension        Dim             ....  334

ORBITAL ENERGIES
----------------

  NO   OCC          E(Eh)            E(eV)
   0   2.0000     -88.043792     -2395.7934
   1   2.0000     -88.042319     -2395.7533
   2   2.0000     -87.996131     -2394.4965
   3   2.0000     -87.983543     -2394.1539
   4   2.0000     -76.429184     -2079.7438
   5   2.0000     -76.427786     -2079.7058
   6   2.0000     -18.801558      -511.6164
   7   2.0000     -18.795348      -511.4474
   8   2.0000     -18.790831      -511.3245
   9   2.0000     -18.789664      -511.2927
  10   2.0000      -9.959552      -271.0132
  11   2.0000      -9.958827      -270.9934
  12   2.0000      -9.953164      -270.8394
  13   2.0000      -9.952924      -270.8328
  14   2.0000      -9.948380      -270.7092
  15   2.0000      -9.894007      -269.2296
  16   2.0000      -9.887352      -269.0485
  17   2.0000      -9.884829      -268.9799
  18   2.0000      -9.882269      -268.9102
  19   2.0000      -7.688380      -209.2114
  20   2.0000      -7.686972      -209.1731
  21   2.0000      -7.640917      -207.9199
  22   2.0000      -7.628853      -207.5916
  23   2.0000      -6.426751      -174.8808
  24   2.0000      -6.425533      -174.8477
  25   2.0000      -5.715944      -155.5388
  26   2.0000      -5.714747      -155.5062
  27   2.0000      -5.713089      -155.4610
  28   2.0000      -5.711532      -155.4187
  29   2.0000      -5.705561      -155.2562
  30   2.0000      -5.704056      -155.2152
  31   2.0000      -5.669625      -154.2783
  32   2.0000      -5.661569      -154.0591
  33   2.0000      -5.661282      -154.0513
  34   2.0000      -5.657883      -153.9588
  35   2.0000      -5.649602      -153.7335
  36   2.0000      -5.648740      -153.7100
  37   2.0000      -4.648868      -126.5021
  38   2.0000      -4.648692      -126.4973
  39   2.0000      -4.648646      -126.4961
  40   2.0000      -4.647387      -126.4618
  41   2.0000      -4.647115      -126.4544
  42   2.0000      -4.645589      -126.4129
  43   2.0000      -0.994046       -27.0494
  44   2.0000      -0.989225       -26.9182
  45   2.0000      -0.950266       -25.8581
  46   2.0000      -0.945337       -25.7239
  47   2.0000      -0.762034       -20.7360
  48   2.0000      -0.724571       -19.7166
  49   2.0000      -0.714021       -19.4295
  50   2.0000      -0.697021       -18.9669
  51   2.0000      -0.683499       -18.5989
  52   2.0000      -0.680057       -18.5053
  53   2.0000      -0.652280       -17.7495
  54   2.0000      -0.637313       -17.3422
  55   2.0000      -0.604744       -16.4559
  56   2.0000      -0.592798       -16.1309
  57   2.0000      -0.578367       -15.7382
  58   2.0000      -0.569713       -15.5027
  59   2.0000      -0.559556       -15.2263
  60   2.0000      -0.511301       -13.9132
  61   2.0000      -0.495959       -13.4957
  62   2.0000      -0.479845       -13.0573
  63   2.0000      -0.467881       -12.7317
  64   2.0000      -0.460376       -12.5275
  65   2.0000      -0.449735       -12.2379
  66   2.0000      -0.444210       -12.0876
  67   2.0000      -0.440841       -11.9959
  68   2.0000      -0.431176       -11.7329
  69   2.0000      -0.422221       -11.4892
  70   2.0000      -0.409462       -11.1420
  71   2.0000      -0.400013       -10.8849
  72   2.0000      -0.396857       -10.7990
  73   2.0000      -0.390177       -10.6173
  74   2.0000      -0.383887       -10.4461
  75   2.0000      -0.373764       -10.1706
  76   2.0000      -0.369904       -10.0656
  77   2.0000      -0.358990        -9.7686
  78   2.0000      -0.356997        -9.7144
  79   2.0000      -0.352041        -9.5795
  80   2.0000      -0.347694        -9.4612
  81   2.0000      -0.345839        -9.4108
  82   2.0000      -0.342247        -9.3130
  83   2.0000      -0.340277        -9.2594
  84   2.0000      -0.337431        -9.1820
  85   2.0000      -0.326596        -8.8871
  86   2.0000      -0.310933        -8.4609
  87   2.0000      -0.309276        -8.4158
  88   2.0000      -0.300297        -8.1715
  89   2.0000      -0.296859        -8.0780
  90   2.0000      -0.289680        -7.8826
  91   2.0000      -0.277646        -7.5551
  92   2.0000      -0.268460        -7.3052
  93   2.0000      -0.266598        -7.2545
  94   2.0000      -0.257806        -7.0153
  95   2.0000      -0.232575        -6.3287
  96   2.0000      -0.222396        -6.0517
  97   2.0000      -0.216634        -5.8949
  98   2.0000      -0.209678        -5.7056
  99   2.0000      -0.205494        -5.5918
 100   2.0000      -0.194334        -5.2881
 101   0.0000      -0.045064        -1.2263
 102   0.0000      -0.034959        -0.9513
 103   0.0000      -0.013839        -0.3766
 104   0.0000       0.001673         0.0455
 105   0.0000       0.010920         0.2972

MULLIKEN ATOMIC CHARGES
-----------------------
   0 C :   -0.326352
   1 C :   -0.003003
   2 O :   -0.357367
   3 P :    0.599953
   4 S :   -0.329725
   5 O :   -0.359705
   6 C :   -0.000137
   7 C :   -0.315011
   8 S :   -0.079625
   9 C :   -0.376028
  10 S :   -0.114130
  11 P :    0.617612
  12 S :   -0.314001
  13 O :   -0.354068
  14 C :    0.005126
  15 C :   -0.340752
  16 O :   -0.390459
  17 C :   -0.013798
  18 C :   -0.281472
  19 H :    0.128213
  20 H :    0.127965
  21 H :    0.109316
  22 H :    0.112876
  23 H :    0.106708
  24 H :    0.108148
  25 H :    0.112098
  26 H :    0.124120
  27 H :    0.123823
  28 H :    0.113394
  29 H :    0.192825
  30 H :    0.197697
  31 H :    0.111561
  32 H :    0.110946
  33 H :    0.110677
  34 H :    0.127969
  35 H :    0.142076
  36 H :    0.110862
  37 H :    0.107842
  38 H :    0.114913
  39 H :    0.123227
  40 H :    0.115687
Sum of atomic charges:   -0.0000000

LOEWDIN ATOMIC CHARGES
----------------------
   0 C :   -0.366199
   1 C :   -0.116914
   2 O :   -0.237815
   3 P :    0.573865
   4 S :   -0.306887
   5 O :   -0.237060
   6 C :   -0.115319
   7 C :   -0.368986
   8 S :    0.085864
   9 C :   -0.494770
  10 S :    0.075817
  11 P :    0.567126
  12 S :   -0.310676
  13 O :   -0.233218
  14 C :   -0.106806
  15 C :   -0.371763
  16 O :   -0.249967
  17 C :   -0.118181
  18 C :   -0.350352
  19 H :    0.127021
  20 H :    0.112816
  21 H :    0.130325
  22 H :    0.109024
  23 H :    0.119674
  24 H :    0.120485
  25 H :    0.111559
  26 H :    0.120777
  27 H :    0.126695
  28 H :    0.130981
  29 H :    0.123765
  30 H :    0.125534
  31 H :    0.123395
  32 H :    0.113682
  33 H :    0.129500
  34 H :    0.118391
  35 H :    0.126603
  36 H :    0.112927
  37 H :    0.110027
  38 H :    0.125911
  39 H :    0.130202
  40 H :    0.132945

  Mayer bond orders larger than 0.100000
B(  0-C ,  1-C ) :   1.1606 B(  0-C , 19-H ) :   0.9391 B(  0-C , 20-H ) :   0.9325
B(  0-C , 21-H ) :   0.9374 B(  1-C ,  2-O ) :   0.9152 B(  1-C , 22-H ) :   0.9126
B(  1-C , 23-H ) :   0.9330 B(  2-O ,  3-P ) :   1.1279 B(  3-P ,  4-S ) :   1.5764
B(  3-P ,  5-O ) :   1.1329 B(  3-P ,  8-S ) :   0.9541 B(  4-S ,  8-S ) :   0.1224
B(  4-S , 29-H ) :   0.1162 B(  5-O ,  6-C ) :   0.9120 B(  6-C ,  7-C ) :   1.1639
B(  6-C , 24-H ) :   0.9344 B(  6-C , 25-H ) :   0.9200 B(  7-C , 26-H ) :   0.9393
B(  7-C , 27-H ) :   0.9426 B(  7-C , 28-H ) :   0.9373 B(  8-S ,  9-C ) :   1.0013
B(  9-C , 10-S ) :   1.0103 B(  9-C , 29-H ) :   0.8511 B(  9-C , 30-H ) :   0.8576
B( 10-S , 11-P ) :   0.9404 B( 10-S , 12-S ) :   0.1108 B( 11-P , 12-S ) :   1.6512
B( 11-P , 13-O ) :   1.1498 B( 11-P , 16-O ) :   1.0822 B( 12-S , 30-H ) :   0.1050
B( 13-O , 14-C ) :   0.8952 B( 14-C , 15-C ) :   1.1674 B( 14-C , 31-H ) :   0.9339
B( 14-C , 32-H ) :   0.9250 B( 15-C , 33-H ) :   0.9359 B( 15-C , 34-H ) :   0.9386
B( 15-C , 35-H ) :   0.9317 B( 16-O , 17-C ) :   0.8992 B( 17-C , 18-C ) :   1.1602
B( 17-C , 36-H ) :   0.9117 B( 17-C , 37-H ) :   0.9282 B( 18-C , 38-H ) :   0.9510
B( 18-C , 39-H ) :   0.9506 B( 18-C , 40-H ) :   0.9413

Dispersion correction           -0.063014191
FINAL SINGLE POINT ENERGY     -2929.519479535493

DIPOLE MOMENT
-------------

Method             : SCF
Type of density    : Electron Density
Multiplicity       :   1
Irrep              :   0
Energy             : -2929.6405789631580774 Eh
Relativity type    :
Basis              : AO
                                X                 Y                 Z
Electronic contribution:      6.942139830       3.298932593     -10.253744641
Nuclear contribution   :     -7.456163652      -3.652693463      11.609906973
                        -----------------------------------------
Total Dipole Moment    :     -0.514023822      -0.353760870       1.356162333
                        -----------------------------------------
Magnitude (a.u.)       :      1.492830706
Magnitude (Debye)      :      3.794474102

Rotational constants in cm-1:             0.012965             0.004274             0.003918
Rotational constants in MHz :           388.678425           128.129441           117.464725

                             ****ORCA TERMINATED NORMALLY****
TOTAL RUN TIME: 0 days 0 hours 0 minutes 20 seconds 670 msec
