                         Program Version 6.0.0  -   RELEASE  -
|  1> ! pbe def2-sv(p) def2/J RI DEFGRID1 loosescf d4 GCP(DFT/SV(P)) printgap
|  2> %output
|  3>     printlevel normal
|  4> end
|  5> * xyz 0 1
|  6> C 4.3844442279 -2.327109423 -0.6267554526
|  7> C 4.5282799358 -0.8958680023 -0.1489322037
|  8> O 3.776801477 -0.002055241 -1.0136469421
|  9> P 2.4388398315 0.7045660098 -0.5792762168
| 10> S 1.7453510008 1.7858190602 -2.0557827601
| 11> O 2.9025347322 1.4746646924 0.7291087517
| 12> C 2.0006027598 2.1560402291 1.626557976
| 13> C 1.8925701547 1.3811585099 2.925560675
| 14> S 1.1528629798 -0.8247711271 0.1502863303
| 15> C 0.1323220234 -1.0274883628 -1.3466298536
| 16> S -1.4802862345 -1.7237020371 -0.9623858847
| 17> P -2.4013262195 -0.0543492461 0.0124715638
| 18> S -1.3878551981 1.6236968209 0.0182954618
| 19> O -2.8261545598 -0.620627019 1.4344512402
| 20> C -1.8796132911 -0.9420933854 2.4730394946
| 21> C -1.6954147113 0.2317580671 3.4148641533
| 22> O -3.7871756178 0.1505480587 -0.6978947201
| 23> C -4.655516569 -0.8799349527 -1.2342721222
| 24> C -4.9334759688 -1.9976999231 -0.2537208781
| 25> H 5.0452730772 -2.9616145623 -0.0448254039
| 26> H 3.3611913892 -2.6719368906 -0.5001515865
| 27> H 4.6545501914 -2.3963665008 -1.6768903109
| 28> H 5.5605484702 -0.5517975603 -0.2257283407
| 29> H 4.1776039669 -0.7804865851 0.8784967913
| 30> H 2.4418186738 3.1418445075 1.7845626071
| 31> H 1.0251896434 2.2764658054 1.1456923579
| 32> H 1.465807917 0.3975482775 2.7432126173
| 33> H 2.8769283146 1.2652854947 3.3700351262
| 34> H 1.2512924434 1.9273375818 3.609471948
| 35> H 0.6128598927 -1.7309897617 -2.022517092
| 36> H 0.0221202306 -0.0441655755 -1.8121657922
| 37> H -2.3185873029 -1.7987482032 2.9878565219
| 38> H -0.9275160208 -1.2372716874 2.020494623
| 39> H -1.2915995858 1.0848138692 2.8743527346
| 40> H -2.650783619 0.5161671491 3.8467480048
| 41> H -1.009695074 -0.0477336838 4.2079545276
| 42> H -5.5626716197 -0.3285700954 -1.4866390792
| 43> H -4.1919607058 -1.2673400136 -2.1449459587
| 44> H -5.6720698072 -2.6667837366 -0.6845357112
| 45> H -4.0225390511 -2.559360616 -0.0548454235
| 46> H -5.3140967034 -1.5936940813 0.6804829473
| 47> *
| 48>
| 49>                          ****END OF INPUT****

CARTESIAN COORDINATES (ANGSTROEM)
---------------------------------
  C      4.384444   -2.327109   -0.626755
  C      4.528280   -0.895868   -0.148932
  O      3.776801   -0.002055   -1.013647
  P      2.438840    0.704566   -0.579276
  S      1.745351    1.785819   -2.055783
  O      2.902535    1.474665    0.729109
  C      2.000603    2.156040    1.626558
  C      1.892570    1.381159    2.925561
  S      1.152863   -0.824771    0.150286
  C      0.132322   -1.027488   -1.346630
  S     -1.480286   -1.723702   -0.962386
  P     -2.401326   -0.054349    0.012472
  S     -1.387855    1.623697    0.018295
  O     -2.826155   -0.620627    1.434451
  C     -1.879613   -0.942093    2.473039
  C     -1.695415    0.231758    3.414864
  O     -3.787176    0.150548   -0.697895
  C     -4.655517   -0.879935   -1.234272
  C     -4.933476   -1.997700   -0.253721
  H      5.045273   -2.961615   -0.044825
  H      3.361191   -2.671937   -0.500152
  H      4.654550   -2.396367   -1.676890
  H      5.560548   -0.551798   -0.225728
  H      4.177604   -0.780487    0.878497
  H      2.441819    3.141845    1.784563
  H      1.025190    2.276466    1.145692
  H      1.465808    0.397548    2.743213
  H      2.876928    1.265285    3.370035
  H      1.251292    1.927338    3.609472
  H      0.612860   -1.730990   -2.022517
  H      0.022120   -0.044166   -1.812166
  H     -2.318587   -1.798748    2.987857
  H     -0.927516   -1.237272    2.020495
  H     -1.291600    1.084814    2.874353
  H     -2.650784    0.516167    3.846748
  H     -1.009695   -0.047734    4.207955
  H     -5.562672   -0.328570   -1.486639
  H     -4.191961   -1.267340   -2.144946
  H     -5.672070   -2.666784   -0.684536
  H     -4.022539   -2.559361   -0.054845
  H     -5.314097   -1.593694    0.680483

 Total Charge           Charge          ....    0
 Multiplicity           Mult            ....    1
 Number of Electrons    NEL             ....  202
 Basis Dimension        Dim             ....  334

ORBITAL ENERGIES
----------------

  NO   OCC          E(Eh)            E(eV)
   0   2.0000     -88.050223     -2395.9684
   1   2.0000     -88.042940     -2395.7702
   2   2.0000     -87.982076     -2394.1140
   3   2.0000     -87.977492     -2393.9893
   4   2.0000     -76.427351     -2079.6939
   5   2.0000     -76.421628     -2079.5382
   6   2.0000     -18.793569      -511.3990
   7   2.0000     -18.791153      -511.3333
   8   2.0000     -18.790036      -511.3029
   9   2.0000     -18.786560      -511.2083
  10   2.0000      -9.961207      -271.0582
  11   2.0000      -9.955868      -270.9130
  12   2.0000      -9.955641      -270.9068
  13   2.0000      -9.954008      -270.8623
  14   2.0000      -9.949825      -270.7485
  15   2.0000      -9.893646      -269.2198
  16   2.0000      -9.887563      -269.0543
  17   2.0000      -9.886733      -269.0317
  18   2.0000      -9.882985      -268.9297
  19   2.0000      -7.694892      -209.3887
  20   2.0000      -7.687152      -209.1781
  21   2.0000      -7.626838      -207.5368
  22   2.0000      -7.622800      -207.4269
  23   2.0000      -6.424613      -174.8226
  24   2.0000      -6.419142      -174.6737
  25   2.0000      -5.722775      -155.7246
  26   2.0000      -5.719169      -155.6265
  27   2.0000      -5.714862      -155.5093
  28   2.0000      -5.712192      -155.4367
  29   2.0000      -5.711838      -155.4270
  30   2.0000      -5.704260      -155.2208
  31   2.0000      -5.655943      -153.9060
  32   2.0000      -5.651883      -153.7955
  33   2.0000      -5.647281      -153.6703
  34   2.0000      -5.646985      -153.6623
  35   2.0000      -5.643285      -153.5616
  36   2.0000      -5.642889      -153.5508
  37   2.0000      -4.647282      -126.4590
  38   2.0000      -4.646601      -126.4404
  39   2.0000      -4.644816      -126.3919
  40   2.0000      -4.641908      -126.3127
  41   2.0000      -4.641092      -126.2905
  42   2.0000      -4.639246      -126.2403
  43   2.0000      -0.988391       -26.8955
  44   2.0000      -0.984883       -26.8000
  45   2.0000      -0.946488       -25.7552
  46   2.0000      -0.940735       -25.5987
  47   2.0000      -0.763522       -20.7765
  48   2.0000      -0.721989       -19.6463
  49   2.0000      -0.714434       -19.4407
  50   2.0000      -0.694249       -18.8915
  51   2.0000      -0.689461       -18.7612
  52   2.0000      -0.678479       -18.4624
  53   2.0000      -0.649721       -17.6798
  54   2.0000      -0.632177       -17.2024
  55   2.0000      -0.595734       -16.2108
  56   2.0000      -0.587995       -16.0002
  57   2.0000      -0.575130       -15.6501
  58   2.0000      -0.573202       -15.5976
  59   2.0000      -0.566556       -15.4168
  60   2.0000      -0.507276       -13.8037
  61   2.0000      -0.497107       -13.5270
  62   2.0000      -0.479175       -13.0390
  63   2.0000      -0.476872       -12.9764
  64   2.0000      -0.454547       -12.3688
  65   2.0000      -0.451782       -12.2936
  66   2.0000      -0.441792       -12.0218
  67   2.0000      -0.437830       -11.9140
  68   2.0000      -0.434590       -11.8258
  69   2.0000      -0.418354       -11.3840
  70   2.0000      -0.405049       -11.0219
  71   2.0000      -0.402705       -10.9582
  72   2.0000      -0.398526       -10.8444
  73   2.0000      -0.392056       -10.6684
  74   2.0000      -0.380443       -10.3524
  75   2.0000      -0.369349       -10.0505
  76   2.0000      -0.360716        -9.8156
  77   2.0000      -0.359585        -9.7848
  78   2.0000      -0.357190        -9.7196
  79   2.0000      -0.356331        -9.6963
  80   2.0000      -0.351600        -9.5675
  81   2.0000      -0.349634        -9.5140
  82   2.0000      -0.347420        -9.4538
  83   2.0000      -0.336706        -9.1622
  84   2.0000      -0.333980        -9.0881
  85   2.0000      -0.317184        -8.6310
  86   2.0000      -0.312501        -8.5036
  87   2.0000      -0.298409        -8.1201
  88   2.0000      -0.293706        -7.9922
  89   2.0000      -0.292816        -7.9679
  90   2.0000      -0.291058        -7.9201
  91   2.0000      -0.278681        -7.5833
  92   2.0000      -0.274373        -7.4661
  93   2.0000      -0.263983        -7.1833
  94   2.0000      -0.258947        -7.0463
  95   2.0000      -0.240422        -6.5422
  96   2.0000      -0.223564        -6.0835
  97   2.0000      -0.206575        -5.6212
  98   2.0000      -0.195367        -5.3162
  99   2.0000      -0.192376        -5.2348
 100   2.0000      -0.185990        -5.0610
 101   0.0000      -0.048486        -1.3194
 102   0.0000      -0.032974        -0.8973
 103   0.0000      -0.013179        -0.3586
 104   0.0000       0.005968         0.1624
 105   0.0000       0.011235         0.3057

MULLIKEN ATOMIC CHARGES
-----------------------
   0 C :   -0.289312
   1 C :   -0.008662
   2 O :   -0.356462
   3 P :    0.599120
   4 S :   -0.290897
   5 O :   -0.378872
   6 C :   -0.024121
   7 C :   -0.309667
   8 S :   -0.146160
   9 C :   -0.320201
  10 S :   -0.136241
  11 P :    0.592789
  12 S :   -0.292467
  13 O :   -0.370942
  14 C :   -0.022637
  15 C :   -0.297824
  16 O :   -0.356087
  17 C :   -0.003856
  18 C :   -0.318583
  19 H :    0.108052
  20 H :    0.117249
  21 H :    0.120152
  22 H :    0.112306
  23 H :    0.100018
  24 H :    0.109656
  25 H :    0.140357
  26 H :    0.126610
  27 H :    0.113568
  28 H :    0.117364
  29 H :    0.179186
  30 H :    0.212586
  31 H :    0.103287
  32 H :    0.115019
  33 H :    0.133879
  34 H :    0.113569
  35 H :    0.106944
  36 H :    0.115388
  37 H :    0.115083
  38 H :    0.117551
  39 H :    0.125247
  40 H :    0.128008
Sum of atomic charges:   -0.0000000

LOEWDIN ATOMIC CHARGES
----------------------
   0 C :   -0.361142
   1 C :   -0.112785
   2 O :   -0.239461
   3 P :    0.561918
   4 S :   -0.290539
   5 O :   -0.245840
   6 C :   -0.117213
   7 C :   -0.360042
   8 S :    0.057114
   9 C :   -0.479358
  10 S :    0.065679
  11 P :    0.563441
  12 S :   -0.286180
  13 O :   -0.244683
  14 C :   -0.117367
  15 C :   -0.363034
  16 O :   -0.232331
  17 C :   -0.111601
  18 C :   -0.367868
  19 H :    0.128922
  20 H :    0.118646
  21 H :    0.129051
  22 H :    0.122519
  23 H :    0.105723
  24 H :    0.121400
  25 H :    0.109773
  26 H :    0.117629
  27 H :    0.124090
  28 H :    0.131267
  29 H :    0.134463
  30 H :    0.125165
  31 H :    0.117198
  32 H :    0.098510
  33 H :    0.123804
  34 H :    0.126272
  35 H :    0.126545
  36 H :    0.125317
  37 H :    0.113020
  38 H :    0.133380
  39 H :    0.117391
  40 H :    0.131208

  Mayer bond orders larger than 0.100000
B(  0-C ,  1-C ) :   1.1631 B(  0-C , 19-H ) :   0.9401 B(  0-C , 20-H ) :   0.9374
B(  0-C , 21-H ) :   0.9464 B(  1-C ,  2-O ) :   0.8923 B(  1-C , 22-H ) :   0.9346
B(  1-C , 23-H ) :   0.9170 B(  2-O ,  3-P ) :   1.1350 B(  3-P ,  4-S ) :   1.6752
B(  3-P ,  5-O ) :   1.1033 B(  3-P ,  8-S ) :   0.9236 B(  4-S ,  8-S ) :   0.1168
B(  5-O ,  6-C ) :   0.8936 B(  6-C ,  7-C ) :   1.1666 B(  6-C , 24-H ) :   0.9324
B(  6-C , 25-H ) :   0.9001 B(  7-C , 26-H ) :   0.9369 B(  7-C , 27-H ) :   0.9446
B(  7-C , 28-H ) :   0.9371 B(  8-S ,  9-C ) :   0.9816 B(  9-C , 10-S ) :   1.0132
B(  9-C , 29-H ) :   0.9074 B(  9-C , 30-H ) :   0.8462 B( 10-S , 11-P ) :   0.9210
B( 10-S , 12-S ) :   0.1141 B( 11-P , 12-S ) :   1.6566 B( 11-P , 13-O ) :   1.0880
B( 11-P , 16-O ) :   1.1528 B( 13-O , 14-C ) :   0.9051 B( 14-C , 15-C ) :   1.1702
B( 14-C , 31-H ) :   0.9348 B( 14-C , 32-H ) :   0.9039 B( 15-C , 33-H ) :   0.9253
B( 15-C , 34-H ) :   0.9447 B( 15-C , 35-H ) :   0.9373 B( 16-O , 17-C ) :   0.8997
B( 17-C , 18-C ) :   1.1684 B( 17-C , 36-H ) :   0.9342 B( 17-C , 37-H ) :   0.9251
B( 18-C , 38-H ) :   0.9340 B( 18-C , 39-H ) :   0.9380 B( 18-C , 40-H ) :   0.9411

Dispersion correction           -0.065570968
FINAL SINGLE POINT ENERGY     -2929.512516258450

DIPOLE MOMENT
-------------

Method             : SCF
Type of density    : Electron Density
Multiplicity       :   1
Irrep              :   0
Energy             : -2929.6317197283083260 Eh
Relativity type    :
Basis              : AO
                                X                 Y                 Z
Electronic contribution:      0.221556245      10.103516407     -17.514322224
Nuclear contribution   :     -0.470914208     -11.874813828      18.886331468
                        -----------------------------------------
Total Dipole Moment    :     -0.249357963      -1.771297421       1.372009243
                        -----------------------------------------
Magnitude (a.u.)       :      2.254347646
Magnitude (Debye)      :      5.730096339

Rotational constants in cm-1:             0.012448             0.004897             0.004589
Rotational constants in MHz :           373.172983           146.820406           137.581807

                             ****ORCA TERMINATED NORMALLY****
TOTAL RUN TIME: 0 days 0 hours 0 minutes 21 seconds 377 msec
