                         Program Version 6.0.0  -   RELEASE  -
|  1> ! wb97x-v def2-tzvp def2/J RIJCOSX DEFGRID2 scfconv7 GCP(DFT/TZ) printgap
|  2> %output
|  3>     printlevel normal
|  4> end
|  5> * xyz 0 1
|  6> C -1.1843504068397166 1.2921492605265474 -1.003292717132063
|  7> C -0.9972652354054501 0.1674132704504805 0.015924081066826287
|  8> C -1.7356179029558874 -1.0966262199107153 -0.45900817381570735
|  9> C -1.5451616602453604 0.6047149360939985 1.3843844308926299
| 10> C 0.46234475324476215 -0.221523816157651 0.21405260352491062
| 11> O 0.8343313047664406 -1.062093796953764 1.0189883040229697
| 12> O 1.3141056129451327 0.438774687300863 -0.5865583512281798
| 13> C 2.716638688536285 0.09010935961807978 -0.4452901830092144
| 14> H -0.8195806576196765 1.0049467684543902 -1.9933313518560773
| 15> H -2.252333582957101 1.5172425952812627 -1.0873806860906876
| 16> H -0.6688135804257129 2.2058000650513643 -0.6935947116168237
| 17> H -1.637085584633803 -1.9072853983640252 0.26819333608563173
| 18> H -1.3467307598188487 -1.4405856422814598 -1.423129284229984
| 19> H -2.798612208104006 -0.8654293106751393 -0.5796018276966731
| 20> H -1.4576676073002899 -0.19853952041678688 2.120860711853153
| 21> H -1.0093205156790086 1.483189346623196 1.7585453158043676
| 22> H -2.6029401643860064 0.8653299946000733 1.2802135486140998
| 23> H 2.8652648348385195 -0.9686707820962814 -0.6700978479669483
| 24> H 3.059141047785704 0.31156601808559764 0.5683200183201295
| 25> H 3.241269902873225 0.7119751903866957 -1.1698138384185415
| 26> *
| 27>
| 28>                          ****END OF INPUT****

CARTESIAN COORDINATES (ANGSTROEM)
---------------------------------
  C     -1.184350    1.292149   -1.003293
  C     -0.997265    0.167413    0.015924
  C     -1.735618   -1.096626   -0.459008
  C     -1.545162    0.604715    1.384384
  C      0.462345   -0.221524    0.214053
  O      0.834331   -1.062094    1.018988
  O      1.314106    0.438775   -0.586558
  C      2.716639    0.090109   -0.445290
  H     -0.819581    1.004947   -1.993331
  H     -2.252334    1.517243   -1.087381
  H     -0.668814    2.205800   -0.693595
  H     -1.637086   -1.907285    0.268193
  H     -1.346731   -1.440586   -1.423129
  H     -2.798612   -0.865429   -0.579602
  H     -1.457668   -0.198540    2.120861
  H     -1.009321    1.483189    1.758545
  H     -2.602940    0.865330    1.280214
  H      2.865265   -0.968671   -0.670098
  H      3.059141    0.311566    0.568320
  H      3.241270    0.711975   -1.169814

 Total Charge           Charge          ....    0
 Multiplicity           Mult            ....    1
 Number of Electrons    NEL             ....   64
 Basis Dimension        Dim             ....  320

ORBITAL ENERGIES
----------------

  NO   OCC          E(Eh)            E(eV)
   0   2.0000     -21.720784      -591.0526
   1   2.0000     -21.651640      -589.1711
   2   2.0000     -12.171586      -331.2057
   3   2.0000     -12.103945      -329.3651
   4   2.0000     -12.074147      -328.5542
   5   2.0000     -12.040911      -327.6499
   6   2.0000     -12.039649      -327.6155
   7   2.0000     -12.037890      -327.5676
   8   2.0000      -1.758763       -47.8584
   9   2.0000      -1.688261       -45.9399
  10   2.0000      -1.346233       -36.6329
  11   2.0000      -1.272680       -34.6314
  12   2.0000      -1.184726       -32.2380
  13   2.0000      -1.184107       -32.2212
  14   2.0000      -1.136253       -30.9190
  15   2.0000      -1.084912       -29.5220
  16   2.0000      -1.054175       -28.6856
  17   2.0000      -0.995975       -27.1019
  18   2.0000      -0.991332       -26.9755
  19   2.0000      -0.936443       -25.4819
  20   2.0000      -0.901086       -24.5198
  21   2.0000      -0.882038       -24.0015
  22   2.0000      -0.871027       -23.7018
  23   2.0000      -0.867478       -23.6053
  24   2.0000      -0.844048       -22.9677
  25   2.0000      -0.825625       -22.4664
  26   2.0000      -0.818162       -22.2633
  27   2.0000      -0.816722       -22.2241
  28   2.0000      -0.801013       -21.7967
  29   2.0000      -0.789912       -21.4946
  30   2.0000      -0.779938       -21.2232
  31   2.0000      -0.778827       -21.1930
  32   0.0000      -0.306218        -8.3326
  33   0.0000      -0.184801        -5.0287
  34   0.0000      -0.105915        -2.8821
  35   0.0000      -0.049953        -1.3593
  36   0.0000      -0.030500        -0.8300

MULLIKEN ATOMIC CHARGES
-----------------------
   0 C :   -0.339809
   1 C :    0.120547
   2 C :   -0.376863
   3 C :   -0.374521
   4 C :    0.282048
   5 O :   -0.361395
   6 O :   -0.223811
   7 C :   -0.196720
   8 H :    0.116219
   9 H :    0.112472
  10 H :    0.114928
  11 H :    0.139449
  12 H :    0.115052
  13 H :    0.114742
  14 H :    0.139471
  15 H :    0.114046
  16 H :    0.114310
  17 H :    0.130839
  18 H :    0.130604
  19 H :    0.128391
Sum of atomic charges:   -0.0000000

LOEWDIN ATOMIC CHARGES
----------------------
   0 C :   -0.254603
   1 C :   -0.325132
   2 C :   -0.242968
   3 C :   -0.243590
   4 C :   -0.422302
   5 O :    0.084685
   6 O :    0.237432
   7 C :   -0.284720
   8 H :    0.122716
   9 H :    0.122412
  10 H :    0.122705
  11 H :    0.128808
  12 H :    0.123191
  13 H :    0.123242
  14 H :    0.128818
  15 H :    0.123185
  16 H :    0.122795
  17 H :    0.111943
  18 H :    0.111849
  19 H :    0.109535

  Mayer bond orders larger than 0.100000
B(  0-C ,  1-C ) :   0.9964 B(  0-C ,  8-H ) :   0.9721 B(  0-C ,  9-H ) :   0.9751
B(  0-C , 10-H ) :   0.9730 B(  1-C ,  2-C ) :   0.9603 B(  1-C ,  3-C ) :   0.9662
B(  1-C ,  4-C ) :   0.9321 B(  2-C , 11-H ) :   0.9739 B(  2-C , 12-H ) :   0.9744
B(  2-C , 13-H ) :   0.9775 B(  3-C , 14-H ) :   0.9731 B(  3-C , 15-H ) :   0.9752
B(  3-C , 16-H ) :   0.9777 B(  4-C ,  5-O ) :   2.0468 B(  4-C ,  6-O ) :   1.2207
B(  6-O ,  7-C ) :   0.9049 B(  7-C , 17-H ) :   0.9772 B(  7-C , 18-H ) :   0.9775
B(  7-C , 19-H ) :   0.9736

FINAL SINGLE POINT ENERGY      -386.352684638969

DIPOLE MOMENT
-------------

Method             : SCF
Type of density    : Electron Density
Multiplicity       :   1
Irrep              :   0
Energy             :  -386.3668508724688309 Eh
Relativity type    :
Basis              : AO
                                X                 Y                 Z
Electronic contribution:      5.240735262      -1.780815933       1.163614011
Nuclear contribution   :     -5.203517165       2.268853877      -1.685502574
                        -----------------------------------------
Total Dipole Moment    :      0.037218096       0.488037944      -0.521888563
                        -----------------------------------------
Magnitude (a.u.)       :      0.715495558
Magnitude (Debye)      :      1.818645179

Rotational constants in cm-1:             0.105237             0.049565             0.043677
Rotational constants in MHz :          3154.911928          1485.929767          1309.412992

                             ****ORCA TERMINATED NORMALLY****
TOTAL RUN TIME: 0 days 0 hours 3 minutes 31 seconds 554 msec
