                         Program Version 6.0.0  -   RELEASE  -
|  1> ! wb97x-v def2-tzvp def2/J RIJCOSX DEFGRID2 scfconv7 GCP(DFT/TZ) printgap
|  2> %output
|  3>     printlevel normal
|  4> end
|  5> %cpcm
|  6>     smd true
|  7>     smdsolvent "water"
|  8> end
|  9> * xyz 0 1
| 10> C -1.1843504068397166 1.2921492605265474 -1.003292717132063
| 11> C -0.9972652354054501 0.1674132704504805 0.015924081066826287
| 12> C -1.7356179029558874 -1.0966262199107153 -0.45900817381570735
| 13> C -1.5451616602453604 0.6047149360939985 1.3843844308926299
| 14> C 0.46234475324476215 -0.221523816157651 0.21405260352491062
| 15> O 0.8343313047664406 -1.062093796953764 1.0189883040229697
| 16> O 1.3141056129451327 0.438774687300863 -0.5865583512281798
| 17> C 2.716638688536285 0.09010935961807978 -0.4452901830092144
| 18> H -0.8195806576196765 1.0049467684543902 -1.9933313518560773
| 19> H -2.252333582957101 1.5172425952812627 -1.0873806860906876
| 20> H -0.6688135804257129 2.2058000650513643 -0.6935947116168237
| 21> H -1.637085584633803 -1.9072853983640252 0.26819333608563173
| 22> H -1.3467307598188487 -1.4405856422814598 -1.423129284229984
| 23> H -2.798612208104006 -0.8654293106751393 -0.5796018276966731
| 24> H -1.4576676073002899 -0.19853952041678688 2.120860711853153
| 25> H -1.0093205156790086 1.483189346623196 1.7585453158043676
| 26> H -2.6029401643860064 0.8653299946000733 1.2802135486140998
| 27> H 2.8652648348385195 -0.9686707820962814 -0.6700978479669483
| 28> H 3.059141047785704 0.31156601808559764 0.5683200183201295
| 29> H 3.241269902873225 0.7119751903866957 -1.1698138384185415
| 30> *
| 31>
| 32>                          ****END OF INPUT****

CARTESIAN COORDINATES (ANGSTROEM)
---------------------------------
  C     -1.184350    1.292149   -1.003293
  C     -0.997265    0.167413    0.015924
  C     -1.735618   -1.096626   -0.459008
  C     -1.545162    0.604715    1.384384
  C      0.462345   -0.221524    0.214053
  O      0.834331   -1.062094    1.018988
  O      1.314106    0.438775   -0.586558
  C      2.716639    0.090109   -0.445290
  H     -0.819581    1.004947   -1.993331
  H     -2.252334    1.517243   -1.087381
  H     -0.668814    2.205800   -0.693595
  H     -1.637086   -1.907285    0.268193
  H     -1.346731   -1.440586   -1.423129
  H     -2.798612   -0.865429   -0.579602
  H     -1.457668   -0.198540    2.120861
  H     -1.009321    1.483189    1.758545
  H     -2.602940    0.865330    1.280214
  H      2.865265   -0.968671   -0.670098
  H      3.059141    0.311566    0.568320
  H      3.241270    0.711975   -1.169814

 Total Charge           Charge          ....    0
 Multiplicity           Mult            ....    1
 Number of Electrons    NEL             ....   64
 Basis Dimension        Dim             ....  320

ORBITAL ENERGIES
----------------

  NO   OCC          E(Eh)            E(eV)
   0   2.0000     -21.724715      -591.1595
   1   2.0000     -21.665791      -589.5562
   2   2.0000     -12.181830      -331.4845
   3   2.0000     -12.092702      -329.0591
   4   2.0000     -12.070281      -328.4491
   5   2.0000     -12.032993      -327.4344
   6   2.0000     -12.032200      -327.4128
   7   2.0000     -12.029048      -327.3270
   8   2.0000      -1.765283       -48.0358
   9   2.0000      -1.700740       -46.2795
  10   2.0000      -1.342429       -36.5293
  11   2.0000      -1.269584       -34.5471
  12   2.0000      -1.177538       -32.0424
  13   2.0000      -1.177111       -32.0308
  14   2.0000      -1.139268       -31.0011
  15   2.0000      -1.086458       -29.5640
  16   2.0000      -1.064695       -28.9718
  17   2.0000      -0.998364       -27.1669
  18   2.0000      -0.989243       -26.9187
  19   2.0000      -0.939109       -25.5545
  20   2.0000      -0.914552       -24.8862
  21   2.0000      -0.884796       -24.0765
  22   2.0000      -0.867031       -23.5931
  23   2.0000      -0.865895       -23.5622
  24   2.0000      -0.833925       -22.6923
  25   2.0000      -0.817419       -22.2431
  26   2.0000      -0.810724       -22.0609
  27   2.0000      -0.808213       -21.9926
  28   2.0000      -0.793333       -21.5877
  29   2.0000      -0.786050       -21.3895
  30   2.0000      -0.773237       -21.0409
  31   2.0000      -0.771493       -20.9934
  32   0.0000      -0.311459        -8.4752
  33   0.0000      -0.178536        -4.8582
  34   0.0000      -0.108021        -2.9394
  35   0.0000      -0.047975        -1.3055
  36   0.0000      -0.021757        -0.5920

MULLIKEN ATOMIC CHARGES
-----------------------
   0 C :   -0.415647
   1 C :    0.170052
   2 C :   -0.423315
   3 C :   -0.424581
   4 C :    0.363970
   5 O :   -0.481729
   6 O :   -0.244955
   7 C :   -0.237779
   8 H :    0.133127
   9 H :    0.137798
  10 H :    0.133798
  11 H :    0.136096
  12 H :    0.139187
  13 H :    0.140759
  14 H :    0.135248
  15 H :    0.138786
  16 H :    0.140754
  17 H :    0.150611
  18 H :    0.150657
  19 H :    0.157164
Sum of atomic charges:   -0.0000000

LOEWDIN ATOMIC CHARGES
----------------------
   0 C :   -0.258195
   1 C :   -0.322362
   2 C :   -0.245795
   3 C :   -0.247253
   4 C :   -0.403325
   5 O :    0.022932
   6 O :    0.235745
   7 C :   -0.281318
   8 H :    0.124649
   9 H :    0.129149
  10 H :    0.125046
  11 H :    0.126035
  12 H :    0.128354
  13 H :    0.130261
  14 H :    0.125543
  15 H :    0.128230
  16 H :    0.129973
  17 H :    0.116493
  18 H :    0.116424
  19 H :    0.119412

  Mayer bond orders larger than 0.100000
B(  0-C ,  1-C ) :   0.9739 B(  0-C ,  8-H ) :   0.9721 B(  0-C ,  9-H ) :   0.9727
B(  0-C , 10-H ) :   0.9733 B(  1-C ,  2-C ) :   0.9453 B(  1-C ,  3-C ) :   0.9493
B(  1-C ,  4-C ) :   0.9447 B(  2-C , 11-H ) :   0.9704 B(  2-C , 12-H ) :   0.9727
B(  2-C , 13-H ) :   0.9748 B(  3-C , 14-H ) :   0.9702 B(  3-C , 15-H ) :   0.9739
B(  3-C , 16-H ) :   0.9752 B(  4-C ,  5-O ) :   1.9155 B(  4-C ,  6-O ) :   1.2434
B(  6-O ,  7-C ) :   0.8791 B(  7-C , 17-H ) :   0.9719 B(  7-C , 18-H ) :   0.9719
B(  7-C , 19-H ) :   0.9684

FINAL SINGLE POINT ENERGY      -386.357279908888

DIPOLE MOMENT
-------------

Method             : SCF
Type of density    : Electron Density
Multiplicity       :   1
Irrep              :   0
Energy             :  -386.3714461423881517 Eh
Relativity type    :
Basis              : AO
                                X                 Y                 Z
Electronic contribution:      5.161045953      -1.522735497       0.906328876
Nuclear contribution   :     -5.203517165       2.268853877      -1.685502574
                        -----------------------------------------
Total Dipole Moment    :     -0.042471212       0.746118380      -0.779173698
                        -----------------------------------------
Magnitude (a.u.)       :      1.079633314
Magnitude (Debye)      :      2.744209797

Rotational constants in cm-1:             0.105237             0.049565             0.043677
Rotational constants in MHz :          3154.911928          1485.929767          1309.412992

                             ****ORCA TERMINATED NORMALLY****
TOTAL RUN TIME: 0 days 0 hours 3 minutes 21 seconds 570 msec
