                         Program Version 6.0.0  -   RELEASE  -
|  1> ! pbe def2-sv(p) def2/J RI DEFGRID1 loosescf d4 GCP(DFT/SV(P)) printgap
|  2> %output
|  3>     printlevel normal
|  4> end
|  5> * xyz 0 1
|  6> C 3.3251998786 -1.5194048052 -2.8390516811
|  7> C 4.1043188616 -1.2280189459 -1.5744071038
|  8> O 3.557071848 -0.1304846797 -0.8175875751
|  9> P 2.0371034392 0.0097607134 -0.378959949
| 10> S 0.7885760547 0.6701279331 -1.7317439234
| 11> O 2.1092449473 1.0427161876 0.8061098321
| 12> C 2.9756078004 0.9118360271 1.9596222302
| 13> C 4.2247426733 1.7501836281 1.7835919788
| 14> S 1.6659345042 -1.8975907129 0.4977900998
| 15> C 0.0422955302 -1.595024753 1.2342678518
| 16> S -1.3262901725 -1.543725038 0.0352002421
| 17> P -2.0384759771 0.442306465 0.3566777191
| 18> S -1.0226171138 1.5204401287 1.6325738152
| 19> O -3.5536429858 0.1873085013 0.7930081392
| 20> C -3.8807293159 -0.4000006428 2.067366259
| 21> C -5.3678039418 -0.2196538041 2.2951416528
| 22> O -2.2521834056 1.1265186755 -1.0355552679
| 23> C -2.9526741462 0.4816854624 -2.133594682
| 24> C -2.5352780586 1.1726232965 -3.4133817759
| 25> H 3.2501988938 -0.6252246432 -3.4536233167
| 26> H 3.8267108362 -2.3018996167 -3.3992352945
| 27> H 2.3170399534 -1.8497499081 -2.5914377692
| 28> H 5.1214848398 -0.9022184507 -1.7990522519
| 29> H 4.1290471336 -2.1069300898 -0.9243711197
| 30> H 2.3681369303 1.2689084584 2.7943386888
| 31> H 3.2237936917 -0.1438137286 2.102433814
| 32> H 3.9529383036 2.7882533629 1.612193584
| 33> H 4.8281876847 1.680532171 2.6831473911
| 34> H 4.8002832305 1.3944620638 0.9329907575
| 35> H 0.0528542803 -0.6470811684 1.7809740504
| 36> H -0.1327548538 -2.4375942042 1.8981283921
| 37> H -3.6073597487 -1.4587854617 2.0347321274
| 38> H -3.2912455675 0.1018241743 2.8419852542
| 39> H -5.6370638486 -0.6585491137 3.2501018742
| 40> H -5.617443752 0.8376086322 2.3022353125
| 41> H -5.9269070955 -0.7082272173 1.5026011027
| 42> H -2.6775464908 -0.5770217298 -2.1476060237
| 43> H -4.0232116709 0.5801556884 -1.9438409465
| 44> H -2.8032912089 2.2243799914 -3.3751667328
| 45> H -1.4573673657 1.0930847055 -3.5363235656
| 46> H -3.0323332473 0.6992456116 -4.2535658572
| 47> *
| 48>
| 49>                          ****END OF INPUT****

CARTESIAN COORDINATES (ANGSTROEM)
---------------------------------
  C      3.325200   -1.519405   -2.839052
  C      4.104319   -1.228019   -1.574407
  O      3.557072   -0.130485   -0.817588
  P      2.037103    0.009761   -0.378960
  S      0.788576    0.670128   -1.731744
  O      2.109245    1.042716    0.806110
  C      2.975608    0.911836    1.959622
  C      4.224743    1.750184    1.783592
  S      1.665935   -1.897591    0.497790
  C      0.042296   -1.595025    1.234268
  S     -1.326290   -1.543725    0.035200
  P     -2.038476    0.442306    0.356678
  S     -1.022617    1.520440    1.632574
  O     -3.553643    0.187309    0.793008
  C     -3.880729   -0.400001    2.067366
  C     -5.367804   -0.219654    2.295142
  O     -2.252183    1.126519   -1.035555
  C     -2.952674    0.481685   -2.133595
  C     -2.535278    1.172623   -3.413382
  H      3.250199   -0.625225   -3.453623
  H      3.826711   -2.301900   -3.399235
  H      2.317040   -1.849750   -2.591438
  H      5.121485   -0.902218   -1.799052
  H      4.129047   -2.106930   -0.924371
  H      2.368137    1.268908    2.794339
  H      3.223794   -0.143814    2.102434
  H      3.952938    2.788253    1.612194
  H      4.828188    1.680532    2.683147
  H      4.800283    1.394462    0.932991
  H      0.052854   -0.647081    1.780974
  H     -0.132755   -2.437594    1.898128
  H     -3.607360   -1.458785    2.034732
  H     -3.291246    0.101824    2.841985
  H     -5.637064   -0.658549    3.250102
  H     -5.617444    0.837609    2.302235
  H     -5.926907   -0.708227    1.502601
  H     -2.677546   -0.577022   -2.147606
  H     -4.023212    0.580156   -1.943841
  H     -2.803291    2.224380   -3.375167
  H     -1.457367    1.093085   -3.536324
  H     -3.032333    0.699246   -4.253566

 Total Charge           Charge          ....    0
 Multiplicity           Mult            ....    1
 Number of Electrons    NEL             ....  202
 Basis Dimension        Dim             ....  334

ORBITAL ENERGIES
----------------

  NO   OCC          E(Eh)            E(eV)
   0   2.0000     -88.042630     -2395.7617
   1   2.0000     -88.037247     -2395.6153
   2   2.0000     -87.979678     -2394.0488
   3   2.0000     -87.972628     -2393.8569
   4   2.0000     -76.420087     -2079.4963
   5   2.0000     -76.418738     -2079.4596
   6   2.0000     -18.789979      -511.3013
   7   2.0000     -18.785686      -511.1845
   8   2.0000     -18.782907      -511.1089
   9   2.0000     -18.781140      -511.0608
  10   2.0000      -9.958596      -270.9872
  11   2.0000      -9.955577      -270.9050
  12   2.0000      -9.952550      -270.8226
  13   2.0000      -9.949277      -270.7336
  14   2.0000      -9.946938      -270.6699
  15   2.0000      -9.885135      -268.9882
  16   2.0000      -9.881896      -268.9001
  17   2.0000      -9.881431      -268.8874
  18   2.0000      -9.880553      -268.8635
  19   2.0000      -7.687617      -209.1907
  20   2.0000      -7.682116      -209.0410
  21   2.0000      -7.624911      -207.4844
  22   2.0000      -7.617668      -207.2873
  23   2.0000      -6.417305      -174.6237
  24   2.0000      -6.416232      -174.5946
  25   2.0000      -5.715232      -155.5194
  26   2.0000      -5.711997      -155.4313
  27   2.0000      -5.709973      -155.3763
  28   2.0000      -5.706629      -155.2853
  29   2.0000      -5.704994      -155.2408
  30   2.0000      -5.699153      -155.0818
  31   2.0000      -5.653825      -153.8484
  32   2.0000      -5.646805      -153.6574
  33   2.0000      -5.645722      -153.6279
  34   2.0000      -5.644799      -153.6028
  35   2.0000      -5.638087      -153.4202
  36   2.0000      -5.637794      -153.4122
  37   2.0000      -4.640276      -126.2683
  38   2.0000      -4.639475      -126.2465
  39   2.0000      -4.638874      -126.2302
  40   2.0000      -4.637960      -126.2053
  41   2.0000      -4.637058      -126.1808
  42   2.0000      -4.636654      -126.1698
  43   2.0000      -0.983576       -26.7645
  44   2.0000      -0.981488       -26.7076
  45   2.0000      -0.940614       -25.5954
  46   2.0000      -0.936193       -25.4751
  47   2.0000      -0.758544       -20.6410
  48   2.0000      -0.717256       -19.5175
  49   2.0000      -0.709459       -19.3054
  50   2.0000      -0.688597       -18.7377
  51   2.0000      -0.686186       -18.6721
  52   2.0000      -0.673014       -18.3136
  53   2.0000      -0.645545       -17.5662
  54   2.0000      -0.631747       -17.1907
  55   2.0000      -0.584921       -15.9165
  56   2.0000      -0.580066       -15.7844
  57   2.0000      -0.570696       -15.5294
  58   2.0000      -0.567248       -15.4356
  59   2.0000      -0.562916       -15.3177
  60   2.0000      -0.507493       -13.8096
  61   2.0000      -0.498275       -13.5587
  62   2.0000      -0.477087       -12.9822
  63   2.0000      -0.470765       -12.8102
  64   2.0000      -0.451888       -12.2965
  65   2.0000      -0.449435       -12.2297
  66   2.0000      -0.434294       -11.8177
  67   2.0000      -0.433294       -11.7905
  68   2.0000      -0.431784       -11.7495
  69   2.0000      -0.413352       -11.2479
  70   2.0000      -0.408265       -11.1095
  71   2.0000      -0.396804       -10.7976
  72   2.0000      -0.393913       -10.7189
  73   2.0000      -0.382697       -10.4137
  74   2.0000      -0.372978       -10.1492
  75   2.0000      -0.361587        -9.8393
  76   2.0000      -0.355364        -9.6700
  77   2.0000      -0.352583        -9.5943
  78   2.0000      -0.351080        -9.5534
  79   2.0000      -0.346299        -9.4233
  80   2.0000      -0.344937        -9.3862
  81   2.0000      -0.342713        -9.3257
  82   2.0000      -0.336872        -9.1668
  83   2.0000      -0.335667        -9.1340
  84   2.0000      -0.330520        -8.9939
  85   2.0000      -0.317789        -8.6475
  86   2.0000      -0.311130        -8.4663
  87   2.0000      -0.296235        -8.0610
  88   2.0000      -0.294613        -8.0168
  89   2.0000      -0.289821        -7.8864
  90   2.0000      -0.283163        -7.7053
  91   2.0000      -0.273064        -7.4304
  92   2.0000      -0.266648        -7.2559
  93   2.0000      -0.257611        -7.0100
  94   2.0000      -0.252427        -6.8689
  95   2.0000      -0.240199        -6.5361
  96   2.0000      -0.218035        -5.9330
  97   2.0000      -0.199820        -5.4374
  98   2.0000      -0.197358        -5.3704
  99   2.0000      -0.183462        -4.9923
 100   2.0000      -0.182875        -4.9763
 101   0.0000      -0.036748        -1.0000
 102   0.0000      -0.027222        -0.7407
 103   0.0000      -0.012544        -0.3413
 104   0.0000       0.001278         0.0348
 105   0.0000       0.024125         0.6565

MULLIKEN ATOMIC CHARGES
-----------------------
   0 C :   -0.310470
   1 C :   -0.014254
   2 O :   -0.380619
   3 P :    0.597384
   4 S :   -0.304588
   5 O :   -0.338979
   6 C :   -0.014311
   7 C :   -0.284537
   8 S :   -0.128875
   9 C :   -0.332800
  10 S :   -0.109441
  11 P :    0.607231
  12 S :   -0.292823
  13 O :   -0.388652
  14 C :   -0.002517
  15 C :   -0.279677
  16 O :   -0.346868
  17 C :   -0.016454
  18 C :   -0.286733
  19 H :    0.128395
  20 H :    0.109943
  21 H :    0.128308
  22 H :    0.110053
  23 H :    0.114027
  24 H :    0.110576
  25 H :    0.093061
  26 H :    0.123040
  27 H :    0.106302
  28 H :    0.118112
  29 H :    0.190252
  30 H :    0.178685
  31 H :    0.090966
  32 H :    0.096959
  33 H :    0.108957
  34 H :    0.120818
  35 H :    0.113071
  36 H :    0.110360
  37 H :    0.108559
  38 H :    0.120605
  39 H :    0.139732
  40 H :    0.107199
Sum of atomic charges:    0.0000000

LOEWDIN ATOMIC CHARGES
----------------------
   0 C :   -0.371243
   1 C :   -0.115081
   2 O :   -0.247607
   3 P :    0.561877
   4 S :   -0.300451
   5 O :   -0.223407
   6 C :   -0.117280
   7 C :   -0.358153
   8 S :    0.057497
   9 C :   -0.482154
  10 S :    0.062147
  11 P :    0.571058
  12 S :   -0.290309
  13 O :   -0.259023
  14 C :   -0.124221
  15 C :   -0.350465
  16 O :   -0.223284
  17 C :   -0.110487
  18 C :   -0.351291
  19 H :    0.130903
  20 H :    0.129355
  21 H :    0.122140
  22 H :    0.121481
  23 H :    0.107728
  24 H :    0.120099
  25 H :    0.099929
  26 H :    0.130293
  27 H :    0.127804
  28 H :    0.125256
  29 H :    0.119675
  30 H :    0.135868
  31 H :    0.101907
  32 H :    0.105078
  33 H :    0.129211
  34 H :    0.128953
  35 H :    0.125147
  36 H :    0.107164
  37 H :    0.114949
  38 H :    0.129907
  39 H :    0.130125
  40 H :    0.128905

  Mayer bond orders larger than 0.100000
B(  0-C ,  1-C ) :   1.1677 B(  0-C , 19-H ) :   0.9414 B(  0-C , 20-H ) :   0.9338
B(  0-C , 21-H ) :   0.9312 B(  1-C ,  2-O ) :   0.9152 B(  1-C , 22-H ) :   0.9334
B(  1-C , 23-H ) :   0.9262 B(  2-O ,  3-P ) :   1.0724 B(  3-P ,  4-S ) :   1.6744
B(  3-P ,  5-O ) :   1.1405 B(  3-P ,  8-S ) :   0.9378 B(  4-S ,  8-S ) :   0.1135
B(  5-O ,  6-C ) :   0.8970 B(  6-C ,  7-C ) :   1.1675 B(  6-C , 24-H ) :   0.9310
B(  6-C , 25-H ) :   0.9098 B(  7-C , 26-H ) :   0.9472 B(  7-C , 27-H ) :   0.9403
B(  7-C , 28-H ) :   0.9432 B(  8-S ,  9-C ) :   0.9950 B(  9-C , 10-S ) :   1.0079
B(  9-C , 29-H ) :   0.8440 B(  9-C , 30-H ) :   0.9120 B( 10-S , 11-P ) :   0.9391
B( 10-S , 12-S ) :   0.1172 B( 11-P , 12-S ) :   1.6382 B( 11-P , 13-O ) :   1.0628
B( 11-P , 16-O ) :   1.1590 B( 12-S , 29-H ) :   0.1291 B( 13-O , 14-C ) :   0.9172
B( 14-C , 15-C ) :   1.1607 B( 14-C , 31-H ) :   0.9213 B( 14-C , 32-H ) :   0.9108
B( 15-C , 33-H ) :   0.9425 B( 15-C , 34-H ) :   0.9514 B( 15-C , 35-H ) :   0.9514
B( 16-O , 17-C ) :   0.8858 B( 17-C , 18-C ) :   1.1654 B( 17-C , 36-H ) :   0.9154
B( 17-C , 37-H ) :   0.9299 B( 18-C , 38-H ) :   0.9490 B( 18-C , 39-H ) :   0.9424
B( 18-C , 40-H ) :   0.9399

Dispersion correction           -0.065492584
FINAL SINGLE POINT ENERGY     -2929.510883050288

DIPOLE MOMENT
-------------

Method             : SCF
Type of density    : Electron Density
Multiplicity       :   1
Irrep              :   0
Energy             : -2929.6296174410922504 Eh
Relativity type    :
Basis              : AO
                                X                 Y                 Z
Electronic contribution:      0.529181331       0.641009336       1.912509433
Nuclear contribution   :     -0.318980781      -1.975275651      -1.580383073
                        -----------------------------------------
Total Dipole Moment    :      0.210200550      -1.334266315       0.332126361
                        -----------------------------------------
Magnitude (a.u.)       :      1.390956070
Magnitude (Debye)      :      3.535529358

Rotational constants in cm-1:             0.012052             0.005190             0.004631
Rotational constants in MHz :           361.324647           155.586192           138.821702

                             ****ORCA TERMINATED NORMALLY****
TOTAL RUN TIME: 0 days 0 hours 0 minutes 20 seconds 928 msec
