                         Program Version 6.0.0  -   RELEASE  -
|  1> ! r2scan-3c def2/J RI DEFGRID2 scfconv6 printgap
|  2> %output
|  3>     printlevel normal
|  4> end
|  5> * xyz 0 1
|  6> C 6.113977136 0.1740238137 -1.4644455063
|  7> C 4.696218511 0.6410729385 -1.2039778211
|  8> O 3.9723052561 -0.4564475702 -0.6086193264
|  9> P 2.6354679837 -0.1969390407 0.1885746563
| 10> S 2.7217411247 1.1568028 1.6092790449
| 11> O 2.4441583131 -1.6927520022 0.6563448038
| 12> C 1.4233063787 -2.1081284948 1.5845826042
| 13> C 0.3341414739 -2.8749252316 0.8594798298
| 14> S 1.2115447222 0.2131555117 -1.3500547923
| 15> C 0.2009799815 1.4286099518 -0.4569134632
| 16> S -0.8542696225 0.7041878218 0.8244409328
| 17> P -2.4668136157 0.1393966324 -0.4651597747
| 18> S -2.0426519776 -1.1070756986 -1.9108066519
| 19> O -3.0185944879 1.509542363 -1.0144476683
| 20> C -3.5436820968 2.5643218242 -0.1667539696
| 21> C -5.049751179 2.4585234163 -0.0473343138
| 22> O -3.6001106724 -0.3396338778 0.5367942593
| 23> C -3.5858698118 -1.6425872873 1.1519028709
| 24> C -2.9504992871 -1.5841270162 2.5272944609
| 25> H 6.5917538102 -0.1038724427 -0.5293281476
| 26> H 6.1029770943 -0.6893820199 -2.1231207299
| 27> H 6.6746935386 0.9775492628 -1.930529416
| 28> H 4.1911691165 0.9205486998 -2.1331084107
| 29> H 4.6769714 1.4917381836 -0.5133897054
| 30> H 1.9376648363 -2.7487537221 2.3038473691
| 31> H 1.0245998895 -1.2303099168 2.105815019
| 32> H 0.7703110555 -3.7046492389 0.3107138797
| 33> H -0.3778164914 -3.2574947775 1.5836017541
| 34> H -0.1875093741 -2.2363267991 0.1481529281
| 35> H -0.4148695898 1.9229947714 -1.2048895974
| 36> H 0.8583038573 2.1317607066 0.0546989136
| 37> H -3.0629020234 2.5054787141 0.8132667359
| 38> H -3.2507031369 3.4878411036 -0.6698074927
| 39> H -5.5029215196 2.4681154716 -1.0348916605
| 40> H -5.325129669 1.5359104685 0.455668525
| 41> H -5.4193638853 3.3038071496 0.5248858106
| 42> H -4.6371129245 -1.9296009935 1.2143169172
| 43> H -3.0590590075 -2.3388830282 0.4916172334
| 44> H -3.4881126912 -0.8810412033 3.1569576763
| 45> H -2.9895336469 -2.5698455486 2.9795541671
| 46> H -1.9135236065 -1.2630807967 2.4561199903
| 47> *
| 48>
| 49>                          ****END OF INPUT****

CARTESIAN COORDINATES (ANGSTROEM)
---------------------------------
  C      6.113977    0.174024   -1.464446
  C      4.696219    0.641073   -1.203978
  O      3.972305   -0.456448   -0.608619
  P      2.635468   -0.196939    0.188575
  S      2.721741    1.156803    1.609279
  O      2.444158   -1.692752    0.656345
  C      1.423306   -2.108128    1.584583
  C      0.334141   -2.874925    0.859480
  S      1.211545    0.213156   -1.350055
  C      0.200980    1.428610   -0.456913
  S     -0.854270    0.704188    0.824441
  P     -2.466814    0.139397   -0.465160
  S     -2.042652   -1.107076   -1.910807
  O     -3.018594    1.509542   -1.014448
  C     -3.543682    2.564322   -0.166754
  C     -5.049751    2.458523   -0.047334
  O     -3.600111   -0.339634    0.536794
  C     -3.585870   -1.642587    1.151903
  C     -2.950499   -1.584127    2.527294
  H      6.591754   -0.103872   -0.529328
  H      6.102977   -0.689382   -2.123121
  H      6.674694    0.977549   -1.930529
  H      4.191169    0.920549   -2.133108
  H      4.676971    1.491738   -0.513390
  H      1.937665   -2.748754    2.303847
  H      1.024600   -1.230310    2.105815
  H      0.770311   -3.704649    0.310714
  H     -0.377816   -3.257495    1.583602
  H     -0.187509   -2.236327    0.148153
  H     -0.414870    1.922995   -1.204890
  H      0.858304    2.131761    0.054699
  H     -3.062902    2.505479    0.813267
  H     -3.250703    3.487841   -0.669807
  H     -5.502922    2.468115   -1.034892
  H     -5.325130    1.535910    0.455669
  H     -5.419364    3.303807    0.524886
  H     -4.637113   -1.929601    1.214317
  H     -3.059059   -2.338883    0.491617
  H     -3.488113   -0.881041    3.156958
  H     -2.989534   -2.569846    2.979554
  H     -1.913524   -1.263081    2.456120

 Total Charge           Charge          ....    0
 Multiplicity           Mult            ....    1
 Number of Electrons    NEL             ....  202
 Basis Dimension        Dim             ....  539

ORBITAL ENERGIES
----------------

  NO   OCC          E(Eh)            E(eV)
   0   2.0000     -88.577823     -2410.3251
   1   2.0000     -88.573149     -2410.1979
   2   2.0000     -88.520494     -2408.7651
   3   2.0000     -88.519995     -2408.7515
   4   2.0000     -76.917776     -2093.0391
   5   2.0000     -76.911093     -2092.8573
   6   2.0000     -19.001489      -517.0568
   7   2.0000     -18.998696      -516.9808
   8   2.0000     -18.989557      -516.7321
   9   2.0000     -18.987484      -516.6757
  10   2.0000     -10.107787      -275.0469
  11   2.0000     -10.107604      -275.0419
  12   2.0000     -10.107602      -275.0418
  13   2.0000     -10.096747      -274.7465
  14   2.0000     -10.094770      -274.6927
  15   2.0000     -10.039779      -273.1963
  16   2.0000     -10.035521      -273.0804
  17   2.0000     -10.030082      -272.9324
  18   2.0000     -10.021128      -272.6887
  19   2.0000      -7.871995      -214.2079
  20   2.0000      -7.866878      -214.0686
  21   2.0000      -7.815356      -212.6666
  22   2.0000      -7.814608      -212.6463
  23   2.0000      -6.596185      -179.4913
  24   2.0000      -6.589843      -179.3188
  25   2.0000      -5.818714      -158.3353
  26   2.0000      -5.815804      -158.2561
  27   2.0000      -5.813803      -158.2016
  28   2.0000      -5.810638      -158.1155
  29   2.0000      -5.809325      -158.0798
  30   2.0000      -5.804148      -157.9389
  31   2.0000      -5.762864      -156.8155
  32   2.0000      -5.762410      -156.8032
  33   2.0000      -5.755803      -156.6234
  34   2.0000      -5.755307      -156.6099
  35   2.0000      -5.754978      -156.6009
  36   2.0000      -5.754405      -156.5853
  37   2.0000      -4.742212      -129.0421
  38   2.0000      -4.741245      -129.0158
  39   2.0000      -4.739279      -128.9623
  40   2.0000      -4.735177      -128.8507
  41   2.0000      -4.734931      -128.8440
  42   2.0000      -4.733528      -128.8058
  43   2.0000      -1.058794       -28.8112
  44   2.0000      -1.050785       -28.5933
  45   2.0000      -1.018945       -27.7269
  46   2.0000      -1.007854       -27.4251
  47   2.0000      -0.800228       -21.7753
  48   2.0000      -0.762533       -20.7496
  49   2.0000      -0.754011       -20.5177
  50   2.0000      -0.743089       -20.2205
  51   2.0000      -0.726397       -19.7663
  52   2.0000      -0.710019       -19.3206
  53   2.0000      -0.685292       -18.6477
  54   2.0000      -0.669127       -18.2079
  55   2.0000      -0.631037       -17.1714
  56   2.0000      -0.625809       -17.0291
  57   2.0000      -0.613908       -16.7053
  58   2.0000      -0.595670       -16.2090
  59   2.0000      -0.590541       -16.0694
  60   2.0000      -0.536084       -14.5876
  61   2.0000      -0.527625       -14.3574
  62   2.0000      -0.506991       -13.7959
  63   2.0000      -0.494255       -13.4494
  64   2.0000      -0.482098       -13.1186
  65   2.0000      -0.469602       -12.7785
  66   2.0000      -0.457775       -12.4567
  67   2.0000      -0.455450       -12.3934
  68   2.0000      -0.449497       -12.2314
  69   2.0000      -0.433938       -11.8081
  70   2.0000      -0.423255       -11.5174
  71   2.0000      -0.415537       -11.3073
  72   2.0000      -0.411805       -11.2058
  73   2.0000      -0.406249       -11.0546
  74   2.0000      -0.395665       -10.7666
  75   2.0000      -0.387471       -10.5436
  76   2.0000      -0.381471       -10.3804
  77   2.0000      -0.379061       -10.3148
  78   2.0000      -0.376688       -10.2502
  79   2.0000      -0.370328       -10.0771
  80   2.0000      -0.369557       -10.0561
  81   2.0000      -0.363422        -9.8892
  82   2.0000      -0.358509        -9.7555
  83   2.0000      -0.349032        -9.4977
  84   2.0000      -0.346773        -9.4362
  85   2.0000      -0.339785        -9.2460
  86   2.0000      -0.328314        -8.9339
  87   2.0000      -0.317075        -8.6281
  88   2.0000      -0.314652        -8.5621
  89   2.0000      -0.313437        -8.5291
  90   2.0000      -0.305429        -8.3111
  91   2.0000      -0.294265        -8.0074
  92   2.0000      -0.282451        -7.6859
  93   2.0000      -0.280668        -7.6374
  94   2.0000      -0.272203        -7.4070
  95   2.0000      -0.254294        -6.9197
  96   2.0000      -0.229677        -6.2498
  97   2.0000      -0.224705        -6.1145
  98   2.0000      -0.220102        -5.9893
  99   2.0000      -0.214878        -5.8471
 100   2.0000      -0.206411        -5.6167
 101   0.0000      -0.045027        -1.2253
 102   0.0000      -0.030517        -0.8304
 103   0.0000      -0.008534        -0.2322
 104   0.0000       0.002710         0.0738
 105   0.0000       0.006236         0.1697

MULLIKEN ATOMIC CHARGES
-----------------------
   0 C :   -0.438404
   1 C :   -0.146215
   2 O :   -0.305399
   3 P :    0.704994
   4 S :   -0.475297
   5 O :   -0.286854
   6 C :   -0.122360
   7 C :   -0.463861
   8 S :   -0.111690
   9 C :   -0.237487
  10 S :   -0.195017
  11 P :    0.651730
  12 S :   -0.397389
  13 O :   -0.301605
  14 C :   -0.106363
  15 C :   -0.461179
  16 O :   -0.284843
  17 C :   -0.162895
  18 C :   -0.432747
  19 H :    0.158079
  20 H :    0.154542
  21 H :    0.145036
  22 H :    0.154149
  23 H :    0.165019
  24 H :    0.149940
  25 H :    0.162331
  26 H :    0.153097
  27 H :    0.141399
  28 H :    0.187499
  29 H :    0.197054
  30 H :    0.221048
  31 H :    0.166904
  32 H :    0.151572
  33 H :    0.158636
  34 H :    0.166542
  35 H :    0.147638
  36 H :    0.153811
  37 H :    0.174349
  38 H :    0.157374
  39 H :    0.151289
  40 H :    0.155573
Sum of atomic charges:   -0.0000000

LOEWDIN ATOMIC CHARGES
----------------------
   0 C :   -0.384794
   1 C :    0.020304
   2 O :   -0.652516
   3 P :    0.381053
   4 S :   -0.133707
   5 O :   -0.641602
   6 C :    0.021034
   7 C :   -0.408852
   8 S :    0.148127
   9 C :   -0.423238
  10 S :    0.113699
  11 P :    0.370816
  12 S :   -0.085796
  13 O :   -0.659970
  14 C :    0.023104
  15 C :   -0.392179
  16 O :   -0.669431
  17 C :    0.022541
  18 C :   -0.401194
  19 H :    0.161771
  20 H :    0.160533
  21 H :    0.159308
  22 H :    0.172519
  23 H :    0.179023
  24 H :    0.177279
  25 H :    0.178228
  26 H :    0.160860
  27 H :    0.156401
  28 H :    0.171216
  29 H :    0.187671
  30 H :    0.194569
  31 H :    0.177811
  32 H :    0.179584
  33 H :    0.162149
  34 H :    0.166812
  35 H :    0.159493
  36 H :    0.180370
  37 H :    0.182666
  38 H :    0.160377
  39 H :    0.161378
  40 H :    0.162586

  Mayer bond orders larger than 0.100000
B(  0-C ,  1-C ) :   0.9616 B(  0-C , 19-H ) :   0.9715 B(  0-C , 20-H ) :   0.9712
B(  0-C , 21-H ) :   0.9645 B(  1-C ,  2-O ) :   0.7790 B(  1-C , 22-H ) :   0.9440
B(  1-C , 23-H ) :   0.9529 B(  2-O ,  3-P ) :   1.1428 B(  3-P ,  4-S ) :   1.7458
B(  3-P ,  5-O ) :   1.1532 B(  3-P ,  8-S ) :   1.0197 B(  5-O ,  6-C ) :   0.7636
B(  6-C ,  7-C ) :   0.9306 B(  6-C , 24-H ) :   0.9650 B(  6-C , 25-H ) :   0.9681
B(  7-C , 26-H ) :   0.9670 B(  7-C , 27-H ) :   0.9657 B(  7-C , 28-H ) :   0.9507
B(  8-S ,  9-C ) :   0.9284 B(  9-C , 10-S ) :   0.8801 B(  9-C , 29-H ) :   0.9184
B(  9-C , 30-H ) :   0.9091 B( 10-S , 11-P ) :   0.9712 B( 11-P , 12-S ) :   1.9018
B( 11-P , 13-O ) :   1.1371 B( 11-P , 16-O ) :   1.0332 B( 13-O , 14-C ) :   0.7541
B( 14-C , 15-C ) :   0.9462 B( 14-C , 31-H ) :   0.9638 B( 14-C , 32-H ) :   0.9584
B( 15-C , 33-H ) :   0.9704 B( 15-C , 34-H ) :   0.9677 B( 15-C , 35-H ) :   0.9649
B( 16-O , 17-C ) :   0.7708 B( 17-C , 18-C ) :   0.9354 B( 17-C , 36-H ) :   0.9652
B( 17-C , 37-H ) :   0.9589 B( 18-C , 38-H ) :   0.9699 B( 18-C , 39-H ) :   0.9662
B( 18-C , 40-H ) :   0.9560

Dispersion correction           -0.021295879
FINAL SINGLE POINT ENERGY     -2932.462882819510

DIPOLE MOMENT
-------------

Method             : SCF
Type of density    : Electron Density
Multiplicity       :   1
Irrep              :   0
Energy             : -2932.4879536339153674 Eh
Relativity type    :
Basis              : AO
                                X                 Y                 Z
Electronic contribution:      5.734614167       2.484661579      -7.540784380
Nuclear contribution   :     -6.563362938      -2.062093545       8.201782243
                        -----------------------------------------
Total Dipole Moment    :     -0.828748771       0.422568034       0.660997863
                        -----------------------------------------
Magnitude (a.u.)       :      1.141186419
Magnitude (Debye)      :      2.900665358

Rotational constants in cm-1:             0.013625             0.004394             0.004105
Rotational constants in MHz :           408.477462           131.731110           123.067046

                             ****ORCA TERMINATED NORMALLY****
TOTAL RUN TIME: 0 days 0 hours 1 minutes 18 seconds 255 msec
