                         Program Version 6.0.0  -   RELEASE  -
|  1> ! r2scan-3c def2/J RI DEFGRID2 scfconv6 printgap
|  2> %output
|  3>     printlevel normal
|  4> end
|  5> %cpcm
|  6>     smd true
|  7>     smdsolvent "water"
|  8> end
|  9> * xyz 0 1
| 10> C 6.113977136 0.1740238137 -1.4644455063
| 11> C 4.696218511 0.6410729385 -1.2039778211
| 12> O 3.9723052561 -0.4564475702 -0.6086193264
| 13> P 2.6354679837 -0.1969390407 0.1885746563
| 14> S 2.7217411247 1.1568028 1.6092790449
| 15> O 2.4441583131 -1.6927520022 0.6563448038
| 16> C 1.4233063787 -2.1081284948 1.5845826042
| 17> C 0.3341414739 -2.8749252316 0.8594798298
| 18> S 1.2115447222 0.2131555117 -1.3500547923
| 19> C 0.2009799815 1.4286099518 -0.4569134632
| 20> S -0.8542696225 0.7041878218 0.8244409328
| 21> P -2.4668136157 0.1393966324 -0.4651597747
| 22> S -2.0426519776 -1.1070756986 -1.9108066519
| 23> O -3.0185944879 1.509542363 -1.0144476683
| 24> C -3.5436820968 2.5643218242 -0.1667539696
| 25> C -5.049751179 2.4585234163 -0.0473343138
| 26> O -3.6001106724 -0.3396338778 0.5367942593
| 27> C -3.5858698118 -1.6425872873 1.1519028709
| 28> C -2.9504992871 -1.5841270162 2.5272944609
| 29> H 6.5917538102 -0.1038724427 -0.5293281476
| 30> H 6.1029770943 -0.6893820199 -2.1231207299
| 31> H 6.6746935386 0.9775492628 -1.930529416
| 32> H 4.1911691165 0.9205486998 -2.1331084107
| 33> H 4.6769714 1.4917381836 -0.5133897054
| 34> H 1.9376648363 -2.7487537221 2.3038473691
| 35> H 1.0245998895 -1.2303099168 2.105815019
| 36> H 0.7703110555 -3.7046492389 0.3107138797
| 37> H -0.3778164914 -3.2574947775 1.5836017541
| 38> H -0.1875093741 -2.2363267991 0.1481529281
| 39> H -0.4148695898 1.9229947714 -1.2048895974
| 40> H 0.8583038573 2.1317607066 0.0546989136
| 41> H -3.0629020234 2.5054787141 0.8132667359
| 42> H -3.2507031369 3.4878411036 -0.6698074927
| 43> H -5.5029215196 2.4681154716 -1.0348916605
| 44> H -5.325129669 1.5359104685 0.455668525
| 45> H -5.4193638853 3.3038071496 0.5248858106
| 46> H -4.6371129245 -1.9296009935 1.2143169172
| 47> H -3.0590590075 -2.3388830282 0.4916172334
| 48> H -3.4881126912 -0.8810412033 3.1569576763
| 49> H -2.9895336469 -2.5698455486 2.9795541671
| 50> H -1.9135236065 -1.2630807967 2.4561199903
| 51> *
| 52>
| 53>                          ****END OF INPUT****

CARTESIAN COORDINATES (ANGSTROEM)
---------------------------------
  C      6.113977    0.174024   -1.464446
  C      4.696219    0.641073   -1.203978
  O      3.972305   -0.456448   -0.608619
  P      2.635468   -0.196939    0.188575
  S      2.721741    1.156803    1.609279
  O      2.444158   -1.692752    0.656345
  C      1.423306   -2.108128    1.584583
  C      0.334141   -2.874925    0.859480
  S      1.211545    0.213156   -1.350055
  C      0.200980    1.428610   -0.456913
  S     -0.854270    0.704188    0.824441
  P     -2.466814    0.139397   -0.465160
  S     -2.042652   -1.107076   -1.910807
  O     -3.018594    1.509542   -1.014448
  C     -3.543682    2.564322   -0.166754
  C     -5.049751    2.458523   -0.047334
  O     -3.600111   -0.339634    0.536794
  C     -3.585870   -1.642587    1.151903
  C     -2.950499   -1.584127    2.527294
  H      6.591754   -0.103872   -0.529328
  H      6.102977   -0.689382   -2.123121
  H      6.674694    0.977549   -1.930529
  H      4.191169    0.920549   -2.133108
  H      4.676971    1.491738   -0.513390
  H      1.937665   -2.748754    2.303847
  H      1.024600   -1.230310    2.105815
  H      0.770311   -3.704649    0.310714
  H     -0.377816   -3.257495    1.583602
  H     -0.187509   -2.236327    0.148153
  H     -0.414870    1.922995   -1.204890
  H      0.858304    2.131761    0.054699
  H     -3.062902    2.505479    0.813267
  H     -3.250703    3.487841   -0.669807
  H     -5.502922    2.468115   -1.034892
  H     -5.325130    1.535910    0.455669
  H     -5.419364    3.303807    0.524886
  H     -4.637113   -1.929601    1.214317
  H     -3.059059   -2.338883    0.491617
  H     -3.488113   -0.881041    3.156958
  H     -2.989534   -2.569846    2.979554
  H     -1.913524   -1.263081    2.456120

 Total Charge           Charge          ....    0
 Multiplicity           Mult            ....    1
 Number of Electrons    NEL             ....  202
 Basis Dimension        Dim             ....  539

ORBITAL ENERGIES
----------------

  NO   OCC          E(Eh)            E(eV)
   0   2.0000     -88.578562     -2410.3452
   1   2.0000     -88.577670     -2410.3209
   2   2.0000     -88.530548     -2409.0387
   3   2.0000     -88.527981     -2408.9688
   4   2.0000     -76.920468     -2093.1123
   5   2.0000     -76.919384     -2093.0828
   6   2.0000     -18.997966      -516.9609
   7   2.0000     -18.997196      -516.9400
   8   2.0000     -18.996484      -516.9206
   9   2.0000     -18.995541      -516.8949
  10   2.0000     -10.104847      -274.9669
  11   2.0000     -10.092224      -274.6234
  12   2.0000     -10.092164      -274.6217
  13   2.0000     -10.091069      -274.5919
  14   2.0000     -10.090967      -274.5892
  15   2.0000     -10.020224      -272.6642
  16   2.0000     -10.019760      -272.6515
  17   2.0000     -10.018463      -272.6162
  18   2.0000     -10.015581      -272.5378
  19   2.0000      -7.872331      -214.2170
  20   2.0000      -7.871837      -214.2036
  21   2.0000      -7.825656      -212.9469
  22   2.0000      -7.823011      -212.8749
  23   2.0000      -6.598876      -179.5645
  24   2.0000      -6.598235      -179.5471
  25   2.0000      -5.819251      -158.3499
  26   2.0000      -5.818601      -158.3322
  27   2.0000      -5.816079      -158.2636
  28   2.0000      -5.815675      -158.2526
  29   2.0000      -5.809639      -158.0883
  30   2.0000      -5.809097      -158.0736
  31   2.0000      -5.773115      -157.0945
  32   2.0000      -5.770678      -157.0281
  33   2.0000      -5.766044      -156.9020
  34   2.0000      -5.765667      -156.8918
  35   2.0000      -5.763329      -156.8282
  36   2.0000      -5.762916      -156.8169
  37   2.0000      -4.744820      -129.1131
  38   2.0000      -4.743910      -129.0884
  39   2.0000      -4.743572      -129.0791
  40   2.0000      -4.743326      -129.0725
  41   2.0000      -4.742141      -129.0402
  42   2.0000      -4.741923      -129.0343
  43   2.0000      -1.058274       -28.7971
  44   2.0000      -1.055886       -28.7321
  45   2.0000      -1.015315       -27.6281
  46   2.0000      -1.014448       -27.6045
  47   2.0000      -0.800597       -21.7853
  48   2.0000      -0.757354       -20.6086
  49   2.0000      -0.748297       -20.3622
  50   2.0000      -0.727729       -19.8025
  51   2.0000      -0.721141       -19.6232
  52   2.0000      -0.709155       -19.2971
  53   2.0000      -0.688260       -18.7285
  54   2.0000      -0.675311       -18.3761
  55   2.0000      -0.627957       -17.0876
  56   2.0000      -0.620443       -16.8831
  57   2.0000      -0.602955       -16.4072
  58   2.0000      -0.591935       -16.1074
  59   2.0000      -0.586945       -15.9716
  60   2.0000      -0.530990       -14.4490
  61   2.0000      -0.524533       -14.2733
  62   2.0000      -0.498286       -13.5590
  63   2.0000      -0.496106       -13.4997
  64   2.0000      -0.479131       -13.0378
  65   2.0000      -0.463285       -12.6066
  66   2.0000      -0.454337       -12.3631
  67   2.0000      -0.450490       -12.2585
  68   2.0000      -0.442473       -12.0403
  69   2.0000      -0.430144       -11.7048
  70   2.0000      -0.417990       -11.3741
  71   2.0000      -0.413606       -11.2548
  72   2.0000      -0.405503       -11.0343
  73   2.0000      -0.400347       -10.8940
  74   2.0000      -0.394140       -10.7251
  75   2.0000      -0.384132       -10.4528
  76   2.0000      -0.376546       -10.2463
  77   2.0000      -0.370636       -10.0855
  78   2.0000      -0.366475        -9.9723
  79   2.0000      -0.363282        -9.8854
  80   2.0000      -0.355867        -9.6836
  81   2.0000      -0.355502        -9.6737
  82   2.0000      -0.351869        -9.5749
  83   2.0000      -0.345747        -9.4082
  84   2.0000      -0.342478        -9.3193
  85   2.0000      -0.334877        -9.1125
  86   2.0000      -0.325859        -8.8671
  87   2.0000      -0.315605        -8.5880
  88   2.0000      -0.306899        -8.3512
  89   2.0000      -0.304546        -8.2871
  90   2.0000      -0.303079        -8.2472
  91   2.0000      -0.288126        -7.8403
  92   2.0000      -0.284058        -7.7296
  93   2.0000      -0.280410        -7.6303
  94   2.0000      -0.276667        -7.5285
  95   2.0000      -0.256951        -6.9920
  96   2.0000      -0.235921        -6.4197
  97   2.0000      -0.234632        -6.3847
  98   2.0000      -0.229790        -6.2529
  99   2.0000      -0.221543        -6.0285
 100   2.0000      -0.215608        -5.8670
 101   0.0000      -0.050275        -1.3680
 102   0.0000      -0.035604        -0.9688
 103   0.0000      -0.009612        -0.2616
 104   0.0000      -0.000622        -0.0169
 105   0.0000       0.000124         0.0034

MULLIKEN ATOMIC CHARGES
-----------------------
   0 C :   -0.480402
   1 C :   -0.137504
   2 O :   -0.336888
   3 P :    0.722797
   4 S :   -0.512506
   5 O :   -0.320220
   6 C :   -0.115503
   7 C :   -0.498665
   8 S :   -0.131961
   9 C :   -0.242890
  10 S :   -0.197263
  11 P :    0.683653
  12 S :   -0.471350
  13 O :   -0.326344
  14 C :   -0.094818
  15 C :   -0.501684
  16 O :   -0.304605
  17 C :   -0.150705
  18 C :   -0.462372
  19 H :    0.166307
  20 H :    0.166023
  21 H :    0.169687
  22 H :    0.172290
  23 H :    0.170310
  24 H :    0.175043
  25 H :    0.165733
  26 H :    0.165659
  27 H :    0.174134
  28 H :    0.173382
  29 H :    0.233040
  30 H :    0.235246
  31 H :    0.175027
  32 H :    0.177709
  33 H :    0.167040
  34 H :    0.170290
  35 H :    0.171485
  36 H :    0.177880
  37 H :    0.172097
  38 H :    0.172438
  39 H :    0.173319
  40 H :    0.155091
Sum of atomic charges:    0.0000000

LOEWDIN ATOMIC CHARGES
----------------------
   0 C :   -0.388639
   1 C :    0.025400
   2 O :   -0.672127
   3 P :    0.381892
   4 S :   -0.159614
   5 O :   -0.662179
   6 C :    0.025685
   7 C :   -0.411644
   8 S :    0.137562
   9 C :   -0.414278
  10 S :    0.119403
  11 P :    0.379045
  12 S :   -0.139344
  13 O :   -0.674565
  14 C :    0.031649
  15 C :   -0.395947
  16 O :   -0.673239
  17 C :    0.028626
  18 C :   -0.401512
  19 H :    0.162966
  20 H :    0.163362
  21 H :    0.169144
  22 H :    0.180226
  23 H :    0.181668
  24 H :    0.187741
  25 H :    0.180481
  26 H :    0.162611
  27 H :    0.169730
  28 H :    0.164903
  29 H :    0.200228
  30 H :    0.199773
  31 H :    0.182576
  32 H :    0.190538
  33 H :    0.163404
  34 H :    0.165945
  35 H :    0.169095
  36 H :    0.190597
  37 H :    0.182640
  38 H :    0.164254
  39 H :    0.170459
  40 H :    0.161482

  Mayer bond orders larger than 0.100000
B(  0-C ,  1-C ) :   0.9556 B(  0-C , 19-H ) :   0.9699 B(  0-C , 20-H ) :   0.9688
B(  0-C , 21-H ) :   0.9582 B(  1-C ,  2-O ) :   0.7724 B(  1-C , 22-H ) :   0.9355
B(  1-C , 23-H ) :   0.9480 B(  2-O ,  3-P ) :   1.1449 B(  3-P ,  4-S ) :   1.7249
B(  3-P ,  5-O ) :   1.1516 B(  3-P ,  8-S ) :   1.0356 B(  5-O ,  6-C ) :   0.7527
B(  6-C ,  7-C ) :   0.9276 B(  6-C , 24-H ) :   0.9549 B(  6-C , 25-H ) :   0.9606
B(  7-C , 26-H ) :   0.9677 B(  7-C , 27-H ) :   0.9584 B(  7-C , 28-H ) :   0.9552
B(  8-S ,  9-C ) :   0.9177 B(  9-C , 10-S ) :   0.8755 B(  9-C , 29-H ) :   0.9060
B(  9-C , 30-H ) :   0.9063 B( 10-S , 11-P ) :   0.9824 B( 11-P , 12-S ) :   1.8528
B( 11-P , 13-O ) :   1.1519 B( 11-P , 16-O ) :   1.0510 B( 13-O , 14-C ) :   0.7439
B( 14-C , 15-C ) :   0.9332 B( 14-C , 31-H ) :   0.9569 B( 14-C , 32-H ) :   0.9500
B( 15-C , 33-H ) :   0.9694 B( 15-C , 34-H ) :   0.9671 B( 15-C , 35-H ) :   0.9587
B( 16-O , 17-C ) :   0.7618 B( 17-C , 18-C ) :   0.9355 B( 17-C , 36-H ) :   0.9545
B( 17-C , 37-H ) :   0.9558 B( 18-C , 38-H ) :   0.9692 B( 18-C , 39-H ) :   0.9594
B( 18-C , 40-H ) :   0.9531

Dispersion correction           -0.021295879
FINAL SINGLE POINT ENERGY     -2932.473520365310

DIPOLE MOMENT
-------------

Method             : SCF
Type of density    : Electron Density
Multiplicity       :   1
Irrep              :   0
Energy             : -2932.4985911797157314 Eh
Relativity type    :
Basis              : AO
                                X                 Y                 Z
Electronic contribution:      5.423516734       2.837982785      -7.112285785
Nuclear contribution   :     -6.563362938      -2.062093545       8.201782243
                        -----------------------------------------
Total Dipole Moment    :     -1.139846204       0.775889240       1.089496459
                        -----------------------------------------
Magnitude (a.u.)       :      1.757343454
Magnitude (Debye)      :      4.466812077

Rotational constants in cm-1:             0.013625             0.004394             0.004105
Rotational constants in MHz :           408.477462           131.731110           123.067046

                             ****ORCA TERMINATED NORMALLY****
TOTAL RUN TIME: 0 days 0 hours 1 minutes 46 seconds 68 msec
