                         Program Version 6.0.0  -   RELEASE  -
|  1> ! pbe def2-sv(p) def2/J RI DEFGRID1 loosescf d4 GCP(DFT/SV(P)) printgap
|  2> %output
|  3>     printlevel normal
|  4> end
|  5> * xyz 0 1
|  6> C 3.3552036415 1.778591427 -1.8628528924
|  7> C 2.0999667826 0.9515527183 -2.0416544991
|  8> O 2.1708292446 -0.2783342984 -1.2985042157
|  9> P 2.1768390578 -0.3403508782 0.2852530741
| 10> S 1.1539241674 1.0940952094 1.1624661703
| 11> O 3.7355473252 -0.3875526646 0.5794201314
| 12> C 4.3537001975 -0.9306202332 1.7610733543
| 13> C 3.7602658308 -0.385711518 3.0435218668
| 14> S 1.5437245493 -2.319668228 0.623075296
| 15> C -0.2398585265 -2.0311658366 0.6288726295
| 16> S -0.8751823763 -1.4615532151 -0.9875815553
| 17> P -2.0039900997 0.2228758527 -0.3899383433
| 18> S -2.4468182023 0.3320355611 1.5197798994
| 19> O -3.2305681127 0.158570917 -1.4021722801
| 20> C -4.2572438426 -0.8480569512 -1.3232513795
| 21> C -5.4215865487 -0.3793769324 -0.4716453742
| 22> O -1.2049134632 1.4344102869 -1.0225864156
| 23> C -1.3662969611 2.7826472688 -0.5350846733
| 24> C -2.7631708059 3.3065053158 -0.7861408757
| 25> H 4.2294095329 1.1949578929 -2.1386348355
| 26> H 3.2980826947 2.666288924 -2.484915895
| 27> H 3.4489278689 2.0779557035 -0.819037099
| 28> H 1.9659955962 0.6248423655 -3.0738637436
| 29> H 1.2146064038 1.5060882278 -1.7143686297
| 30> H 4.2579896198 -2.0191431069 1.7221357038
| 31> H 5.4020144571 -0.6459216608 1.6544187564
| 32> H 4.3188537644 -0.7700581981 3.890855074
| 33> H 3.79880446 0.701228466 3.0501733729
| 34> H 2.7193153292 -0.6934742756 3.1373325809
| 35> H -0.5005618345 -1.2844457583 1.3848527965
| 36> H -0.692869442 -2.9924867278 0.8575142174
| 37> H -4.5618856734 -1.0065066975 -2.3595253166
| 38> H -3.8264754377 -1.7719630607 -0.9259701043
| 39> H -6.1964431348 -1.1390668465 -0.4777333044
| 40> H -5.0968844582 -0.2124423316 0.5529856148
| 41> H -5.8249046172 0.5484161659 -0.8677108923
| 42> H -1.1239329958 2.7941556831 0.5330791408
| 43> H -0.6130175057 3.3518932642 -1.0819072667
| 44> H -3.4811473286 2.7322112525 -0.2016209952
| 45> H -2.8153330415 4.3482884089 -0.4859886686
| 46> H -3.0130998768 3.2155217198 -1.8399788697
| 47> *
| 48>
| 49>                          ****END OF INPUT****

CARTESIAN COORDINATES (ANGSTROEM)
---------------------------------
  C      3.355204    1.778591   -1.862853
  C      2.099967    0.951553   -2.041654
  O      2.170829   -0.278334   -1.298504
  P      2.176839   -0.340351    0.285253
  S      1.153924    1.094095    1.162466
  O      3.735547   -0.387553    0.579420
  C      4.353700   -0.930620    1.761073
  C      3.760266   -0.385712    3.043522
  S      1.543725   -2.319668    0.623075
  C     -0.239859   -2.031166    0.628873
  S     -0.875182   -1.461553   -0.987582
  P     -2.003990    0.222876   -0.389938
  S     -2.446818    0.332036    1.519780
  O     -3.230568    0.158571   -1.402172
  C     -4.257244   -0.848057   -1.323251
  C     -5.421587   -0.379377   -0.471645
  O     -1.204913    1.434410   -1.022586
  C     -1.366297    2.782647   -0.535085
  C     -2.763171    3.306505   -0.786141
  H      4.229410    1.194958   -2.138635
  H      3.298083    2.666289   -2.484916
  H      3.448928    2.077956   -0.819037
  H      1.965996    0.624842   -3.073864
  H      1.214606    1.506088   -1.714369
  H      4.257990   -2.019143    1.722136
  H      5.402014   -0.645922    1.654419
  H      4.318854   -0.770058    3.890855
  H      3.798804    0.701228    3.050173
  H      2.719315   -0.693474    3.137333
  H     -0.500562   -1.284446    1.384853
  H     -0.692869   -2.992487    0.857514
  H     -4.561886   -1.006507   -2.359525
  H     -3.826475   -1.771963   -0.925970
  H     -6.196443   -1.139067   -0.477733
  H     -5.096884   -0.212442    0.552986
  H     -5.824905    0.548416   -0.867711
  H     -1.123933    2.794156    0.533079
  H     -0.613018    3.351893   -1.081907
  H     -3.481147    2.732211   -0.201621
  H     -2.815333    4.348288   -0.485989
  H     -3.013100    3.215522   -1.839979

 Total Charge           Charge          ....    0
 Multiplicity           Mult            ....    1
 Number of Electrons    NEL             ....  202
 Basis Dimension        Dim             ....  334

ORBITAL ENERGIES
----------------

  NO   OCC          E(Eh)            E(eV)
   0   2.0000     -88.044929     -2395.8243
   1   2.0000     -88.041448     -2395.7296
   2   2.0000     -87.985614     -2394.2103
   3   2.0000     -87.981395     -2394.0955
   4   2.0000     -76.424544     -2079.6176
   5   2.0000     -76.424327     -2079.6117
   6   2.0000     -18.791696      -511.3480
   7   2.0000     -18.789852      -511.2979
   8   2.0000     -18.786319      -511.2017
   9   2.0000     -18.781578      -511.0727
  10   2.0000      -9.957859      -270.9671
  11   2.0000      -9.954537      -270.8767
  12   2.0000      -9.952238      -270.8142
  13   2.0000      -9.946257      -270.6514
  14   2.0000      -9.943095      -270.5654
  15   2.0000      -9.882244      -268.9095
  16   2.0000      -9.879490      -268.8346
  17   2.0000      -9.879346      -268.8307
  18   2.0000      -9.878055      -268.7956
  19   2.0000      -7.690496      -209.2690
  20   2.0000      -7.686332      -209.1557
  21   2.0000      -7.630532      -207.6373
  22   2.0000      -7.625993      -207.5138
  23   2.0000      -6.421933      -174.7497
  24   2.0000      -6.421466      -174.7370
  25   2.0000      -5.718360      -155.6045
  26   2.0000      -5.714837      -155.5086
  27   2.0000      -5.714195      -155.4911
  28   2.0000      -5.710874      -155.4008
  29   2.0000      -5.707569      -155.3109
  30   2.0000      -5.703287      -155.1943
  31   2.0000      -5.659366      -153.9992
  32   2.0000      -5.654887      -153.8773
  33   2.0000      -5.651279      -153.7791
  34   2.0000      -5.650627      -153.7614
  35   2.0000      -5.646801      -153.6573
  36   2.0000      -5.646034      -153.6364
  37   2.0000      -4.644238      -126.3761
  38   2.0000      -4.643958      -126.3685
  39   2.0000      -4.643641      -126.3599
  40   2.0000      -4.643408      -126.3536
  41   2.0000      -4.642722      -126.3349
  42   2.0000      -4.641911      -126.3128
  43   2.0000      -0.984248       -26.7827
  44   2.0000      -0.982919       -26.7466
  45   2.0000      -0.941554       -25.6210
  46   2.0000      -0.940792       -25.6002
  47   2.0000      -0.762342       -20.7444
  48   2.0000      -0.718982       -19.5645
  49   2.0000      -0.706000       -19.2112
  50   2.0000      -0.685074       -18.6418
  51   2.0000      -0.682934       -18.5836
  52   2.0000      -0.673051       -18.3146
  53   2.0000      -0.651264       -17.7218
  54   2.0000      -0.635498       -17.2928
  55   2.0000      -0.598267       -16.2797
  56   2.0000      -0.590846       -16.0777
  57   2.0000      -0.573314       -15.6007
  58   2.0000      -0.566182       -15.4066
  59   2.0000      -0.560813       -15.2605
  60   2.0000      -0.499240       -13.5850
  61   2.0000      -0.488983       -13.3059
  62   2.0000      -0.470358       -12.7991
  63   2.0000      -0.465910       -12.6780
  64   2.0000      -0.451324       -12.2812
  65   2.0000      -0.445277       -12.1166
  66   2.0000      -0.436463       -11.8768
  67   2.0000      -0.432584       -11.7712
  68   2.0000      -0.427016       -11.6197
  69   2.0000      -0.415530       -11.3071
  70   2.0000      -0.408117       -11.1054
  71   2.0000      -0.399524       -10.8716
  72   2.0000      -0.390351       -10.6220
  73   2.0000      -0.386191       -10.5088
  74   2.0000      -0.385309       -10.4848
  75   2.0000      -0.371041       -10.0965
  76   2.0000      -0.368351       -10.0233
  77   2.0000      -0.352971        -9.6048
  78   2.0000      -0.346601        -9.4315
  79   2.0000      -0.345614        -9.4046
  80   2.0000      -0.343741        -9.3537
  81   2.0000      -0.339912        -9.2495
  82   2.0000      -0.336196        -9.1483
  83   2.0000      -0.335191        -9.1210
  84   2.0000      -0.331342        -9.0163
  85   2.0000      -0.313509        -8.5310
  86   2.0000      -0.311224        -8.4688
  87   2.0000      -0.295739        -8.0475
  88   2.0000      -0.293888        -7.9971
  89   2.0000      -0.284621        -7.7449
  90   2.0000      -0.283313        -7.7093
  91   2.0000      -0.271211        -7.3800
  92   2.0000      -0.268366        -7.3026
  93   2.0000      -0.261520        -7.1163
  94   2.0000      -0.258301        -7.0287
  95   2.0000      -0.232579        -6.3288
  96   2.0000      -0.223502        -6.0818
  97   2.0000      -0.212549        -5.7837
  98   2.0000      -0.201128        -5.4730
  99   2.0000      -0.194915        -5.3039
 100   2.0000      -0.187180        -5.0934
 101   0.0000      -0.040248        -1.0952
 102   0.0000      -0.031602        -0.8599
 103   0.0000      -0.009821        -0.2672
 104   0.0000       0.016305         0.4437
 105   0.0000       0.020011         0.5445

MULLIKEN ATOMIC CHARGES
-----------------------
   0 C :   -0.305382
   1 C :   -0.024119
   2 O :   -0.357875
   3 P :    0.611050
   4 S :   -0.325924
   5 O :   -0.373821
   6 C :   -0.010863
   7 C :   -0.311223
   8 S :   -0.098968
   9 C :   -0.354767
  10 S :   -0.088046
  11 P :    0.614112
  12 S :   -0.317957
  13 O :   -0.371683
  14 C :   -0.005570
  15 C :   -0.295315
  16 O :   -0.360329
  17 C :   -0.009851
  18 C :   -0.299317
  19 H :    0.113489
  20 H :    0.106856
  21 H :    0.121042
  22 H :    0.102272
  23 H :    0.136799
  24 H :    0.113522
  25 H :    0.109452
  26 H :    0.110819
  27 H :    0.126409
  28 H :    0.127913
  29 H :    0.212438
  30 H :    0.179977
  31 H :    0.106115
  32 H :    0.095090
  33 H :    0.106248
  34 H :    0.128879
  35 H :    0.113331
  36 H :    0.123862
  37 H :    0.102060
  38 H :    0.125280
  39 H :    0.109953
  40 H :    0.114040
Sum of atomic charges:    0.0000000

LOEWDIN ATOMIC CHARGES
----------------------
   0 C :   -0.365656
   1 C :   -0.119600
   2 O :   -0.238226
   3 P :    0.567893
   4 S :   -0.305713
   5 O :   -0.244816
   6 C :   -0.113241
   7 C :   -0.370069
   8 S :    0.082281
   9 C :   -0.478507
  10 S :    0.083438
  11 P :    0.573197
  12 S :   -0.303276
  13 O :   -0.245767
  14 C :   -0.117301
  15 C :   -0.365036
  16 O :   -0.234768
  17 C :   -0.118207
  18 C :   -0.366497
  19 H :    0.124803
  20 H :    0.127663
  21 H :    0.121365
  22 H :    0.118671
  23 H :    0.113871
  24 H :    0.109706
  25 H :    0.121696
  26 H :    0.129700
  27 H :    0.129705
  28 H :    0.121716
  29 H :    0.124935
  30 H :    0.135346
  31 H :    0.118382
  32 H :    0.103517
  33 H :    0.128051
  34 H :    0.123384
  35 H :    0.124793
  36 H :    0.110602
  37 H :    0.115025
  38 H :    0.121771
  39 H :    0.130044
  40 H :    0.125125

  Mayer bond orders larger than 0.100000
B(  0-C ,  1-C ) :   1.1605 B(  0-C , 19-H ) :   0.9453 B(  0-C , 20-H ) :   0.9399
B(  0-C , 21-H ) :   0.9346 B(  1-C ,  2-O ) :   0.9031 B(  1-C , 22-H ) :   0.9342
B(  1-C , 23-H ) :   0.9072 B(  2-O ,  3-P ) :   1.1313 B(  3-P ,  4-S ) :   1.6106
B(  3-P ,  5-O ) :   1.1057 B(  3-P ,  8-S ) :   0.9482 B(  4-S ,  8-S ) :   0.1095
B(  5-O ,  6-C ) :   0.9149 B(  6-C ,  7-C ) :   1.1639 B(  6-C , 24-H ) :   0.9288
B(  6-C , 25-H ) :   0.9344 B(  7-C , 26-H ) :   0.9346 B(  7-C , 27-H ) :   0.9422
B(  7-C , 28-H ) :   0.9330 B(  8-S ,  9-C ) :   1.0067 B(  9-C , 10-S ) :   0.9933
B(  9-C , 29-H ) :   0.8464 B(  9-C , 30-H ) :   0.9117 B( 10-S , 11-P ) :   0.9668
B( 10-S , 12-S ) :   0.1207 B( 11-P , 12-S ) :   1.5959 B( 11-P , 13-O ) :   1.0999
B( 11-P , 16-O ) :   1.1305 B( 13-O , 14-C ) :   0.9107 B( 14-C , 15-C ) :   1.1656
B( 14-C , 31-H ) :   0.9366 B( 14-C , 32-H ) :   0.9130 B( 15-C , 33-H ) :   0.9397
B( 15-C , 34-H ) :   0.9301 B( 15-C , 35-H ) :   0.9464 B( 16-O , 17-C ) :   0.8971
B( 17-C , 18-C ) :   1.1642 B( 17-C , 36-H ) :   0.9145 B( 17-C , 37-H ) :   0.9312
B( 18-C , 38-H ) :   0.9321 B( 18-C , 39-H ) :   0.9379 B( 18-C , 40-H ) :   0.9448

Dispersion correction           -0.067532634
FINAL SINGLE POINT ENERGY     -2929.519796046886

DIPOLE MOMENT
-------------

Method             : SCF
Type of density    : Electron Density
Multiplicity       :   1
Irrep              :   0
Energy             : -2929.6378140696815535 Eh
Relativity type    :
Basis              : AO
                                X                 Y                 Z
Electronic contribution:      3.233022235     -12.708641812       1.076629715
Nuclear contribution   :     -3.015932343      12.595446982      -1.603664264
                        -----------------------------------------
Total Dipole Moment    :      0.217089892      -0.113194830      -0.527034549
                        -----------------------------------------
Magnitude (a.u.)       :      0.581125207
Magnitude (Debye)      :      1.477102889

Rotational constants in cm-1:             0.013278             0.005173             0.004743
Rotational constants in MHz :           398.060664           155.076904           142.190241

                             ****ORCA TERMINATED NORMALLY****
TOTAL RUN TIME: 0 days 0 hours 0 minutes 21 seconds 825 msec
