                         Program Version 6.0.1  -  RELEASE   -
|  1> ! pbe def2-sv(p) def2/J RI DEFGRID1 loosescf d4 GCP(DFT/SV(P)) printgap
|  2> %output
|  3>     printlevel normal
|  4> end
|  5> * xyz 0 1
|  6> C 3.5214645772 -3.9162613275 0.0507207189
|  7> C 3.8841228308 -2.9571592007 -1.0713963541
|  8> O 2.699527431 -2.3782789111 -1.6585919843
|  9> C 2.1819963582 -1.3051287484 -1.1082782483
| 10> O 2.6454185802 -0.7275070833 -0.1444364184
| 11> C 0.9090507974 -0.8752214896 -1.8017722514
| 12> C 0.5866416133 0.5887810086 -1.5025250952
| 13> H 1.0751786295 1.2681766721 -2.2006940801
| 14> C 0.9402489618 0.9859255148 -0.0837812295
| 15> O 0.3092599301 0.5341868611 0.8605205434
| 16> O 1.8448649907 1.9161842641 -0.0153610522
| 17> C 2.2154669177 2.4188408808 1.2879541317
| 18> C 1.2473077975 3.4945169422 1.7523101105
| 19> S -1.2088814417 0.8987083462 -1.6276544901
| 20> P -1.9804066648 0.2637955711 0.2524954728
| 21> S -2.2180121187 1.4004381178 1.8432840864
| 22> O -3.3939395053 0.0892559153 -0.5031573501
| 23> C -4.6145399321 -0.1594271534 0.1949276621
| 24> O -1.6549799376 -1.286484285 0.5287460491
| 25> C -0.9513344655 -1.7793396015 1.6658903037
| 26> H 2.8381519717 -4.6784203554 -0.3133303247
| 27> H 4.423614057 -4.3920335184 0.4205376994
| 28> H 3.0489683302 -3.3768716828 0.8690060881
| 29> H 4.367323858 -3.4767927281 -1.8984291489
| 30> H 4.5204691302 -2.1486374401 -0.7013528256
| 31> H 0.1108691452 -1.5190226833 -1.418608593
| 32> H 0.9840253765 -1.0481467012 -2.8739778795
| 33> H 2.2367274352 1.5791711311 1.9870362621
| 34> H 3.2184322359 2.8185717324 1.1405610051
| 35> H 0.2525412218 3.0774259857 1.9008953613
| 36> H 1.5945038818 3.9036155898 2.6951039885
| 37> H 1.1883111104 4.2904559591 1.0150920293
| 38> H -4.6607681977 0.4468722772 1.1027649232
| 39> H -4.6858309277 -1.2158940204 0.4520717404
| 40> H -5.4110213497 0.1228997045 -0.4891749379
| 41> H -1.0934683647 -1.1096976463 2.5157235105
| 42> H 0.1131273702 -1.8488299003 1.4437651974
| 43> H -1.3702228811 -2.7612705978 1.8738785952
| 44> *
| 45>
| 46>                          ****END OF INPUT****

CARTESIAN COORDINATES (ANGSTROEM)
---------------------------------
  C      3.521465   -3.916261    0.050721
  C      3.884123   -2.957159   -1.071396
  O      2.699527   -2.378279   -1.658592
  C      2.181996   -1.305129   -1.108278
  O      2.645419   -0.727507   -0.144436
  C      0.909051   -0.875221   -1.801772
  C      0.586642    0.588781   -1.502525
  H      1.075179    1.268177   -2.200694
  C      0.940249    0.985926   -0.083781
  O      0.309260    0.534187    0.860521
  O      1.844865    1.916184   -0.015361
  C      2.215467    2.418841    1.287954
  C      1.247308    3.494517    1.752310
  S     -1.208881    0.898708   -1.627654
  P     -1.980407    0.263796    0.252495
  S     -2.218012    1.400438    1.843284
  O     -3.393940    0.089256   -0.503157
  C     -4.614540   -0.159427    0.194928
  O     -1.654980   -1.286484    0.528746
  C     -0.951334   -1.779340    1.665890
  H      2.838152   -4.678420   -0.313330
  H      4.423614   -4.392034    0.420538
  H      3.048968   -3.376872    0.869006
  H      4.367324   -3.476793   -1.898429
  H      4.520469   -2.148637   -0.701353
  H      0.110869   -1.519023   -1.418609
  H      0.984025   -1.048147   -2.873978
  H      2.236727    1.579171    1.987036
  H      3.218432    2.818572    1.140561
  H      0.252541    3.077426    1.900895
  H      1.594504    3.903616    2.695104
  H      1.188311    4.290456    1.015092
  H     -4.660768    0.446872    1.102765
  H     -4.685831   -1.215894    0.452072
  H     -5.411021    0.122900   -0.489175
  H     -1.093468   -1.109698    2.515724
  H      0.113127   -1.848830    1.443765
  H     -1.370223   -2.761271    1.873879

 Total Charge           Charge          ....    0
 Multiplicity           Mult            ....    1
 Number of Electrons    NEL             ....  174
 Basis Dimension        Dim             ....  316

ORBITAL ENERGIES
----------------

  NO   OCC          E(Eh)            E(eV)
   0   2.0000     -88.032864     -2395.4960
   1   2.0000     -87.963366     -2393.6049
   2   2.0000     -76.413830     -2079.3260
   3   2.0000     -18.820901      -512.1428
   4   2.0000     -18.810833      -511.8688
   5   2.0000     -18.779792      -511.0241
   6   2.0000     -18.764968      -510.6207
   7   2.0000     -18.760055      -510.4870
   8   2.0000     -18.753477      -510.3080
   9   2.0000     -10.028895      -272.9001
  10   2.0000     -10.024116      -272.7701
  11   2.0000      -9.962458      -271.0923
  12   2.0000      -9.948173      -270.7035
  13   2.0000      -9.946871      -270.6681
  14   2.0000      -9.930388      -270.2196
  15   2.0000      -9.924878      -270.0697
  16   2.0000      -9.919992      -269.9367
  17   2.0000      -9.899250      -269.3723
  18   2.0000      -9.875861      -268.7358
  19   2.0000      -7.677664      -208.9199
  20   2.0000      -7.608346      -207.0336
  21   2.0000      -6.409149      -174.4018
  22   2.0000      -5.706192      -155.2734
  23   2.0000      -5.702029      -155.1601
  24   2.0000      -5.694168      -154.9462
  25   2.0000      -5.637502      -153.4042
  26   2.0000      -5.629221      -153.1789
  27   2.0000      -5.627981      -153.1451
  28   2.0000      -4.632079      -126.0453
  29   2.0000      -4.631184      -126.0209
  30   2.0000      -4.629537      -125.9761
  31   2.0000      -1.030813       -28.0499
  32   2.0000      -1.022255       -27.8170
  33   2.0000      -0.964383       -26.2422
  34   2.0000      -0.937389       -25.5077
  35   2.0000      -0.930851       -25.3298
  36   2.0000      -0.920932       -25.0598
  37   2.0000      -0.765765       -20.8375
  38   2.0000      -0.724174       -19.7058
  39   2.0000      -0.703042       -19.1307
  40   2.0000      -0.688952       -18.7473
  41   2.0000      -0.656131       -17.8542
  42   2.0000      -0.621717       -16.9178
  43   2.0000      -0.612240       -16.6599
  44   2.0000      -0.609390       -16.5823
  45   2.0000      -0.605726       -16.4827
  46   2.0000      -0.561064       -15.2673
  47   2.0000      -0.514195       -13.9920
  48   2.0000      -0.506188       -13.7741
  49   2.0000      -0.497170       -13.5287
  50   2.0000      -0.485676       -13.2159
  51   2.0000      -0.467690       -12.7265
  52   2.0000      -0.461305       -12.5527
  53   2.0000      -0.447668       -12.1817
  54   2.0000      -0.442459       -12.0399
  55   2.0000      -0.435793       -11.8585
  56   2.0000      -0.433866       -11.8061
  57   2.0000      -0.420086       -11.4311
  58   2.0000      -0.410239       -11.1632
  59   2.0000      -0.408872       -11.1260
  60   2.0000      -0.401434       -10.9236
  61   2.0000      -0.395981       -10.7752
  62   2.0000      -0.388497       -10.5715
  63   2.0000      -0.386047       -10.5049
  64   2.0000      -0.376434       -10.2433
  65   2.0000      -0.369771       -10.0620
  66   2.0000      -0.362028        -9.8513
  67   2.0000      -0.355622        -9.6770
  68   2.0000      -0.348532        -9.4840
  69   2.0000      -0.344492        -9.3741
  70   2.0000      -0.335809        -9.1378
  71   2.0000      -0.328531        -8.9398
  72   2.0000      -0.324315        -8.8251
  73   2.0000      -0.311694        -8.4816
  74   2.0000      -0.299147        -8.1402
  75   2.0000      -0.295254        -8.0343
  76   2.0000      -0.290025        -7.8920
  77   2.0000      -0.281437        -7.6583
  78   2.0000      -0.269696        -7.3388
  79   2.0000      -0.264425        -7.1954
  80   2.0000      -0.257303        -7.0016
  81   2.0000      -0.251450        -6.8423
  82   2.0000      -0.244142        -6.6434
  83   2.0000      -0.237473        -6.4620
  84   2.0000      -0.213792        -5.8176
  85   2.0000      -0.182936        -4.9780
  86   2.0000      -0.174848        -4.7579
  87   0.0000      -0.052661        -1.4330
  88   0.0000      -0.041865        -1.1392
  89   0.0000      -0.016836        -0.4581
  90   0.0000       0.012276         0.3340
  91   0.0000       0.029128         0.7926

MULLIKEN ATOMIC CHARGES
-----------------------
   0 C :   -0.310693
   1 C :   -0.014561
   2 O :   -0.220952
   3 C :    0.128579
   4 O :   -0.207509
   5 C :   -0.067792
   6 C :   -0.296778
   7 H :    0.131878
   8 C :    0.222323
   9 O :   -0.226645
  10 O :   -0.204456
  11 C :   -0.006101
  12 C :   -0.321402
  13 S :   -0.063799
  14 P :    0.648371
  15 S :   -0.330031
  16 O :   -0.401353
  17 C :   -0.096231
  18 O :   -0.394423
  19 C :   -0.100988
  20 H :    0.119479
  21 H :    0.118853
  22 H :    0.130976
  23 H :    0.109499
  24 H :    0.113222
  25 H :    0.146955
  26 H :    0.123528
  27 H :    0.113936
  28 H :    0.102221
  29 H :    0.152691
  30 H :    0.109190
  31 H :    0.110704
  32 H :    0.113224
  33 H :    0.103675
  34 H :    0.116453
  35 H :    0.119755
  36 H :    0.115312
  37 H :    0.112891
Sum of atomic charges:    0.0000000

LOEWDIN ATOMIC CHARGES
----------------------
   0 C :   -0.355706
   1 C :   -0.108772
   2 O :   -0.050626
   3 C :    0.041213
   4 O :   -0.152778
   5 C :   -0.255474
   6 C :   -0.262481
   7 H :    0.141659
   8 C :    0.019629
   9 O :   -0.167142
  10 O :   -0.027477
  11 C :   -0.102322
  12 C :   -0.362301
  13 S :    0.127884
  14 P :    0.589580
  15 S :   -0.327073
  16 O :   -0.276376
  17 C :   -0.218387
  18 O :   -0.259274
  19 C :   -0.219725
  20 H :    0.127450
  21 H :    0.133883
  22 H :    0.130647
  23 H :    0.121252
  24 H :    0.121943
  25 H :    0.153717
  26 H :    0.145862
  27 H :    0.123881
  28 H :    0.118382
  29 H :    0.131484
  30 H :    0.130104
  31 H :    0.124338
  32 H :    0.104976
  33 H :    0.108004
  34 H :    0.117868
  35 H :    0.111110
  36 H :    0.106696
  37 H :    0.114356

  Mayer bond orders larger than 0.100000
B(  0-C ,  1-C ) :   1.1752 B(  0-C , 20-H ) :   0.9484 B(  0-C , 21-H ) :   0.9428
B(  0-C , 22-H ) :   0.9449 B(  1-C ,  2-O ) :   0.9060 B(  1-C , 23-H ) :   0.9364
B(  1-C , 24-H ) :   0.9152 B(  2-O ,  3-C ) :   1.2587 B(  3-C ,  4-O ) :   1.9488
B(  3-C ,  5-C ) :   1.0114 B(  4-O ,  8-C ) :   0.1248 B(  5-C ,  6-C ) :   0.9975
B(  5-C , 25-H ) :   0.8677 B(  5-C , 26-H ) :   0.9032 B(  6-C ,  7-H ) :   0.8837
B(  6-C ,  8-C ) :   0.9169 B(  6-C , 13-S ) :   1.0258 B(  8-C ,  9-O ) :   1.8145
B(  8-C , 10-O ) :   1.2997 B(  9-O , 14-P ) :   0.1797 B( 10-O , 11-C ) :   0.8968
B( 11-C , 12-C ) :   1.1742 B( 11-C , 27-H ) :   0.9170 B( 11-C , 28-H ) :   0.9380
B( 12-C , 29-H ) :   0.9231 B( 12-C , 30-H ) :   0.9418 B( 12-C , 31-H ) :   0.9466
B( 13-S , 14-P ) :   0.9220 B( 14-P , 15-S ) :   1.5705 B( 14-P , 16-O ) :   1.0500
B( 14-P , 18-O ) :   1.0524 B( 16-O , 17-C ) :   0.9434 B( 17-C , 32-H ) :   0.9259
B( 17-C , 33-H ) :   0.9533 B( 17-C , 34-H ) :   0.9605 B( 18-O , 19-C ) :   0.9315
B( 19-C , 35-H ) :   0.9318 B( 19-C , 36-H ) :   0.9446 B( 19-C , 37-H ) :   0.9533

Dispersion correction           -0.052290946
FINAL SINGLE POINT ENERGY     -1979.005683117278

DIPOLE MOMENT
-------------

Method             : SCF
Type of density    : Electron Density
Multiplicity       :   1
Irrep              :   0
Energy             : -1979.1385933178148662 Eh
Relativity type    :
Basis              : AO
                                X                 Y                 Z
Electronic contribution:    -12.129165094       8.456735340      -7.303515203
Nuclear contribution   :     13.867556231      -9.775609124       6.810207442
                        -----------------------------------------
Total Dipole Moment    :      1.738391137      -1.318873784      -0.493307761
                        -----------------------------------------
Magnitude (a.u.)       :      2.237137535
Magnitude (Debye)      :      5.686351712

Rotational constants in cm-1:             0.013385             0.006997             0.005829
Rotational constants in MHz :           401.275977           209.751541           174.746045

                             ****ORCA TERMINATED NORMALLY****
TOTAL RUN TIME: 0 days 0 hours 0 minutes 35 seconds 233 msec
