                         Program Version 6.0.0  -   RELEASE  -
|  1> ! pbe def2-sv(p) def2/J RI DEFGRID1 loosescf d4 GCP(DFT/SV(P)) printgap
|  2> %output
|  3>     printlevel normal
|  4> end
|  5> * xyz 0 1
|  6> C 0.6747785004 -2.6609656645 0.8895360567
|  7> C 1.9068248046 -2.051307492 1.5265352728
|  8> O 2.150584244 -0.7119739245 1.0701616293
|  9> P 2.5634696826 -0.3889250105 -0.4371034902
| 10> S 3.6234109958 -1.7741758736 -1.3260105461
| 11> O 3.253261171 1.0332928856 -0.2819249683
| 12> C 4.672747913 1.1650351708 -0.0575213697
| 13> C 5.0812571669 0.6496922603 1.3063923549
| 14> S 0.7916790353 0.232941081 -1.4067497547
| 15> C 0.2760629163 1.5338568862 -0.2377485756
| 16> S -0.6349006726 0.9103905744 1.1917252597
| 17> P -2.3973523241 0.4145621378 0.137878744
| 18> S -2.9277399895 1.6380464803 -1.308352367
| 19> O -3.4560921057 0.1224574913 1.2846127868
| 20> C -3.7550039443 0.9940098081 2.3909475701
| 21> C -4.0740289369 2.410003871 1.9580575662
| 22> O -2.078576298 -1.0612496727 -0.3480896799
| 23> C -2.6786068244 -1.6353645285 -1.5219148638
| 24> C -4.1313044752 -1.98259768 -1.2733283824
| 25> H 0.8150596944 -2.7278514145 -0.1901171987
| 26> H 0.5201822332 -3.6593042479 1.2860177114
| 27> H -0.2057608683 -2.0555973846 1.0906408354
| 28> H 2.7882972303 -2.6586958458 1.2965289414
| 29> H 1.793453946 -1.9451526233 2.6060253278
| 30> H 5.1986761457 0.6223899503 -0.8491896637
| 31> H 4.8529877164 2.2361127873 -0.1586652346
| 32> H 4.9401251185 -0.429293585 1.3516734728
| 33> H 6.1297377128 0.8745775155 1.4750118126
| 34> H 4.4805293604 1.1169957947 2.0823112259
| 35> H -0.373871615 2.1987530636 -0.8084528321
| 36> H 1.15271006 2.0549670947 0.1335584919
| 37> H -4.6150700223 0.5187908582 2.8661514708
| 38> H -2.8999229991 0.9812793185 3.072505038
| 39> H -4.8780871466 2.4121265375 1.2258223087
| 40> H -4.3750358525 2.9922606185 2.8230325078
| 41> H -3.1968472342 2.872285753 1.5071358479
| 42> H -2.5822040258 -0.9245666465 -2.3494789434
| 43> H -2.0742384893 -2.5197759974 -1.7272177305
| 44> H -4.546185675 -2.4629925855 -2.1537036062
| 45> H -4.2169388441 -2.6488987144 -0.4193181361
| 46> H -4.692458118 -1.0718245493 -1.065623088
| 47> *
| 48>
| 49>                          ****END OF INPUT****

CARTESIAN COORDINATES (ANGSTROEM)
---------------------------------
  C      0.674779   -2.660966    0.889536
  C      1.906825   -2.051307    1.526535
  O      2.150584   -0.711974    1.070162
  P      2.563470   -0.388925   -0.437103
  S      3.623411   -1.774176   -1.326011
  O      3.253261    1.033293   -0.281925
  C      4.672748    1.165035   -0.057521
  C      5.081257    0.649692    1.306392
  S      0.791679    0.232941   -1.406750
  C      0.276063    1.533857   -0.237749
  S     -0.634901    0.910391    1.191725
  P     -2.397352    0.414562    0.137879
  S     -2.927740    1.638046   -1.308352
  O     -3.456092    0.122457    1.284613
  C     -3.755004    0.994010    2.390948
  C     -4.074029    2.410004    1.958058
  O     -2.078576   -1.061250   -0.348090
  C     -2.678607   -1.635365   -1.521915
  C     -4.131304   -1.982598   -1.273328
  H      0.815060   -2.727851   -0.190117
  H      0.520182   -3.659304    1.286018
  H     -0.205761   -2.055597    1.090641
  H      2.788297   -2.658696    1.296529
  H      1.793454   -1.945153    2.606025
  H      5.198676    0.622390   -0.849190
  H      4.852988    2.236113   -0.158665
  H      4.940125   -0.429294    1.351673
  H      6.129738    0.874578    1.475012
  H      4.480529    1.116996    2.082311
  H     -0.373872    2.198753   -0.808453
  H      1.152710    2.054967    0.133558
  H     -4.615070    0.518791    2.866151
  H     -2.899923    0.981279    3.072505
  H     -4.878087    2.412127    1.225822
  H     -4.375036    2.992261    2.823033
  H     -3.196847    2.872286    1.507136
  H     -2.582204   -0.924567   -2.349479
  H     -2.074238   -2.519776   -1.727218
  H     -4.546186   -2.462993   -2.153704
  H     -4.216939   -2.648899   -0.419318
  H     -4.692458   -1.071825   -1.065623

 Total Charge           Charge          ....    0
 Multiplicity           Mult            ....    1
 Number of Electrons    NEL             ....  202
 Basis Dimension        Dim             ....  334

ORBITAL ENERGIES
----------------

  NO   OCC          E(Eh)            E(eV)
   0   2.0000     -88.047770     -2395.9016
   1   2.0000     -88.039947     -2395.6888
   2   2.0000     -87.991520     -2394.3710
   3   2.0000     -87.988553     -2394.2903
   4   2.0000     -76.431136     -2079.7969
   5   2.0000     -76.425938     -2079.6555
   6   2.0000     -18.798536      -511.5342
   7   2.0000     -18.792991      -511.3833
   8   2.0000     -18.790777      -511.3230
   9   2.0000     -18.789933      -511.3001
  10   2.0000      -9.963063      -271.1087
  11   2.0000      -9.956871      -270.9402
  12   2.0000      -9.954146      -270.8661
  13   2.0000      -9.948694      -270.7177
  14   2.0000      -9.947987      -270.6985
  15   2.0000      -9.887563      -269.0543
  16   2.0000      -9.886122      -269.0151
  17   2.0000      -9.882316      -268.9115
  18   2.0000      -9.874059      -268.6868
  19   2.0000      -7.692966      -209.3362
  20   2.0000      -7.685212      -209.1253
  21   2.0000      -7.636356      -207.7958
  22   2.0000      -7.633674      -207.7228
  23   2.0000      -6.428433      -174.9266
  24   2.0000      -6.423696      -174.7977
  25   2.0000      -5.720654      -155.6669
  26   2.0000      -5.717483      -155.5806
  27   2.0000      -5.713454      -155.4710
  28   2.0000      -5.710054      -155.3785
  29   2.0000      -5.709638      -155.3671
  30   2.0000      -5.701875      -155.1559
  31   2.0000      -5.665184      -154.1575
  32   2.0000      -5.662608      -154.0874
  33   2.0000      -5.657094      -153.9374
  34   2.0000      -5.656530      -153.9220
  35   2.0000      -5.654374      -153.8633
  36   2.0000      -5.653757      -153.8466
  37   2.0000      -4.650919      -126.5579
  38   2.0000      -4.650327      -126.5418
  39   2.0000      -4.648878      -126.5024
  40   2.0000      -4.646081      -126.4263
  41   2.0000      -4.645610      -126.4135
  42   2.0000      -4.644195      -126.3750
  43   2.0000      -0.990394       -26.9500
  44   2.0000      -0.986257       -26.8374
  45   2.0000      -0.948869       -25.8200
  46   2.0000      -0.945190       -25.7199
  47   2.0000      -0.766083       -20.8462
  48   2.0000      -0.723566       -19.6892
  49   2.0000      -0.709066       -19.2947
  50   2.0000      -0.689123       -18.7520
  51   2.0000      -0.684013       -18.6129
  52   2.0000      -0.675192       -18.3729
  53   2.0000      -0.656988       -17.8776
  54   2.0000      -0.641501       -17.4561
  55   2.0000      -0.601905       -16.3787
  56   2.0000      -0.595847       -16.2138
  57   2.0000      -0.576798       -15.6955
  58   2.0000      -0.571238       -15.5442
  59   2.0000      -0.563522       -15.3342
  60   2.0000      -0.498732       -13.5712
  61   2.0000      -0.492324       -13.3968
  62   2.0000      -0.473477       -12.8840
  63   2.0000      -0.470282       -12.7970
  64   2.0000      -0.463527       -12.6132
  65   2.0000      -0.450165       -12.2496
  66   2.0000      -0.437787       -11.9128
  67   2.0000      -0.437369       -11.9014
  68   2.0000      -0.429942       -11.6993
  69   2.0000      -0.419286       -11.4094
  70   2.0000      -0.411025       -11.1846
  71   2.0000      -0.395816       -10.7707
  72   2.0000      -0.395077       -10.7506
  73   2.0000      -0.391691       -10.6584
  74   2.0000      -0.390408       -10.6235
  75   2.0000      -0.378076       -10.2880
  76   2.0000      -0.367038        -9.9876
  77   2.0000      -0.352995        -9.6055
  78   2.0000      -0.351948        -9.5770
  79   2.0000      -0.350893        -9.5483
  80   2.0000      -0.349295        -9.5048
  81   2.0000      -0.346590        -9.4312
  82   2.0000      -0.342276        -9.3138
  83   2.0000      -0.338709        -9.2167
  84   2.0000      -0.329028        -8.9533
  85   2.0000      -0.321103        -8.7377
  86   2.0000      -0.313903        -8.5417
  87   2.0000      -0.301206        -8.1962
  88   2.0000      -0.295316        -8.0360
  89   2.0000      -0.289543        -7.8789
  90   2.0000      -0.286355        -7.7921
  91   2.0000      -0.277142        -7.5414
  92   2.0000      -0.274426        -7.4675
  93   2.0000      -0.270586        -7.3630
  94   2.0000      -0.255035        -6.9399
  95   2.0000      -0.233214        -6.3461
  96   2.0000      -0.217545        -5.9197
  97   2.0000      -0.209879        -5.7111
  98   2.0000      -0.209212        -5.6930
  99   2.0000      -0.205506        -5.5921
 100   2.0000      -0.203710        -5.5432
 101   0.0000      -0.043261        -1.1772
 102   0.0000      -0.023247        -0.6326
 103   0.0000      -0.016403        -0.4463
 104   0.0000       0.000674         0.0183
 105   0.0000       0.010504         0.2858

MULLIKEN ATOMIC CHARGES
-----------------------
   0 C :   -0.330543
   1 C :   -0.000236
   2 O :   -0.377909
   3 P :    0.607430
   4 S :   -0.319868
   5 O :   -0.384308
   6 C :   -0.003722
   7 C :   -0.307879
   8 S :   -0.054599
   9 C :   -0.371812
  10 S :   -0.083749
  11 P :    0.612095
  12 S :   -0.328165
  13 O :   -0.373503
  14 C :   -0.012004
  15 C :   -0.310710
  16 O :   -0.353188
  17 C :   -0.007614
  18 C :   -0.303102
  19 H :    0.120882
  20 H :    0.104740
  21 H :    0.139599
  22 H :    0.107635
  23 H :    0.100751
  24 H :    0.115124
  25 H :    0.105707
  26 H :    0.125081
  27 H :    0.113139
  28 H :    0.115423
  29 H :    0.197405
  30 H :    0.194443
  31 H :    0.111461
  32 H :    0.113989
  33 H :    0.127539
  34 H :    0.112942
  35 H :    0.125115
  36 H :    0.114904
  37 H :    0.109139
  38 H :    0.112303
  39 H :    0.114443
  40 H :    0.121622
Sum of atomic charges:   -0.0000000

LOEWDIN ATOMIC CHARGES
----------------------
   0 C :   -0.374310
   1 C :   -0.120077
   2 O :   -0.247871
   3 P :    0.571500
   4 S :   -0.318684
   5 O :   -0.249272
   6 C :   -0.115431
   7 C :   -0.365252
   8 S :    0.096777
   9 C :   -0.482313
  10 S :    0.092201
  11 P :    0.573826
  12 S :   -0.313804
  13 O :   -0.243664
  14 C :   -0.113337
  15 C :   -0.369741
  16 O :   -0.230914
  17 C :   -0.119834
  18 C :   -0.363106
  19 H :    0.119206
  20 H :    0.127787
  21 H :    0.120198
  22 H :    0.107411
  23 H :    0.117328
  24 H :    0.113068
  25 H :    0.118894
  26 H :    0.123519
  27 H :    0.130953
  28 H :    0.125825
  29 H :    0.130877
  30 H :    0.135911
  31 H :    0.122588
  32 H :    0.109909
  33 H :    0.130275
  34 H :    0.130790
  35 H :    0.120877
  36 H :    0.109641
  37 H :    0.119883
  38 H :    0.130461
  39 H :    0.125367
  40 H :    0.122537

  Mayer bond orders larger than 0.100000
B(  0-C ,  1-C ) :   1.1641 B(  0-C , 19-H ) :   0.9341 B(  0-C , 20-H ) :   0.9374
B(  0-C , 21-H ) :   0.9290 B(  1-C ,  2-O ) :   0.9039 B(  1-C , 22-H ) :   0.9170
B(  1-C , 23-H ) :   0.9330 B(  2-O ,  3-P ) :   1.0866 B(  3-P ,  4-S ) :   1.6317
B(  3-P ,  5-O ) :   1.0917 B(  3-P ,  8-S ) :   0.9829 B(  5-O ,  6-C ) :   0.9061
B(  6-C ,  7-C ) :   1.1628 B(  6-C , 24-H ) :   0.9177 B(  6-C , 25-H ) :   0.9357
B(  7-C , 26-H ) :   0.9360 B(  7-C , 27-H ) :   0.9380 B(  7-C , 28-H ) :   0.9462
B(  8-S ,  9-C ) :   0.9867 B(  9-C , 10-S ) :   1.0027 B(  9-C , 29-H ) :   0.8702
B(  9-C , 30-H ) :   0.8887 B( 10-S , 11-P ) :   0.9557 B( 10-S , 12-S ) :   0.1097
B( 11-P , 12-S ) :   1.5937 B( 11-P , 13-O ) :   1.1137 B( 11-P , 16-O ) :   1.1224
B( 13-O , 14-C ) :   0.9126 B( 14-C , 15-C ) :   1.1642 B( 14-C , 31-H ) :   0.9340
B( 14-C , 32-H ) :   0.9284 B( 15-C , 33-H ) :   0.9426 B( 15-C , 34-H ) :   0.9349
B( 15-C , 35-H ) :   0.9329 B( 16-O , 17-C ) :   0.9017 B( 17-C , 18-C ) :   1.1628
B( 17-C , 36-H ) :   0.9119 B( 17-C , 37-H ) :   0.9322 B( 18-C , 38-H ) :   0.9402
B( 18-C , 39-H ) :   0.9470 B( 18-C , 40-H ) :   0.9367

Dispersion correction           -0.065547858
FINAL SINGLE POINT ENERGY     -2929.521124690001

DIPOLE MOMENT
-------------

Method             : SCF
Type of density    : Electron Density
Multiplicity       :   1
Irrep              :   0
Energy             : -2929.6420541782822511 Eh
Relativity type    :
Basis              : AO
                                X                 Y                 Z
Electronic contribution:      5.469822903       4.185929912     -11.088841741
Nuclear contribution   :     -5.789868725      -4.023495798      12.660414806
                        -----------------------------------------
Total Dipole Moment    :     -0.320045822       0.162434115       1.571573065
                        -----------------------------------------
Magnitude (a.u.)       :      1.612034760
Magnitude (Debye)      :      4.097466729

Rotational constants in cm-1:             0.013819             0.004513             0.004223
Rotational constants in MHz :           414.277261           135.290659           126.596914

                             ****ORCA TERMINATED NORMALLY****
TOTAL RUN TIME: 0 days 0 hours 0 minutes 21 seconds 294 msec
