                         Program Version 6.0.0  -   RELEASE  -
|  1> ! pbe def2-sv(p) def2/J RI DEFGRID1 loosescf d4 GCP(DFT/SV(P)) printgap
|  2> %output
|  3>     printlevel normal
|  4> end
|  5> * xyz 0 1
|  6> C 1.421704997 2.0163944298 -1.81542977
|  7> C 2.2985630854 0.8003776089 -2.0311480093
|  8> O 2.1327134256 -0.1813162838 -0.9971060252
|  9> P 2.4982504994 0.126081568 0.530004497
| 10> S 4.0143931894 1.3458305284 0.7573688212
| 11> O 2.6898716297 -1.341885426 1.101166591
| 12> C 3.8885924748 -2.0970564326 0.8038821832
| 13> C 4.0374233904 -3.1708230226 1.8613911775
| 14> S 0.7009170043 0.59057976 1.5046387207
| 15> C -0.1700525292 -1.0041580735 1.2166780006
| 16> S -1.9504142672 -0.7895152914 1.2989520248
| 17> P -2.1796996631 0.0294776539 -0.6609544072
| 18> S -1.1456714668 -0.8417546224 -2.0733264157
| 19> O -1.7958943553 1.5529420575 -0.5190839733
| 20> C -2.3765001884 2.4563382784 0.4519145604
| 21> C -3.5549305457 3.2022756402 -0.1386414672
| 22> O -3.7529251022 0.0736543704 -0.8754398311
| 23> C -4.4976672053 -1.038818102 -1.4039888343
| 24> C -4.4846937202 -2.2362314526 -0.4764297589
| 25> H 1.6943881978 2.506013527 -0.8798511295
| 26> H 1.5653090985 2.7134891629 -2.6344471849
| 27> H 0.3736288669 1.7285942643 -1.7709417178
| 28> H 3.3530525088 1.0920324102 -2.0589261559
| 29> H 2.0279094273 0.2672054456 -2.9438562142
| 30> H 3.7769987786 -2.5257176099 -0.1950023978
| 31> H 4.7414287461 -1.4094801888 0.8064781206
| 32> H 4.9319127062 -3.7492982155 1.6545851193
| 33> H 4.1238773038 -2.7162356069 2.8443451973
| 34> H 3.1732965405 -3.828639997 1.8503888422
| 35> H 0.1088947203 -1.699722886 2.0028224218
| 36> H 0.1038187456 -1.3767165003 0.2277188991
| 37> H -2.6703516828 1.8850108416 1.3367156057
| 38> H -1.5600724155 3.133204067 0.7110569557
| 39> H -4.3593363015 2.5115022402 -0.375862263
| 40> H -3.9090468308 3.9305448706 0.584190049
| 41> H -3.2533356431 3.7168552939 -1.046879709
| 42> H -5.5049095496 -0.6394123431 -1.5306635031
| 43> H -4.0775911796 -1.3017874154 -2.3795719159
| 44> H -3.4858283096 -2.6671549648 -0.4350256618
| 45> H -4.7809748654 -1.9413682652 0.5270520219
| 46> H -5.1747382541 -2.9855067269 -0.851084662
| 47> *
| 48>
| 49>                          ****END OF INPUT****

CARTESIAN COORDINATES (ANGSTROEM)
---------------------------------
  C      1.421705    2.016394   -1.815430
  C      2.298563    0.800378   -2.031148
  O      2.132713   -0.181316   -0.997106
  P      2.498250    0.126082    0.530004
  S      4.014393    1.345831    0.757369
  O      2.689872   -1.341885    1.101167
  C      3.888592   -2.097056    0.803882
  C      4.037423   -3.170823    1.861391
  S      0.700917    0.590580    1.504639
  C     -0.170053   -1.004158    1.216678
  S     -1.950414   -0.789515    1.298952
  P     -2.179700    0.029478   -0.660954
  S     -1.145671   -0.841755   -2.073326
  O     -1.795894    1.552942   -0.519084
  C     -2.376500    2.456338    0.451915
  C     -3.554931    3.202276   -0.138641
  O     -3.752925    0.073654   -0.875440
  C     -4.497667   -1.038818   -1.403989
  C     -4.484694   -2.236231   -0.476430
  H      1.694388    2.506014   -0.879851
  H      1.565309    2.713489   -2.634447
  H      0.373629    1.728594   -1.770942
  H      3.353053    1.092032   -2.058926
  H      2.027909    0.267205   -2.943856
  H      3.776999   -2.525718   -0.195002
  H      4.741429   -1.409480    0.806478
  H      4.931913   -3.749298    1.654585
  H      4.123877   -2.716236    2.844345
  H      3.173297   -3.828640    1.850389
  H      0.108895   -1.699723    2.002822
  H      0.103819   -1.376717    0.227719
  H     -2.670352    1.885011    1.336716
  H     -1.560072    3.133204    0.711057
  H     -4.359336    2.511502   -0.375862
  H     -3.909047    3.930545    0.584190
  H     -3.253336    3.716855   -1.046880
  H     -5.504910   -0.639412   -1.530664
  H     -4.077591   -1.301787   -2.379572
  H     -3.485828   -2.667155   -0.435026
  H     -4.780975   -1.941368    0.527052
  H     -5.174738   -2.985507   -0.851085

 Total Charge           Charge          ....    0
 Multiplicity           Mult            ....    1
 Number of Electrons    NEL             ....  202
 Basis Dimension        Dim             ....  334

ORBITAL ENERGIES
----------------

  NO   OCC          E(Eh)            E(eV)
   0   2.0000     -88.053768     -2396.0648
   1   2.0000     -88.038477     -2395.6488
   2   2.0000     -87.993679     -2394.4297
   3   2.0000     -87.980916     -2394.0824
   4   2.0000     -76.434213     -2079.8807
   5   2.0000     -76.419333     -2079.4758
   6   2.0000     -18.804723      -511.7025
   7   2.0000     -18.797522      -511.5066
   8   2.0000     -18.787750      -511.2407
   9   2.0000     -18.779981      -511.0293
  10   2.0000      -9.962124      -271.0832
  11   2.0000      -9.957686      -270.9624
  12   2.0000      -9.956685      -270.9352
  13   2.0000      -9.949874      -270.7498
  14   2.0000      -9.937281      -270.4072
  15   2.0000      -9.892232      -269.1813
  16   2.0000      -9.888887      -269.0903
  17   2.0000      -9.886859      -269.0351
  18   2.0000      -9.864430      -268.4248
  19   2.0000      -7.698585      -209.4892
  20   2.0000      -7.683957      -209.0911
  21   2.0000      -7.638590      -207.8566
  22   2.0000      -7.626095      -207.5166
  23   2.0000      -6.431687      -175.0151
  24   2.0000      -6.417273      -174.6229
  25   2.0000      -5.726324      -155.8212
  26   2.0000      -5.723053      -155.7322
  27   2.0000      -5.715779      -155.5343
  28   2.0000      -5.712264      -155.4386
  29   2.0000      -5.708437      -155.3345
  30   2.0000      -5.700484      -155.1181
  31   2.0000      -5.667547      -154.2218
  32   2.0000      -5.659079      -153.9914
  33   2.0000      -5.658818      -153.9843
  34   2.0000      -5.655044      -153.8816
  35   2.0000      -5.646968      -153.6618
  36   2.0000      -5.645969      -153.6346
  37   2.0000      -4.654573      -126.6574
  38   2.0000      -4.653415      -126.6259
  39   2.0000      -4.651895      -126.5845
  40   2.0000      -4.639791      -126.2551
  41   2.0000      -4.639134      -126.2372
  42   2.0000      -4.637672      -126.1975
  43   2.0000      -0.996548       -27.1175
  44   2.0000      -0.979410       -26.6511
  45   2.0000      -0.954050       -25.9610
  46   2.0000      -0.936042       -25.4710
  47   2.0000      -0.766347       -20.8534
  48   2.0000      -0.724878       -19.7249
  49   2.0000      -0.711110       -19.3503
  50   2.0000      -0.697059       -18.9679
  51   2.0000      -0.678327       -18.4582
  52   2.0000      -0.672838       -18.3089
  53   2.0000      -0.654526       -17.8106
  54   2.0000      -0.638037       -17.3619
  55   2.0000      -0.603002       -16.4085
  56   2.0000      -0.583647       -15.8818
  57   2.0000      -0.579912       -15.7802
  58   2.0000      -0.564618       -15.3640
  59   2.0000      -0.562168       -15.2974
  60   2.0000      -0.505567       -13.7572
  61   2.0000      -0.499211       -13.5842
  62   2.0000      -0.482064       -13.1176
  63   2.0000      -0.460431       -12.5290
  64   2.0000      -0.456977       -12.4350
  65   2.0000      -0.451575       -12.2880
  66   2.0000      -0.436917       -11.8891
  67   2.0000      -0.435734       -11.8569
  68   2.0000      -0.434454       -11.8221
  69   2.0000      -0.421924       -11.4811
  70   2.0000      -0.416288       -11.3278
  71   2.0000      -0.397399       -10.8138
  72   2.0000      -0.392463       -10.6795
  73   2.0000      -0.385634       -10.4936
  74   2.0000      -0.380967       -10.3666
  75   2.0000      -0.373152       -10.1540
  76   2.0000      -0.367796       -10.0082
  77   2.0000      -0.359436        -9.7808
  78   2.0000      -0.358161        -9.7460
  79   2.0000      -0.353844        -9.6286
  80   2.0000      -0.351772        -9.5722
  81   2.0000      -0.344604        -9.3772
  82   2.0000      -0.338401        -9.2084
  83   2.0000      -0.328924        -8.9505
  84   2.0000      -0.322947        -8.7878
  85   2.0000      -0.321088        -8.7373
  86   2.0000      -0.312510        -8.5038
  87   2.0000      -0.303114        -8.2481
  88   2.0000      -0.297183        -8.0868
  89   2.0000      -0.291241        -7.9251
  90   2.0000      -0.283796        -7.7225
  91   2.0000      -0.277730        -7.5574
  92   2.0000      -0.270965        -7.3733
  93   2.0000      -0.267773        -7.2865
  94   2.0000      -0.255533        -6.9534
  95   2.0000      -0.238206        -6.4819
  96   2.0000      -0.217735        -5.9249
  97   2.0000      -0.212046        -5.7701
  98   2.0000      -0.209705        -5.7064
  99   2.0000      -0.203013        -5.5243
 100   2.0000      -0.194441        -5.2910
 101   0.0000      -0.044236        -1.2037
 102   0.0000      -0.025420        -0.6917
 103   0.0000      -0.022648        -0.6163
 104   0.0000       0.004054         0.1103
 105   0.0000       0.014627         0.3980

MULLIKEN ATOMIC CHARGES
-----------------------
   0 C :   -0.342446
   1 C :    0.011202
   2 O :   -0.380676
   3 P :    0.611574
   4 S :   -0.322350
   5 O :   -0.389302
   6 C :   -0.010590
   7 C :   -0.279131
   8 S :   -0.080538
   9 C :   -0.359614
  10 S :   -0.095865
  11 P :    0.610047
  12 S :   -0.303086
  13 O :   -0.345700
  14 C :   -0.013506
  15 C :   -0.291202
  16 O :   -0.378081
  17 C :   -0.000856
  18 C :   -0.323922
  19 H :    0.112242
  20 H :    0.102326
  21 H :    0.146156
  22 H :    0.102953
  23 H :    0.101793
  24 H :    0.105066
  25 H :    0.106390
  26 H :    0.111757
  27 H :    0.121282
  28 H :    0.113622
  29 H :    0.188638
  30 H :    0.205356
  31 H :    0.103037
  32 H :    0.116927
  33 H :    0.120637
  34 H :    0.111875
  35 H :    0.120886
  36 H :    0.108176
  37 H :    0.115454
  38 H :    0.131372
  39 H :    0.119814
  40 H :    0.118285
Sum of atomic charges:   -0.0000000

LOEWDIN ATOMIC CHARGES
----------------------
   0 C :   -0.378686
   1 C :   -0.119783
   2 O :   -0.247069
   3 P :    0.568189
   4 S :   -0.322833
   5 O :   -0.251990
   6 C :   -0.117279
   7 C :   -0.350864
   8 S :    0.076735
   9 C :   -0.477383
  10 S :    0.089366
  11 P :    0.578396
  12 S :   -0.294699
  13 O :   -0.225370
  14 C :   -0.117642
  15 C :   -0.359998
  16 O :   -0.244006
  17 C :   -0.115931
  18 C :   -0.371842
  19 H :    0.114461
  20 H :    0.127320
  21 H :    0.121903
  22 H :    0.106204
  23 H :    0.117539
  24 H :    0.113771
  25 H :    0.109162
  26 H :    0.131040
  27 H :    0.129466
  28 H :    0.124985
  29 H :    0.136087
  30 H :    0.124950
  31 H :    0.102507
  32 H :    0.123069
  33 H :    0.125010
  34 H :    0.130754
  35 H :    0.129252
  36 H :    0.120040
  37 H :    0.114665
  38 H :    0.122639
  39 H :    0.124018
  40 H :    0.133844

  Mayer bond orders larger than 0.100000
B(  0-C ,  1-C ) :   1.1683 B(  0-C , 19-H ) :   0.9315 B(  0-C , 20-H ) :   0.9373
B(  0-C , 21-H ) :   0.9230 B(  1-C ,  2-O ) :   0.9053 B(  1-C , 22-H ) :   0.9189
B(  1-C , 23-H ) :   0.9289 B(  2-O ,  3-P ) :   1.0826 B(  3-P ,  4-S ) :   1.6422
B(  3-P ,  5-O ) :   1.0852 B(  3-P ,  8-S ) :   0.9873 B(  5-O ,  6-C ) :   0.8981
B(  6-C ,  7-C ) :   1.1622 B(  6-C , 24-H ) :   0.9309 B(  6-C , 25-H ) :   0.9087
B(  7-C , 26-H ) :   0.9417 B(  7-C , 27-H ) :   0.9503 B(  7-C , 28-H ) :   0.9514
B(  8-S ,  9-C ) :   0.9557 B(  9-C , 10-S ) :   1.0160 B(  9-C , 29-H ) :   0.9058
B(  9-C , 30-H ) :   0.8566 B( 10-S , 11-P ) :   0.9366 B( 10-S , 12-S ) :   0.1071
B( 11-P , 12-S ) :   1.6362 B( 11-P , 13-O ) :   1.1370 B( 11-P , 16-O ) :   1.0923
B( 13-O , 14-C ) :   0.8880 B( 14-C , 15-C ) :   1.1632 B( 14-C , 31-H ) :   0.9103
B( 14-C , 32-H ) :   0.9328 B( 15-C , 33-H ) :   0.9416 B( 15-C , 34-H ) :   0.9396
B( 15-C , 35-H ) :   0.9473 B( 16-O , 17-C ) :   0.9014 B( 17-C , 18-C ) :   1.1659
B( 17-C , 36-H ) :   0.9337 B( 17-C , 37-H ) :   0.9189 B( 18-C , 38-H ) :   0.9347
B( 18-C , 39-H ) :   0.9432 B( 18-C , 40-H ) :   0.9368

Dispersion correction           -0.064420710
FINAL SINGLE POINT ENERGY     -2929.520500494788

DIPOLE MOMENT
-------------

Method             : SCF
Type of density    : Electron Density
Multiplicity       :   1
Irrep              :   0
Energy             : -2929.6427692718662001 Eh
Relativity type    :
Basis              : AO
                                X                 Y                 Z
Electronic contribution:      7.042947418       2.591489991       4.224979268
Nuclear contribution   :     -8.599732624      -3.295351316      -4.220193505
                        -----------------------------------------
Total Dipole Moment    :     -1.556785206      -0.703861326       0.004785763
                        -----------------------------------------
Magnitude (a.u.)       :      1.708515100
Magnitude (Debye)      :      4.342700264

Rotational constants in cm-1:             0.012617             0.004777             0.004338
Rotational constants in MHz :           378.260206           143.211034           130.053498

                             ****ORCA TERMINATED NORMALLY****
TOTAL RUN TIME: 0 days 0 hours 0 minutes 21 seconds 107 msec
