                         Program Version 6.0.0  -   RELEASE  -
|  1> ! r2scan-3c def2/J RI DEFGRID2 scfconv6 printgap
|  2> %output
|  3>     printlevel normal
|  4> end
|  5> * xyz 0 1
|  6> C -3.0632593407 -0.386627166 0.0104639246
|  7> C -1.6022478443 -0.050836117 -0.0073351447
|  8> C -1.1758908822 1.271020083 -0.0052075028
|  9> C 0.1729577503 1.5683623418 -0.0013127515
| 10> C 1.1401842555 0.5699080068 0.0007093017
| 11> C 0.7228527044 -0.7620242969 -0.0020104859
| 12> C -0.6379380986 -1.0460719968 -0.0056962718
| 13> C 1.6848408691 -1.9156487087 -0.0001839472
| 14> C 2.5931668115 0.9479832988 0.0044533829
| 15> H -3.626790961 0.316705916 -0.598408382
| 16> H -3.234316157 -1.3938275036 -0.3607473972
| 17> H -3.4454326467 -0.3294599314 1.0298041686
| 18> H -1.9035775355 2.0700293399 -0.0076343393
| 19> H 0.4854748382 2.603465128 -0.0010921659
| 20> H -0.9495603814 -2.0820211416 -0.0083331362
| 21> H 1.5000192772 -2.5532031277 -0.8635097634
| 22> H 2.7176514914 -1.5879657372 -0.0277365248
| 23> H 1.5366634158 -2.5189377759 0.8944864029
| 24> H 3.0935438976 0.5510248825 0.8864774416
| 25> H 3.0966272727 0.5580067787 -0.8789905687
| 26> H 2.6999564143 2.0296993341 0.0086094058
| 27> *
| 28>
| 29>                          ****END OF INPUT****

CARTESIAN COORDINATES (ANGSTROEM)
---------------------------------
  C     -3.063259   -0.386627    0.010464
  C     -1.602248   -0.050836   -0.007335
  C     -1.175891    1.271020   -0.005208
  C      0.172958    1.568362   -0.001313
  C      1.140184    0.569908    0.000709
  C      0.722853   -0.762024   -0.002010
  C     -0.637938   -1.046072   -0.005696
  C      1.684841   -1.915649   -0.000184
  C      2.593167    0.947983    0.004453
  H     -3.626791    0.316706   -0.598408
  H     -3.234316   -1.393828   -0.360747
  H     -3.445433   -0.329460    1.029804
  H     -1.903578    2.070029   -0.007634
  H      0.485475    2.603465   -0.001092
  H     -0.949560   -2.082021   -0.008333
  H      1.500019   -2.553203   -0.863510
  H      2.717651   -1.587966   -0.027737
  H      1.536663   -2.518938    0.894486
  H      3.093544    0.551025    0.886477
  H      3.096627    0.558007   -0.878991
  H      2.699956    2.029699    0.008609

 Total Charge           Charge          ....    0
 Multiplicity           Mult            ....    1
 Number of Electrons    NEL             ....   66
 Basis Dimension        Dim             ....  231

ORBITAL ENERGIES
----------------

  NO   OCC          E(Eh)            E(eV)
   0   2.0000     -10.034148      -273.0431
   1   2.0000     -10.033161      -273.0162
   2   2.0000     -10.032271      -272.9920
   3   2.0000     -10.023699      -272.7587
   4   2.0000     -10.023544      -272.7545
   5   2.0000     -10.022875      -272.7363
   6   2.0000     -10.022615      -272.7292
   7   2.0000     -10.020347      -272.6675
   8   2.0000     -10.019794      -272.6525
   9   2.0000      -0.826421       -22.4881
  10   2.0000      -0.755819       -20.5669
  11   2.0000      -0.729255       -19.8440
  12   2.0000      -0.685340       -18.6491
  13   2.0000      -0.652852       -17.7650
  14   2.0000      -0.615789       -16.7565
  15   2.0000      -0.561991       -15.2925
  16   2.0000      -0.524827       -14.2813
  17   2.0000      -0.451107       -12.2753
  18   2.0000      -0.446598       -12.1525
  19   2.0000      -0.406458       -11.0603
  20   2.0000      -0.402248       -10.9457
  21   2.0000      -0.384834       -10.4719
  22   2.0000      -0.374606       -10.1936
  23   2.0000      -0.373738       -10.1699
  24   2.0000      -0.369653       -10.0588
  25   2.0000      -0.359190        -9.7741
  26   2.0000      -0.351055        -9.5527
  27   2.0000      -0.336273        -9.1504
  28   2.0000      -0.308446        -8.3933
  29   2.0000      -0.297313        -8.0903
  30   2.0000      -0.295185        -8.0324
  31   2.0000      -0.220745        -6.0068
  32   2.0000      -0.207489        -5.6461
  33   0.0000      -0.025364        -0.6902
  34   0.0000      -0.014960        -0.4071
  35   0.0000       0.082740         2.2515
  36   0.0000       0.093633         2.5479
  37   0.0000       0.099171         2.6986

MULLIKEN ATOMIC CHARGES
-----------------------
   0 C :   -0.548653
   1 C :    0.246101
   2 C :   -0.234225
   3 C :   -0.225884
   4 C :    0.171743
   5 C :    0.176680
   6 C :   -0.275908
   7 C :   -0.581650
   8 C :   -0.592994
   9 H :    0.151081
  10 H :    0.149493
  11 H :    0.167052
  12 H :    0.143658
  13 H :    0.142417
  14 H :    0.142953
  15 H :    0.163548
  16 H :    0.156923
  17 H :    0.165465
  18 H :    0.166591
  19 H :    0.166549
  20 H :    0.149058
Sum of atomic charges:   -0.0000000

LOEWDIN ATOMIC CHARGES
----------------------
   0 C :   -0.391091
   1 C :   -0.100433
   2 C :   -0.170286
   3 C :   -0.159138
   4 C :   -0.103663
   5 C :   -0.089790
   6 C :   -0.160833
   7 C :   -0.390850
   8 C :   -0.394417
   9 H :    0.160934
  10 H :    0.158782
  11 H :    0.164642
  12 H :    0.167164
  13 H :    0.165809
  14 H :    0.168481
  15 H :    0.165641
  16 H :    0.160319
  17 H :    0.165978
  18 H :    0.161945
  19 H :    0.161850
  20 H :    0.158957

  Mayer bond orders larger than 0.100000
B(  0-C ,  1-C ) :   0.7630 B(  0-C ,  9-H ) :   0.9887 B(  0-C , 10-H ) :   0.9945
B(  0-C , 11-H ) :   0.9707 B(  1-C ,  2-C ) :   1.3934 B(  1-C ,  6-C ) :   1.4405
B(  2-C ,  3-C ) :   1.4833 B(  2-C , 12-H ) :   0.9443 B(  3-C ,  4-C ) :   1.4021
B(  3-C , 13-H ) :   0.9255 B(  4-C ,  5-C ) :   1.4856 B(  4-C ,  8-C ) :   0.7686
B(  5-C ,  6-C ) :   1.4148 B(  5-C ,  7-C ) :   0.7767 B(  6-C , 14-H ) :   0.9296
B(  7-C , 15-H ) :   0.9842 B(  7-C , 16-H ) :   0.9818 B(  7-C , 17-H ) :   0.9824
B(  8-C , 18-H ) :   0.9816 B(  8-C , 19-H ) :   0.9829 B(  8-C , 20-H ) :   0.9880

Dispersion correction           -0.006931156
FINAL SINGLE POINT ENERGY      -350.084503418827

DIPOLE MOMENT
-------------

Method             : SCF
Type of density    : Electron Density
Multiplicity       :   1
Irrep              :   0
Energy             :  -350.0853237110176224 Eh
Relativity type    :
Basis              : AO
                                X                 Y                 Z
Electronic contribution:     -1.754013238       2.056319834      -0.048397640
Nuclear contribution   :      1.848432004      -2.192012149       0.068415965
                        -----------------------------------------
Total Dipole Moment    :      0.094418766      -0.135692315       0.020018325
                        -----------------------------------------
Magnitude (a.u.)       :      0.166517390
Magnitude (Debye)      :      0.423253568

Rotational constants in cm-1:             0.097826             0.043653             0.030700
Rotational constants in MHz :          2932.749397          1308.689378           920.366445

                             ****ORCA TERMINATED NORMALLY****
TOTAL RUN TIME: 0 days 0 hours 0 minutes 42 seconds 394 msec
