                         Program Version 6.0.0  -   RELEASE  -
|  1> ! r2scan-3c def2/J RI DEFGRID2 scfconv6 printgap
|  2> %output
|  3>     printlevel normal
|  4> end
|  5> %cpcm
|  6>     smd true
|  7>     smdsolvent "water"
|  8> end
|  9> * xyz 0 1
| 10> C -3.0632593407 -0.386627166 0.0104639246
| 11> C -1.6022478443 -0.050836117 -0.0073351447
| 12> C -1.1758908822 1.271020083 -0.0052075028
| 13> C 0.1729577503 1.5683623418 -0.0013127515
| 14> C 1.1401842555 0.5699080068 0.0007093017
| 15> C 0.7228527044 -0.7620242969 -0.0020104859
| 16> C -0.6379380986 -1.0460719968 -0.0056962718
| 17> C 1.6848408691 -1.9156487087 -0.0001839472
| 18> C 2.5931668115 0.9479832988 0.0044533829
| 19> H -3.626790961 0.316705916 -0.598408382
| 20> H -3.234316157 -1.3938275036 -0.3607473972
| 21> H -3.4454326467 -0.3294599314 1.0298041686
| 22> H -1.9035775355 2.0700293399 -0.0076343393
| 23> H 0.4854748382 2.603465128 -0.0010921659
| 24> H -0.9495603814 -2.0820211416 -0.0083331362
| 25> H 1.5000192772 -2.5532031277 -0.8635097634
| 26> H 2.7176514914 -1.5879657372 -0.0277365248
| 27> H 1.5366634158 -2.5189377759 0.8944864029
| 28> H 3.0935438976 0.5510248825 0.8864774416
| 29> H 3.0966272727 0.5580067787 -0.8789905687
| 30> H 2.6999564143 2.0296993341 0.0086094058
| 31> *
| 32>
| 33>                          ****END OF INPUT****

CARTESIAN COORDINATES (ANGSTROEM)
---------------------------------
  C     -3.063259   -0.386627    0.010464
  C     -1.602248   -0.050836   -0.007335
  C     -1.175891    1.271020   -0.005208
  C      0.172958    1.568362   -0.001313
  C      1.140184    0.569908    0.000709
  C      0.722853   -0.762024   -0.002010
  C     -0.637938   -1.046072   -0.005696
  C      1.684841   -1.915649   -0.000184
  C      2.593167    0.947983    0.004453
  H     -3.626791    0.316706   -0.598408
  H     -3.234316   -1.393828   -0.360747
  H     -3.445433   -0.329460    1.029804
  H     -1.903578    2.070029   -0.007634
  H      0.485475    2.603465   -0.001092
  H     -0.949560   -2.082021   -0.008333
  H      1.500019   -2.553203   -0.863510
  H      2.717651   -1.587966   -0.027737
  H      1.536663   -2.518938    0.894486
  H      3.093544    0.551025    0.886477
  H      3.096627    0.558007   -0.878991
  H      2.699956    2.029699    0.008609

 Total Charge           Charge          ....    0
 Multiplicity           Mult            ....    1
 Number of Electrons    NEL             ....   66
 Basis Dimension        Dim             ....  231

ORBITAL ENERGIES
----------------

  NO   OCC          E(Eh)            E(eV)
   0   2.0000     -10.035970      -273.0926
   1   2.0000     -10.034797      -273.0607
   2   2.0000     -10.033654      -273.0296
   3   2.0000     -10.023284      -272.7474
   4   2.0000     -10.020651      -272.6758
   5   2.0000     -10.019996      -272.6579
   6   2.0000     -10.016273      -272.5566
   7   2.0000     -10.016023      -272.5498
   8   2.0000     -10.015839      -272.5448
   9   2.0000      -0.828585       -22.5470
  10   2.0000      -0.754700       -20.5364
  11   2.0000      -0.728549       -19.8248
  12   2.0000      -0.681380       -18.5413
  13   2.0000      -0.649595       -17.6764
  14   2.0000      -0.612724       -16.6731
  15   2.0000      -0.561262       -15.2727
  16   2.0000      -0.523269       -14.2389
  17   2.0000      -0.448767       -12.2116
  18   2.0000      -0.444617       -12.0987
  19   2.0000      -0.403180       -10.9711
  20   2.0000      -0.399213       -10.8631
  21   2.0000      -0.380086       -10.3427
  22   2.0000      -0.369856       -10.0643
  23   2.0000      -0.367542       -10.0013
  24   2.0000      -0.363927        -9.9030
  25   2.0000      -0.356824        -9.7097
  26   2.0000      -0.343437        -9.3454
  27   2.0000      -0.330989        -9.0067
  28   2.0000      -0.310297        -8.4436
  29   2.0000      -0.295050        -8.0287
  30   2.0000      -0.292775        -7.9668
  31   2.0000      -0.225151        -6.1267
  32   2.0000      -0.210361        -5.7242
  33   0.0000      -0.028617        -0.7787
  34   0.0000      -0.017682        -0.4812
  35   0.0000       0.089387         2.4323
  36   0.0000       0.101362         2.7582
  37   0.0000       0.105123         2.8605

MULLIKEN ATOMIC CHARGES
-----------------------
   0 C :   -0.568030
   1 C :    0.197543
   2 C :   -0.259671
   3 C :   -0.264852
   4 C :    0.135299
   5 C :    0.149951
   6 C :   -0.291748
   7 C :   -0.594453
   8 C :   -0.602052
   9 H :    0.167707
  10 H :    0.168214
  11 H :    0.181636
  12 H :    0.172683
  13 H :    0.172753
  14 H :    0.172016
  15 H :    0.177943
  16 H :    0.173822
  17 H :    0.179654
  18 H :    0.181759
  19 H :    0.181988
  20 H :    0.167836
Sum of atomic charges:    0.0000000

LOEWDIN ATOMIC CHARGES
----------------------
   0 C :   -0.396463
   1 C :   -0.111852
   2 C :   -0.185547
   3 C :   -0.173932
   4 C :   -0.114019
   5 C :   -0.097835
   6 C :   -0.171554
   7 C :   -0.394231
   8 C :   -0.399091
   9 H :    0.166593
  10 H :    0.164837
  11 H :    0.170234
  12 H :    0.177010
  13 H :    0.176433
  14 H :    0.179314
  15 H :    0.171351
  16 H :    0.165978
  17 H :    0.171742
  18 H :    0.168330
  19 H :    0.168327
  20 H :    0.164376

  Mayer bond orders larger than 0.100000
B(  0-C ,  1-C ) :   0.7879 B(  0-C ,  9-H ) :   0.9815 B(  0-C , 10-H ) :   0.9879
B(  0-C , 11-H ) :   0.9641 B(  1-C ,  2-C ) :   1.3537 B(  1-C ,  6-C ) :   1.4088
B(  2-C ,  3-C ) :   1.4366 B(  2-C , 12-H ) :   0.9605 B(  3-C ,  4-C ) :   1.3733
B(  3-C , 13-H ) :   0.9487 B(  4-C ,  5-C ) :   1.4187 B(  4-C ,  8-C ) :   0.7992
B(  5-C ,  6-C ) :   1.3914 B(  5-C ,  7-C ) :   0.8019 B(  6-C , 14-H ) :   0.9487
B(  7-C , 15-H ) :   0.9755 B(  7-C , 16-H ) :   0.9790 B(  7-C , 17-H ) :   0.9735
B(  8-C , 18-H ) :   0.9725 B(  8-C , 19-H ) :   0.9735 B(  8-C , 20-H ) :   0.9838

Dispersion correction           -0.006931156
FINAL SINGLE POINT ENERGY      -350.085447311864

DIPOLE MOMENT
-------------

Method             : SCF
Type of density    : Electron Density
Multiplicity       :   1
Irrep              :   0
Energy             :  -350.0862676040546830 Eh
Relativity type    :
Basis              : AO
                                X                 Y                 Z
Electronic contribution:     -1.698374926       1.976986191      -0.039833261
Nuclear contribution   :      1.848432004      -2.192012149       0.068415965
                        -----------------------------------------
Total Dipole Moment    :      0.150057078      -0.215025958       0.028582704
                        -----------------------------------------
Magnitude (a.u.)       :      0.263761749
Magnitude (Debye)      :      0.670429086

Rotational constants in cm-1:             0.097826             0.043653             0.030700
Rotational constants in MHz :          2932.749397          1308.689378           920.366445

                             ****ORCA TERMINATED NORMALLY****
TOTAL RUN TIME: 0 days 0 hours 0 minutes 47 seconds 414 msec
