                         Program Version 6.0.0  -   RELEASE  -
|  1> ! pbe def2-sv(p) def2/J RI DEFGRID1 loosescf d4 GCP(DFT/SV(P)) printgap
|  2> %output
|  3>     printlevel normal
|  4> end
|  5> * xyz 0 1
|  6> C 3.6982081696 -1.8716590371 -2.260138544
|  7> C 3.97673144 -0.3913552803 -2.1029166067
|  8> O 3.5472708195 0.1097800376 -0.8240967282
|  9> P 2.0162083204 0.166312154 -0.4038766106
| 10> S 0.7941660606 0.7014675234 -1.838903397
| 11> O 2.0144287368 1.205566944 0.7818750241
| 12> C 3.1065449325 1.475996619 1.6942465282
| 13> C 3.4610194048 0.2858782241 2.5604972167
| 14> S 1.6666689124 -1.745246487 0.4611006012
| 15> C 0.0465027031 -1.442045657 1.2061246246
| 16> S -1.3267562146 -1.4711188569 0.0139010011
| 17> P -2.1001635234 0.5024641681 0.2479684887
| 18> S -1.1109996301 1.6372274613 1.5018294654
| 19> O -3.6404400753 0.2404234735 0.5761873373
| 20> C -4.1421212651 -0.6633974389 1.5754902629
| 21> C -3.7510813189 -0.2570472574 2.9816263828
| 22> O -2.2337115646 1.2368700136 -1.1349590157
| 23> C -3.1310255388 0.8855088715 -2.2148619588
| 24> C -2.8104378053 -0.4660892277 -2.8168101358
| 25> H 2.6235031485 -2.0440533078 -2.3003259697
| 26> H 4.144880988 -2.223660313 -3.1844028014
| 27> H 4.111350644 -2.4280114177 -1.422674292
| 28> H 3.4683446635 0.1808394302 -2.8852527262
| 29> H 5.0460513575 -0.1758389217 -2.1183015035
| 30> H 3.9658639979 1.8024382038 1.1055863113
| 31> H 2.7227500032 2.3067623707 2.289329559
| 32> H 2.5840926475 -0.0673310782 3.0974804438
| 33> H 3.8572909115 -0.5238469077 1.9519671187
| 34> H 4.2158131903 0.5915308755 3.278491926
| 35> H 0.0427990258 -0.4663735226 1.7034033739
| 36> H -0.1079663399 -2.2550851225 1.9103739243
| 37> H -5.2239829724 -0.6211931169 1.4368515667
| 38> H -3.7781323564 -1.6690677831 1.345387646
| 39> H -2.6707848147 -0.3094797377 3.1045198033
| 40> H -4.0655014845 0.764442052 3.180903744
| 41> H -4.2243147517 -0.9256223578 3.6933595387
| 42> H -4.153632987 0.920646963 -1.833616492
| 43> H -2.9705581491 1.6892339703 -2.9352938433
| 44> H -3.0315384106 -1.2642974951 -2.1098523396
| 45> H -3.4093134544 -0.6082985174 -3.7107502068
| 46> H -1.7555564661 -0.511385796 -3.0803834309
| 47> *
| 48>
| 49>                          ****END OF INPUT****

CARTESIAN COORDINATES (ANGSTROEM)
---------------------------------
  C      3.698208   -1.871659   -2.260139
  C      3.976731   -0.391355   -2.102917
  O      3.547271    0.109780   -0.824097
  P      2.016208    0.166312   -0.403877
  S      0.794166    0.701468   -1.838903
  O      2.014429    1.205567    0.781875
  C      3.106545    1.475997    1.694247
  C      3.461019    0.285878    2.560497
  S      1.666669   -1.745246    0.461101
  C      0.046503   -1.442046    1.206125
  S     -1.326756   -1.471119    0.013901
  P     -2.100164    0.502464    0.247968
  S     -1.111000    1.637227    1.501829
  O     -3.640440    0.240423    0.576187
  C     -4.142121   -0.663397    1.575490
  C     -3.751081   -0.257047    2.981626
  O     -2.233712    1.236870   -1.134959
  C     -3.131026    0.885509   -2.214862
  C     -2.810438   -0.466089   -2.816810
  H      2.623503   -2.044053   -2.300326
  H      4.144881   -2.223660   -3.184403
  H      4.111351   -2.428011   -1.422674
  H      3.468345    0.180839   -2.885253
  H      5.046051   -0.175839   -2.118302
  H      3.965864    1.802438    1.105586
  H      2.722750    2.306762    2.289330
  H      2.584093   -0.067331    3.097480
  H      3.857291   -0.523847    1.951967
  H      4.215813    0.591531    3.278492
  H      0.042799   -0.466374    1.703403
  H     -0.107966   -2.255085    1.910374
  H     -5.223983   -0.621193    1.436852
  H     -3.778132   -1.669068    1.345388
  H     -2.670785   -0.309480    3.104520
  H     -4.065501    0.764442    3.180904
  H     -4.224315   -0.925622    3.693360
  H     -4.153633    0.920647   -1.833616
  H     -2.970558    1.689234   -2.935294
  H     -3.031538   -1.264297   -2.109852
  H     -3.409313   -0.608299   -3.710750
  H     -1.755556   -0.511386   -3.080383

 Total Charge           Charge          ....    0
 Multiplicity           Mult            ....    1
 Number of Electrons    NEL             ....  202
 Basis Dimension        Dim             ....  334

ORBITAL ENERGIES
----------------

  NO   OCC          E(Eh)            E(eV)
   0   2.0000     -88.038071     -2395.6377
   1   2.0000     -88.037701     -2395.6276
   2   2.0000     -87.974369     -2393.9043
   3   2.0000     -87.974145     -2393.8982
   4   2.0000     -76.420109     -2079.4969
   5   2.0000     -76.418740     -2079.4596
   6   2.0000     -18.791639      -511.3465
   7   2.0000     -18.784543      -511.1534
   8   2.0000     -18.782162      -511.0886
   9   2.0000     -18.780448      -511.0420
  10   2.0000      -9.952534      -270.8222
  11   2.0000      -9.951586      -270.7964
  12   2.0000      -9.951563      -270.7958
  13   2.0000      -9.951016      -270.7809
  14   2.0000      -9.948680      -270.7174
  15   2.0000      -9.884393      -268.9680
  16   2.0000      -9.884305      -268.9656
  17   2.0000      -9.881277      -268.8832
  18   2.0000      -9.879720      -268.8408
  19   2.0000      -7.683076      -209.0671
  20   2.0000      -7.682108      -209.0408
  21   2.0000      -7.619645      -207.3411
  22   2.0000      -7.619080      -207.3257
  23   2.0000      -6.417384      -174.6259
  24   2.0000      -6.415630      -174.5782
  25   2.0000      -5.710787      -155.3984
  26   2.0000      -5.709962      -155.3760
  27   2.0000      -5.707666      -155.3135
  28   2.0000      -5.706574      -155.2838
  29   2.0000      -5.700117      -155.1081
  30   2.0000      -5.699274      -155.0851
  31   2.0000      -5.648686      -153.7086
  32   2.0000      -5.648025      -153.6906
  33   2.0000      -5.640230      -153.4785
  34   2.0000      -5.639894      -153.4693
  35   2.0000      -5.639627      -153.4621
  36   2.0000      -5.639014      -153.4454
  37   2.0000      -4.640648      -126.2784
  38   2.0000      -4.639011      -126.2339
  39   2.0000      -4.638435      -126.2182
  40   2.0000      -4.637477      -126.1922
  41   2.0000      -4.637360      -126.1890
  42   2.0000      -4.635898      -126.1492
  43   2.0000      -0.983874       -26.7726
  44   2.0000      -0.979619       -26.6568
  45   2.0000      -0.939893       -25.5758
  46   2.0000      -0.934394       -25.4261
  47   2.0000      -0.756989       -20.5987
  48   2.0000      -0.715121       -19.4594
  49   2.0000      -0.707157       -19.2427
  50   2.0000      -0.689100       -18.7514
  51   2.0000      -0.684937       -18.6381
  52   2.0000      -0.675050       -18.3691
  53   2.0000      -0.646615       -17.5953
  54   2.0000      -0.628446       -17.1009
  55   2.0000      -0.591555       -16.0970
  56   2.0000      -0.583960       -15.8904
  57   2.0000      -0.576818       -15.6960
  58   2.0000      -0.574796       -15.6410
  59   2.0000      -0.557114       -15.1598
  60   2.0000      -0.492812       -13.4101
  61   2.0000      -0.492174       -13.3927
  62   2.0000      -0.467152       -12.7118
  63   2.0000      -0.464846       -12.6491
  64   2.0000      -0.451263       -12.2795
  65   2.0000      -0.446047       -12.1376
  66   2.0000      -0.439242       -11.9524
  67   2.0000      -0.432135       -11.7590
  68   2.0000      -0.423270       -11.5178
  69   2.0000      -0.423132       -11.5140
  70   2.0000      -0.409297       -11.1375
  71   2.0000      -0.401249       -10.9185
  72   2.0000      -0.395637       -10.7658
  73   2.0000      -0.385966       -10.5027
  74   2.0000      -0.376615       -10.2482
  75   2.0000      -0.364781        -9.9262
  76   2.0000      -0.354767        -9.6537
  77   2.0000      -0.351818        -9.5735
  78   2.0000      -0.349702        -9.5159
  79   2.0000      -0.348922        -9.4946
  80   2.0000      -0.346180        -9.4200
  81   2.0000      -0.340443        -9.2639
  82   2.0000      -0.337412        -9.1814
  83   2.0000      -0.334044        -9.0898
  84   2.0000      -0.331021        -9.0075
  85   2.0000      -0.317338        -8.6352
  86   2.0000      -0.309333        -8.4174
  87   2.0000      -0.293178        -7.9778
  88   2.0000      -0.291120        -7.9218
  89   2.0000      -0.289931        -7.8894
  90   2.0000      -0.282137        -7.6773
  91   2.0000      -0.269250        -7.3267
  92   2.0000      -0.266721        -7.2578
  93   2.0000      -0.256972        -6.9926
  94   2.0000      -0.251666        -6.8482
  95   2.0000      -0.234220        -6.3734
  96   2.0000      -0.216942        -5.9033
  97   2.0000      -0.196807        -5.3554
  98   2.0000      -0.191675        -5.2157
  99   2.0000      -0.184858        -5.0303
 100   2.0000      -0.181039        -4.9263
 101   0.0000      -0.034775        -0.9463
 102   0.0000      -0.028377        -0.7722
 103   0.0000      -0.010901        -0.2966
 104   0.0000       0.003985         0.1084
 105   0.0000       0.020108         0.5472

MULLIKEN ATOMIC CHARGES
-----------------------
   0 C :   -0.327313
   1 C :    0.002424
   2 O :   -0.386194
   3 P :    0.607411
   4 S :   -0.301090
   5 O :   -0.351672
   6 C :    0.010712
   7 C :   -0.321026
   8 S :   -0.107758
   9 C :   -0.349844
  10 S :   -0.114747
  11 P :    0.619919
  12 S :   -0.298616
  13 O :   -0.384624
  14 C :   -0.005395
  15 C :   -0.302884
  16 O :   -0.343767
  17 C :    0.003377
  18 C :   -0.332350
  19 H :    0.134379
  20 H :    0.115331
  21 H :    0.117753
  22 H :    0.113007
  23 H :    0.103259
  24 H :    0.107240
  25 H :    0.112872
  26 H :    0.122400
  27 H :    0.124419
  28 H :    0.111292
  29 H :    0.197819
  30 H :    0.176868
  31 H :    0.102534
  32 H :    0.102239
  33 H :    0.118151
  34 H :    0.122940
  35 H :    0.106174
  36 H :    0.107159
  37 H :    0.110692
  38 H :    0.121380
  39 H :    0.111663
  40 H :    0.143870
Sum of atomic charges:   -0.0000000

LOEWDIN ATOMIC CHARGES
----------------------
   0 C :   -0.373514
   1 C :   -0.117810
   2 O :   -0.248804
   3 P :    0.568349
   4 S :   -0.305020
   5 O :   -0.229886
   6 C :   -0.106219
   7 C :   -0.369560
   8 S :    0.075080
   9 C :   -0.489501
  10 S :    0.076268
  11 P :    0.569661
  12 S :   -0.290808
  13 O :   -0.251240
  14 C :   -0.120911
  15 C :   -0.367482
  16 O :   -0.221334
  17 C :   -0.108838
  18 C :   -0.370753
  19 H :    0.123867
  20 H :    0.132597
  21 H :    0.123008
  22 H :    0.112919
  23 H :    0.117761
  24 H :    0.114068
  25 H :    0.123914
  26 H :    0.126054
  27 H :    0.118418
  28 H :    0.130185
  29 H :    0.119386
  30 H :    0.134677
  31 H :    0.117553
  32 H :    0.100675
  33 H :    0.118083
  34 H :    0.129951
  35 H :    0.127262
  36 H :    0.112125
  37 H :    0.123546
  38 H :    0.114020
  39 H :    0.130562
  40 H :    0.131688

  Mayer bond orders larger than 0.100000
B(  0-C ,  1-C ) :   1.1660 B(  0-C , 19-H ) :   0.9309 B(  0-C , 20-H ) :   0.9371
B(  0-C , 21-H ) :   0.9435 B(  1-C ,  2-O ) :   0.9050 B(  1-C , 22-H ) :   0.9152
B(  1-C , 23-H ) :   0.9336 B(  2-O ,  3-P ) :   1.0678 B(  3-P ,  4-S ) :   1.6669
B(  3-P ,  5-O ) :   1.1317 B(  3-P ,  8-S ) :   0.9436 B(  4-S ,  8-S ) :   0.1127
B(  5-O ,  6-C ) :   0.8998 B(  6-C ,  7-C ) :   1.1700 B(  6-C , 24-H ) :   0.9279
B(  6-C , 25-H ) :   0.9333 B(  7-C , 26-H ) :   0.9447 B(  7-C , 27-H ) :   0.9379
B(  7-C , 28-H ) :   0.9358 B(  8-S ,  9-C ) :   0.9992 B(  9-C , 10-S ) :   0.9984
B(  9-C , 29-H ) :   0.8351 B(  9-C , 30-H ) :   0.9113 B( 10-S , 11-P ) :   0.9321
B( 10-S , 12-S ) :   0.1190 B( 11-P , 12-S ) :   1.6367 B( 11-P , 13-O ) :   1.0596
B( 11-P , 16-O ) :   1.1489 B( 12-S , 29-H ) :   0.1301 B( 13-O , 14-C ) :   0.9244
B( 14-C , 15-C ) :   1.1648 B( 14-C , 31-H ) :   0.9337 B( 14-C , 32-H ) :   0.9154
B( 15-C , 33-H ) :   0.9343 B( 15-C , 34-H ) :   0.9453 B( 15-C , 35-H ) :   0.9366
B( 16-O , 17-C ) :   0.9011 B( 17-C , 18-C ) :   1.1682 B( 17-C , 36-H ) :   0.9270
B( 17-C , 37-H ) :   0.9330 B( 18-C , 38-H ) :   0.9353 B( 18-C , 39-H ) :   0.9362
B( 18-C , 40-H ) :   0.9361

Dispersion correction           -0.068131057
FINAL SINGLE POINT ENERGY     -2929.507342066750

DIPOLE MOMENT
-------------

Method             : SCF
Type of density    : Electron Density
Multiplicity       :   1
Irrep              :   0
Energy             : -2929.6248346529873743 Eh
Relativity type    :
Basis              : AO
                                X                 Y                 Z
Electronic contribution:     -1.156509451       6.773082256      -2.276241888
Nuclear contribution   :      1.375145906      -7.883853173       2.487603217
                        -----------------------------------------
Total Dipole Moment    :      0.218636455      -1.110770918       0.211361329
                        -----------------------------------------
Magnitude (a.u.)       :      1.151645580
Magnitude (Debye)      :      2.927250433

Rotational constants in cm-1:             0.012322             0.005607             0.004900
Rotational constants in MHz :           369.394538           168.108135           146.897593

                             ****ORCA TERMINATED NORMALLY****
TOTAL RUN TIME: 0 days 0 hours 0 minutes 21 seconds 334 msec
