                         Program Version 6.0.1  -  RELEASE   -
|  1> ! pbe def2-sv(p) def2/J RI DEFGRID1 loosescf d4 GCP(DFT/SV(P)) printgap
|  2> %output
|  3>     printlevel normal
|  4> end
|  5> * xyz 0 1
|  6> C 5.4905617773 -1.2303854489 -1.8030487213
|  7> C 4.6563883853 -0.5381001251 -0.7405828292
|  8> O 3.2709814971 -0.8794797059 -0.9447210347
|  9> C 2.5058784482 -1.1153594386 0.0984744579
| 10> O 2.8745862979 -1.0849058519 1.2509937894
| 11> C 1.0828700532 -1.4390676392 -0.3285741837
| 12> C 0.4875413541 -0.2654847116 -1.113820035
| 13> H 1.0819436244 -0.0802301262 -2.0112646747
| 14> C 0.4523194193 0.9750225724 -0.2491951059
| 15> O -0.5924370938 1.4686793991 0.1378268014
| 16> O 1.636286439 1.419455876 0.0447147878
| 17> C 1.7510594794 2.520476015 0.9792007038
| 18> C 3.1710505642 2.5332286305 1.5076745898
| 19> S -1.2109166291 -0.602671602 -1.6829185119
| 20> P -2.3552596172 -0.2149117249 0.052545739
| 21> S -1.773486028 -0.5661260068 1.9058570248
| 22> O -3.2801389463 1.0759119592 -0.1408999254
| 23> C -3.1707780591 2.3116244876 0.5636165498
| 24> O -3.4157554428 -1.3228177725 -0.4335998333
| 25> C -4.5887510452 -1.6184878533 0.3269988058
| 26> H 6.5299288011 -0.942517382 -1.6850659251
| 27> H 5.4076705259 -2.3091896619 -1.7059498495
| 28> H 5.1478245867 -0.9400679203 -2.7915835305
| 29> H 4.7310522015 0.5491167044 -0.8258527184
| 30> H 4.9464032606 -0.8418951079 0.2691610452
| 31> H 0.4915575138 -1.6478818169 0.5657568571
| 32> H 1.0918308318 -2.3188750513 -0.9721320656
| 33> H 1.5053214553 3.4409010772 0.4429050903
| 34> H 1.0202173938 2.3660903476 1.778210241
| 35> H 3.404337172 1.5715801972 1.9580878795
| 36> H 3.8717457653 2.7267703028 0.7013996437
| 37> H 3.2651747938 3.310630351 2.2582076249
| 38> H -2.7248590774 2.1467182025 1.5455000166
| 39> H -4.186734134 2.687805084 0.6636114675
| 40> H -2.555270772 3.0034219934 -0.007427755
| 41> H -4.9761239073 -2.5495688678 -0.0789549916
| 42> H -5.3191905993 -0.8176380882 0.2159149225
| 43> H -4.3309807054 -1.7412073752 1.3814197948
| 44> *
| 45>
| 46>                          ****END OF INPUT****

CARTESIAN COORDINATES (ANGSTROEM)
---------------------------------
  C      5.490562   -1.230385   -1.803049
  C      4.656388   -0.538100   -0.740583
  O      3.270981   -0.879480   -0.944721
  C      2.505878   -1.115359    0.098474
  O      2.874586   -1.084906    1.250994
  C      1.082870   -1.439068   -0.328574
  C      0.487541   -0.265485   -1.113820
  H      1.081944   -0.080230   -2.011265
  C      0.452319    0.975023   -0.249195
  O     -0.592437    1.468679    0.137827
  O      1.636286    1.419456    0.044715
  C      1.751059    2.520476    0.979201
  C      3.171051    2.533229    1.507675
  S     -1.210917   -0.602672   -1.682919
  P     -2.355260   -0.214912    0.052546
  S     -1.773486   -0.566126    1.905857
  O     -3.280139    1.075912   -0.140900
  C     -3.170778    2.311624    0.563617
  O     -3.415755   -1.322818   -0.433600
  C     -4.588751   -1.618488    0.326999
  H      6.529929   -0.942517   -1.685066
  H      5.407671   -2.309190   -1.705950
  H      5.147825   -0.940068   -2.791584
  H      4.731052    0.549117   -0.825853
  H      4.946403   -0.841895    0.269161
  H      0.491558   -1.647882    0.565757
  H      1.091831   -2.318875   -0.972132
  H      1.505321    3.440901    0.442905
  H      1.020217    2.366090    1.778210
  H      3.404337    1.571580    1.958088
  H      3.871746    2.726770    0.701400
  H      3.265175    3.310630    2.258208
  H     -2.724859    2.146718    1.545500
  H     -4.186734    2.687805    0.663611
  H     -2.555271    3.003422   -0.007428
  H     -4.976124   -2.549569   -0.078955
  H     -5.319191   -0.817638    0.215915
  H     -4.330981   -1.741207    1.381420

 Total Charge           Charge          ....    0
 Multiplicity           Mult            ....    1
 Number of Electrons    NEL             ....  174
 Basis Dimension        Dim             ....  316

ORBITAL ENERGIES
----------------

  NO   OCC          E(Eh)            E(eV)
   0   2.0000     -88.033179     -2395.5046
   1   2.0000     -87.967565     -2393.7191
   2   2.0000     -76.416225     -2079.3912
   3   2.0000     -18.832421      -512.4562
   4   2.0000     -18.807594      -511.7807
   5   2.0000     -18.778215      -510.9812
   6   2.0000     -18.768871      -510.7270
   7   2.0000     -18.766831      -510.6714
   8   2.0000     -18.740332      -509.9503
   9   2.0000     -10.036257      -273.1004
  10   2.0000     -10.013010      -272.4679
  11   2.0000      -9.963885      -271.1311
  12   2.0000      -9.954639      -270.8795
  13   2.0000      -9.953640      -270.8523
  14   2.0000      -9.930912      -270.2339
  15   2.0000      -9.927165      -270.1319
  16   2.0000      -9.908204      -269.6159
  17   2.0000      -9.896372      -269.2940
  18   2.0000      -9.895257      -269.2636
  19   2.0000      -7.678486      -208.9422
  20   2.0000      -7.612582      -207.1489
  21   2.0000      -6.411674      -174.4705
  22   2.0000      -5.706802      -155.2900
  23   2.0000      -5.703127      -155.1900
  24   2.0000      -5.694780      -154.9629
  25   2.0000      -5.641753      -153.5199
  26   2.0000      -5.633514      -153.2957
  27   2.0000      -5.632178      -153.2594
  28   2.0000      -4.634388      -126.1081
  29   2.0000      -4.633664      -126.0884
  30   2.0000      -4.632291      -126.0511
  31   2.0000      -1.042949       -28.3801
  32   2.0000      -1.014943       -27.6180
  33   2.0000      -0.966838       -26.3090
  34   2.0000      -0.946391       -25.7526
  35   2.0000      -0.921269       -25.0690
  36   2.0000      -0.917962       -24.9790
  37   2.0000      -0.770757       -20.9734
  38   2.0000      -0.722499       -19.6602
  39   2.0000      -0.716916       -19.5083
  40   2.0000      -0.687935       -18.7197
  41   2.0000      -0.652079       -17.7440
  42   2.0000      -0.625965       -17.0334
  43   2.0000      -0.615996       -16.7621
  44   2.0000      -0.613174       -16.6853
  45   2.0000      -0.592147       -16.1131
  46   2.0000      -0.565064       -15.3762
  47   2.0000      -0.526922       -14.3383
  48   2.0000      -0.514858       -14.0100
  49   2.0000      -0.502689       -13.6789
  50   2.0000      -0.487749       -13.2723
  51   2.0000      -0.470348       -12.7988
  52   2.0000      -0.466688       -12.6992
  53   2.0000      -0.460418       -12.5286
  54   2.0000      -0.446435       -12.1481
  55   2.0000      -0.438851       -11.9417
  56   2.0000      -0.417571       -11.3627
  57   2.0000      -0.412807       -11.2330
  58   2.0000      -0.408842       -11.1251
  59   2.0000      -0.407166       -11.0796
  60   2.0000      -0.398333       -10.8392
  61   2.0000      -0.393007       -10.6943
  62   2.0000      -0.388972       -10.5845
  63   2.0000      -0.381376       -10.3778
  64   2.0000      -0.373100       -10.1526
  65   2.0000      -0.370436       -10.0801
  66   2.0000      -0.368850       -10.0369
  67   2.0000      -0.360768        -9.8170
  68   2.0000      -0.350755        -9.5445
  69   2.0000      -0.346147        -9.4191
  70   2.0000      -0.337812        -9.1923
  71   2.0000      -0.334794        -9.1102
  72   2.0000      -0.329608        -8.9691
  73   2.0000      -0.317570        -8.6415
  74   2.0000      -0.307462        -8.3665
  75   2.0000      -0.299270        -8.1435
  76   2.0000      -0.291310        -7.9270
  77   2.0000      -0.288082        -7.8391
  78   2.0000      -0.274131        -7.4595
  79   2.0000      -0.263850        -7.1797
  80   2.0000      -0.260009        -7.0752
  81   2.0000      -0.256138        -6.9699
  82   2.0000      -0.244823        -6.6620
  83   2.0000      -0.227446        -6.1891
  84   2.0000      -0.209110        -5.6902
  85   2.0000      -0.187909        -5.1133
  86   2.0000      -0.180405        -4.9091
  87   0.0000      -0.051093        -1.3903
  88   0.0000      -0.040563        -1.1038
  89   0.0000      -0.023858        -0.6492
  90   0.0000       0.013419         0.3652
  91   0.0000       0.025082         0.6825

MULLIKEN ATOMIC CHARGES
-----------------------
   0 C :   -0.282119
   1 C :   -0.034607
   2 O :   -0.241268
   3 C :    0.097363
   4 O :   -0.190992
   5 C :   -0.039220
   6 C :   -0.334688
   7 H :    0.153808
   8 C :    0.234553
   9 O :   -0.201338
  10 O :   -0.216520
  11 C :   -0.030947
  12 C :   -0.299997
  13 S :   -0.056707
  14 P :    0.648020
  15 S :   -0.350137
  16 O :   -0.391801
  17 C :   -0.082998
  18 O :   -0.395936
  19 C :   -0.094322
  20 H :    0.113460
  21 H :    0.117343
  22 H :    0.114769
  23 H :    0.105008
  24 H :    0.119216
  25 H :    0.125569
  26 H :    0.123025
  27 H :    0.109754
  28 H :    0.129831
  29 H :    0.146251
  30 H :    0.116532
  31 H :    0.116624
  32 H :    0.113350
  33 H :    0.113847
  34 H :    0.109592
  35 H :    0.118716
  36 H :    0.105479
  37 H :    0.111485
Sum of atomic charges:   -0.0000000

LOEWDIN ATOMIC CHARGES
----------------------
   0 C :   -0.350526
   1 C :   -0.110666
   2 O :   -0.062962
   3 C :    0.020379
   4 O :   -0.160247
   5 C :   -0.246773
   6 C :   -0.268975
   7 H :    0.148323
   8 C :    0.034554
   9 O :   -0.146623
  10 O :   -0.026721
  11 C :   -0.100161
  12 C :   -0.354592
  13 S :    0.124404
  14 P :    0.588386
  15 S :   -0.346732
  16 O :   -0.253321
  17 C :   -0.212299
  18 O :   -0.272660
  19 C :   -0.216233
  20 H :    0.131119
  21 H :    0.127997
  22 H :    0.125889
  23 H :    0.114639
  24 H :    0.121486
  25 H :    0.137418
  26 H :    0.144527
  27 H :    0.119365
  28 H :    0.128482
  29 H :    0.138167
  30 H :    0.123378
  31 H :    0.134078
  32 H :    0.108045
  33 H :    0.114633
  34 H :    0.110210
  35 H :    0.119023
  36 H :    0.108028
  37 H :    0.106959

  Mayer bond orders larger than 0.100000
B(  0-C ,  1-C ) :   1.1631 B(  0-C , 20-H ) :   0.9442 B(  0-C , 21-H ) :   0.9513
B(  0-C , 22-H ) :   0.9489 B(  1-C ,  2-O ) :   0.9084 B(  1-C , 23-H ) :   0.9304
B(  1-C , 24-H ) :   0.9117 B(  2-O ,  3-C ) :   1.1948 B(  3-C ,  4-O ) :   2.0626
B(  3-C ,  5-C ) :   1.0105 B(  5-C ,  6-C ) :   1.0203 B(  5-C , 25-H ) :   0.8775
B(  5-C , 26-H ) :   0.8877 B(  6-C ,  7-H ) :   0.8695 B(  6-C ,  8-C ) :   0.9131
B(  6-C , 13-S ) :   1.0446 B(  8-C ,  9-O ) :   1.8987 B(  8-C , 10-O ) :   1.2804
B(  9-O , 14-P ) :   0.1439 B( 10-O , 11-C ) :   0.8776 B( 11-C , 12-C ) :   1.1618
B( 11-C , 27-H ) :   0.9351 B( 11-C , 28-H ) :   0.9224 B( 12-C , 29-H ) :   0.9385
B( 12-C , 30-H ) :   0.9445 B( 12-C , 31-H ) :   0.9400 B( 13-S , 14-P ) :   0.9296
B( 13-S , 15-S ) :   0.1091 B( 14-P , 15-S ) :   1.5543 B( 14-P , 16-O ) :   1.0888
B( 14-P , 18-O ) :   1.0672 B( 16-O , 17-C ) :   0.9335 B( 17-C , 32-H ) :   0.9345
B( 17-C , 33-H ) :   0.9544 B( 17-C , 34-H ) :   0.9535 B( 18-O , 19-C ) :   0.9429
B( 19-C , 35-H ) :   0.9610 B( 19-C , 36-H ) :   0.9511 B( 19-C , 37-H ) :   0.9322

Dispersion correction           -0.051676466
FINAL SINGLE POINT ENERGY     -1979.010298720606

DIPOLE MOMENT
-------------

Method             : SCF
Type of density    : Electron Density
Multiplicity       :   1
Irrep              :   0
Energy             : -1979.1425494640566285 Eh
Relativity type    :
Basis              : AO
                                X                 Y                 Z
Electronic contribution:    -18.218990831      -6.139914158      -2.335792720
Nuclear contribution   :     19.462230283       7.379086029       1.542041278
                        -----------------------------------------
Total Dipole Moment    :      1.243239452       1.239171871      -0.793751442
                        -----------------------------------------
Magnitude (a.u.)       :      1.926455972
Magnitude (Debye)      :      4.896661937

Rotational constants in cm-1:             0.017606             0.005844             0.005193
Rotational constants in MHz :           527.816811           175.197724           155.681996

                             ****ORCA TERMINATED NORMALLY****
TOTAL RUN TIME: 0 days 0 hours 0 minutes 37 seconds 278 msec
