                         Program Version 6.0.0  -   RELEASE  -
|  1> ! pbe def2-sv(p) def2/J RI DEFGRID1 loosescf d4 GCP(DFT/SV(P)) printgap
|  2> %output
|  3>     printlevel normal
|  4> end
|  5> * xyz 0 1
|  6> C -2.1291560114 -1.2591446308 -0.1437322741
|  7> C -1.5045564303 -1.24752e-05 0.4155394044
|  8> C -2.1284428483 1.259473229 -0.1436914104
|  9> I 0.6670253414 -4.01046e-05 -0.0106801214
| 10> H -2.0472288824 -1.285131817 -1.2284118818
| 11> H -1.6574818001 -2.1510668507 0.2623535123
| 12> H -3.1848130731 -1.2767602296 0.1227874613
| 13> H -1.5428746224 -3.79333e-05 1.5044816644
| 14> H -3.1844766774 1.2769843761 0.1213178927
| 15> H -2.0448711537 1.286227481 -1.2282283739
| 16> H -1.6573817126 2.1510673693 0.2637357479
| 17> *
| 18>
| 19>                          ****END OF INPUT****

CARTESIAN COORDINATES (ANGSTROEM)
---------------------------------
  C     -2.129156   -1.259145   -0.143732
  C     -1.504556   -0.000012    0.415539
  C     -2.128443    1.259473   -0.143691
  I      0.667025   -0.000040   -0.010680
  H     -2.047229   -1.285132   -1.228412
  H     -1.657482   -2.151067    0.262354
  H     -3.184813   -1.276760    0.122787
  H     -1.542875   -0.000038    1.504482
  H     -3.184477    1.276984    0.121318
  H     -2.044871    1.286227   -1.228228
  H     -1.657382    2.151067    0.263736

 Total Charge           Charge          ....    0
 Multiplicity           Mult            ....    1
 Number of Electrons    NEL             ....   50
 Basis Dimension        Dim             ....   82

ORBITAL ENERGIES
----------------

  NO   OCC          E(Eh)            E(eV)
   0   2.0000      -9.950704      -270.7724
   1   2.0000      -9.891753      -269.1683
   2   2.0000      -9.891735      -269.1678
   3   2.0000      -6.589421      -179.3073
   4   2.0000      -4.660775      -126.8261
   5   2.0000      -4.644590      -126.3857
   6   2.0000      -4.644537      -126.3843
   7   2.0000      -1.796898       -48.8961
   8   2.0000      -1.792697       -48.7818
   9   2.0000      -1.792613       -48.7795
  10   2.0000      -1.779606       -48.4255
  11   2.0000      -1.779589       -48.4251
  12   2.0000      -0.737222       -20.0608
  13   2.0000      -0.630297       -17.1513
  14   2.0000      -0.617264       -16.7966
  15   2.0000      -0.520331       -14.1589
  16   2.0000      -0.425410       -11.5760
  17   2.0000      -0.405703       -11.0397
  18   2.0000      -0.380759       -10.3610
  19   2.0000      -0.356964        -9.7135
  20   2.0000      -0.322470        -8.7749
  21   2.0000      -0.321261        -8.7420
  22   2.0000      -0.283581        -7.7166
  23   2.0000      -0.216250        -5.8844
  24   2.0000      -0.215803        -5.8723
  25   0.0000      -0.061289        -1.6677
  26   0.0000       0.033684         0.9166
  27   0.0000       0.073859         2.0098
  28   0.0000       0.082718         2.2509
  29   0.0000       0.094667         2.5760

MULLIKEN ATOMIC CHARGES
-----------------------
   0 C :   -0.222943
   1 C :   -0.354467
   2 C :   -0.222971
   3 I :   -0.054377
   4 H :    0.118421
   5 H :    0.125321
   6 H :    0.111263
   7 H :    0.144744
   8 H :    0.111243
   9 H :    0.118468
  10 H :    0.125298
Sum of atomic charges:    0.0000000

LOEWDIN ATOMIC CHARGES
----------------------
   0 C :   -0.346179
   1 C :   -0.230951
   2 C :   -0.346209
   3 I :    0.031857
   4 H :    0.126265
   5 H :    0.127186
   6 H :    0.127229
   7 H :    0.130146
   8 H :    0.127208
   9 H :    0.126269
  10 H :    0.127180

  Mayer bond orders larger than 0.100000
B(  0-C ,  1-C ) :   1.0946 B(  0-C ,  4-H ) :   0.9501 B(  0-C ,  5-H ) :   0.9480
B(  0-C ,  6-H ) :   0.9314 B(  1-C ,  2-C ) :   1.0946 B(  1-C ,  3-I ) :   1.0195
B(  1-C ,  7-H ) :   0.9078 B(  2-C ,  8-H ) :   0.9315 B(  2-C ,  9-H ) :   0.9501
B(  2-C , 10-H ) :   0.9480

Dispersion correction           -0.008437268
FINAL SINGLE POINT ENERGY      -415.909491390068

DIPOLE MOMENT
-------------

Method             : SCF
Type of density    : Electron Density
Multiplicity       :   1
Irrep              :   0
Energy             :  -415.9468138906353261 Eh
Relativity type    :
Basis              : AO
                                X                 Y                 Z
Electronic contribution:     61.944233728      -0.004078766      -0.492801759
Nuclear contribution   :    -62.766940161       0.004112838       0.604157685
                        -----------------------------------------
Total Dipole Moment    :     -0.822706433       0.000034073       0.111355927
                        -----------------------------------------
Magnitude (a.u.)       :      0.830208419
Magnitude (Debye)      :      2.110222099

Rotational constants in cm-1:             0.271371             0.071005             0.059488
Rotational constants in MHz :          8135.488368          2128.690894          1783.405339

                             ****ORCA TERMINATED NORMALLY****
TOTAL RUN TIME: 0 days 0 hours 0 minutes 13 seconds 162 msec
