                         Program Version 6.0.0  -   RELEASE  -
|  1> ! pbe def2-sv(p) def2/J RI DEFGRID1 loosescf d4 GCP(DFT/SV(P)) printgap
|  2> %output
|  3>     printlevel normal
|  4> end
|  5> * xyz 0 1
|  6> C 5.892109272 -1.4725563036 -0.9820924013
|  7> C 4.5462640694 -0.8520764797 -1.297401078
|  8> O 3.7732923505 -0.8254290726 -0.0794885166
|  9> P 2.5199745043 0.1379524534 0.0718967713
| 10> S 2.8419779105 2.024748004 -0.3277334386
| 11> O 2.0692728494 -0.0798004795 1.5612786115
| 12> C 1.7600214327 -1.374032003 2.1385961405
| 13> C 2.9777360592 -1.9756982755 2.8086336612
| 14> S 1.0552414348 -0.8126099966 -1.1602080157
| 15> C -0.0424659835 0.6163424632 -1.2898050383
| 16> S -0.9594060428 0.9390400405 0.2366441441
| 17> P -2.9265528192 0.3504908689 -0.3910789592
| 18> S -3.0934586649 -0.2945430681 -2.2310116289
| 19> O -3.8189094603 1.6269583841 -0.1520728669
| 20> C -3.6922949761 2.5903043952 0.9202934682
| 21> C -3.6921800532 1.946143041 2.2891280606
| 22> O -3.4690612294 -0.6571649555 0.7133595459
| 23> C -3.2778886223 -2.0787786623 0.6239158605
| 24> C -1.8290559112 -2.4734980741 0.826706386
| 25> H 5.7586800322 -2.4826502132 -0.6061179982
| 26> H 6.4897683041 -1.5029598487 -1.8871369175
| 27> H 6.4089036828 -0.8806560628 -0.2318224915
| 28> H 3.9958090171 -1.4407097438 -2.036052763
| 29> H 4.6546120701 0.1740061767 -1.6644249808
| 30> H 0.9726137002 -1.1583301852 2.8629482036
| 31> H 1.376375901 -2.0298970655 1.352023386
| 32> H 2.6925317681 -2.9053207679 3.2912215079
| 33> H 3.7526905576 -2.175379643 2.0738892753
| 34> H 3.3704147138 -1.2896352857 3.554009232
| 35> H -0.7508518732 0.4055508047 -2.0946892493
| 36> H 0.5625792752 1.4976270251 -1.5053755313
| 37> H -2.7738634174 3.1610880685 0.7588113016
| 38> H -4.5589265828 3.2372657538 0.7763308069
| 39> H -3.6897391207 2.7233285443 3.0472134881
| 40> H -4.5736150108 1.3226488202 2.4124184787
| 41> H -2.8024647469 1.3305942541 2.4108782581
| 42> H -3.9173014911 -2.477060854 1.4130284977
| 43> H -3.6369515053 -2.4177656274 -0.3529864508
| 44> H -1.2269672904 -2.1311473558 -0.0144570796
| 45> H -1.4451868997 -2.0341711694 1.7439510329
| 46> H -1.7565791649 -3.5544798387 0.8874066609
| 47> *
| 48>
| 49>                          ****END OF INPUT****

CARTESIAN COORDINATES (ANGSTROEM)
---------------------------------
  C      5.892109   -1.472556   -0.982092
  C      4.546264   -0.852076   -1.297401
  O      3.773292   -0.825429   -0.079489
  P      2.519975    0.137952    0.071897
  S      2.841978    2.024748   -0.327733
  O      2.069273   -0.079800    1.561279
  C      1.760021   -1.374032    2.138596
  C      2.977736   -1.975698    2.808634
  S      1.055241   -0.812610   -1.160208
  C     -0.042466    0.616342   -1.289805
  S     -0.959406    0.939040    0.236644
  P     -2.926553    0.350491   -0.391079
  S     -3.093459   -0.294543   -2.231012
  O     -3.818909    1.626958   -0.152073
  C     -3.692295    2.590304    0.920293
  C     -3.692180    1.946143    2.289128
  O     -3.469061   -0.657165    0.713360
  C     -3.277889   -2.078779    0.623916
  C     -1.829056   -2.473498    0.826706
  H      5.758680   -2.482650   -0.606118
  H      6.489768   -1.502960   -1.887137
  H      6.408904   -0.880656   -0.231822
  H      3.995809   -1.440710   -2.036053
  H      4.654612    0.174006   -1.664425
  H      0.972614   -1.158330    2.862948
  H      1.376376   -2.029897    1.352023
  H      2.692532   -2.905321    3.291222
  H      3.752691   -2.175380    2.073889
  H      3.370415   -1.289635    3.554009
  H     -0.750852    0.405551   -2.094689
  H      0.562579    1.497627   -1.505376
  H     -2.773863    3.161088    0.758811
  H     -4.558927    3.237266    0.776331
  H     -3.689739    2.723329    3.047213
  H     -4.573615    1.322649    2.412418
  H     -2.802465    1.330594    2.410878
  H     -3.917301   -2.477061    1.413028
  H     -3.636952   -2.417766   -0.352986
  H     -1.226967   -2.131147   -0.014457
  H     -1.445187   -2.034171    1.743951
  H     -1.756579   -3.554480    0.887407

 Total Charge           Charge          ....    0
 Multiplicity           Mult            ....    1
 Number of Electrons    NEL             ....  202
 Basis Dimension        Dim             ....  334

ORBITAL ENERGIES
----------------

  NO   OCC          E(Eh)            E(eV)
   0   2.0000     -88.044828     -2395.8216
   1   2.0000     -88.043578     -2395.7875
   2   2.0000     -87.988173     -2394.2799
   3   2.0000     -87.987001     -2394.2480
   4   2.0000     -76.428041     -2079.7127
   5   2.0000     -76.427801     -2079.7062
   6   2.0000     -18.799374      -511.5570
   7   2.0000     -18.796959      -511.4913
   8   2.0000     -18.792824      -511.3787
   9   2.0000     -18.791767      -511.3500
  10   2.0000      -9.960142      -271.0293
  11   2.0000      -9.958110      -270.9740
  12   2.0000      -9.957712      -270.9631
  13   2.0000      -9.953803      -270.8568
  14   2.0000      -9.948775      -270.7199
  15   2.0000      -9.892874      -269.1988
  16   2.0000      -9.890872      -269.1443
  17   2.0000      -9.890088      -269.1230
  18   2.0000      -9.885752      -269.0050
  19   2.0000      -7.689383      -209.2388
  20   2.0000      -7.688019      -209.2016
  21   2.0000      -7.633344      -207.7138
  22   2.0000      -7.632286      -207.6851
  23   2.0000      -6.425927      -174.8584
  24   2.0000      -6.425292      -174.8411
  25   2.0000      -5.716941      -155.5659
  26   2.0000      -5.715807      -155.5350
  27   2.0000      -5.713947      -155.4844
  28   2.0000      -5.712557      -155.4466
  29   2.0000      -5.706732      -155.2881
  30   2.0000      -5.705174      -155.2457
  31   2.0000      -5.662261      -154.0780
  32   2.0000      -5.661285      -154.0514
  33   2.0000      -5.654027      -153.8539
  34   2.0000      -5.653390      -153.8366
  35   2.0000      -5.652740      -153.8189
  36   2.0000      -5.652492      -153.8121
  37   2.0000      -4.648817      -126.5007
  38   2.0000      -4.647930      -126.4766
  39   2.0000      -4.647684      -126.4699
  40   2.0000      -4.646961      -126.4502
  41   2.0000      -4.646021      -126.4247
  42   2.0000      -4.645794      -126.4185
  43   2.0000      -0.993808       -27.0429
  44   2.0000      -0.987783       -26.8790
  45   2.0000      -0.951565       -25.8934
  46   2.0000      -0.946512       -25.7559
  47   2.0000      -0.762454       -20.7474
  48   2.0000      -0.724657       -19.7189
  49   2.0000      -0.715221       -19.4622
  50   2.0000      -0.697246       -18.9730
  51   2.0000      -0.692443       -18.8423
  52   2.0000      -0.678628       -18.4664
  53   2.0000      -0.650873       -17.7112
  54   2.0000      -0.639012       -17.3884
  55   2.0000      -0.601876       -16.3779
  56   2.0000      -0.593467       -16.1491
  57   2.0000      -0.578349       -15.7377
  58   2.0000      -0.573534       -15.6066
  59   2.0000      -0.563340       -15.3293
  60   2.0000      -0.511694       -13.9239
  61   2.0000      -0.495314       -13.4782
  62   2.0000      -0.486294       -13.2327
  63   2.0000      -0.473759       -12.8916
  64   2.0000      -0.458995       -12.4899
  65   2.0000      -0.450532       -12.2596
  66   2.0000      -0.446362       -12.1461
  67   2.0000      -0.440800       -11.9948
  68   2.0000      -0.436382       -11.8746
  69   2.0000      -0.424271       -11.5450
  70   2.0000      -0.408203       -11.1078
  71   2.0000      -0.400707       -10.9038
  72   2.0000      -0.395300       -10.7567
  73   2.0000      -0.388965       -10.5843
  74   2.0000      -0.382369       -10.4048
  75   2.0000      -0.372648       -10.1403
  76   2.0000      -0.368392       -10.0244
  77   2.0000      -0.361460        -9.8358
  78   2.0000      -0.357207        -9.7201
  79   2.0000      -0.356492        -9.7006
  80   2.0000      -0.354281        -9.6405
  81   2.0000      -0.349877        -9.5206
  82   2.0000      -0.347700        -9.4614
  83   2.0000      -0.344704        -9.3799
  84   2.0000      -0.339551        -9.2397
  85   2.0000      -0.322327        -8.7710
  86   2.0000      -0.311860        -8.4861
  87   2.0000      -0.304800        -8.2940
  88   2.0000      -0.297583        -8.0977
  89   2.0000      -0.295499        -8.0409
  90   2.0000      -0.293864        -7.9964
  91   2.0000      -0.280209        -7.6249
  92   2.0000      -0.272879        -7.4254
  93   2.0000      -0.265312        -7.2195
  94   2.0000      -0.260251        -7.0818
  95   2.0000      -0.233611        -6.3569
  96   2.0000      -0.221293        -6.0217
  97   2.0000      -0.212960        -5.7949
  98   2.0000      -0.204934        -5.5765
  99   2.0000      -0.204018        -5.5516
 100   2.0000      -0.201295        -5.4775
 101   0.0000      -0.044543        -1.2121
 102   0.0000      -0.031418        -0.8549
 103   0.0000      -0.014338        -0.3902
 104   0.0000       0.005248         0.1428
 105   0.0000       0.013692         0.3726

MULLIKEN ATOMIC CHARGES
-----------------------
   0 C :   -0.284058
   1 C :   -0.012210
   2 O :   -0.384750
   3 P :    0.598503
   4 S :   -0.309291
   5 O :   -0.347746
   6 C :   -0.029041
   7 C :   -0.289805
   8 S :   -0.105899
   9 C :   -0.357912
  10 S :   -0.110442
  11 P :    0.598380
  12 S :   -0.308341
  13 O :   -0.358104
  14 C :   -0.004590
  15 C :   -0.315907
  16 O :   -0.373391
  17 C :    0.007064
  18 C :   -0.339899
  19 H :    0.116681
  20 H :    0.115250
  21 H :    0.123298
  22 H :    0.106416
  23 H :    0.109159
  24 H :    0.116871
  25 H :    0.114491
  26 H :    0.109802
  27 H :    0.123984
  28 H :    0.120548
  29 H :    0.193555
  30 H :    0.198738
  31 H :    0.117882
  32 H :    0.113373
  33 H :    0.117260
  34 H :    0.125235
  35 H :    0.124151
  36 H :    0.102900
  37 H :    0.113877
  38 H :    0.136220
  39 H :    0.117450
  40 H :    0.110300
Sum of atomic charges:   -0.0000000

LOEWDIN ATOMIC CHARGES
----------------------
   0 C :   -0.350572
   1 C :   -0.119924
   2 O :   -0.248973
   3 P :    0.564358
   4 S :   -0.305561
   5 O :   -0.229861
   6 C :   -0.114613
   7 C :   -0.360451
   8 S :    0.074204
   9 C :   -0.490824
  10 S :    0.072088
  11 P :    0.572050
  12 S :   -0.300630
  13 O :   -0.235773
  14 C :   -0.113996
  15 C :   -0.366581
  16 O :   -0.243546
  17 C :   -0.117010
  18 C :   -0.373751
  19 H :    0.125681
  20 H :    0.132606
  21 H :    0.130167
  22 H :    0.110562
  23 H :    0.111153
  24 H :    0.121162
  25 H :    0.106621
  26 H :    0.129778
  27 H :    0.125925
  28 H :    0.129354
  29 H :    0.125531
  30 H :    0.127486
  31 H :    0.112642
  32 H :    0.124182
  33 H :    0.133254
  34 H :    0.130060
  35 H :    0.117521
  36 H :    0.117910
  37 H :    0.112185
  38 H :    0.114343
  39 H :    0.121483
  40 H :    0.129762

  Mayer bond orders larger than 0.100000
B(  0-C ,  1-C ) :   1.1604 B(  0-C , 19-H ) :   0.9509 B(  0-C , 20-H ) :   0.9414
B(  0-C , 21-H ) :   0.9506 B(  1-C ,  2-O ) :   0.9007 B(  1-C , 22-H ) :   0.9288
B(  1-C , 23-H ) :   0.9091 B(  2-O ,  3-P ) :   1.0823 B(  3-P ,  4-S ) :   1.6526
B(  3-P ,  5-O ) :   1.1508 B(  3-P ,  8-S ) :   0.9482 B(  4-S ,  8-S ) :   0.1099
B(  5-O ,  6-C ) :   0.8910 B(  6-C ,  7-C ) :   1.1608 B(  6-C , 24-H ) :   0.9322
B(  6-C , 25-H ) :   0.9100 B(  7-C , 26-H ) :   0.9396 B(  7-C , 27-H ) :   0.9394
B(  7-C , 28-H ) :   0.9462 B(  8-S ,  9-C ) :   1.0084 B(  9-C , 10-S ) :   1.0079
B(  9-C , 29-H ) :   0.8473 B(  9-C , 30-H ) :   0.8655 B( 10-S , 11-P ) :   0.9391
B( 10-S , 12-S ) :   0.1135 B( 11-P , 12-S ) :   1.6195 B( 11-P , 13-O ) :   1.1500
B( 11-P , 16-O ) :   1.0881 B( 12-S , 29-H ) :   0.1195 B( 13-O , 14-C ) :   0.9017
B( 14-C , 15-C ) :   1.1694 B( 14-C , 31-H ) :   0.9208 B( 14-C , 32-H ) :   0.9334
B( 15-C , 33-H ) :   0.9349 B( 15-C , 34-H ) :   0.9424 B( 15-C , 35-H ) :   0.9374
B( 16-O , 17-C ) :   0.9132 B( 17-C , 18-C ) :   1.1612 B( 17-C , 36-H ) :   0.9332
B( 17-C , 37-H ) :   0.9152 B( 18-C , 38-H ) :   0.9263 B( 18-C , 39-H ) :   0.9411
B( 18-C , 40-H ) :   0.9375

Dispersion correction           -0.062765428
FINAL SINGLE POINT ENERGY     -2929.518739708507

DIPOLE MOMENT
-------------

Method             : SCF
Type of density    : Electron Density
Multiplicity       :   1
Irrep              :   0
Energy             : -2929.6409124082838389 Eh
Relativity type    :
Basis              : AO
                                X                 Y                 Z
Electronic contribution:     -8.316349617      12.997181588     -14.305631755
Nuclear contribution   :      8.698482984     -14.212842901      15.606254720
                        -----------------------------------------
Total Dipole Moment    :      0.382133367      -1.215661314       1.300622965
                        -----------------------------------------
Magnitude (a.u.)       :      1.820845528
Magnitude (Debye)      :      4.628221522

Rotational constants in cm-1:             0.013054             0.004131             0.004064
Rotational constants in MHz :           391.362167           123.852220           121.842349

                             ****ORCA TERMINATED NORMALLY****
TOTAL RUN TIME: 0 days 0 hours 0 minutes 20 seconds 555 msec
