                         Program Version 6.0.0  -   RELEASE  -
|  1> ! r2scan-3c def2/J RI DEFGRID2 scfconv6 printgap
|  2> %output
|  3>     printlevel normal
|  4> end
|  5> * xyz 0 1
|  6> C 4.7610626915 -1.2015972799 -0.9161151877
|  7> C 4.6740979086 0.2216139256 -0.4043558631
|  8> O 3.4825752457 0.4468644207 0.3690568
|  9> P 2.026843435 0.4422095679 -0.2770606168
| 10> S 1.9669660579 1.2534686983 -2.0669392816
| 11> O 1.2017162725 1.1336018539 0.8832836533
| 12> C 1.265888137 2.5604453494 1.0943257194
| 13> C 0.4160293285 2.8814545961 2.304814997
| 14> S 1.3753237099 -1.54003764 -0.0797445344
| 15> C 0.1735976877 -1.6257082915 -1.4508395805
| 16> S -1.502648587 -1.9887754024 -0.8878601043
| 17> P -1.9289197183 -0.1339426298 0.0651995992
| 18> S -1.4443204765 1.4679514032 -0.9488088268
| 19> O -1.2962484383 -0.1814620622 1.5022442629
| 20> C -1.5845237169 -1.2455150884 2.4507581715
| 21> C -0.3725828728 -1.423857271 3.3403738389
| 22> O -3.4775824691 -0.2859173751 0.3880219621
| 23> C -4.4734715553 -0.2421736565 -0.6547054265
| 24> C -5.8260420912 -0.0663889421 0.0048217478
| 25> H 4.6344131321 -1.9063379584 -0.0982933194
| 26> H 3.9819730896 -1.3763917184 -1.6568896952
| 27> H 5.7292095515 -1.3561322022 -1.3813812469
| 28> H 4.6820324631 0.9307337483 -1.23831953
| 29> H 5.4829583719 0.4523592854 0.2901255533
| 30> H 2.3111702155 2.8437187176 1.2452278669
| 31> H 0.8845387699 3.0549809181 0.1941161361
| 32> H 0.8097905601 2.3737475678 3.1803607113
| 33> H 0.4210896063 3.9537744894 2.4705469578
| 34> H -0.6041717879 2.5479759541 2.1307112571
| 35> H 0.4577754316 -2.4518494031 -2.0973561292
| 36> H 0.190311283 -0.6754379371 -1.9920455696
| 37> H -2.4634933053 -0.9378983596 3.0194123036
| 38> H -1.8121014515 -2.1603693123 1.8958747682
| 39> H -0.1422583611 -0.4913241582 3.8474437262
| 40> H -0.5838818917 -2.1926535503 4.0765355814
| 41> H 0.4894761513 -1.7211570074 2.7482811091
| 42> H -4.2388694475 0.5913708973 -1.3247636107
| 43> H -4.4196391142 -1.1787240088 -1.2159646364
| 44> H -5.8490351983 0.8625919659 0.5675073218
| 45> H -6.5940285506 -0.0403956248 -0.7610825557
| 46> H -6.0188239483 -0.8939992359 0.6809622594
| 47> *
| 48>
| 49>                          ****END OF INPUT****

CARTESIAN COORDINATES (ANGSTROEM)
---------------------------------
  C      4.761063   -1.201597   -0.916115
  C      4.674098    0.221614   -0.404356
  O      3.482575    0.446864    0.369057
  P      2.026843    0.442210   -0.277061
  S      1.966966    1.253469   -2.066939
  O      1.201716    1.133602    0.883284
  C      1.265888    2.560445    1.094326
  C      0.416029    2.881455    2.304815
  S      1.375324   -1.540038   -0.079745
  C      0.173598   -1.625708   -1.450840
  S     -1.502649   -1.988775   -0.887860
  P     -1.928920   -0.133943    0.065200
  S     -1.444320    1.467951   -0.948809
  O     -1.296248   -0.181462    1.502244
  C     -1.584524   -1.245515    2.450758
  C     -0.372583   -1.423857    3.340374
  O     -3.477582   -0.285917    0.388022
  C     -4.473472   -0.242174   -0.654705
  C     -5.826042   -0.066389    0.004822
  H      4.634413   -1.906338   -0.098293
  H      3.981973   -1.376392   -1.656890
  H      5.729210   -1.356132   -1.381381
  H      4.682032    0.930734   -1.238320
  H      5.482958    0.452359    0.290126
  H      2.311170    2.843719    1.245228
  H      0.884539    3.054981    0.194116
  H      0.809791    2.373748    3.180361
  H      0.421090    3.953774    2.470547
  H     -0.604172    2.547976    2.130711
  H      0.457775   -2.451849   -2.097356
  H      0.190311   -0.675438   -1.992046
  H     -2.463493   -0.937898    3.019412
  H     -1.812101   -2.160369    1.895875
  H     -0.142258   -0.491324    3.847444
  H     -0.583882   -2.192654    4.076536
  H      0.489476   -1.721157    2.748281
  H     -4.238869    0.591371   -1.324764
  H     -4.419639   -1.178724   -1.215965
  H     -5.849035    0.862592    0.567507
  H     -6.594029   -0.040396   -0.761083
  H     -6.018824   -0.893999    0.680962

 Total Charge           Charge          ....    0
 Multiplicity           Mult            ....    1
 Number of Electrons    NEL             ....  202
 Basis Dimension        Dim             ....  539

ORBITAL ENERGIES
----------------

  NO   OCC          E(Eh)            E(eV)
   0   2.0000     -88.576001     -2410.2755
   1   2.0000     -88.574582     -2410.2369
   2   2.0000     -88.513275     -2408.5687
   3   2.0000     -88.512360     -2408.5438
   4   2.0000     -76.910244     -2092.8341
   5   2.0000     -76.907025     -2092.7466
   6   2.0000     -18.991441      -516.7834
   7   2.0000     -18.989826      -516.7394
   8   2.0000     -18.986117      -516.6385
   9   2.0000     -18.977578      -516.4062
  10   2.0000     -10.106762      -275.0190
  11   2.0000     -10.100259      -274.8420
  12   2.0000     -10.098864      -274.8041
  13   2.0000     -10.092936      -274.6428
  14   2.0000     -10.085556      -274.4419
  15   2.0000     -10.033806      -273.0337
  16   2.0000     -10.028983      -272.9025
  17   2.0000     -10.024984      -272.7937
  18   2.0000     -10.019454      -272.6432
  19   2.0000      -7.870503      -214.1673
  20   2.0000      -7.869410      -214.1375
  21   2.0000      -7.807999      -212.4664
  22   2.0000      -7.807037      -212.4403
  23   2.0000      -6.588822      -179.2910
  24   2.0000      -6.585601      -179.2033
  25   2.0000      -5.817345      -158.2980
  26   2.0000      -5.816208      -158.2671
  27   2.0000      -5.814089      -158.2094
  28   2.0000      -5.813294      -158.1878
  29   2.0000      -5.807884      -158.0406
  30   2.0000      -5.806460      -158.0018
  31   2.0000      -5.755803      -156.6234
  32   2.0000      -5.754694      -156.5932
  33   2.0000      -5.748162      -156.4154
  34   2.0000      -5.747977      -156.4104
  35   2.0000      -5.747548      -156.3987
  36   2.0000      -5.746817      -156.3788
  37   2.0000      -4.734639      -128.8361
  38   2.0000      -4.733933      -128.8169
  39   2.0000      -4.732076      -128.7663
  40   2.0000      -4.731030      -128.7379
  41   2.0000      -4.730418      -128.7212
  42   2.0000      -4.729488      -128.6959
  43   2.0000      -1.050545       -28.5868
  44   2.0000      -1.042091       -28.3567
  45   2.0000      -1.008806       -27.4510
  46   2.0000      -1.000544       -27.2262
  47   2.0000      -0.800137       -21.7728
  48   2.0000      -0.758467       -20.6389
  49   2.0000      -0.746902       -20.3242
  50   2.0000      -0.735240       -20.0069
  51   2.0000      -0.724935       -19.7265
  52   2.0000      -0.708576       -19.2813
  53   2.0000      -0.680575       -18.5194
  54   2.0000      -0.660818       -17.9818
  55   2.0000      -0.624720       -16.9995
  56   2.0000      -0.613305       -16.6889
  57   2.0000      -0.602902       -16.4058
  58   2.0000      -0.598603       -16.2888
  59   2.0000      -0.588444       -16.0124
  60   2.0000      -0.534624       -14.5479
  61   2.0000      -0.520655       -14.1678
  62   2.0000      -0.500708       -13.6250
  63   2.0000      -0.485644       -13.2151
  64   2.0000      -0.468205       -12.7405
  65   2.0000      -0.463138       -12.6026
  66   2.0000      -0.455864       -12.4047
  67   2.0000      -0.452204       -12.3051
  68   2.0000      -0.441492       -12.0136
  69   2.0000      -0.436405       -11.8752
  70   2.0000      -0.424441       -11.5496
  71   2.0000      -0.411508       -11.1977
  72   2.0000      -0.403610       -10.9828
  73   2.0000      -0.400435       -10.8964
  74   2.0000      -0.391107       -10.6426
  75   2.0000      -0.381057       -10.3691
  76   2.0000      -0.380072       -10.3423
  77   2.0000      -0.369210       -10.0467
  78   2.0000      -0.365540        -9.9468
  79   2.0000      -0.362991        -9.8775
  80   2.0000      -0.359394        -9.7796
  81   2.0000      -0.356729        -9.7071
  82   2.0000      -0.353052        -9.6070
  83   2.0000      -0.347685        -9.4610
  84   2.0000      -0.339720        -9.2443
  85   2.0000      -0.328055        -8.9268
  86   2.0000      -0.321688        -8.7536
  87   2.0000      -0.317661        -8.6440
  88   2.0000      -0.314829        -8.5669
  89   2.0000      -0.305208        -8.3051
  90   2.0000      -0.295348        -8.0368
  91   2.0000      -0.285157        -7.7595
  92   2.0000      -0.277715        -7.5570
  93   2.0000      -0.275606        -7.4996
  94   2.0000      -0.270159        -7.3514
  95   2.0000      -0.249996        -6.8027
  96   2.0000      -0.232062        -6.3147
  97   2.0000      -0.225973        -6.1490
  98   2.0000      -0.215224        -5.8565
  99   2.0000      -0.204402        -5.5621
 100   2.0000      -0.195325        -5.3151
 101   0.0000      -0.043445        -1.1822
 102   0.0000      -0.031327        -0.8525
 103   0.0000      -0.007703        -0.2096
 104   0.0000       0.015686         0.4268
 105   0.0000       0.017367         0.4726

MULLIKEN ATOMIC CHARGES
-----------------------
   0 C :   -0.446208
   1 C :   -0.156145
   2 O :   -0.313078
   3 P :    0.651452
   4 S :   -0.463079
   5 O :   -0.242084
   6 C :   -0.127358
   7 C :   -0.471186
   8 S :   -0.128192
   9 C :   -0.225846
  10 S :   -0.175893
  11 P :    0.672505
  12 S :   -0.416248
  13 O :   -0.260675
  14 C :   -0.110633
  15 C :   -0.453349
  16 O :   -0.287927
  17 C :   -0.161850
  18 C :   -0.439007
  19 H :    0.152941
  20 H :    0.173642
  21 H :    0.146424
  22 H :    0.174561
  23 H :    0.145688
  24 H :    0.145908
  25 H :    0.175390
  26 H :    0.144781
  27 H :    0.142809
  28 H :    0.179225
  29 H :    0.195236
  30 H :    0.220292
  31 H :    0.154918
  32 H :    0.156756
  33 H :    0.154499
  34 H :    0.143461
  35 H :    0.170121
  36 H :    0.173284
  37 H :    0.148493
  38 H :    0.158416
  39 H :    0.147218
  40 H :    0.150737
Sum of atomic charges:    0.0000000

LOEWDIN ATOMIC CHARGES
----------------------
   0 C :   -0.408111
   1 C :    0.017328
   2 O :   -0.666706
   3 P :    0.369159
   4 S :   -0.127290
   5 O :   -0.675318
   6 C :    0.018102
   7 C :   -0.389731
   8 S :    0.171626
   9 C :   -0.413075
  10 S :    0.119952
  11 P :    0.372122
  12 S :   -0.066274
  13 O :   -0.649855
  14 C :    0.023900
  15 C :   -0.390704
  16 O :   -0.670861
  17 C :    0.019535
  18 C :   -0.385744
  19 H :    0.159401
  20 H :    0.164317
  21 H :    0.158277
  22 H :    0.180382
  23 H :    0.178140
  24 H :    0.170695
  25 H :    0.182996
  26 H :    0.156138
  27 H :    0.157857
  28 H :    0.169751
  29 H :    0.180293
  30 H :    0.203239
  31 H :    0.175062
  32 H :    0.176481
  33 H :    0.161534
  34 H :    0.157930
  35 H :    0.166288
  36 H :    0.181499
  37 H :    0.171068
  38 H :    0.161844
  39 H :    0.160241
  40 H :    0.158509

  Mayer bond orders larger than 0.100000
B(  0-C ,  1-C ) :   0.9205 B(  0-C , 19-H ) :   0.9679 B(  0-C , 20-H ) :   0.9652
B(  0-C , 21-H ) :   0.9598 B(  1-C ,  2-O ) :   0.8269 B(  1-C , 22-H ) :   0.9670
B(  1-C , 23-H ) :   0.9595 B(  2-O ,  3-P ) :   1.0531 B(  3-P ,  4-S ) :   1.7551
B(  3-P ,  5-O ) :   1.1741 B(  3-P ,  8-S ) :   1.1269 B(  5-O ,  6-C ) :   0.7706
B(  6-C ,  7-C ) :   0.9347 B(  6-C , 24-H ) :   0.9450 B(  6-C , 25-H ) :   0.9497
B(  7-C , 26-H ) :   0.9729 B(  7-C , 27-H ) :   0.9661 B(  7-C , 28-H ) :   0.9704
B(  8-S ,  9-C ) :   0.8898 B(  9-C , 10-S ) :   0.9203 B(  9-C , 29-H ) :   0.9142
B(  9-C , 30-H ) :   0.9045 B( 10-S , 11-P ) :   0.9826 B( 11-P , 12-S ) :   1.8475
B( 11-P , 13-O ) :   1.1412 B( 11-P , 16-O ) :   1.0489 B( 13-O , 14-C ) :   0.7396
B( 14-C , 15-C ) :   0.9611 B( 14-C , 31-H ) :   0.9455 B( 14-C , 32-H ) :   0.9544
B( 15-C , 33-H ) :   0.9694 B( 15-C , 34-H ) :   0.9649 B( 15-C , 35-H ) :   0.9637
B( 16-O , 17-C ) :   0.7900 B( 17-C , 18-C ) :   0.9561 B( 17-C , 36-H ) :   0.9516
B( 17-C , 37-H ) :   0.9422 B( 18-C , 38-H ) :   0.9713 B( 18-C , 39-H ) :   0.9638
B( 18-C , 40-H ) :   0.9716

Dispersion correction           -0.022115151
FINAL SINGLE POINT ENERGY     -2932.460804038750

DIPOLE MOMENT
-------------

Method             : SCF
Type of density    : Electron Density
Multiplicity       :   1
Irrep              :   0
Energy             : -2932.4852033409133583 Eh
Relativity type    :
Basis              : AO
                                X                 Y                 Z
Electronic contribution:      2.309886785      -0.946164575     -12.936002081
Nuclear contribution   :     -2.587887859      -0.021131135      14.030640263
                        -----------------------------------------
Total Dipole Moment    :     -0.278001074      -0.967295711       1.094638182
                        -----------------------------------------
Magnitude (a.u.)       :      1.487003140
Magnitude (Debye)      :      3.779661607

Rotational constants in cm-1:             0.012615             0.005272             0.005144
Rotational constants in MHz :           378.184214           158.056622           154.223137

                             ****ORCA TERMINATED NORMALLY****
TOTAL RUN TIME: 0 days 0 hours 1 minutes 23 seconds 2 msec
