                         Program Version 6.0.0  -   RELEASE  -
|  1> ! r2scan-3c def2/J RI DEFGRID2 scfconv6 printgap
|  2> %output
|  3>     printlevel normal
|  4> end
|  5> %cpcm
|  6>     smd true
|  7>     smdsolvent "water"
|  8> end
|  9> * xyz 0 1
| 10> C 4.7610626915 -1.2015972799 -0.9161151877
| 11> C 4.6740979086 0.2216139256 -0.4043558631
| 12> O 3.4825752457 0.4468644207 0.3690568
| 13> P 2.026843435 0.4422095679 -0.2770606168
| 14> S 1.9669660579 1.2534686983 -2.0669392816
| 15> O 1.2017162725 1.1336018539 0.8832836533
| 16> C 1.265888137 2.5604453494 1.0943257194
| 17> C 0.4160293285 2.8814545961 2.304814997
| 18> S 1.3753237099 -1.54003764 -0.0797445344
| 19> C 0.1735976877 -1.6257082915 -1.4508395805
| 20> S -1.502648587 -1.9887754024 -0.8878601043
| 21> P -1.9289197183 -0.1339426298 0.0651995992
| 22> S -1.4443204765 1.4679514032 -0.9488088268
| 23> O -1.2962484383 -0.1814620622 1.5022442629
| 24> C -1.5845237169 -1.2455150884 2.4507581715
| 25> C -0.3725828728 -1.423857271 3.3403738389
| 26> O -3.4775824691 -0.2859173751 0.3880219621
| 27> C -4.4734715553 -0.2421736565 -0.6547054265
| 28> C -5.8260420912 -0.0663889421 0.0048217478
| 29> H 4.6344131321 -1.9063379584 -0.0982933194
| 30> H 3.9819730896 -1.3763917184 -1.6568896952
| 31> H 5.7292095515 -1.3561322022 -1.3813812469
| 32> H 4.6820324631 0.9307337483 -1.23831953
| 33> H 5.4829583719 0.4523592854 0.2901255533
| 34> H 2.3111702155 2.8437187176 1.2452278669
| 35> H 0.8845387699 3.0549809181 0.1941161361
| 36> H 0.8097905601 2.3737475678 3.1803607113
| 37> H 0.4210896063 3.9537744894 2.4705469578
| 38> H -0.6041717879 2.5479759541 2.1307112571
| 39> H 0.4577754316 -2.4518494031 -2.0973561292
| 40> H 0.190311283 -0.6754379371 -1.9920455696
| 41> H -2.4634933053 -0.9378983596 3.0194123036
| 42> H -1.8121014515 -2.1603693123 1.8958747682
| 43> H -0.1422583611 -0.4913241582 3.8474437262
| 44> H -0.5838818917 -2.1926535503 4.0765355814
| 45> H 0.4894761513 -1.7211570074 2.7482811091
| 46> H -4.2388694475 0.5913708973 -1.3247636107
| 47> H -4.4196391142 -1.1787240088 -1.2159646364
| 48> H -5.8490351983 0.8625919659 0.5675073218
| 49> H -6.5940285506 -0.0403956248 -0.7610825557
| 50> H -6.0188239483 -0.8939992359 0.6809622594
| 51> *
| 52>
| 53>                          ****END OF INPUT****

CARTESIAN COORDINATES (ANGSTROEM)
---------------------------------
  C      4.761063   -1.201597   -0.916115
  C      4.674098    0.221614   -0.404356
  O      3.482575    0.446864    0.369057
  P      2.026843    0.442210   -0.277061
  S      1.966966    1.253469   -2.066939
  O      1.201716    1.133602    0.883284
  C      1.265888    2.560445    1.094326
  C      0.416029    2.881455    2.304815
  S      1.375324   -1.540038   -0.079745
  C      0.173598   -1.625708   -1.450840
  S     -1.502649   -1.988775   -0.887860
  P     -1.928920   -0.133943    0.065200
  S     -1.444320    1.467951   -0.948809
  O     -1.296248   -0.181462    1.502244
  C     -1.584524   -1.245515    2.450758
  C     -0.372583   -1.423857    3.340374
  O     -3.477582   -0.285917    0.388022
  C     -4.473472   -0.242174   -0.654705
  C     -5.826042   -0.066389    0.004822
  H      4.634413   -1.906338   -0.098293
  H      3.981973   -1.376392   -1.656890
  H      5.729210   -1.356132   -1.381381
  H      4.682032    0.930734   -1.238320
  H      5.482958    0.452359    0.290126
  H      2.311170    2.843719    1.245228
  H      0.884539    3.054981    0.194116
  H      0.809791    2.373748    3.180361
  H      0.421090    3.953774    2.470547
  H     -0.604172    2.547976    2.130711
  H      0.457775   -2.451849   -2.097356
  H      0.190311   -0.675438   -1.992046
  H     -2.463493   -0.937898    3.019412
  H     -1.812101   -2.160369    1.895875
  H     -0.142258   -0.491324    3.847444
  H     -0.583882   -2.192654    4.076536
  H      0.489476   -1.721157    2.748281
  H     -4.238869    0.591371   -1.324764
  H     -4.419639   -1.178724   -1.215965
  H     -5.849035    0.862592    0.567507
  H     -6.594029   -0.040396   -0.761083
  H     -6.018824   -0.893999    0.680962

 Total Charge           Charge          ....    0
 Multiplicity           Mult            ....    1
 Number of Electrons    NEL             ....  202
 Basis Dimension        Dim             ....  539

ORBITAL ENERGIES
----------------

  NO   OCC          E(Eh)            E(eV)
   0   2.0000     -88.579317     -2410.3657
   1   2.0000     -88.579033     -2410.3580
   2   2.0000     -88.523957     -2408.8593
   3   2.0000     -88.523838     -2408.8561
   4   2.0000     -76.917040     -2093.0191
   5   2.0000     -76.916164     -2092.9952
   6   2.0000     -18.994483      -516.8662
   7   2.0000     -18.994014      -516.8534
   8   2.0000     -18.992193      -516.8039
   9   2.0000     -18.987261      -516.6696
  10   2.0000     -10.105965      -274.9973
  11   2.0000     -10.091962      -274.6162
  12   2.0000     -10.090338      -274.5721
  13   2.0000     -10.087406      -274.4923
  14   2.0000     -10.086507      -274.4678
  15   2.0000     -10.019692      -272.6497
  16   2.0000     -10.018928      -272.6289
  17   2.0000     -10.017658      -272.5943
  18   2.0000     -10.017313      -272.5850
  19   2.0000      -7.873780      -214.2564
  20   2.0000      -7.873736      -214.2553
  21   2.0000      -7.818980      -212.7653
  22   2.0000      -7.818917      -212.7635
  23   2.0000      -6.595653      -179.4768
  24   2.0000      -6.594784      -179.4532
  25   2.0000      -5.820612      -158.3869
  26   2.0000      -5.820588      -158.3863
  27   2.0000      -5.817671      -158.3069
  28   2.0000      -5.817336      -158.2978
  29   2.0000      -5.811108      -158.1283
  30   2.0000      -5.810807      -158.1201
  31   2.0000      -5.766610      -156.9174
  32   2.0000      -5.766553      -156.9159
  33   2.0000      -5.759499      -156.7239
  34   2.0000      -5.759111      -156.7134
  35   2.0000      -5.758908      -156.7078
  36   2.0000      -5.758769      -156.7041
  37   2.0000      -4.741430      -129.0209
  38   2.0000      -4.740721      -129.0016
  39   2.0000      -4.740183      -128.9869
  40   2.0000      -4.739583      -128.9706
  41   2.0000      -4.739028      -128.9555
  42   2.0000      -4.738751      -128.9480
  43   2.0000      -1.054057       -28.6824
  44   2.0000      -1.049458       -28.5572
  45   2.0000      -1.011685       -27.5293
  46   2.0000      -1.007740       -27.4220
  47   2.0000      -0.802326       -21.8324
  48   2.0000      -0.757117       -20.6022
  49   2.0000      -0.745756       -20.2931
  50   2.0000      -0.726430       -19.7672
  51   2.0000      -0.721769       -19.6403
  52   2.0000      -0.710302       -19.3283
  53   2.0000      -0.686730       -18.6869
  54   2.0000      -0.669218       -18.2103
  55   2.0000      -0.626701       -17.0534
  56   2.0000      -0.609253       -16.5786
  57   2.0000      -0.597668       -16.2634
  58   2.0000      -0.596753       -16.2385
  59   2.0000      -0.589096       -16.0301
  60   2.0000      -0.532324       -14.4853
  61   2.0000      -0.523152       -14.2357
  62   2.0000      -0.498451       -13.5635
  63   2.0000      -0.487594       -13.2681
  64   2.0000      -0.469143       -12.7660
  65   2.0000      -0.464855       -12.6494
  66   2.0000      -0.452393       -12.3102
  67   2.0000      -0.449020       -12.2185
  68   2.0000      -0.440366       -11.9830
  69   2.0000      -0.436328       -11.8731
  70   2.0000      -0.423413       -11.5217
  71   2.0000      -0.413865       -11.2618
  72   2.0000      -0.404394       -11.0041
  73   2.0000      -0.399234       -10.8637
  74   2.0000      -0.386717       -10.5231
  75   2.0000      -0.382382       -10.4051
  76   2.0000      -0.377613       -10.2754
  77   2.0000      -0.363609        -9.8943
  78   2.0000      -0.361084        -9.8256
  79   2.0000      -0.356892        -9.7115
  80   2.0000      -0.354985        -9.6596
  81   2.0000      -0.351790        -9.5727
  82   2.0000      -0.349663        -9.5148
  83   2.0000      -0.344308        -9.3691
  84   2.0000      -0.340084        -9.2541
  85   2.0000      -0.326618        -8.8877
  86   2.0000      -0.321506        -8.7486
  87   2.0000      -0.317153        -8.6302
  88   2.0000      -0.313821        -8.5395
  89   2.0000      -0.303952        -8.2709
  90   2.0000      -0.300732        -8.1833
  91   2.0000      -0.285325        -7.7641
  92   2.0000      -0.280780        -7.6404
  93   2.0000      -0.279181        -7.5969
  94   2.0000      -0.273386        -7.4392
  95   2.0000      -0.253831        -6.9071
  96   2.0000      -0.239523        -6.5178
  97   2.0000      -0.237143        -6.4530
  98   2.0000      -0.226719        -6.1693
  99   2.0000      -0.214071        -5.8252
 100   2.0000      -0.207446        -5.6449
 101   0.0000      -0.048195        -1.3115
 102   0.0000      -0.037884        -1.0309
 103   0.0000      -0.012035        -0.3275
 104   0.0000       0.008408         0.2288
 105   0.0000       0.013475         0.3667

MULLIKEN ATOMIC CHARGES
-----------------------
   0 C :   -0.480596
   1 C :   -0.154597
   2 O :   -0.339045
   3 P :    0.688318
   4 S :   -0.523177
   5 O :   -0.269268
   6 C :   -0.129472
   7 C :   -0.511069
   8 S :   -0.122243
   9 C :   -0.225052
  10 S :   -0.173474
  11 P :    0.683266
  12 S :   -0.472279
  13 O :   -0.289362
  14 C :   -0.097942
  15 C :   -0.505629
  16 O :   -0.311208
  17 C :   -0.151658
  18 C :   -0.480237
  19 H :    0.166602
  20 H :    0.171392
  21 H :    0.171218
  22 H :    0.176595
  23 H :    0.172817
  24 H :    0.169756
  25 H :    0.174608
  26 H :    0.166956
  27 H :    0.169548
  28 H :    0.170757
  29 H :    0.237781
  30 H :    0.212562
  31 H :    0.177488
  32 H :    0.171619
  33 H :    0.170030
  34 H :    0.170722
  35 H :    0.170949
  36 H :    0.173787
  37 H :    0.167997
  38 H :    0.166364
  39 H :    0.169424
  40 H :    0.165755
Sum of atomic charges:    0.0000000

LOEWDIN ATOMIC CHARGES
----------------------
   0 C :   -0.410523
   1 C :    0.022575
   2 O :   -0.677728
   3 P :    0.374460
   4 S :   -0.165282
   5 O :   -0.693722
   6 C :    0.019394
   7 C :   -0.393490
   8 S :    0.178675
   9 C :   -0.407000
  10 S :    0.129362
  11 P :    0.373899
  12 S :   -0.106742
  13 O :   -0.669538
  14 C :    0.030707
  15 C :   -0.395096
  16 O :   -0.680928
  17 C :    0.023778
  18 C :   -0.389029
  19 H :    0.163135
  20 H :    0.161157
  21 H :    0.167372
  22 H :    0.180952
  23 H :    0.189619
  24 H :    0.179762
  25 H :    0.181995
  26 H :    0.162837
  27 H :    0.167964
  28 H :    0.164430
  29 H :    0.197330
  30 H :    0.199935
  31 H :    0.184924
  32 H :    0.182294
  33 H :    0.164288
  34 H :    0.169092
  35 H :    0.163453
  36 H :    0.181338
  37 H :    0.179015
  38 H :    0.163267
  39 H :    0.168958
  40 H :    0.163112

  Mayer bond orders larger than 0.100000
B(  0-C ,  1-C ) :   0.9103 B(  0-C , 19-H ) :   0.9655 B(  0-C , 20-H ) :   0.9650
B(  0-C , 21-H ) :   0.9546 B(  1-C ,  2-O ) :   0.8140 B(  1-C , 22-H ) :   0.9648
B(  1-C , 23-H ) :   0.9497 B(  2-O ,  3-P ) :   1.0626 B(  3-P ,  4-S ) :   1.6989
B(  3-P ,  5-O ) :   1.1744 B(  3-P ,  8-S ) :   1.1531 B(  5-O ,  6-C ) :   0.7620
B(  6-C ,  7-C ) :   0.9271 B(  6-C , 24-H ) :   0.9369 B(  6-C , 25-H ) :   0.9470
B(  7-C , 26-H ) :   0.9688 B(  7-C , 27-H ) :   0.9601 B(  7-C , 28-H ) :   0.9715
B(  8-S ,  9-C ) :   0.8830 B(  9-C , 10-S ) :   0.9123 B(  9-C , 29-H ) :   0.8977
B(  9-C , 30-H ) :   0.9092 B( 10-S , 11-P ) :   1.0080 B( 11-P , 12-S ) :   1.8144
B( 11-P , 13-O ) :   1.1457 B( 11-P , 16-O ) :   1.0565 B( 13-O , 14-C ) :   0.7323
B( 14-C , 15-C ) :   0.9442 B( 14-C , 31-H ) :   0.9349 B( 14-C , 32-H ) :   0.9477
B( 15-C , 33-H ) :   0.9676 B( 15-C , 34-H ) :   0.9578 B( 15-C , 35-H ) :   0.9658
B( 16-O , 17-C ) :   0.7821 B( 17-C , 18-C ) :   0.9545 B( 17-C , 36-H ) :   0.9484
B( 17-C , 37-H ) :   0.9333 B( 18-C , 38-H ) :   0.9691 B( 18-C , 39-H ) :   0.9579
B( 18-C , 40-H ) :   0.9684

Dispersion correction           -0.022115151
FINAL SINGLE POINT ENERGY     -2932.470128645301

DIPOLE MOMENT
-------------

Method             : SCF
Type of density    : Electron Density
Multiplicity       :   1
Irrep              :   0
Energy             : -2932.4945279474641211 Eh
Relativity type    :
Basis              : AO
                                X                 Y                 Z
Electronic contribution:      2.324789680      -1.562230745     -12.647487303
Nuclear contribution   :     -2.587887859      -0.021131135      14.030640263
                        -----------------------------------------
Total Dipole Moment    :     -0.263098179      -1.583361880       1.383152960
                        -----------------------------------------
Magnitude (a.u.)       :      2.118812782
Magnitude (Debye)      :      5.385594093

Rotational constants in cm-1:             0.012615             0.005272             0.005144
Rotational constants in MHz :           378.184214           158.056622           154.223137

                             ****ORCA TERMINATED NORMALLY****
TOTAL RUN TIME: 0 days 0 hours 1 minutes 58 seconds 771 msec
