                         Program Version 6.0.0  -   RELEASE  -
|  1> ! r2scan-3c def2/J RI DEFGRID2 scfconv6 printgap
|  2> %output
|  3>     printlevel normal
|  4> end
|  5> * xyz 0 1
|  6> C -1.4802962446 -0.0017362939 -0.2438772632
|  7> C -0.7323122379 -1.2446478718 0.2359156597
|  8> C 0.723307052 -1.1712822253 -0.2248306365
|  9> O 1.3673174577 0.0015957419 0.239603304
| 10> C 0.7203829605 1.1729218151 -0.2248374151
| 11> C -0.7353747751 1.2429509494 0.23594581
| 12> H -2.5019276727 -0.002870488 0.1375346655
| 13> H -1.5232315478 -0.0018179561 -1.335741829
| 14> H -0.7551991176 -1.286908572 1.3262847846
| 15> H -1.1897958128 -2.1514990788 -0.1588597855
| 16> H 1.3091161616 -2.000386125 0.1756851504
| 17> H 0.7672272675 -1.1982561831 -1.3248960891
| 18> H 1.3042276434 2.0035325547 0.1756520557
| 19> H 0.7643724213 1.2004994172 -1.324809923
| 20> H -0.7583610227 1.2850806788 1.3263281457
| 21> H -1.1950202431 2.1486690255 -0.1588765758
| 22> *
| 23>
| 24>                          ****END OF INPUT****

CARTESIAN COORDINATES (ANGSTROEM)
---------------------------------
  C     -1.480296   -0.001736   -0.243877
  C     -0.732312   -1.244648    0.235916
  C      0.723307   -1.171282   -0.224831
  O      1.367317    0.001596    0.239603
  C      0.720383    1.172922   -0.224837
  C     -0.735375    1.242951    0.235946
  H     -2.501928   -0.002870    0.137535
  H     -1.523232   -0.001818   -1.335742
  H     -0.755199   -1.286909    1.326285
  H     -1.189796   -2.151499   -0.158860
  H      1.309116   -2.000386    0.175685
  H      0.767227   -1.198256   -1.324896
  H      1.304228    2.003533    0.175652
  H      0.764372    1.200499   -1.324810
  H     -0.758361    1.285081    1.326328
  H     -1.195020    2.148669   -0.158877

 Total Charge           Charge          ....    0
 Multiplicity           Mult            ....    1
 Number of Electrons    NEL             ....   48
 Basis Dimension        Dim             ....  169

ORBITAL ENERGIES
----------------

  NO   OCC          E(Eh)            E(eV)
   0   2.0000     -18.945832      -515.5423
   1   2.0000     -10.070731      -274.0385
   2   2.0000     -10.070724      -274.0383
   3   2.0000     -10.028891      -272.9000
   4   2.0000     -10.025932      -272.8195
   5   2.0000     -10.025921      -272.8192
   6   2.0000      -0.994920       -27.0732
   7   2.0000      -0.765763       -20.8375
   8   2.0000      -0.725601       -19.7446
   9   2.0000      -0.606314       -16.4987
  10   2.0000      -0.600441       -16.3388
  11   2.0000      -0.528510       -14.3815
  12   2.0000      -0.461512       -12.5584
  13   2.0000      -0.438424       -11.9301
  14   2.0000      -0.418775       -11.3954
  15   2.0000      -0.408973       -11.1287
  16   2.0000      -0.386499       -10.5172
  17   2.0000      -0.353834        -9.6283
  18   2.0000      -0.345847        -9.4110
  19   2.0000      -0.321307        -8.7432
  20   2.0000      -0.306572        -8.3422
  21   2.0000      -0.291064        -7.9203
  22   2.0000      -0.265425        -7.2226
  23   2.0000      -0.213851        -5.8192
  24   0.0000       0.081007         2.2043
  25   0.0000       0.102339         2.7848
  26   0.0000       0.115808         3.1513
  27   0.0000       0.119924         3.2633
  28   0.0000       0.122338         3.3290

MULLIKEN ATOMIC CHARGES
-----------------------
   0 C :   -0.283910
   1 C :   -0.263989
   2 C :   -0.211853
   3 O :   -0.225948
   4 C :   -0.211927
   5 C :   -0.263903
   6 H :    0.149524
   7 H :    0.151293
   8 H :    0.152124
   9 H :    0.147075
  10 H :    0.144871
  11 H :    0.136284
  12 H :    0.144857
  13 H :    0.136302
  14 H :    0.152125
  15 H :    0.147076
Sum of atomic charges:    0.0000000

LOEWDIN ATOMIC CHARGES
----------------------
   0 C :   -0.304278
   1 C :   -0.289105
   2 C :    0.010363
   3 O :   -0.770319
   4 C :    0.010329
   5 C :   -0.289107
   6 H :    0.155735
   7 H :    0.156178
   8 H :    0.161092
   9 H :    0.158622
  10 H :    0.178851
  11 H :    0.161551
  12 H :    0.178841
  13 H :    0.161525
  14 H :    0.161098
  15 H :    0.158626

  Mayer bond orders larger than 0.100000
B(  0-C ,  1-C ) :   0.8984 B(  0-C ,  5-C ) :   0.8984 B(  0-C ,  6-H ) :   0.9621
B(  0-C ,  7-H ) :   0.9893 B(  1-C ,  2-C ) :   0.9117 B(  1-C ,  8-H ) :   0.9782
B(  1-C ,  9-H ) :   0.9563 B(  2-C ,  3-O ) :   0.9125 B(  2-C , 10-H ) :   0.9551
B(  2-C , 11-H ) :   0.9888 B(  3-O ,  4-C ) :   0.9126 B(  4-C ,  5-C ) :   0.9117
B(  4-C , 12-H ) :   0.9552 B(  4-C , 13-H ) :   0.9888 B(  5-C , 14-H ) :   0.9781
B(  5-C , 15-H ) :   0.9563

Dispersion correction           -0.004011134
FINAL SINGLE POINT ENERGY      -271.691149264326

DIPOLE MOMENT
-------------

Method             : SCF
Type of density    : Electron Density
Multiplicity       :   1
Irrep              :   0
Energy             :  -271.6964245835304155 Eh
Relativity type    :
Basis              : AO
                                X                 Y                 Z
Electronic contribution:      2.998865630       0.003111511       0.845532250
Nuclear contribution   :     -3.524636000      -0.003688360      -1.086310936
                        -----------------------------------------
Total Dipole Moment    :     -0.525770371      -0.000576849      -0.240778686
                        -----------------------------------------
Magnitude (a.u.)       :      0.578281238
Magnitude (Debye)      :      1.469874095

Rotational constants in cm-1:             0.157550             0.150276             0.087447
Rotational constants in MHz :          4723.241624          4505.166131          2621.582313

                             ****ORCA TERMINATED NORMALLY****
TOTAL RUN TIME: 0 days 0 hours 0 minutes 36 seconds 530 msec
