                         Program Version 6.0.0  -   RELEASE  -
|  1> ! r2scan-3c def2/J RI DEFGRID2 scfconv6 printgap
|  2> %output
|  3>     printlevel normal
|  4> end
|  5> %cpcm
|  6>     smd true
|  7>     smdsolvent "water"
|  8> end
|  9> * xyz 0 1
| 10> C -1.4802962446 -0.0017362939 -0.2438772632
| 11> C -0.7323122379 -1.2446478718 0.2359156597
| 12> C 0.723307052 -1.1712822253 -0.2248306365
| 13> O 1.3673174577 0.0015957419 0.239603304
| 14> C 0.7203829605 1.1729218151 -0.2248374151
| 15> C -0.7353747751 1.2429509494 0.23594581
| 16> H -2.5019276727 -0.002870488 0.1375346655
| 17> H -1.5232315478 -0.0018179561 -1.335741829
| 18> H -0.7551991176 -1.286908572 1.3262847846
| 19> H -1.1897958128 -2.1514990788 -0.1588597855
| 20> H 1.3091161616 -2.000386125 0.1756851504
| 21> H 0.7672272675 -1.1982561831 -1.3248960891
| 22> H 1.3042276434 2.0035325547 0.1756520557
| 23> H 0.7643724213 1.2004994172 -1.324809923
| 24> H -0.7583610227 1.2850806788 1.3263281457
| 25> H -1.1950202431 2.1486690255 -0.1588765758
| 26> *
| 27>
| 28>                          ****END OF INPUT****

CARTESIAN COORDINATES (ANGSTROEM)
---------------------------------
  C     -1.480296   -0.001736   -0.243877
  C     -0.732312   -1.244648    0.235916
  C      0.723307   -1.171282   -0.224831
  O      1.367317    0.001596    0.239603
  C      0.720383    1.172922   -0.224837
  C     -0.735375    1.242951    0.235946
  H     -2.501928   -0.002870    0.137535
  H     -1.523232   -0.001818   -1.335742
  H     -0.755199   -1.286909    1.326285
  H     -1.189796   -2.151499   -0.158860
  H      1.309116   -2.000386    0.175685
  H      0.767227   -1.198256   -1.324896
  H      1.304228    2.003533    0.175652
  H      0.764372    1.200499   -1.324810
  H     -0.758361    1.285081    1.326328
  H     -1.195020    2.148669   -0.158877

 Total Charge           Charge          ....    0
 Multiplicity           Mult            ....    1
 Number of Electrons    NEL             ....   48
 Basis Dimension        Dim             ....  169

ORBITAL ENERGIES
----------------

  NO   OCC          E(Eh)            E(eV)
   0   2.0000     -18.953677      -515.7558
   1   2.0000     -10.066379      -273.9201
   2   2.0000     -10.066372      -273.9199
   3   2.0000     -10.018424      -272.6152
   4   2.0000     -10.017587      -272.5924
   5   2.0000     -10.017568      -272.5919
   6   2.0000      -1.001066       -27.2404
   7   2.0000      -0.757906       -20.6237
   8   2.0000      -0.721043       -19.6206
   9   2.0000      -0.599887       -16.3238
  10   2.0000      -0.596082       -16.2202
  11   2.0000      -0.521937       -14.2026
  12   2.0000      -0.458484       -12.4760
  13   2.0000      -0.435422       -11.8484
  14   2.0000      -0.412180       -11.2160
  15   2.0000      -0.403515       -10.9802
  16   2.0000      -0.380784       -10.3617
  17   2.0000      -0.347287        -9.4502
  18   2.0000      -0.345071        -9.3899
  19   2.0000      -0.313828        -8.5397
  20   2.0000      -0.297890        -8.1060
  21   2.0000      -0.283120        -7.7041
  22   2.0000      -0.266921        -7.2633
  23   2.0000      -0.218379        -5.9424
  24   0.0000       0.081300         2.2123
  25   0.0000       0.112308         3.0561
  26   0.0000       0.123114         3.3501
  27   0.0000       0.129819         3.5326
  28   0.0000       0.130763         3.5583

MULLIKEN ATOMIC CHARGES
-----------------------
   0 C :   -0.285854
   1 C :   -0.290372
   2 C :   -0.213107
   3 O :   -0.302194
   4 C :   -0.213167
   5 C :   -0.290293
   6 H :    0.159599
   7 H :    0.163271
   8 H :    0.160915
   9 H :    0.163250
  10 H :    0.158520
  11 H :    0.153369
  12 H :    0.158492
  13 H :    0.153395
  14 H :    0.160917
  15 H :    0.163261
Sum of atomic charges:   -0.0000000

LOEWDIN ATOMIC CHARGES
----------------------
   0 C :   -0.305297
   1 C :   -0.289158
   2 C :    0.009242
   3 O :   -0.815115
   4 C :    0.009211
   5 C :   -0.289159
   6 H :    0.158872
   7 H :    0.160682
   8 H :    0.162313
   9 H :    0.165068
  10 H :    0.183062
  11 H :    0.169931
  12 H :    0.183046
  13 H :    0.169908
  14 H :    0.162317
  15 H :    0.165076

  Mayer bond orders larger than 0.100000
B(  0-C ,  1-C ) :   0.8883 B(  0-C ,  5-C ) :   0.8883 B(  0-C ,  6-H ) :   0.9616
B(  0-C ,  7-H ) :   0.9839 B(  1-C ,  2-C ) :   0.9135 B(  1-C ,  8-H ) :   0.9813
B(  1-C ,  9-H ) :   0.9525 B(  2-C ,  3-O ) :   0.9014 B(  2-C , 10-H ) :   0.9520
B(  2-C , 11-H ) :   0.9793 B(  3-O ,  4-C ) :   0.9015 B(  4-C ,  5-C ) :   0.9135
B(  4-C , 12-H ) :   0.9520 B(  4-C , 13-H ) :   0.9792 B(  5-C , 14-H ) :   0.9813
B(  5-C , 15-H ) :   0.9525

Dispersion correction           -0.004011134
FINAL SINGLE POINT ENERGY      -271.695007240030

DIPOLE MOMENT
-------------

Method             : SCF
Type of density    : Electron Density
Multiplicity       :   1
Irrep              :   0
Energy             :  -271.7002825592343811 Eh
Relativity type    :
Basis              : AO
                                X                 Y                 Z
Electronic contribution:      2.765457136       0.002861225       0.682925606
Nuclear contribution   :     -3.524636000      -0.003688360      -1.086310936
                        -----------------------------------------
Total Dipole Moment    :     -0.759178865      -0.000827135      -0.403385330
                        -----------------------------------------
Magnitude (a.u.)       :      0.859693525
Magnitude (Debye)      :      2.185167282

Rotational constants in cm-1:             0.157550             0.150276             0.087447
Rotational constants in MHz :          4723.241624          4505.166131          2621.582313

                             ****ORCA TERMINATED NORMALLY****
TOTAL RUN TIME: 0 days 0 hours 0 minutes 39 seconds 905 msec
