                         Program Version 6.0.0  -   RELEASE  -
|  1> ! wb97x-v def2-tzvp def2/J RIJCOSX DEFGRID2 scfconv7 GCP(DFT/TZ) printgap
|  2> %output
|  3>     printlevel normal
|  4> end
|  5> * xyz 0 1
|  6> C 0.893381009711402 1.3846776934955565 -0.6404817672459492
|  7> C 1.6016477261169264 0.16923634956195507 -0.07677876575607406
|  8> H 2.5757237184237485 0.06263184675344709 -0.573204214162738
|  9> C 0.7724429167997579 -1.0991176592113012 -0.3121944417261462
| 10> H 1.2056844234766526 -1.928330973133356 0.26643621563292297
| 11> C -0.6845562515390642 -0.8923539638289941 0.13459449278523303
| 12> H -1.291332318958924 -1.7336368835153042 -0.22106139154711207
| 13> C -1.2583518783949927 0.40071401096290704 -0.4527227716029172
| 14> H -1.3294565502649212 0.3361544637058288 -1.547347259037111
| 15> O -0.43045034022567036 1.5181987630281006 -0.09487535394972824
| 16> O -2.546162991178134 0.658159595597143 0.04106926564562753
| 17> O -0.8015192200866736 -0.8730583770247338 1.5618006657089445
| 18> O 0.8322113018330898 -1.3713478268699166 -1.715715818279433
| 19> O 1.7721285746232034 0.3875536543596586 1.3361231990962474
| 20> H 0.8472253720162102 1.3076726671996772 -1.7357880074377166
| 21> H 1.4312627315909694 2.297333436656064 -0.3724377486168889
| 22> H -2.5285527434112427 0.4369048167902069 0.9868224508467569
| 23> H -0.09496052344955776 -0.28894266847867384 1.8879324859500162
| 24> H 0.3539858442599852 -2.1957413255371954 -1.8763453959848262
| 25> H 2.2990127033780556 -0.34471983774579373 1.6854213548774253
| 26> *
| 27>
| 28>                          ****END OF INPUT****

CARTESIAN COORDINATES (ANGSTROEM)
---------------------------------
  C      0.893381    1.384678   -0.640482
  C      1.601648    0.169236   -0.076779
  H      2.575724    0.062632   -0.573204
  C      0.772443   -1.099118   -0.312194
  H      1.205684   -1.928331    0.266436
  C     -0.684556   -0.892354    0.134594
  H     -1.291332   -1.733637   -0.221061
  C     -1.258352    0.400714   -0.452723
  H     -1.329457    0.336154   -1.547347
  O     -0.430450    1.518199   -0.094875
  O     -2.546163    0.658160    0.041069
  O     -0.801519   -0.873058    1.561801
  O      0.832211   -1.371348   -1.715716
  O      1.772129    0.387554    1.336123
  H      0.847225    1.307673   -1.735788
  H      1.431263    2.297333   -0.372438
  H     -2.528553    0.436905    0.986822
  H     -0.094961   -0.288943    1.887932
  H      0.353986   -2.195741   -1.876345
  H      2.299013   -0.344720    1.685421

 Total Charge           Charge          ....    0
 Multiplicity           Mult            ....    1
 Number of Electrons    NEL             ....   80
 Basis Dimension        Dim             ....  370

ORBITAL ENERGIES
----------------

  NO   OCC          E(Eh)            E(eV)
   0   2.0000     -21.703651      -590.5864
   1   2.0000     -21.700850      -590.5102
   2   2.0000     -21.682733      -590.0172
   3   2.0000     -21.678157      -589.8926
   4   2.0000     -21.673440      -589.7643
   5   2.0000     -12.145081      -330.4845
   6   2.0000     -12.123202      -329.8891
   7   2.0000     -12.120013      -329.8023
   8   2.0000     -12.111357      -329.5668
   9   2.0000     -12.101247      -329.2917
  10   2.0000      -1.711427       -46.5703
  11   2.0000      -1.703582       -46.3568
  12   2.0000      -1.700916       -46.2843
  13   2.0000      -1.683293       -45.8047
  14   2.0000      -1.663576       -45.2682
  15   2.0000      -1.337633       -36.3988
  16   2.0000      -1.300542       -35.3896
  17   2.0000      -1.202451       -32.7204
  18   2.0000      -1.195524       -32.5319
  19   2.0000      -1.137372       -30.9495
  20   2.0000      -1.080931       -29.4136
  21   2.0000      -1.076081       -29.2817
  22   2.0000      -1.065283       -28.9878
  23   2.0000      -1.026362       -27.9287
  24   2.0000      -1.006493       -27.3881
  25   2.0000      -1.003365       -27.3029
  26   2.0000      -0.992443       -27.0057
  27   2.0000      -0.974344       -26.5132
  28   2.0000      -0.961914       -26.1750
  29   2.0000      -0.955940       -26.0124
  30   2.0000      -0.938479       -25.5373
  31   2.0000      -0.934846       -25.4384
  32   2.0000      -0.916735       -24.9456
  33   2.0000      -0.898707       -24.4551
  34   2.0000      -0.879273       -23.9262
  35   2.0000      -0.861169       -23.4336
  36   2.0000      -0.848882       -23.0993
  37   2.0000      -0.820646       -22.3309
  38   2.0000      -0.804715       -21.8974
  39   2.0000      -0.782155       -21.2835
  40   0.0000      -0.239778        -6.5247
  41   0.0000      -0.180738        -4.9181
  42   0.0000      -0.173032        -4.7084
  43   0.0000      -0.140856        -3.8329
  44   0.0000      -0.100981        -2.7478

MULLIKEN ATOMIC CHARGES
-----------------------
   0 C :   -0.067791
   1 C :    0.068522
   2 H :    0.101986
   3 C :   -0.018240
   4 H :    0.094771
   5 C :    0.060435
   6 H :    0.101081
   7 C :    0.111965
   8 H :    0.076568
   9 O :   -0.247353
  10 O :   -0.411541
  11 O :   -0.471571
  12 O :   -0.431959
  13 O :   -0.459522
  14 H :    0.112607
  15 H :    0.120317
  16 H :    0.318049
  17 H :    0.322695
  18 H :    0.308120
  19 H :    0.310863
Sum of atomic charges:    0.0000000

LOEWDIN ATOMIC CHARGES
----------------------
   0 C :   -0.276476
   1 C :   -0.324852
   2 H :    0.143300
   3 C :   -0.316845
   4 H :    0.134349
   5 C :   -0.320240
   6 H :    0.144552
   7 C :   -0.409430
   8 H :    0.131499
   9 O :    0.158498
  10 O :    0.008534
  11 O :   -0.020255
  12 O :   -0.004574
  13 O :   -0.013135
  14 H :    0.131271
  15 H :    0.134846
  16 H :    0.178686
  17 H :    0.171794
  18 H :    0.175315
  19 H :    0.173163

  Mayer bond orders larger than 0.100000
B(  0-C ,  1-C ) :   0.9984 B(  0-C ,  9-O ) :   0.9949 B(  0-C , 14-H ) :   0.9722
B(  0-C , 15-H ) :   0.9654 B(  1-C ,  2-H ) :   0.9591 B(  1-C ,  3-C ) :   0.9569
B(  1-C , 13-O ) :   0.9936 B(  3-C ,  4-H ) :   0.9867 B(  3-C ,  5-C ) :   0.9714
B(  3-C , 12-O ) :   1.1098 B(  5-C ,  6-H ) :   0.9772 B(  5-C ,  7-C ) :   0.9627
B(  5-C , 11-O ) :   1.0166 B(  7-C ,  8-H ) :   0.9831 B(  7-C ,  9-O ) :   1.0169
B(  7-C , 10-O ) :   1.1718 B( 10-O , 16-H ) :   0.8694 B( 11-O , 17-H ) :   0.8560
B( 12-O , 18-H ) :   0.8952 B( 13-O , 19-H ) :   0.8942

FINAL SINGLE POINT ENERGY      -572.704259115771

DIPOLE MOMENT
-------------

Method             : SCF
Type of density    : Electron Density
Multiplicity       :   1
Irrep              :   0
Energy             :  -572.7204533741709156 Eh
Relativity type    :
Basis              : AO
                                X                 Y                 Z
Electronic contribution:     -1.948724153       0.889778833       1.206458588
Nuclear contribution   :      3.197354214      -2.083062598      -1.412590955
                        -----------------------------------------
Total Dipole Moment    :      1.248630061      -1.193283765      -0.206132366
                        -----------------------------------------
Magnitude (a.u.)       :      1.739394643
Magnitude (Debye)      :      4.421189826

Rotational constants in cm-1:             0.057685             0.040419             0.038330
Rotational constants in MHz :          1729.346911          1211.727525          1149.102395

                             ****ORCA TERMINATED NORMALLY****
TOTAL RUN TIME: 0 days 0 hours 3 minutes 49 seconds 708 msec
