                         Program Version 6.0.0  -   RELEASE  -
|  1> ! wb97x-v def2-tzvp def2/J RIJCOSX DEFGRID2 scfconv7 GCP(DFT/TZ) printgap
|  2> %output
|  3>     printlevel normal
|  4> end
|  5> %cpcm
|  6>     smd true
|  7>     smdsolvent "water"
|  8> end
|  9> * xyz 0 1
| 10> C 0.893381009711402 1.3846776934955565 -0.6404817672459492
| 11> C 1.6016477261169264 0.16923634956195507 -0.07677876575607406
| 12> H 2.5757237184237485 0.06263184675344709 -0.573204214162738
| 13> C 0.7724429167997579 -1.0991176592113012 -0.3121944417261462
| 14> H 1.2056844234766526 -1.928330973133356 0.26643621563292297
| 15> C -0.6845562515390642 -0.8923539638289941 0.13459449278523303
| 16> H -1.291332318958924 -1.7336368835153042 -0.22106139154711207
| 17> C -1.2583518783949927 0.40071401096290704 -0.4527227716029172
| 18> H -1.3294565502649212 0.3361544637058288 -1.547347259037111
| 19> O -0.43045034022567036 1.5181987630281006 -0.09487535394972824
| 20> O -2.546162991178134 0.658159595597143 0.04106926564562753
| 21> O -0.8015192200866736 -0.8730583770247338 1.5618006657089445
| 22> O 0.8322113018330898 -1.3713478268699166 -1.715715818279433
| 23> O 1.7721285746232034 0.3875536543596586 1.3361231990962474
| 24> H 0.8472253720162102 1.3076726671996772 -1.7357880074377166
| 25> H 1.4312627315909694 2.297333436656064 -0.3724377486168889
| 26> H -2.5285527434112427 0.4369048167902069 0.9868224508467569
| 27> H -0.09496052344955776 -0.28894266847867384 1.8879324859500162
| 28> H 0.3539858442599852 -2.1957413255371954 -1.8763453959848262
| 29> H 2.2990127033780556 -0.34471983774579373 1.6854213548774253
| 30> *
| 31>
| 32>                          ****END OF INPUT****

CARTESIAN COORDINATES (ANGSTROEM)
---------------------------------
  C      0.893381    1.384678   -0.640482
  C      1.601648    0.169236   -0.076779
  H      2.575724    0.062632   -0.573204
  C      0.772443   -1.099118   -0.312194
  H      1.205684   -1.928331    0.266436
  C     -0.684556   -0.892354    0.134594
  H     -1.291332   -1.733637   -0.221061
  C     -1.258352    0.400714   -0.452723
  H     -1.329457    0.336154   -1.547347
  O     -0.430450    1.518199   -0.094875
  O     -2.546163    0.658160    0.041069
  O     -0.801519   -0.873058    1.561801
  O      0.832211   -1.371348   -1.715716
  O      1.772129    0.387554    1.336123
  H      0.847225    1.307673   -1.735788
  H      1.431263    2.297333   -0.372438
  H     -2.528553    0.436905    0.986822
  H     -0.094961   -0.288943    1.887932
  H      0.353986   -2.195741   -1.876345
  H      2.299013   -0.344720    1.685421

 Total Charge           Charge          ....    0
 Multiplicity           Mult            ....    1
 Number of Electrons    NEL             ....   80
 Basis Dimension        Dim             ....  370

ORBITAL ENERGIES
----------------

  NO   OCC          E(Eh)            E(eV)
   0   2.0000     -21.687324      -590.1421
   1   2.0000     -21.686566      -590.1215
   2   2.0000     -21.685621      -590.0958
   3   2.0000     -21.684133      -590.0552
   4   2.0000     -21.681878      -589.9939
   5   2.0000     -12.146467      -330.5222
   6   2.0000     -12.105053      -329.3952
   7   2.0000     -12.103193      -329.3446
   8   2.0000     -12.101349      -329.2945
   9   2.0000     -12.093141      -329.0711
  10   2.0000      -1.718205       -46.7547
  11   2.0000      -1.691119       -46.0177
  12   2.0000      -1.684518       -45.8381
  13   2.0000      -1.681900       -45.7668
  14   2.0000      -1.673703       -45.5438
  15   2.0000      -1.323914       -36.0255
  16   2.0000      -1.297363       -35.3031
  17   2.0000      -1.195114       -32.5207
  18   2.0000      -1.190841       -32.4044
  19   2.0000      -1.130944       -30.7746
  20   2.0000      -1.081560       -29.4307
  21   2.0000      -1.071184       -29.1484
  22   2.0000      -1.050893       -28.5963
  23   2.0000      -1.024180       -27.8694
  24   2.0000      -1.007938       -27.4274
  25   2.0000      -1.001480       -27.2517
  26   2.0000      -0.985696       -26.8221
  27   2.0000      -0.972656       -26.4673
  28   2.0000      -0.961618       -26.1670
  29   2.0000      -0.947760       -25.7899
  30   2.0000      -0.934724       -25.4351
  31   2.0000      -0.929060       -25.2810
  32   2.0000      -0.916598       -24.9419
  33   2.0000      -0.900127       -24.4937
  34   2.0000      -0.878485       -23.9048
  35   2.0000      -0.848550       -23.0902
  36   2.0000      -0.842634       -22.9292
  37   2.0000      -0.814345       -22.1595
  38   2.0000      -0.792104       -21.5542
  39   2.0000      -0.775623       -21.1058
  40   0.0000      -0.227320        -6.1857
  41   0.0000      -0.177352        -4.8260
  42   0.0000      -0.162733        -4.4282
  43   0.0000      -0.138979        -3.7818
  44   0.0000      -0.094956        -2.5839

MULLIKEN ATOMIC CHARGES
-----------------------
   0 C :   -0.083818
   1 C :    0.102630
   2 H :    0.129198
   3 C :    0.017215
   4 H :    0.127950
   5 C :    0.069638
   6 H :    0.141096
   7 C :    0.102523
   8 H :    0.117852
   9 O :   -0.339554
  10 O :   -0.499173
  11 O :   -0.535776
  12 O :   -0.528271
  13 O :   -0.546763
  14 H :    0.133790
  15 H :    0.146244
  16 H :    0.359099
  17 H :    0.349475
  18 H :    0.366880
  19 H :    0.369764
Sum of atomic charges:    0.0000000

LOEWDIN ATOMIC CHARGES
----------------------
   0 C :   -0.276206
   1 C :   -0.318425
   2 H :    0.152517
   3 C :   -0.302321
   4 H :    0.148724
   5 C :   -0.311665
   6 H :    0.157560
   7 C :   -0.409105
   8 H :    0.141295
   9 O :    0.120030
  10 O :   -0.027711
  11 O :   -0.045925
  12 O :   -0.032347
  13 O :   -0.038304
  14 H :    0.137450
  15 H :    0.138933
  16 H :    0.190958
  17 H :    0.178990
  18 H :    0.197755
  19 H :    0.197797

  Mayer bond orders larger than 0.100000
B(  0-C ,  1-C ) :   0.9828 B(  0-C ,  9-O ) :   0.9493 B(  0-C , 14-H ) :   0.9732
B(  0-C , 15-H ) :   0.9647 B(  1-C ,  2-H ) :   0.9608 B(  1-C ,  3-C ) :   0.9491
B(  1-C , 13-O ) :   0.9807 B(  3-C ,  4-H ) :   0.9841 B(  3-C ,  5-C ) :   0.9904
B(  3-C , 12-O ) :   1.0765 B(  5-C ,  6-H ) :   0.9563 B(  5-C ,  7-C ) :   0.9741
B(  5-C , 11-O ) :   0.9906 B(  7-C ,  8-H ) :   0.9856 B(  7-C ,  9-O ) :   1.0087
B(  7-C , 10-O ) :   1.1234 B( 10-O , 16-H ) :   0.8423 B( 11-O , 17-H ) :   0.8370
B( 12-O , 18-H ) :   0.8598 B( 13-O , 19-H ) :   0.8581

FINAL SINGLE POINT ENERGY      -572.736675474398

DIPOLE MOMENT
-------------

Method             : SCF
Type of density    : Electron Density
Multiplicity       :   1
Irrep              :   0
Energy             :  -572.7528697327981035 Eh
Relativity type    :
Basis              : AO
                                X                 Y                 Z
Electronic contribution:     -1.537782601       0.313995731       1.096487020
Nuclear contribution   :      3.197354214      -2.083062598      -1.412590955
                        -----------------------------------------
Total Dipole Moment    :      1.659571613      -1.769066867      -0.316103935
                        -----------------------------------------
Magnitude (a.u.)       :      2.446159687
Magnitude (Debye)      :      6.217643801

Rotational constants in cm-1:             0.057685             0.040419             0.038330
Rotational constants in MHz :          1729.346911          1211.727525          1149.102395

                             ****ORCA TERMINATED NORMALLY****
TOTAL RUN TIME: 0 days 0 hours 4 minutes 18 seconds 489 msec
