                         Program Version 6.0.0  -   RELEASE  -
|  1> ! pbe def2-sv(p) def2/J RI DEFGRID1 loosescf d4 GCP(DFT/SV(P)) printgap
|  2> %output
|  3>     printlevel normal
|  4> end
|  5> * xyz 0 1
|  6> C 3.9155068289 1.4398671664 -1.9203149522
|  7> C 2.5651834601 0.7958008351 -2.1476560045
|  8> O 2.3845638693 -0.3516064164 -1.3010667912
|  9> P 2.1466679136 -0.2308707399 0.2620629065
| 10> S 1.1123138356 1.3575953414 0.7929644161
| 11> O 3.6307006212 -0.289424723 0.8249503873
| 12> C 4.0103824425 -0.7309799602 2.1426111532
| 13> C 3.1917167206 -0.0874985332 3.2421370842
| 14> S 1.421199108 -2.1573754454 0.6956817502
| 15> C -0.2236211803 -2.0889945154 -0.0640979342
| 16> S -1.4269593578 -1.0952940889 0.8656549841
| 17> P -1.9214267773 0.4028964307 -0.5758831517
| 18> S -0.9199485662 0.2821472294 -2.2558472959
| 19> O -1.866951183 1.8362835274 0.055633902
| 20> C -2.7693524676 2.3599465456 1.0622417495
| 21> C -2.671178036 1.604886436 2.3698062862
| 22> O -3.4947775747 0.2068814404 -0.7500280335
| 23> C -4.0367625159 -0.9724231261 -1.374002442
| 24> C -5.5125953516 -0.7316168588 -1.6186395713
| 25> H 4.0475684952 2.257855772 -2.6214321294
| 26> H 3.9680056995 1.8273942542 -0.9033426772
| 27> H 4.7064192109 0.7077375336 -2.0584647982
| 28> H 2.4580715505 0.3987671273 -3.1581270816
| 29> H 1.7539280885 1.506664383 -1.9548488845
| 30> H 3.9118604654 -1.8195684567 2.1731802041
| 31> H 5.0632109426 -0.4515434068 2.212218286
| 32> H 2.1486450264 -0.3916946542 3.1592883134
| 33> H 3.5756574855 -0.4009214671 4.2075318696
| 34> H 3.2406683344 0.9965321406 3.1681778578
| 35> H -0.575921138 -3.1171060883 -0.0708067708
| 36> H -0.1434040664 -1.6852305262 -1.0776164439
| 37> H -2.4360736475 3.3931356875 1.1711042335
| 38> H -3.7832837465 2.3303128727 0.6591060312
| 39> H -3.0459979449 0.5889123009 2.2536011524
| 40> H -1.634114816 1.5617082246 2.6954913325
| 41> H -3.2621465224 2.1172758238 3.1223878183
| 42> H -3.4974582885 -1.1494028494 -2.310572231
| 43> H -3.8766887714 -1.8201399727 -0.7013159482
| 44> H -6.0193875507 -0.540589083 -0.6773228895
| 45> H -5.6469202675 0.1256337436 -2.2722859437
| 46> H -5.943036709 -1.6103327488 -2.0872963965
| 47> *
| 48>
| 49>                          ****END OF INPUT****

CARTESIAN COORDINATES (ANGSTROEM)
---------------------------------
  C      3.915507    1.439867   -1.920315
  C      2.565183    0.795801   -2.147656
  O      2.384564   -0.351606   -1.301067
  P      2.146668   -0.230871    0.262063
  S      1.112314    1.357595    0.792964
  O      3.630701   -0.289425    0.824950
  C      4.010382   -0.730980    2.142611
  C      3.191717   -0.087499    3.242137
  S      1.421199   -2.157375    0.695682
  C     -0.223621   -2.088995   -0.064098
  S     -1.426959   -1.095294    0.865655
  P     -1.921427    0.402896   -0.575883
  S     -0.919949    0.282147   -2.255847
  O     -1.866951    1.836284    0.055634
  C     -2.769352    2.359947    1.062242
  C     -2.671178    1.604886    2.369806
  O     -3.494778    0.206881   -0.750028
  C     -4.036763   -0.972423   -1.374002
  C     -5.512595   -0.731617   -1.618640
  H      4.047568    2.257856   -2.621432
  H      3.968006    1.827394   -0.903343
  H      4.706419    0.707738   -2.058465
  H      2.458072    0.398767   -3.158127
  H      1.753928    1.506664   -1.954849
  H      3.911860   -1.819568    2.173180
  H      5.063211   -0.451543    2.212218
  H      2.148645   -0.391695    3.159288
  H      3.575657   -0.400921    4.207532
  H      3.240668    0.996532    3.168178
  H     -0.575921   -3.117106   -0.070807
  H     -0.143404   -1.685231   -1.077616
  H     -2.436074    3.393136    1.171104
  H     -3.783284    2.330313    0.659106
  H     -3.045998    0.588912    2.253601
  H     -1.634115    1.561708    2.695491
  H     -3.262147    2.117276    3.122388
  H     -3.497458   -1.149403   -2.310572
  H     -3.876689   -1.820140   -0.701316
  H     -6.019388   -0.540589   -0.677323
  H     -5.646920    0.125634   -2.272286
  H     -5.943037   -1.610333   -2.087296

 Total Charge           Charge          ....    0
 Multiplicity           Mult            ....    1
 Number of Electrons    NEL             ....  202
 Basis Dimension        Dim             ....  334

ORBITAL ENERGIES
----------------

  NO   OCC          E(Eh)            E(eV)
   0   2.0000     -88.040356     -2395.6999
   1   2.0000     -88.039239     -2395.6695
   2   2.0000     -87.981436     -2394.0966
   3   2.0000     -87.975079     -2393.9236
   4   2.0000     -76.423794     -2079.5972
   5   2.0000     -76.418454     -2079.4519
   6   2.0000     -18.790044      -511.3031
   7   2.0000     -18.788187      -511.2526
   8   2.0000     -18.784376      -511.1489
   9   2.0000     -18.776717      -510.9404
  10   2.0000      -9.955634      -270.9066
  11   2.0000      -9.955007      -270.8895
  12   2.0000      -9.953384      -270.8454
  13   2.0000      -9.951060      -270.7821
  14   2.0000      -9.934156      -270.3221
  15   2.0000      -9.888665      -269.0843
  16   2.0000      -9.887007      -269.0391
  17   2.0000      -9.879998      -268.8484
  18   2.0000      -9.871590      -268.6196
  19   2.0000      -7.685945      -209.1452
  20   2.0000      -7.683784      -209.0864
  21   2.0000      -7.626418      -207.5254
  22   2.0000      -7.619693      -207.3424
  23   2.0000      -6.420926      -174.7223
  24   2.0000      -6.415794      -174.5826
  25   2.0000      -5.713733      -155.4786
  26   2.0000      -5.711726      -155.4240
  27   2.0000      -5.710358      -155.3867
  28   2.0000      -5.708300      -155.3307
  29   2.0000      -5.703001      -155.1866
  30   2.0000      -5.700804      -155.1268
  31   2.0000      -5.655341      -153.8897
  32   2.0000      -5.648551      -153.7049
  33   2.0000      -5.647040      -153.6638
  34   2.0000      -5.646488      -153.6487
  35   2.0000      -5.640372      -153.4823
  36   2.0000      -5.639907      -153.4697
  37   2.0000      -4.643789      -126.3639
  38   2.0000      -4.642523      -126.3295
  39   2.0000      -4.641318      -126.2967
  40   2.0000      -4.638382      -126.2168
  41   2.0000      -4.637824      -126.2016
  42   2.0000      -4.636032      -126.1528
  43   2.0000      -0.986518       -26.8445
  44   2.0000      -0.977186       -26.5906
  45   2.0000      -0.941329       -25.6149
  46   2.0000      -0.935933       -25.4680
  47   2.0000      -0.758613       -20.6429
  48   2.0000      -0.718697       -19.5567
  49   2.0000      -0.705539       -19.1987
  50   2.0000      -0.691727       -18.8229
  51   2.0000      -0.682224       -18.5643
  52   2.0000      -0.669719       -18.2240
  53   2.0000      -0.647236       -17.6122
  54   2.0000      -0.631429       -17.1821
  55   2.0000      -0.593621       -16.1532
  56   2.0000      -0.586247       -15.9526
  57   2.0000      -0.571546       -15.5526
  58   2.0000      -0.568515       -15.4701
  59   2.0000      -0.558931       -15.2093
  60   2.0000      -0.504989       -13.7415
  61   2.0000      -0.486267       -13.2320
  62   2.0000      -0.472427       -12.8554
  63   2.0000      -0.461624       -12.5614
  64   2.0000      -0.449505       -12.2316
  65   2.0000      -0.447395       -12.1742
  66   2.0000      -0.443075       -12.0567
  67   2.0000      -0.431657       -11.7460
  68   2.0000      -0.424752       -11.5581
  69   2.0000      -0.419205       -11.4072
  70   2.0000      -0.409301       -11.1376
  71   2.0000      -0.396989       -10.8026
  72   2.0000      -0.386850       -10.5267
  73   2.0000      -0.381838       -10.3903
  74   2.0000      -0.380282       -10.3480
  75   2.0000      -0.366837        -9.9821
  76   2.0000      -0.363001        -9.8778
  77   2.0000      -0.355327        -9.6689
  78   2.0000      -0.351154        -9.5554
  79   2.0000      -0.343536        -9.3481
  80   2.0000      -0.341372        -9.2892
  81   2.0000      -0.339761        -9.2454
  82   2.0000      -0.337012        -9.1706
  83   2.0000      -0.334686        -9.1073
  84   2.0000      -0.331998        -9.0341
  85   2.0000      -0.313692        -8.5360
  86   2.0000      -0.307453        -8.3662
  87   2.0000      -0.301587        -8.2066
  88   2.0000      -0.291806        -7.9404
  89   2.0000      -0.290542        -7.9061
  90   2.0000      -0.277662        -7.5556
  91   2.0000      -0.272127        -7.4050
  92   2.0000      -0.260573        -7.0905
  93   2.0000      -0.255827        -6.9614
  94   2.0000      -0.253345        -6.8939
  95   2.0000      -0.238053        -6.4778
  96   2.0000      -0.219588        -5.9753
  97   2.0000      -0.202455        -5.5091
  98   2.0000      -0.198549        -5.4028
  99   2.0000      -0.187770        -5.1095
 100   2.0000      -0.181254        -4.9322
 101   0.0000      -0.036416        -0.9909
 102   0.0000      -0.031261        -0.8506
 103   0.0000      -0.010716        -0.2916
 104   0.0000       0.002568         0.0699
 105   0.0000       0.017446         0.4747

MULLIKEN ATOMIC CHARGES
-----------------------
   0 C :   -0.296311
   1 C :   -0.015236
   2 O :   -0.363703
   3 P :    0.610694
   4 S :   -0.320772
   5 O :   -0.375944
   6 C :   -0.012287
   7 C :   -0.312647
   8 S :   -0.109040
   9 C :   -0.332038
  10 S :   -0.111760
  11 P :    0.622163
  12 S :   -0.310010
  13 O :   -0.346189
  14 C :    0.003741
  15 C :   -0.334173
  16 O :   -0.388276
  17 C :   -0.004829
  18 C :   -0.280536
  19 H :    0.107681
  20 H :    0.119870
  21 H :    0.110071
  22 H :    0.100414
  23 H :    0.127904
  24 H :    0.114296
  25 H :    0.109399
  26 H :    0.127274
  27 H :    0.109153
  28 H :    0.126743
  29 H :    0.178318
  30 H :    0.198358
  31 H :    0.113059
  32 H :    0.111084
  33 H :    0.125928
  34 H :    0.141677
  35 H :    0.115268
  36 H :    0.101304
  37 H :    0.094036
  38 H :    0.113089
  39 H :    0.120928
  40 H :    0.111300
Sum of atomic charges:   -0.0000000

LOEWDIN ATOMIC CHARGES
----------------------
   0 C :   -0.364126
   1 C :   -0.124463
   2 O :   -0.238213
   3 P :    0.567073
   4 S :   -0.313955
   5 O :   -0.246774
   6 C :   -0.113409
   7 C :   -0.372432
   8 S :    0.076760
   9 C :   -0.481584
  10 S :    0.072641
  11 P :    0.576015
  12 S :   -0.294110
  13 O :   -0.220712
  14 C :   -0.106321
  15 C :   -0.370568
  16 O :   -0.255950
  17 C :   -0.124207
  18 C :   -0.350457
  19 H :    0.128373
  20 H :    0.122089
  21 H :    0.123253
  22 H :    0.116634
  23 H :    0.109294
  24 H :    0.109387
  25 H :    0.121616
  26 H :    0.121068
  27 H :    0.128800
  28 H :    0.129346
  29 H :    0.136404
  30 H :    0.123610
  31 H :    0.124666
  32 H :    0.114180
  33 H :    0.115555
  34 H :    0.133600
  35 H :    0.132526
  36 H :    0.107326
  37 H :    0.102687
  38 H :    0.125010
  39 H :    0.128867
  40 H :    0.130505

  Mayer bond orders larger than 0.100000
B(  0-C ,  1-C ) :   1.1592 B(  0-C , 19-H ) :   0.9403 B(  0-C , 20-H ) :   0.9369
B(  0-C , 21-H ) :   0.9461 B(  1-C ,  2-O ) :   0.9006 B(  1-C , 22-H ) :   0.9356
B(  1-C , 23-H ) :   0.9053 B(  2-O ,  3-P ) :   1.1291 B(  3-P ,  4-S ) :   1.6242
B(  3-P ,  5-O ) :   1.0950 B(  3-P ,  8-S ) :   0.9560 B(  4-S ,  8-S ) :   0.1173
B(  5-O ,  6-C ) :   0.9183 B(  6-C ,  7-C ) :   1.1645 B(  6-C , 24-H ) :   0.9284
B(  6-C , 25-H ) :   0.9345 B(  7-C , 26-H ) :   0.9319 B(  7-C , 27-H ) :   0.9340
B(  7-C , 28-H ) :   0.9407 B(  8-S ,  9-C ) :   0.9979 B(  9-C , 10-S ) :   1.0035
B(  9-C , 29-H ) :   0.9118 B(  9-C , 30-H ) :   0.8423 B( 10-S , 11-P ) :   0.9347
B( 10-S , 12-S ) :   0.1183 B( 11-P , 12-S ) :   1.6207 B( 11-P , 13-O ) :   1.1576
B( 11-P , 16-O ) :   1.0581 B( 12-S , 30-H ) :   0.1237 B( 13-O , 14-C ) :   0.8948
B( 14-C , 15-C ) :   1.1699 B( 14-C , 31-H ) :   0.9326 B( 14-C , 32-H ) :   0.9268
B( 15-C , 33-H ) :   0.9327 B( 15-C , 34-H ) :   0.9384 B( 15-C , 35-H ) :   0.9354
B( 16-O , 17-C ) :   0.9119 B( 17-C , 18-C ) :   1.1604 B( 17-C , 36-H ) :   0.9117
B( 17-C , 37-H ) :   0.9203 B( 18-C , 38-H ) :   0.9515 B( 18-C , 39-H ) :   0.9513
B( 18-C , 40-H ) :   0.9423

Dispersion correction           -0.066918693
FINAL SINGLE POINT ENERGY     -2929.512987402268

DIPOLE MOMENT
-------------

Method             : SCF
Type of density    : Electron Density
Multiplicity       :   1
Irrep              :   0
Energy             : -2929.6309683108365789 Eh
Relativity type    :
Basis              : AO
                                X                 Y                 Z
Electronic contribution:      4.259986934      -4.923230241      -4.179027037
Nuclear contribution   :     -4.878827650       4.440804588       4.884139756
                        -----------------------------------------
Total Dipole Moment    :     -0.618840716      -0.482425653       0.705112719
                        -----------------------------------------
Magnitude (a.u.)       :      1.054932362
Magnitude (Debye)      :      2.681424969

Rotational constants in cm-1:             0.012697             0.005145             0.004882
Rotational constants in MHz :           380.647611           154.236863           146.351341

                             ****ORCA TERMINATED NORMALLY****
TOTAL RUN TIME: 0 days 0 hours 0 minutes 21 seconds 222 msec
