                         Program Version 6.0.1  -  RELEASE   -
|  1> ! pbe def2-sv(p) def2/J RI DEFGRID1 loosescf d4 GCP(DFT/SV(P)) printgap
|  2> %output
|  3>     printlevel normal
|  4> end
|  5> * xyz 0 1
|  6> C 2.0544244886 -3.5258511317 0.6853509242
|  7> C 3.1112193119 -2.5143459523 0.2741069094
|  8> O 2.6500093985 -1.7350473632 -0.8471418619
|  9> C 2.1544307283 -0.5382707924 -0.6454919141
| 10> O 2.0541061448 0.0109749746 0.4347524494
| 11> C 1.7399097412 0.1345164959 -1.9389934825
| 12> C 0.4547214945 0.9336411472 -1.7235325388
| 13> H 0.3122598667 1.6428808477 -2.5423229338
| 14> C 0.4863970788 1.7001167683 -0.4158670303
| 15> O -0.3559385831 1.5421124885 0.4549761329
| 16> O 1.4276770335 2.5938532231 -0.3835818979
| 17> C 1.595282215 3.3521395239 0.8349817373
| 18> C 2.6625849068 4.3981692186 0.5868262439
| 19> S -1.0263848453 -0.1328954918 -1.7321848618
| 20> P -1.7129025121 -0.3455158649 0.2544716425
| 21> S -0.6809216402 -1.037987236 1.7865924414
| 22> O -2.7517424026 0.8451949078 0.4903206434
| 23> C -3.8278576141 0.6912878781 1.4268303436
| 24> O -2.8150803043 -1.47876584 -0.1279360769
| 25> C -2.48714113 -2.8588150444 -0.2714834769
| 26> H 1.7673110293 -4.1347747188 -0.1670897153
| 27> H 2.4530837272 -4.1637501362 1.4668615076
| 28> H 1.1748401077 -3.0130339998 1.0711758557
| 29> H 4.015134963 -3.008281495 -0.084748144
| 30> H 3.3439687758 -1.8379482304 1.1010835487
| 31> H 1.6035915967 -0.6094602274 -2.7218706066
| 32> H 2.5419692382 0.8199732624 -2.2223256497
| 33> H 0.6314197119 3.7978286069 1.0990026644
| 34> H 1.8797119696 2.6470202122 1.6223822425
| 35> H 3.5983864418 3.9178792978 0.3189527146
| 36> H 2.3586412922 5.0577547672 -0.2201900604
| 37> H 2.8059106073 4.9800164693 1.4910246231
| 38> H -3.4561197142 0.278980115 2.3666608207
| 39> H -4.5902192454 0.0346435813 1.0095312736
| 40> H -4.2189154789 1.6941689225 1.5800135666
| 41> H -2.0179793974 -3.0309787197 -1.2400205728
| 42> H -3.4289613368 -3.397382297 -0.201243801
| 43> H -1.8129628851 -3.1659830624 0.5313421587
| 44> *
| 45>
| 46>                          ****END OF INPUT****

CARTESIAN COORDINATES (ANGSTROEM)
---------------------------------
  C      2.054424   -3.525851    0.685351
  C      3.111219   -2.514346    0.274107
  O      2.650009   -1.735047   -0.847142
  C      2.154431   -0.538271   -0.645492
  O      2.054106    0.010975    0.434752
  C      1.739910    0.134516   -1.938993
  C      0.454721    0.933641   -1.723533
  H      0.312260    1.642881   -2.542323
  C      0.486397    1.700117   -0.415867
  O     -0.355939    1.542112    0.454976
  O      1.427677    2.593853   -0.383582
  C      1.595282    3.352140    0.834982
  C      2.662585    4.398169    0.586826
  S     -1.026385   -0.132895   -1.732185
  P     -1.712903   -0.345516    0.254472
  S     -0.680922   -1.037987    1.786592
  O     -2.751742    0.845195    0.490321
  C     -3.827858    0.691288    1.426830
  O     -2.815080   -1.478766   -0.127936
  C     -2.487141   -2.858815   -0.271483
  H      1.767311   -4.134775   -0.167090
  H      2.453084   -4.163750    1.466862
  H      1.174840   -3.013034    1.071176
  H      4.015135   -3.008281   -0.084748
  H      3.343969   -1.837948    1.101084
  H      1.603592   -0.609460   -2.721871
  H      2.541969    0.819973   -2.222326
  H      0.631420    3.797829    1.099003
  H      1.879712    2.647020    1.622382
  H      3.598386    3.917879    0.318953
  H      2.358641    5.057755   -0.220190
  H      2.805911    4.980016    1.491025
  H     -3.456120    0.278980    2.366661
  H     -4.590219    0.034644    1.009531
  H     -4.218915    1.694169    1.580014
  H     -2.017979   -3.030979   -1.240021
  H     -3.428961   -3.397382   -0.201244
  H     -1.812963   -3.165983    0.531342

 Total Charge           Charge          ....    0
 Multiplicity           Mult            ....    1
 Number of Electrons    NEL             ....  174
 Basis Dimension        Dim             ....  316

ORBITAL ENERGIES
----------------

  NO   OCC          E(Eh)            E(eV)
   0   2.0000     -88.032616     -2395.4893
   1   2.0000     -87.956480     -2393.4175
   2   2.0000     -76.412261     -2079.2833
   3   2.0000     -18.815887      -512.0063
   4   2.0000     -18.809373      -511.8291
   5   2.0000     -18.765150      -510.6257
   6   2.0000     -18.764343      -510.6037
   7   2.0000     -18.755881      -510.3735
   8   2.0000     -18.745131      -510.0810
   9   2.0000     -10.027044      -272.8497
  10   2.0000     -10.016901      -272.5737
  11   2.0000      -9.953300      -270.8431
  12   2.0000      -9.952049      -270.8090
  13   2.0000      -9.946153      -270.6486
  14   2.0000      -9.926946      -270.1259
  15   2.0000      -9.923267      -270.0258
  16   2.0000      -9.919581      -269.9255
  17   2.0000      -9.893119      -269.2055
  18   2.0000      -9.876701      -268.7587
  19   2.0000      -7.677812      -208.9239
  20   2.0000      -7.601553      -206.8488
  21   2.0000      -6.406959      -174.3422
  22   2.0000      -5.706084      -155.2704
  23   2.0000      -5.701940      -155.1577
  24   2.0000      -5.694722      -154.9613
  25   2.0000      -5.630627      -153.2171
  26   2.0000      -5.622706      -153.0016
  27   2.0000      -5.620961      -152.9541
  28   2.0000      -4.630184      -125.9937
  29   2.0000      -4.628781      -125.9555
  30   2.0000      -4.627390      -125.9177
  31   2.0000      -1.028668       -27.9915
  32   2.0000      -1.015833       -27.6422
  33   2.0000      -0.960238       -26.1294
  34   2.0000      -0.932643       -25.3785
  35   2.0000      -0.922871       -25.1126
  36   2.0000      -0.913002       -24.8441
  37   2.0000      -0.767305       -20.8794
  38   2.0000      -0.715246       -19.4628
  39   2.0000      -0.708541       -19.2804
  40   2.0000      -0.682290       -18.5660
  41   2.0000      -0.649407       -17.6713
  42   2.0000      -0.619233       -16.8502
  43   2.0000      -0.612387       -16.6639
  44   2.0000      -0.603940       -16.4340
  45   2.0000      -0.592385       -16.1196
  46   2.0000      -0.561164       -15.2700
  47   2.0000      -0.517916       -14.0932
  48   2.0000      -0.501745       -13.6532
  49   2.0000      -0.498091       -13.5537
  50   2.0000      -0.488273       -13.2866
  51   2.0000      -0.460255       -12.5242
  52   2.0000      -0.456357       -12.4181
  53   2.0000      -0.451360       -12.2821
  54   2.0000      -0.444082       -12.0841
  55   2.0000      -0.428797       -11.6682
  56   2.0000      -0.422937       -11.5087
  57   2.0000      -0.408232       -11.1086
  58   2.0000      -0.406910       -11.0726
  59   2.0000      -0.404793       -11.0150
  60   2.0000      -0.393774       -10.7151
  61   2.0000      -0.389951       -10.6111
  62   2.0000      -0.385340       -10.4856
  63   2.0000      -0.379761       -10.3338
  64   2.0000      -0.368609       -10.0304
  65   2.0000      -0.367124        -9.9900
  66   2.0000      -0.362008        -9.8507
  67   2.0000      -0.355565        -9.6754
  68   2.0000      -0.348957        -9.4956
  69   2.0000      -0.342827        -9.3288
  70   2.0000      -0.330373        -8.9899
  71   2.0000      -0.324997        -8.8436
  72   2.0000      -0.318744        -8.6735
  73   2.0000      -0.314864        -8.5679
  74   2.0000      -0.296445        -8.0667
  75   2.0000      -0.292751        -7.9661
  76   2.0000      -0.283273        -7.7083
  77   2.0000      -0.272286        -7.4093
  78   2.0000      -0.271999        -7.4015
  79   2.0000      -0.260335        -7.0841
  80   2.0000      -0.249668        -6.7938
  81   2.0000      -0.243114        -6.6155
  82   2.0000      -0.235073        -6.3967
  83   2.0000      -0.231898        -6.3103
  84   2.0000      -0.219983        -5.9860
  85   2.0000      -0.178040        -4.8447
  86   2.0000      -0.166351        -4.5266
  87   0.0000      -0.039353        -1.0709
  88   0.0000      -0.030214        -0.8222
  89   0.0000      -0.024782        -0.6744
  90   0.0000       0.005437         0.1479
  91   0.0000       0.036220         0.9856

MULLIKEN ATOMIC CHARGES
-----------------------
   0 C :   -0.318708
   1 C :   -0.018296
   2 O :   -0.218940
   3 C :    0.110803
   4 O :   -0.186256
   5 C :   -0.060098
   6 C :   -0.277153
   7 H :    0.147447
   8 C :    0.235188
   9 O :   -0.202454
  10 O :   -0.225797
  11 C :   -0.029626
  12 C :   -0.276006
  13 S :   -0.104088
  14 P :    0.663581
  15 S :   -0.337721
  16 O :   -0.382591
  17 C :   -0.091068
  18 O :   -0.414211
  19 C :   -0.099318
  20 H :    0.107571
  21 H :    0.107851
  22 H :    0.150970
  23 H :    0.101644
  24 H :    0.114263
  25 H :    0.120126
  26 H :    0.127284
  27 H :    0.114380
  28 H :    0.127766
  29 H :    0.117425
  30 H :    0.114394
  31 H :    0.115712
  32 H :    0.110455
  33 H :    0.113864
  34 H :    0.116409
  35 H :    0.101872
  36 H :    0.111754
  37 H :    0.111575
Sum of atomic charges:    0.0000000

LOEWDIN ATOMIC CHARGES
----------------------
   0 C :   -0.362967
   1 C :   -0.108776
   2 O :   -0.045676
   3 C :    0.035499
   4 O :   -0.144339
   5 C :   -0.249533
   6 C :   -0.260789
   7 H :    0.148370
   8 C :    0.028123
   9 O :   -0.138739
  10 O :   -0.040479
  11 C :   -0.101090
  12 C :   -0.350510
  13 S :    0.103589
  14 P :    0.589213
  15 S :   -0.331054
  16 O :   -0.258397
  17 C :   -0.209066
  18 O :   -0.279161
  19 C :   -0.224994
  20 H :    0.122424
  21 H :    0.129526
  22 H :    0.126365
  23 H :    0.116450
  24 H :    0.122473
  25 H :    0.137704
  26 H :    0.149379
  27 H :    0.120639
  28 H :    0.128702
  29 H :    0.127832
  30 H :    0.126202
  31 H :    0.133509
  32 H :    0.110151
  33 H :    0.110706
  34 H :    0.118176
  35 H :    0.102831
  36 H :    0.115534
  37 H :    0.102170

  Mayer bond orders larger than 0.100000
B(  0-C ,  1-C ) :   1.1801 B(  0-C , 20-H ) :   0.9484 B(  0-C , 21-H ) :   0.9410
B(  0-C , 22-H ) :   0.9179 B(  1-C ,  2-O ) :   0.8999 B(  1-C , 23-H ) :   0.9365
B(  1-C , 24-H ) :   0.9084 B(  2-O ,  3-C ) :   1.2674 B(  2-O ,  4-O ) :   0.1002
B(  3-C ,  4-O ) :   1.9658 B(  3-C ,  5-C ) :   0.9936 B(  4-O ,  8-C ) :   0.1272
B(  5-C ,  6-C ) :   1.0267 B(  5-C , 25-H ) :   0.9072 B(  5-C , 26-H ) :   0.8731
B(  6-C ,  7-H ) :   0.8760 B(  6-C ,  8-C ) :   0.9156 B(  6-C , 13-S ) :   1.0254
B(  8-C ,  9-O ) :   1.8630 B(  8-C , 10-O ) :   1.2671 B(  9-O , 14-P ) :   0.1974
B( 10-O , 11-C ) :   0.8907 B( 11-C , 12-C ) :   1.1539 B( 11-C , 27-H ) :   0.9305
B( 11-C , 28-H ) :   0.9273 B( 12-C , 29-H ) :   0.9492 B( 12-C , 30-H ) :   0.9507
B( 12-C , 31-H ) :   0.9429 B( 13-S , 14-P ) :   0.9446 B( 13-S , 15-S ) :   0.1165
B( 14-P , 15-S ) :   1.5751 B( 14-P , 16-O ) :   1.0908 B( 14-P , 18-O ) :   0.9920
B( 16-O , 17-C ) :   0.9378 B( 17-C , 32-H ) :   0.9363 B( 17-C , 33-H ) :   0.9499
B( 17-C , 34-H ) :   0.9593 B( 18-O , 19-C ) :   0.9527 B( 19-C , 35-H ) :   0.9506
B( 19-C , 36-H ) :   0.9588 B( 19-C , 37-H ) :   0.9225

Dispersion correction           -0.052837579
FINAL SINGLE POINT ENERGY     -1979.005004211274

DIPOLE MOMENT
-------------

Method             : SCF
Type of density    : Electron Density
Multiplicity       :   1
Irrep              :   0
Energy             : -1979.1350257966837489 Eh
Relativity type    :
Basis              : AO
                                X                 Y                 Z
Electronic contribution:     -9.003332406       1.495779848      -4.532853544
Nuclear contribution   :      9.990029683      -1.029340970       3.766308968
                        -----------------------------------------
Total Dipole Moment    :      0.986697278       0.466438877      -0.766544576
                        -----------------------------------------
Magnitude (a.u.)       :      1.333689368
Magnitude (Debye)      :      3.389968969

Rotational constants in cm-1:             0.011232             0.009029             0.006478
Rotational constants in MHz :           336.732432           270.676733           194.202661

                             ****ORCA TERMINATED NORMALLY****
TOTAL RUN TIME: 0 days 0 hours 0 minutes 39 seconds 55 msec
