                         Program Version 6.0.0  -   RELEASE  -
|  1> ! r2scan-3c def2/J RI DEFGRID2 scfconv6 printgap
|  2> %output
|  3>     printlevel normal
|  4> end
|  5> * xyz 0 1
|  6> C 5.777694193 -0.3521841241 -0.4346631124
|  7> C 4.3286661794 -0.736836765 -0.654921119
|  8> O 3.5058481329 0.3569801356 -0.2081792247
|  9> P 1.9789185022 0.4727902797 -0.6445674148
| 10> S 1.7177503874 0.3409866182 -2.5800906475
| 11> O 1.5963167937 1.8774671942 -0.0549380646
| 12> C 1.3007966304 2.195823791 1.3265710466
| 13> C 2.3684245049 1.7193534157 2.2866349968
| 14> S 1.0641561645 -1.0563465229 0.5173970654
| 15> C -0.0427161862 -1.8219664683 -0.7081999637
| 16> S -1.7331135612 -2.0050027251 -0.1002861363
| 17> P -2.1606927755 0.0534054611 0.2206512007
| 18> S -1.4375091818 1.3240146569 -1.0854646433
| 19> O -1.6628321349 0.3690383119 1.6834495654
| 20> C -2.1004433924 -0.3935514671 2.8438161363
| 21> C -0.8883492411 -0.7592938431 3.6752199503
| 22> O -3.7388696153 0.0775363987 0.4114719313
| 23> C -4.6651999654 0.2070233593 -0.6815368421
| 24> C -4.6098767985 -0.9719823723 -1.6310405832
| 25> H 6.0160175762 0.5410161273 -1.0053729533
| 26> H 5.9541676726 -0.1552047071 0.6185888216
| 27> H 6.4154493242 -1.1668643887 -0.7612764958
| 28> H 4.0589256981 -1.6242298818 -0.0753561498
| 29> H 4.1184115122 -0.9216317075 -1.7140953589
| 30> H 1.2212173803 3.2841724083 1.313633588
| 31> H 0.3246427527 1.7648440282 1.5684740005
| 32> H 3.3398313919 2.1021440667 1.9846986154
| 33> H 2.1321210654 2.0807085612 3.2828601613
| 34> H 2.4058335597 0.6311781136 2.303001646
| 35> H 0.3113926808 -2.8286339445 -0.9157294301
| 36> H -0.0262593907 -1.2051040429 -1.6115220618
| 37> H -2.7873285127 0.2536898647 3.3908304301
| 38> H -2.6329791275 -1.2842980167 2.5011805084
| 39> H -0.2133304551 -1.3901894145 3.1018091036
| 40> H -0.356225721 0.1381376707 3.9770221342
| 41> H -1.2168280336 -1.2963221253 4.5590289353
| 42> H -5.6351737715 0.2822063175 -0.188075779
| 43> H -4.4432884163 1.1384369262 -1.2112989547
| 44> H -3.6603604882 -0.9766203226 -2.1647655077
| 45> H -4.7112842267 -1.905894238 -1.0837833415
| 46> H -5.4152568509 -0.8871441987 -2.3536000294
| 47> *
| 48>
| 49>                          ****END OF INPUT****

CARTESIAN COORDINATES (ANGSTROEM)
---------------------------------
  C      5.777694   -0.352184   -0.434663
  C      4.328666   -0.736837   -0.654921
  O      3.505848    0.356980   -0.208179
  P      1.978919    0.472790   -0.644567
  S      1.717750    0.340987   -2.580091
  O      1.596317    1.877467   -0.054938
  C      1.300797    2.195824    1.326571
  C      2.368425    1.719353    2.286635
  S      1.064156   -1.056347    0.517397
  C     -0.042716   -1.821966   -0.708200
  S     -1.733114   -2.005003   -0.100286
  P     -2.160693    0.053405    0.220651
  S     -1.437509    1.324015   -1.085465
  O     -1.662832    0.369038    1.683450
  C     -2.100443   -0.393551    2.843816
  C     -0.888349   -0.759294    3.675220
  O     -3.738870    0.077536    0.411472
  C     -4.665200    0.207023   -0.681537
  C     -4.609877   -0.971982   -1.631041
  H      6.016018    0.541016   -1.005373
  H      5.954168   -0.155205    0.618589
  H      6.415449   -1.166864   -0.761276
  H      4.058926   -1.624230   -0.075356
  H      4.118412   -0.921632   -1.714095
  H      1.221217    3.284172    1.313634
  H      0.324643    1.764844    1.568474
  H      3.339831    2.102144    1.984699
  H      2.132121    2.080709    3.282860
  H      2.405834    0.631178    2.303002
  H      0.311393   -2.828634   -0.915729
  H     -0.026259   -1.205104   -1.611522
  H     -2.787329    0.253690    3.390830
  H     -2.632979   -1.284298    2.501181
  H     -0.213330   -1.390189    3.101809
  H     -0.356226    0.138138    3.977022
  H     -1.216828   -1.296322    4.559029
  H     -5.635174    0.282206   -0.188076
  H     -4.443288    1.138437   -1.211299
  H     -3.660360   -0.976620   -2.164766
  H     -4.711284   -1.905894   -1.083783
  H     -5.415257   -0.887144   -2.353600

 Total Charge           Charge          ....    0
 Multiplicity           Mult            ....    1
 Number of Electrons    NEL             ....  202
 Basis Dimension        Dim             ....  539

ORBITAL ENERGIES
----------------

  NO   OCC          E(Eh)            E(eV)
   0   2.0000     -88.577589     -2410.3187
   1   2.0000     -88.572777     -2410.1878
   2   2.0000     -88.515680     -2408.6341
   3   2.0000     -88.508418     -2408.4365
   4   2.0000     -76.913067     -2092.9110
   5   2.0000     -76.906785     -2092.7400
   6   2.0000     -18.993273      -516.8332
   7   2.0000     -18.992136      -516.8023
   8   2.0000     -18.982526      -516.5408
   9   2.0000     -18.982266      -516.5337
  10   2.0000     -10.105750      -274.9914
  11   2.0000     -10.104539      -274.9585
  12   2.0000     -10.100000      -274.8350
  13   2.0000     -10.093239      -274.6510
  14   2.0000     -10.090920      -274.5879
  15   2.0000     -10.035984      -273.0930
  16   2.0000     -10.030171      -272.9348
  17   2.0000     -10.029120      -272.9062
  18   2.0000     -10.028295      -272.8838
  19   2.0000      -7.872099      -214.2107
  20   2.0000      -7.867365      -214.0819
  21   2.0000      -7.810067      -212.5227
  22   2.0000      -7.803295      -212.3384
  23   2.0000      -6.591434      -179.3620
  24   2.0000      -6.585045      -179.1882
  25   2.0000      -5.819005      -158.3432
  26   2.0000      -5.815742      -158.2544
  27   2.0000      -5.814152      -158.2111
  28   2.0000      -5.811106      -158.1282
  29   2.0000      -5.809365      -158.0809
  30   2.0000      -5.804617      -157.9517
  31   2.0000      -5.757949      -156.6818
  32   2.0000      -5.751064      -156.4944
  33   2.0000      -5.750247      -156.4722
  34   2.0000      -5.750024      -156.4661
  35   2.0000      -5.743701      -156.2941
  36   2.0000      -5.743023      -156.2756
  37   2.0000      -4.737264      -128.9075
  38   2.0000      -4.736403      -128.8841
  39   2.0000      -4.734825      -128.8411
  40   2.0000      -4.730686      -128.7285
  41   2.0000      -4.730137      -128.7136
  42   2.0000      -4.728529      -128.6698
  43   2.0000      -1.052200       -28.6318
  44   2.0000      -1.041897       -28.3514
  45   2.0000      -1.010835       -27.5062
  46   2.0000      -1.001499       -27.2522
  47   2.0000      -0.799197       -21.7472
  48   2.0000      -0.758357       -20.6360
  49   2.0000      -0.750284       -20.4163
  50   2.0000      -0.735302       -20.0086
  51   2.0000      -0.730985       -19.8911
  52   2.0000      -0.711145       -19.3512
  53   2.0000      -0.683066       -18.5872
  54   2.0000      -0.662189       -18.0191
  55   2.0000      -0.626523       -17.0485
  56   2.0000      -0.619855       -16.8671
  57   2.0000      -0.609816       -16.5939
  58   2.0000      -0.595988       -16.2177
  59   2.0000      -0.593800       -16.1581
  60   2.0000      -0.532265       -14.4837
  61   2.0000      -0.520888       -14.1741
  62   2.0000      -0.493890       -13.4394
  63   2.0000      -0.487561       -13.2672
  64   2.0000      -0.469352       -12.7717
  65   2.0000      -0.466068       -12.6824
  66   2.0000      -0.459290       -12.4979
  67   2.0000      -0.452575       -12.3152
  68   2.0000      -0.446935       -12.1617
  69   2.0000      -0.437898       -11.9158
  70   2.0000      -0.428631       -11.6636
  71   2.0000      -0.419379       -11.4119
  72   2.0000      -0.408733       -11.1222
  73   2.0000      -0.396235       -10.7821
  74   2.0000      -0.391732       -10.6596
  75   2.0000      -0.383550       -10.4369
  76   2.0000      -0.377931       -10.2840
  77   2.0000      -0.375637       -10.2216
  78   2.0000      -0.370300       -10.0764
  79   2.0000      -0.367008        -9.9868
  80   2.0000      -0.363815        -9.8999
  81   2.0000      -0.360718        -9.8156
  82   2.0000      -0.358673        -9.7600
  83   2.0000      -0.353015        -9.6060
  84   2.0000      -0.346023        -9.4158
  85   2.0000      -0.330094        -8.9823
  86   2.0000      -0.322310        -8.7705
  87   2.0000      -0.316421        -8.6103
  88   2.0000      -0.309144        -8.4122
  89   2.0000      -0.308132        -8.3847
  90   2.0000      -0.297794        -8.1034
  91   2.0000      -0.288394        -7.8476
  92   2.0000      -0.281472        -7.6592
  93   2.0000      -0.277677        -7.5560
  94   2.0000      -0.267823        -7.2878
  95   2.0000      -0.247350        -6.7307
  96   2.0000      -0.232310        -6.3215
  97   2.0000      -0.221973        -6.0402
  98   2.0000      -0.213465        -5.8087
  99   2.0000      -0.205494        -5.5918
 100   2.0000      -0.194873        -5.3028
 101   0.0000      -0.043716        -1.1896
 102   0.0000      -0.032946        -0.8965
 103   0.0000      -0.008795        -0.2393
 104   0.0000       0.011926         0.3245
 105   0.0000       0.019362         0.5269

MULLIKEN ATOMIC CHARGES
-----------------------
   0 C :   -0.443599
   1 C :   -0.159935
   2 O :   -0.249715
   3 P :    0.694085
   4 S :   -0.458392
   5 O :   -0.269897
   6 C :   -0.178200
   7 C :   -0.440968
   8 S :   -0.202430
   9 C :   -0.236659
  10 S :   -0.155294
  11 P :    0.621086
  12 S :   -0.377645
  13 O :   -0.269595
  14 C :   -0.098207
  15 C :   -0.459992
  16 O :   -0.292529
  17 C :   -0.160894
  18 C :   -0.451673
  19 H :    0.159842
  20 H :    0.149072
  21 H :    0.144675
  22 H :    0.149603
  23 H :    0.171291
  24 H :    0.153574
  25 H :    0.192850
  26 H :    0.163525
  27 H :    0.148673
  28 H :    0.156757
  29 H :    0.191111
  30 H :    0.227495
  31 H :    0.154901
  32 H :    0.152927
  33 H :    0.168520
  34 H :    0.152711
  35 H :    0.146319
  36 H :    0.147224
  37 H :    0.174777
  38 H :    0.182997
  39 H :    0.152438
  40 H :    0.149173
Sum of atomic charges:   -0.0000000

LOEWDIN ATOMIC CHARGES
----------------------
   0 C :   -0.386821
   1 C :    0.012762
   2 O :   -0.678498
   3 P :    0.375960
   4 S :   -0.109404
   5 O :   -0.649299
   6 C :    0.022013
   7 C :   -0.403138
   8 S :    0.128259
   9 C :   -0.418361
  10 S :    0.127109
  11 P :    0.373039
  12 S :   -0.046580
  13 O :   -0.679996
  14 C :    0.022533
  15 C :   -0.395074
  16 O :   -0.669058
  17 C :    0.022846
  18 C :   -0.408873
  19 H :    0.161978
  20 H :    0.157472
  21 H :    0.158793
  22 H :    0.170052
  23 H :    0.180859
  24 H :    0.184137
  25 H :    0.194598
  26 H :    0.165604
  27 H :    0.159302
  28 H :    0.161453
  29 H :    0.179589
  30 H :    0.202325
  31 H :    0.177047
  32 H :    0.176286
  33 H :    0.165438
  34 H :    0.159978
  35 H :    0.159097
  36 H :    0.179466
  37 H :    0.180830
  38 H :    0.167353
  39 H :    0.159105
  40 H :    0.159819

  Mayer bond orders larger than 0.100000
B(  0-C ,  1-C ) :   0.9545 B(  0-C , 19-H ) :   0.9723 B(  0-C , 20-H ) :   0.9727
B(  0-C , 21-H ) :   0.9654 B(  1-C ,  2-O ) :   0.7813 B(  1-C , 22-H ) :   0.9434
B(  1-C , 23-H ) :   0.9490 B(  2-O ,  3-P ) :   1.0596 B(  3-P ,  4-S ) :   1.7988
B(  3-P ,  5-O ) :   1.2281 B(  3-P ,  8-S ) :   0.9645 B(  5-O ,  6-C ) :   0.8012
B(  6-C ,  7-C ) :   0.8973 B(  6-C , 24-H ) :   0.9597 B(  6-C , 25-H ) :   0.9581
B(  7-C , 26-H ) :   0.9650 B(  7-C , 27-H ) :   0.9585 B(  7-C , 28-H ) :   0.9639
B(  8-S ,  9-C ) :   0.8922 B(  9-C , 10-S ) :   0.9193 B(  9-C , 29-H ) :   0.9157
B(  9-C , 30-H ) :   0.9038 B( 10-S , 11-P ) :   1.0055 B( 11-P , 12-S ) :   1.8724
B( 11-P , 13-O ) :   1.1130 B( 11-P , 16-O ) :   1.0501 B( 13-O , 14-C ) :   0.7435
B( 14-C , 15-C ) :   0.9539 B( 14-C , 31-H ) :   0.9518 B( 14-C , 32-H ) :   0.9616
B( 15-C , 33-H ) :   0.9649 B( 15-C , 34-H ) :   0.9688 B( 15-C , 35-H ) :   0.9650
B( 16-O , 17-C ) :   0.8246 B( 17-C , 18-C ) :   0.9167 B( 17-C , 36-H ) :   0.9612
B( 17-C , 37-H ) :   0.9691 B( 18-C , 38-H ) :   0.9624 B( 18-C , 39-H ) :   0.9673
B( 18-C , 40-H ) :   0.9565

Dispersion correction           -0.022260146
FINAL SINGLE POINT ENERGY     -2932.455279682533

DIPOLE MOMENT
-------------

Method             : SCF
Type of density    : Electron Density
Multiplicity       :   1
Irrep              :   0
Energy             : -2932.4796927854845308 Eh
Relativity type    :
Basis              : AO
                                X                 Y                 Z
Electronic contribution:     -5.485180113       2.605098948     -13.207650769
Nuclear contribution   :      5.047439961      -3.603835835      15.056844228
                        -----------------------------------------
Total Dipole Moment    :     -0.437740152      -0.998736887       1.849193459
                        -----------------------------------------
Magnitude (a.u.)       :      2.146766932
Magnitude (Debye)      :      5.456647895

Rotational constants in cm-1:             0.012967             0.005306             0.004800
Rotational constants in MHz :           388.751491           159.073191           143.910529

                             ****ORCA TERMINATED NORMALLY****
TOTAL RUN TIME: 0 days 0 hours 1 minutes 21 seconds 885 msec
