                         Program Version 6.0.0  -   RELEASE  -
|  1> ! r2scan-3c def2/J RI DEFGRID2 scfconv6 printgap
|  2> %output
|  3>     printlevel normal
|  4> end
|  5> %cpcm
|  6>     smd true
|  7>     smdsolvent "water"
|  8> end
|  9> * xyz 0 1
| 10> C 5.777694193 -0.3521841241 -0.4346631124
| 11> C 4.3286661794 -0.736836765 -0.654921119
| 12> O 3.5058481329 0.3569801356 -0.2081792247
| 13> P 1.9789185022 0.4727902797 -0.6445674148
| 14> S 1.7177503874 0.3409866182 -2.5800906475
| 15> O 1.5963167937 1.8774671942 -0.0549380646
| 16> C 1.3007966304 2.195823791 1.3265710466
| 17> C 2.3684245049 1.7193534157 2.2866349968
| 18> S 1.0641561645 -1.0563465229 0.5173970654
| 19> C -0.0427161862 -1.8219664683 -0.7081999637
| 20> S -1.7331135612 -2.0050027251 -0.1002861363
| 21> P -2.1606927755 0.0534054611 0.2206512007
| 22> S -1.4375091818 1.3240146569 -1.0854646433
| 23> O -1.6628321349 0.3690383119 1.6834495654
| 24> C -2.1004433924 -0.3935514671 2.8438161363
| 25> C -0.8883492411 -0.7592938431 3.6752199503
| 26> O -3.7388696153 0.0775363987 0.4114719313
| 27> C -4.6651999654 0.2070233593 -0.6815368421
| 28> C -4.6098767985 -0.9719823723 -1.6310405832
| 29> H 6.0160175762 0.5410161273 -1.0053729533
| 30> H 5.9541676726 -0.1552047071 0.6185888216
| 31> H 6.4154493242 -1.1668643887 -0.7612764958
| 32> H 4.0589256981 -1.6242298818 -0.0753561498
| 33> H 4.1184115122 -0.9216317075 -1.7140953589
| 34> H 1.2212173803 3.2841724083 1.313633588
| 35> H 0.3246427527 1.7648440282 1.5684740005
| 36> H 3.3398313919 2.1021440667 1.9846986154
| 37> H 2.1321210654 2.0807085612 3.2828601613
| 38> H 2.4058335597 0.6311781136 2.303001646
| 39> H 0.3113926808 -2.8286339445 -0.9157294301
| 40> H -0.0262593907 -1.2051040429 -1.6115220618
| 41> H -2.7873285127 0.2536898647 3.3908304301
| 42> H -2.6329791275 -1.2842980167 2.5011805084
| 43> H -0.2133304551 -1.3901894145 3.1018091036
| 44> H -0.356225721 0.1381376707 3.9770221342
| 45> H -1.2168280336 -1.2963221253 4.5590289353
| 46> H -5.6351737715 0.2822063175 -0.188075779
| 47> H -4.4432884163 1.1384369262 -1.2112989547
| 48> H -3.6603604882 -0.9766203226 -2.1647655077
| 49> H -4.7112842267 -1.905894238 -1.0837833415
| 50> H -5.4152568509 -0.8871441987 -2.3536000294
| 51> *
| 52>
| 53>                          ****END OF INPUT****

CARTESIAN COORDINATES (ANGSTROEM)
---------------------------------
  C      5.777694   -0.352184   -0.434663
  C      4.328666   -0.736837   -0.654921
  O      3.505848    0.356980   -0.208179
  P      1.978919    0.472790   -0.644567
  S      1.717750    0.340987   -2.580091
  O      1.596317    1.877467   -0.054938
  C      1.300797    2.195824    1.326571
  C      2.368425    1.719353    2.286635
  S      1.064156   -1.056347    0.517397
  C     -0.042716   -1.821966   -0.708200
  S     -1.733114   -2.005003   -0.100286
  P     -2.160693    0.053405    0.220651
  S     -1.437509    1.324015   -1.085465
  O     -1.662832    0.369038    1.683450
  C     -2.100443   -0.393551    2.843816
  C     -0.888349   -0.759294    3.675220
  O     -3.738870    0.077536    0.411472
  C     -4.665200    0.207023   -0.681537
  C     -4.609877   -0.971982   -1.631041
  H      6.016018    0.541016   -1.005373
  H      5.954168   -0.155205    0.618589
  H      6.415449   -1.166864   -0.761276
  H      4.058926   -1.624230   -0.075356
  H      4.118412   -0.921632   -1.714095
  H      1.221217    3.284172    1.313634
  H      0.324643    1.764844    1.568474
  H      3.339831    2.102144    1.984699
  H      2.132121    2.080709    3.282860
  H      2.405834    0.631178    2.303002
  H      0.311393   -2.828634   -0.915729
  H     -0.026259   -1.205104   -1.611522
  H     -2.787329    0.253690    3.390830
  H     -2.632979   -1.284298    2.501181
  H     -0.213330   -1.390189    3.101809
  H     -0.356226    0.138138    3.977022
  H     -1.216828   -1.296322    4.559029
  H     -5.635174    0.282206   -0.188076
  H     -4.443288    1.138437   -1.211299
  H     -3.660360   -0.976620   -2.164766
  H     -4.711284   -1.905894   -1.083783
  H     -5.415257   -0.887144   -2.353600

 Total Charge           Charge          ....    0
 Multiplicity           Mult            ....    1
 Number of Electrons    NEL             ....  202
 Basis Dimension        Dim             ....  539

ORBITAL ENERGIES
----------------

  NO   OCC          E(Eh)            E(eV)
   0   2.0000     -88.579282     -2410.3648
   1   2.0000     -88.577134     -2410.3064
   2   2.0000     -88.524555     -2408.8756
   3   2.0000     -88.522969     -2408.8324
   4   2.0000     -76.917771     -2093.0389
   5   2.0000     -76.917518     -2093.0321
   6   2.0000     -18.994099      -516.8557
   7   2.0000     -18.992035      -516.7995
   8   2.0000     -18.991473      -516.7843
   9   2.0000     -18.989661      -516.7350
  10   2.0000     -10.102984      -274.9162
  11   2.0000     -10.092102      -274.6201
  12   2.0000     -10.090555      -274.5780
  13   2.0000     -10.090216      -274.5687
  14   2.0000     -10.086980      -274.4807
  15   2.0000     -10.021204      -272.6908
  16   2.0000     -10.018977      -272.6302
  17   2.0000     -10.018650      -272.6213
  18   2.0000     -10.018456      -272.6160
  19   2.0000      -7.873601      -214.2516
  20   2.0000      -7.871468      -214.1935
  21   2.0000      -7.819574      -212.7814
  22   2.0000      -7.818396      -212.7494
  23   2.0000      -6.596127      -179.4897
  24   2.0000      -6.595843      -179.4820
  25   2.0000      -5.820559      -158.3855
  26   2.0000      -5.818314      -158.3244
  27   2.0000      -5.817290      -158.2965
  28   2.0000      -5.815249      -158.2410
  29   2.0000      -5.810812      -158.1202
  30   2.0000      -5.808666      -158.0618
  31   2.0000      -5.767304      -156.9363
  32   2.0000      -5.766010      -156.9011
  33   2.0000      -5.759688      -156.7291
  34   2.0000      -5.759621      -156.7273
  35   2.0000      -5.758838      -156.7060
  36   2.0000      -5.758130      -156.6867
  37   2.0000      -4.741903      -129.0337
  38   2.0000      -4.741447      -129.0213
  39   2.0000      -4.741073      -129.0112
  40   2.0000      -4.740851      -129.0051
  41   2.0000      -4.739664      -128.9728
  42   2.0000      -4.739482      -128.9679
  43   2.0000      -1.052147       -28.6304
  44   2.0000      -1.050389       -28.5825
  45   2.0000      -1.009963       -27.4825
  46   2.0000      -1.009223       -27.4624
  47   2.0000      -0.800202       -21.7746
  48   2.0000      -0.754735       -20.5374
  49   2.0000      -0.746589       -20.3157
  50   2.0000      -0.726062       -19.7572
  51   2.0000      -0.724855       -19.7243
  52   2.0000      -0.711010       -19.3476
  53   2.0000      -0.687394       -18.7049
  54   2.0000      -0.669631       -18.2216
  55   2.0000      -0.627756       -17.0821
  56   2.0000      -0.619033       -16.8447
  57   2.0000      -0.599935       -16.3250
  58   2.0000      -0.593742       -16.1565
  59   2.0000      -0.590797       -16.0764
  60   2.0000      -0.528060       -14.3692
  61   2.0000      -0.520594       -14.1661
  62   2.0000      -0.490090       -13.3360
  63   2.0000      -0.488053       -13.2806
  64   2.0000      -0.469436       -12.7740
  65   2.0000      -0.466222       -12.6865
  66   2.0000      -0.452725       -12.3193
  67   2.0000      -0.447019       -12.1640
  68   2.0000      -0.444242       -12.0884
  69   2.0000      -0.437434       -11.9032
  70   2.0000      -0.425224       -11.5709
  71   2.0000      -0.417477       -11.3601
  72   2.0000      -0.402963       -10.9652
  73   2.0000      -0.393025       -10.6948
  74   2.0000      -0.388702       -10.5771
  75   2.0000      -0.380983       -10.3671
  76   2.0000      -0.377791       -10.2802
  77   2.0000      -0.370163       -10.0726
  78   2.0000      -0.365894        -9.9565
  79   2.0000      -0.358357        -9.7514
  80   2.0000      -0.357239        -9.7210
  81   2.0000      -0.353610        -9.6222
  82   2.0000      -0.352436        -9.5903
  83   2.0000      -0.346091        -9.4176
  84   2.0000      -0.343028        -9.3343
  85   2.0000      -0.325096        -8.8463
  86   2.0000      -0.317778        -8.6472
  87   2.0000      -0.313363        -8.5270
  88   2.0000      -0.309571        -8.4239
  89   2.0000      -0.304874        -8.2960
  90   2.0000      -0.301327        -8.1995
  91   2.0000      -0.285918        -7.7802
  92   2.0000      -0.284224        -7.7341
  93   2.0000      -0.277756        -7.5581
  94   2.0000      -0.272542        -7.4162
  95   2.0000      -0.249205        -6.7812
  96   2.0000      -0.240751        -6.5512
  97   2.0000      -0.234053        -6.3689
  98   2.0000      -0.223537        -6.0828
  99   2.0000      -0.217477        -5.9179
 100   2.0000      -0.208497        -5.6735
 101   0.0000      -0.046395        -1.2625
 102   0.0000      -0.039737        -1.0813
 103   0.0000      -0.012559        -0.3418
 104   0.0000       0.011696         0.3183
 105   0.0000       0.015240         0.4147

MULLIKEN ATOMIC CHARGES
-----------------------
   0 C :   -0.482444
   1 C :   -0.148251
   2 O :   -0.277005
   3 P :    0.702367
   4 S :   -0.522602
   5 O :   -0.300572
   6 C :   -0.172611
   7 C :   -0.472222
   8 S :   -0.188214
   9 C :   -0.235377
  10 S :   -0.150058
  11 P :    0.649608
  12 S :   -0.450583
  13 O :   -0.292963
  14 C :   -0.093492
  15 C :   -0.499637
  16 O :   -0.313176
  17 C :   -0.157728
  18 C :   -0.487905
  19 H :    0.165449
  20 H :    0.164676
  21 H :    0.168559
  22 H :    0.169148
  23 H :    0.171398
  24 H :    0.177121
  25 H :    0.191034
  26 H :    0.171208
  27 H :    0.177551
  28 H :    0.162695
  29 H :    0.232507
  30 H :    0.219154
  31 H :    0.177702
  32 H :    0.166966
  33 H :    0.166669
  34 H :    0.170750
  35 H :    0.169918
  36 H :    0.174826
  37 H :    0.178318
  38 H :    0.175307
  39 H :    0.168563
  40 H :    0.173344
Sum of atomic charges:   -0.0000000

LOEWDIN ATOMIC CHARGES
----------------------
   0 C :   -0.390061
   1 C :    0.017845
   2 O :   -0.692365
   3 P :    0.376476
   4 S :   -0.159638
   5 O :   -0.674192
   6 C :    0.025693
   7 C :   -0.401713
   8 S :    0.144314
   9 C :   -0.412704
  10 S :    0.138836
  11 P :    0.379007
  12 S :   -0.098307
  13 O :   -0.690819
  14 C :    0.029379
  15 C :   -0.396915
  16 O :   -0.676377
  17 C :    0.027286
  18 C :   -0.411631
  19 H :    0.162416
  20 H :    0.162327
  21 H :    0.168233
  22 H :    0.178624
  23 H :    0.180863
  24 H :    0.193176
  25 H :    0.194385
  26 H :    0.166740
  27 H :    0.171393
  28 H :    0.162303
  29 H :    0.195691
  30 H :    0.198941
  31 H :    0.186646
  32 H :    0.181628
  33 H :    0.163117
  34 H :    0.164900
  35 H :    0.168309
  36 H :    0.191183
  37 H :    0.181153
  38 H :    0.161915
  39 H :    0.163511
  40 H :    0.168432

  Mayer bond orders larger than 0.100000
B(  0-C ,  1-C ) :   0.9512 B(  0-C , 19-H ) :   0.9705 B(  0-C , 20-H ) :   0.9690
B(  0-C , 21-H ) :   0.9591 B(  1-C ,  2-O ) :   0.7747 B(  1-C , 22-H ) :   0.9341
B(  1-C , 23-H ) :   0.9473 B(  2-O ,  3-P ) :   1.0627 B(  3-P ,  4-S ) :   1.7680
B(  3-P ,  5-O ) :   1.2276 B(  3-P ,  8-S ) :   0.9976 B(  5-O ,  6-C ) :   0.7895
B(  6-C ,  7-C ) :   0.8979 B(  6-C , 24-H ) :   0.9483 B(  6-C , 25-H ) :   0.9503
B(  7-C , 26-H ) :   0.9659 B(  7-C , 27-H ) :   0.9495 B(  7-C , 28-H ) :   0.9597
B(  8-S ,  9-C ) :   0.8831 B(  9-C , 10-S ) :   0.9133 B(  9-C , 29-H ) :   0.9003
B(  9-C , 30-H ) :   0.9083 B( 10-S , 11-P ) :   1.0238 B( 11-P , 12-S ) :   1.8247
B( 11-P , 13-O ) :   1.1295 B( 11-P , 16-O ) :   1.0586 B( 13-O , 14-C ) :   0.7289
B( 14-C , 15-C ) :   0.9460 B( 14-C , 31-H ) :   0.9409 B( 14-C , 32-H ) :   0.9542
B( 15-C , 33-H ) :   0.9647 B( 15-C , 34-H ) :   0.9657 B( 15-C , 35-H ) :   0.9594
B( 16-O , 17-C ) :   0.8135 B( 17-C , 18-C ) :   0.9045 B( 17-C , 36-H ) :   0.9508
B( 17-C , 37-H ) :   0.9682 B( 18-C , 38-H ) :   0.9650 B( 18-C , 39-H ) :   0.9642
B( 18-C , 40-H ) :   0.9514

Dispersion correction           -0.022260146
FINAL SINGLE POINT ENERGY     -2932.466289927094

DIPOLE MOMENT
-------------

Method             : SCF
Type of density    : Electron Density
Multiplicity       :   1
Irrep              :   0
Energy             : -2932.4907030300455517 Eh
Relativity type    :
Basis              : AO
                                X                 Y                 Z
Electronic contribution:     -5.704052811       1.848016267     -12.318479170
Nuclear contribution   :      5.047439961      -3.603835835      15.056844228
                        -----------------------------------------
Total Dipole Moment    :     -0.656612849      -1.755819568       2.738365059
                        -----------------------------------------
Magnitude (a.u.)       :      3.318536723
Magnitude (Debye)      :      8.435050005

Rotational constants in cm-1:             0.012967             0.005306             0.004800
Rotational constants in MHz :           388.751491           159.073191           143.910529

                             ****ORCA TERMINATED NORMALLY****
TOTAL RUN TIME: 0 days 0 hours 2 minutes 14 seconds 139 msec
