                         Program Version 6.0.0  -   RELEASE  -
|  1> ! pbe def2-sv(p) def2/J RI DEFGRID1 loosescf d4 GCP(DFT/SV(P)) printgap
|  2> %output
|  3>     printlevel normal
|  4> end
|  5> * xyz 0 1
|  6> C 1.4101085425 -3.2964422524 -0.254650412
|  7> C 2.730802289 -2.6209981461 -0.5659188591
|  8> O 2.989762941 -1.5272229932 0.3281861172
|  9> P 2.2396065504 -0.1311872993 0.1942884605
| 10> S 2.0287454718 0.4870768081 -1.6593189984
| 11> O 3.0979961247 0.8246501708 1.1230210104
| 12> C 4.2120293519 1.5888539044 0.6173428729
| 13> C 5.3842823839 0.7014764087 0.2559088879
| 14> S 0.5696952138 -0.3660588984 1.4608148682
| 15> C -0.0645567184 1.3274868839 1.4243755836
| 16> S -1.0142441762 1.7816076599 -0.0694362759
| 17> P -2.3775679756 0.151960498 -0.1894236778
| 18> S -4.0839525845 0.5277514317 -1.0717558604
| 19> O -2.4795173123 -0.4055513637 1.2938378079
| 20> C -3.6246565188 -0.1317094781 2.1246568828
| 21> C -3.5768000369 1.2608865127 2.7221880045
| 22> O -1.5205261301 -1.0273543838 -0.8336265585
| 23> C -1.7376612371 -1.4538452245 -2.1920838751
| 24> C -1.2254594351 -0.4412230663 -3.1963027475
| 25> H 1.3864072059 -3.6155220727 0.784192999
| 26> H 0.5854066283 -2.6038852595 -0.4209479718
| 27> H 1.2852207264 -4.1599673835 -0.9003739084
| 28> H 2.740356389 -2.2406617644 -1.5934107228
| 29> H 3.573111239 -3.2972090389 -0.413061302
| 30> H 3.8760370894 2.158632076 -0.255350075
| 31> H 4.4558556568 2.2684931857 1.4349620559
| 32> H 6.2353001907 1.3200462628 -0.0115089185
| 33> H 5.6468638423 0.0658532419 1.0973715698
| 34> H 5.1240304096 0.0715461155 -0.5935493962
| 35> H 0.7606057771 2.0349223582 1.4666614704
| 36> H -0.7049689119 1.4273084021 2.2961299205
| 37> H -4.5291744845 -0.2539806398 1.5202999127
| 38> H -3.5834188589 -0.9040592752 2.8933398099
| 39> H -2.7126626442 1.3748324475 3.371256718
| 40> H -3.5315910809 2.003629848 1.9257780856
| 41> H -4.4778732612 1.4282510629 3.3038703557
| 42> H -1.1994614539 -2.3999439243 -2.2641636071
| 43> H -2.8092794938 -1.6235727481 -2.3359284168
| 44> H -0.172412436 -0.2280387498 -3.0281973658
| 45> H -1.3552345873 -0.8316928402 -4.2002702444
| 46> H -1.7851865267 0.489351718 -3.1028497767
| 47> *
| 48>
| 49>                          ****END OF INPUT****

CARTESIAN COORDINATES (ANGSTROEM)
---------------------------------
  C      1.410109   -3.296442   -0.254650
  C      2.730802   -2.620998   -0.565919
  O      2.989763   -1.527223    0.328186
  P      2.239607   -0.131187    0.194288
  S      2.028745    0.487077   -1.659319
  O      3.097996    0.824650    1.123021
  C      4.212029    1.588854    0.617343
  C      5.384282    0.701476    0.255909
  S      0.569695   -0.366059    1.460815
  C     -0.064557    1.327487    1.424376
  S     -1.014244    1.781608   -0.069436
  P     -2.377568    0.151960   -0.189424
  S     -4.083953    0.527751   -1.071756
  O     -2.479517   -0.405551    1.293838
  C     -3.624657   -0.131709    2.124657
  C     -3.576800    1.260887    2.722188
  O     -1.520526   -1.027354   -0.833627
  C     -1.737661   -1.453845   -2.192084
  C     -1.225459   -0.441223   -3.196303
  H      1.386407   -3.615522    0.784193
  H      0.585407   -2.603885   -0.420948
  H      1.285221   -4.159967   -0.900374
  H      2.740356   -2.240662   -1.593411
  H      3.573111   -3.297209   -0.413061
  H      3.876037    2.158632   -0.255350
  H      4.455856    2.268493    1.434962
  H      6.235300    1.320046   -0.011509
  H      5.646864    0.065853    1.097372
  H      5.124030    0.071546   -0.593549
  H      0.760606    2.034922    1.466661
  H     -0.704969    1.427308    2.296130
  H     -4.529174   -0.253981    1.520300
  H     -3.583419   -0.904059    2.893340
  H     -2.712663    1.374832    3.371257
  H     -3.531591    2.003630    1.925778
  H     -4.477873    1.428251    3.303870
  H     -1.199461   -2.399944   -2.264164
  H     -2.809279   -1.623573   -2.335928
  H     -0.172412   -0.228039   -3.028197
  H     -1.355235   -0.831693   -4.200270
  H     -1.785187    0.489352   -3.102850

 Total Charge           Charge          ....    0
 Multiplicity           Mult            ....    1
 Number of Electrons    NEL             ....  202
 Basis Dimension        Dim             ....  334

ORBITAL ENERGIES
----------------

  NO   OCC          E(Eh)            E(eV)
   0   2.0000     -88.043850     -2395.7949
   1   2.0000     -88.037273     -2395.6160
   2   2.0000     -87.989396     -2394.3132
   3   2.0000     -87.986955     -2394.2468
   4   2.0000     -76.428375     -2079.7218
   5   2.0000     -76.425115     -2079.6331
   6   2.0000     -18.797343      -511.5017
   7   2.0000     -18.795716      -511.4574
   8   2.0000     -18.793146      -511.3875
   9   2.0000     -18.782524      -511.0985
  10   2.0000      -9.962138      -271.0835
  11   2.0000      -9.954735      -270.8821
  12   2.0000      -9.954396      -270.8729
  13   2.0000      -9.954334      -270.8712
  14   2.0000      -9.942927      -270.5608
  15   2.0000      -9.889935      -269.1188
  16   2.0000      -9.886248      -269.0185
  17   2.0000      -9.885837      -269.0073
  18   2.0000      -9.866772      -268.4885
  19   2.0000      -7.689051      -209.2297
  20   2.0000      -7.682521      -209.0520
  21   2.0000      -7.633996      -207.7316
  22   2.0000      -7.632090      -207.6797
  23   2.0000      -6.426191      -174.8656
  24   2.0000      -6.422614      -174.7682
  25   2.0000      -5.717059      -155.5691
  26   2.0000      -5.713653      -155.4764
  27   2.0000      -5.710824      -155.3994
  28   2.0000      -5.706907      -155.2928
  29   2.0000      -5.705691      -155.2597
  30   2.0000      -5.699180      -155.0826
  31   2.0000      -5.662688      -154.0896
  32   2.0000      -5.660993      -154.0434
  33   2.0000      -5.654548      -153.8681
  34   2.0000      -5.654496      -153.8667
  35   2.0000      -5.652716      -153.8182
  36   2.0000      -5.652254      -153.8057
  37   2.0000      -4.648765      -126.4993
  38   2.0000      -4.648014      -126.4789
  39   2.0000      -4.646542      -126.4388
  40   2.0000      -4.645058      -126.3985
  41   2.0000      -4.644613      -126.3863
  42   2.0000      -4.642968      -126.3416
  43   2.0000      -0.990660       -26.9572
  44   2.0000      -0.984278       -26.7836
  45   2.0000      -0.951188       -25.8831
  46   2.0000      -0.941830       -25.6285
  47   2.0000      -0.762994       -20.7621
  48   2.0000      -0.720454       -19.6045
  49   2.0000      -0.708434       -19.2775
  50   2.0000      -0.690059       -18.7775
  51   2.0000      -0.681300       -18.5391
  52   2.0000      -0.672414       -18.2973
  53   2.0000      -0.656010       -17.8509
  54   2.0000      -0.639172       -17.3927
  55   2.0000      -0.602315       -16.3898
  56   2.0000      -0.596269       -16.2253
  57   2.0000      -0.575499       -15.6601
  58   2.0000      -0.569598       -15.4995
  59   2.0000      -0.559824       -15.2336
  60   2.0000      -0.497816       -13.5462
  61   2.0000      -0.493342       -13.4245
  62   2.0000      -0.478953       -13.0330
  63   2.0000      -0.466047       -12.6818
  64   2.0000      -0.460406       -12.5283
  65   2.0000      -0.444197       -12.0872
  66   2.0000      -0.441401       -12.0111
  67   2.0000      -0.438788       -11.9400
  68   2.0000      -0.420703       -11.4479
  69   2.0000      -0.416115       -11.3231
  70   2.0000      -0.414778       -11.2867
  71   2.0000      -0.397519       -10.8170
  72   2.0000      -0.396584       -10.7916
  73   2.0000      -0.389497       -10.5988
  74   2.0000      -0.387870       -10.5545
  75   2.0000      -0.376314       -10.2400
  76   2.0000      -0.370149       -10.0723
  77   2.0000      -0.358429        -9.7533
  78   2.0000      -0.352667        -9.5966
  79   2.0000      -0.350874        -9.5478
  80   2.0000      -0.348646        -9.4871
  81   2.0000      -0.346212        -9.4209
  82   2.0000      -0.343916        -9.3584
  83   2.0000      -0.333452        -9.0737
  84   2.0000      -0.328387        -8.9359
  85   2.0000      -0.320743        -8.7279
  86   2.0000      -0.309151        -8.4124
  87   2.0000      -0.299105        -8.1390
  88   2.0000      -0.297088        -8.0842
  89   2.0000      -0.286626        -7.7995
  90   2.0000      -0.284479        -7.7411
  91   2.0000      -0.277822        -7.5599
  92   2.0000      -0.266254        -7.2451
  93   2.0000      -0.264749        -7.2042
  94   2.0000      -0.260613        -7.0916
  95   2.0000      -0.230701        -6.2777
  96   2.0000      -0.218139        -5.9359
  97   2.0000      -0.209333        -5.6962
  98   2.0000      -0.208490        -5.6733
  99   2.0000      -0.201873        -5.4932
 100   2.0000      -0.194145        -5.2829
 101   0.0000      -0.043791        -1.1916
 102   0.0000      -0.022657        -0.6165
 103   0.0000      -0.019325        -0.5259
 104   0.0000      -0.004404        -0.1198
 105   0.0000       0.012509         0.3404

MULLIKEN ATOMIC CHARGES
-----------------------
   0 C :   -0.355448
   1 C :   -0.006990
   2 O :   -0.371484
   3 P :    0.608458
   4 S :   -0.315355
   5 O :   -0.373328
   6 C :   -0.007116
   7 C :   -0.304884
   8 S :   -0.062646
   9 C :   -0.356134
  10 S :   -0.071168
  11 P :    0.605667
  12 S :   -0.320895
  13 O :   -0.372548
  14 C :   -0.007053
  15 C :   -0.326830
  16 O :   -0.363388
  17 C :   -0.004616
  18 C :   -0.320741
  19 H :    0.118995
  20 H :    0.166864
  21 H :    0.113976
  22 H :    0.108666
  23 H :    0.106202
  24 H :    0.112319
  25 H :    0.104547
  26 H :    0.113057
  27 H :    0.118309
  28 H :    0.122116
  29 H :    0.182952
  30 H :    0.192846
  31 H :    0.117332
  32 H :    0.108290
  33 H :    0.124965
  34 H :    0.131359
  35 H :    0.116032
  36 H :    0.099619
  37 H :    0.110830
  38 H :    0.139693
  39 H :    0.102478
  40 H :    0.115053
Sum of atomic charges:   -0.0000000

LOEWDIN ATOMIC CHARGES
----------------------
   0 C :   -0.373968
   1 C :   -0.121362
   2 O :   -0.242400
   3 P :    0.567453
   4 S :   -0.301424
   5 O :   -0.244611
   6 C :   -0.119740
   7 C :   -0.363948
   8 S :    0.113138
   9 C :   -0.473572
  10 S :    0.079370
  11 P :    0.574473
  12 S :   -0.312122
  13 O :   -0.244069
  14 C :   -0.119840
  15 C :   -0.365549
  16 O :   -0.243106
  17 C :   -0.118434
  18 C :   -0.374619
  19 H :    0.126764
  20 H :    0.127486
  21 H :    0.131194
  22 H :    0.107805
  23 H :    0.118775
  24 H :    0.110510
  25 H :    0.118238
  26 H :    0.130946
  27 H :    0.127252
  28 H :    0.123067
  29 H :    0.135500
  30 H :    0.130768
  31 H :    0.111076
  32 H :    0.119954
  33 H :    0.120376
  34 H :    0.126171
  35 H :    0.134020
  36 H :    0.113523
  37 H :    0.107180
  38 H :    0.118024
  39 H :    0.127158
  40 H :    0.118545

  Mayer bond orders larger than 0.100000
B(  0-C ,  1-C ) :   1.1638 B(  0-C , 19-H ) :   0.9434 B(  0-C , 20-H ) :   0.9177
B(  0-C , 21-H ) :   0.9381 B(  1-C ,  2-O ) :   0.9074 B(  1-C , 22-H ) :   0.9102
B(  1-C , 23-H ) :   0.9326 B(  2-O ,  3-P ) :   1.1035 B(  3-P ,  4-S ) :   1.6204
B(  3-P ,  5-O ) :   1.1068 B(  3-P ,  8-S ) :   0.9729 B(  4-S ,  8-S ) :   0.1148
B(  5-O ,  6-C ) :   0.9042 B(  6-C ,  7-C ) :   1.1672 B(  6-C , 24-H ) :   0.9143
B(  6-C , 25-H ) :   0.9341 B(  7-C , 26-H ) :   0.9389 B(  7-C , 27-H ) :   0.9461
B(  7-C , 28-H ) :   0.9374 B(  8-S ,  9-C ) :   1.0077 B(  9-C , 10-S ) :   0.9911
B(  9-C , 29-H ) :   0.8979 B(  9-C , 30-H ) :   0.8920 B( 10-S , 11-P ) :   0.9806
B( 11-P , 12-S ) :   1.6184 B( 11-P , 13-O ) :   1.0879 B( 11-P , 16-O ) :   1.0970
B( 13-O , 14-C ) :   0.9092 B( 14-C , 15-C ) :   1.1607 B( 14-C , 31-H ) :   0.9101
B( 14-C , 32-H ) :   0.9329 B( 15-C , 33-H ) :   0.9331 B( 15-C , 34-H ) :   0.9374
B( 15-C , 35-H ) :   0.9366 B( 16-O , 17-C ) :   0.8995 B( 17-C , 18-C ) :   1.1667
B( 17-C , 36-H ) :   0.9278 B( 17-C , 37-H ) :   0.9167 B( 18-C , 38-H ) :   0.9238
B( 18-C , 39-H ) :   0.9374 B( 18-C , 40-H ) :   0.9355

Dispersion correction           -0.066999794
FINAL SINGLE POINT ENERGY     -2929.518290299884

DIPOLE MOMENT
-------------

Method             : SCF
Type of density    : Electron Density
Multiplicity       :   1
Irrep              :   0
Energy             : -2929.6369634435282023 Eh
Relativity type    :
Basis              : AO
                                X                 Y                 Z
Electronic contribution:     -7.509305770       6.628012483       0.084137091
Nuclear contribution   :      8.489902547      -7.171527352       0.976757154
                        -----------------------------------------
Total Dipole Moment    :      0.980596777      -0.543514869       1.060894245
                        -----------------------------------------
Magnitude (a.u.)       :      1.543526822
Magnitude (Debye)      :      3.923333390

Rotational constants in cm-1:             0.012946             0.005161             0.004714
Rotational constants in MHz :           388.113461           154.730642           141.329718

                             ****ORCA TERMINATED NORMALLY****
TOTAL RUN TIME: 0 days 0 hours 0 minutes 21 seconds 586 msec
