                         Program Version 6.0.0  -   RELEASE  -
|  1> ! pbe def2-sv(p) def2/J RI DEFGRID1 loosescf d4 GCP(DFT/SV(P)) printgap
|  2> %output
|  3>     printlevel normal
|  4> end
|  5> * xyz 0 1
|  6> C 4.74731864 1.0441249935 -0.8737847355
|  7> C 4.3744580555 1.0147493929 0.5940167356
|  8> O 3.397466209 0.0020666049 0.8922278161
|  9> P 1.9062506366 0.0587403057 0.3436492236
| 10> S 1.0729233278 1.8252252091 0.3513420288
| 11> O 1.1719724928 -0.9845738257 1.275031047
| 12> C 1.6818509885 -2.3298922877 1.4680576096
| 13> C 2.3540247525 -2.4486134314 2.8200971676
| 14> S 2.0243141722 -0.9220000099 -1.5494947803
| 15> C 0.3734858405 -0.4843994234 -2.117736499
| 16> S -0.9524862569 -1.4248950724 -1.2594031781
| 17> P -2.2421151841 0.0534573656 -0.4756515887
| 18> S -4.1529862373 -0.3797423567 -0.5234195372
| 19> O -1.7961317591 1.2873470771 -1.3624939528
| 20> C -2.6165275774 2.4697232244 -1.4772483012
| 21> C -2.6402090646 3.2681432868 -0.1916633073
| 22> O -1.7078252999 0.4185364249 0.9829104212
| 23> C -2.3321265931 -0.0944796741 2.1682398811
| 24> C -1.989440067 -1.5524380082 2.394350419
| 25> H 5.5813855678 1.7237511097 -1.0163716787
| 26> H 5.0281425005 0.050617228 -1.2139568309
| 27> H 3.90381089 1.3930417168 -1.4669648475
| 28> H 3.9737752346 1.9831125116 0.9091017463
| 29> H 5.2266192084 0.7447942773 1.219445576
| 30> H 0.8074633294 -2.9801929343 1.3915713399
| 31> H 2.3786356714 -2.5661010709 0.6592745224
| 32> H 1.6611768927 -2.1760275046 3.6117577019
| 33> H 2.6763618416 -3.4749423004 2.9648852183
| 34> H 3.2175514512 -1.7904860122 2.8679284988
| 35> H 0.3261572559 -0.7460481629 -3.1709994398
| 36> H 0.2082412929 0.5787860691 -1.9561484417
| 37> H -2.1489518694 3.0283148967 -2.2891558722
| 38> H -3.6260515985 2.159430917 -1.7659912412
| 39> H -1.6235857124 3.4340626446 0.1594167245
| 40> H -3.1233334635 4.2234606917 -0.3700173374
| 41> H -3.19265834 2.727823813 0.5755204746
| 42> H -1.9487733546 0.5412552627 2.9676490792
| 43> H -3.4160216376 0.0343982204 2.0726518521
| 44> H -2.460323959 -1.8981362002 3.3088946503
| 45> H -2.3547411732 -2.1480284838 1.5567697275
| 46> H -0.9128838784 -1.6702178711 2.4705755518
| 47> *
| 48>
| 49>                          ****END OF INPUT****

CARTESIAN COORDINATES (ANGSTROEM)
---------------------------------
  C      4.747319    1.044125   -0.873785
  C      4.374458    1.014749    0.594017
  O      3.397466    0.002067    0.892228
  P      1.906251    0.058740    0.343649
  S      1.072923    1.825225    0.351342
  O      1.171972   -0.984574    1.275031
  C      1.681851   -2.329892    1.468058
  C      2.354025   -2.448613    2.820097
  S      2.024314   -0.922000   -1.549495
  C      0.373486   -0.484399   -2.117736
  S     -0.952486   -1.424895   -1.259403
  P     -2.242115    0.053457   -0.475652
  S     -4.152986   -0.379742   -0.523420
  O     -1.796132    1.287347   -1.362494
  C     -2.616528    2.469723   -1.477248
  C     -2.640209    3.268143   -0.191663
  O     -1.707825    0.418536    0.982910
  C     -2.332127   -0.094480    2.168240
  C     -1.989440   -1.552438    2.394350
  H      5.581386    1.723751   -1.016372
  H      5.028143    0.050617   -1.213957
  H      3.903811    1.393042   -1.466965
  H      3.973775    1.983113    0.909102
  H      5.226619    0.744794    1.219446
  H      0.807463   -2.980193    1.391571
  H      2.378636   -2.566101    0.659275
  H      1.661177   -2.176028    3.611758
  H      2.676362   -3.474942    2.964885
  H      3.217551   -1.790486    2.867928
  H      0.326157   -0.746048   -3.170999
  H      0.208241    0.578786   -1.956148
  H     -2.148952    3.028315   -2.289156
  H     -3.626052    2.159431   -1.765991
  H     -1.623586    3.434063    0.159417
  H     -3.123333    4.223461   -0.370017
  H     -3.192658    2.727824    0.575520
  H     -1.948773    0.541255    2.967649
  H     -3.416022    0.034398    2.072652
  H     -2.460324   -1.898136    3.308895
  H     -2.354741   -2.148028    1.556770
  H     -0.912884   -1.670218    2.470576

 Total Charge           Charge          ....    0
 Multiplicity           Mult            ....    1
 Number of Electrons    NEL             ....  202
 Basis Dimension        Dim             ....  334

ORBITAL ENERGIES
----------------

  NO   OCC          E(Eh)            E(eV)
   0   2.0000     -88.046638     -2395.8708
   1   2.0000     -88.035299     -2395.5623
   2   2.0000     -87.989454     -2394.3148
   3   2.0000     -87.980544     -2394.0723
   4   2.0000     -76.429653     -2079.7566
   5   2.0000     -76.419946     -2079.4924
   6   2.0000     -18.800882      -511.5980
   7   2.0000     -18.793615      -511.4003
   8   2.0000     -18.788324      -511.2563
   9   2.0000     -18.778395      -510.9861
  10   2.0000      -9.958871      -270.9947
  11   2.0000      -9.956761      -270.9372
  12   2.0000      -9.955263      -270.8965
  13   2.0000      -9.948724      -270.7185
  14   2.0000      -9.941012      -270.5087
  15   2.0000      -9.889399      -269.1042
  16   2.0000      -9.889281      -269.1010
  17   2.0000      -9.878126      -268.7975
  18   2.0000      -9.876582      -268.7555
  19   2.0000      -7.691660      -209.3007
  20   2.0000      -7.680606      -208.9999
  21   2.0000      -7.634491      -207.7451
  22   2.0000      -7.625728      -207.5066
  23   2.0000      -6.427202      -174.8931
  24   2.0000      -6.417789      -174.6369
  25   2.0000      -5.719437      -155.6338
  26   2.0000      -5.716149      -155.5443
  27   2.0000      -5.709085      -155.3521
  28   2.0000      -5.708768      -155.3435
  29   2.0000      -5.704827      -155.2362
  30   2.0000      -5.697221      -155.0293
  31   2.0000      -5.663459      -154.1105
  32   2.0000      -5.654937      -153.8787
  33   2.0000      -5.654719      -153.8727
  34   2.0000      -5.654652      -153.8709
  35   2.0000      -5.646702      -153.6546
  36   2.0000      -5.645513      -153.6222
  37   2.0000      -4.650083      -126.5352
  38   2.0000      -4.648933      -126.5039
  39   2.0000      -4.647407      -126.4624
  40   2.0000      -4.640267      -126.2681
  41   2.0000      -4.639580      -126.2494
  42   2.0000      -4.638263      -126.2136
  43   2.0000      -0.993318       -27.0295
  44   2.0000      -0.979085       -26.6423
  45   2.0000      -0.949547       -25.8385
  46   2.0000      -0.938720       -25.5439
  47   2.0000      -0.760873       -20.7044
  48   2.0000      -0.720190       -19.5974
  49   2.0000      -0.707859       -19.2618
  50   2.0000      -0.694691       -18.9035
  51   2.0000      -0.680046       -18.5050
  52   2.0000      -0.672349       -18.2955
  53   2.0000      -0.652465       -17.7545
  54   2.0000      -0.636978       -17.3331
  55   2.0000      -0.599001       -16.2996
  56   2.0000      -0.590590       -16.0708
  57   2.0000      -0.577220       -15.7070
  58   2.0000      -0.567013       -15.4292
  59   2.0000      -0.561090       -15.2680
  60   2.0000      -0.504824       -13.7370
  61   2.0000      -0.486892       -13.2490
  62   2.0000      -0.479177       -13.0391
  63   2.0000      -0.466731       -12.7004
  64   2.0000      -0.456164       -12.4129
  65   2.0000      -0.452754       -12.3201
  66   2.0000      -0.440655       -11.9908
  67   2.0000      -0.432350       -11.7648
  68   2.0000      -0.428699       -11.6655
  69   2.0000      -0.416401       -11.3308
  70   2.0000      -0.414075       -11.2676
  71   2.0000      -0.395897       -10.7729
  72   2.0000      -0.389829       -10.6078
  73   2.0000      -0.385680       -10.4949
  74   2.0000      -0.382964       -10.4210
  75   2.0000      -0.373837       -10.1726
  76   2.0000      -0.367414        -9.9979
  77   2.0000      -0.359098        -9.7716
  78   2.0000      -0.357543        -9.7292
  79   2.0000      -0.351473        -9.5641
  80   2.0000      -0.345453        -9.4003
  81   2.0000      -0.345152        -9.3921
  82   2.0000      -0.338874        -9.2212
  83   2.0000      -0.335591        -9.1319
  84   2.0000      -0.322811        -8.7841
  85   2.0000      -0.319350        -8.6900
  86   2.0000      -0.308161        -8.3855
  87   2.0000      -0.301563        -8.2059
  88   2.0000      -0.298502        -8.1227
  89   2.0000      -0.288233        -7.8432
  90   2.0000      -0.281004        -7.6465
  91   2.0000      -0.274084        -7.4582
  92   2.0000      -0.268674        -7.3110
  93   2.0000      -0.267102        -7.2682
  94   2.0000      -0.255155        -6.9431
  95   2.0000      -0.233904        -6.3649
  96   2.0000      -0.216960        -5.9038
  97   2.0000      -0.207296        -5.6408
  98   2.0000      -0.205127        -5.5818
  99   2.0000      -0.202260        -5.5038
 100   2.0000      -0.190148        -5.1742
 101   0.0000      -0.046753        -1.2722
 102   0.0000      -0.026875        -0.7313
 103   0.0000      -0.018412        -0.5010
 104   0.0000       0.002287         0.0622
 105   0.0000       0.017219         0.4685

MULLIKEN ATOMIC CHARGES
-----------------------
   0 C :   -0.320834
   1 C :   -0.000698
   2 O :   -0.380950
   3 P :    0.595257
   4 S :   -0.297972
   5 O :   -0.354462
   6 C :   -0.013083
   7 C :   -0.285475
   8 S :   -0.097227
   9 C :   -0.361189
  10 S :   -0.106152
  11 P :    0.638658
  12 S :   -0.335916
  13 O :   -0.379646
  14 C :   -0.000653
  15 C :   -0.314058
  16 O :   -0.358265
  17 C :   -0.007503
  18 C :   -0.332918
  19 H :    0.116151
  20 H :    0.118329
  21 H :    0.129550
  22 H :    0.113041
  23 H :    0.105722
  24 H :    0.116769
  25 H :    0.106012
  26 H :    0.118735
  27 H :    0.110951
  28 H :    0.118060
  29 H :    0.185172
  30 H :    0.216782
  31 H :    0.103220
  32 H :    0.112377
  33 H :    0.132082
  34 H :    0.109406
  35 H :    0.122573
  36 H :    0.102724
  37 H :    0.109872
  38 H :    0.106094
  39 H :    0.114734
  40 H :    0.144730
Sum of atomic charges:    0.0000000

LOEWDIN ATOMIC CHARGES
----------------------
   0 C :   -0.371742
   1 C :   -0.117034
   2 O :   -0.247450
   3 P :    0.572818
   4 S :   -0.292417
   5 O :   -0.231347
   6 C :   -0.119555
   7 C :   -0.356943
   8 S :    0.077562
   9 C :   -0.478420
  10 S :    0.065464
  11 P :    0.572884
  12 S :   -0.323880
  13 O :   -0.239711
  14 C :   -0.113715
  15 C :   -0.364957
  16 O :   -0.234908
  17 C :   -0.122357
  18 C :   -0.368459
  19 H :    0.132715
  20 H :    0.123651
  21 H :    0.122046
  22 H :    0.113101
  23 H :    0.118880
  24 H :    0.118760
  25 H :    0.103804
  26 H :    0.126589
  27 H :    0.130432
  28 H :    0.126394
  29 H :    0.137993
  30 H :    0.132701
  31 H :    0.118239
  32 H :    0.111043
  33 H :    0.128769
  34 H :    0.129045
  35 H :    0.123728
  36 H :    0.118487
  37 H :    0.104544
  38 H :    0.128216
  39 H :    0.118820
  40 H :    0.126209

  Mayer bond orders larger than 0.100000
B(  0-C ,  1-C ) :   1.1664 B(  0-C , 19-H ) :   0.9369 B(  0-C , 20-H ) :   0.9437
B(  0-C , 21-H ) :   0.9345 B(  1-C ,  2-O ) :   0.9055 B(  1-C , 22-H ) :   0.9177
B(  1-C , 23-H ) :   0.9337 B(  2-O ,  3-P ) :   1.0789 B(  3-P ,  4-S ) :   1.6571
B(  3-P ,  5-O ) :   1.1349 B(  3-P ,  8-S ) :   0.9417 B(  4-S ,  8-S ) :   0.1080
B(  5-O ,  6-C ) :   0.8711 B(  6-C ,  7-C ) :   1.1691 B(  6-C , 24-H ) :   0.9245
B(  6-C , 25-H ) :   0.9103 B(  7-C , 26-H ) :   0.9500 B(  7-C , 27-H ) :   0.9400
B(  7-C , 28-H ) :   0.9412 B(  8-S ,  9-C ) :   1.0054 B(  9-C , 10-S ) :   0.9767
B(  9-C , 29-H ) :   0.9113 B(  9-C , 30-H ) :   0.8573 B( 10-S , 11-P ) :   0.9686
B( 11-P , 12-S ) :   1.6176 B( 11-P , 13-O ) :   1.1083 B( 11-P , 16-O ) :   1.0889
B( 13-O , 14-C ) :   0.9003 B( 14-C , 15-C ) :   1.1649 B( 14-C , 31-H ) :   0.9350
B( 14-C , 32-H ) :   0.9166 B( 15-C , 33-H ) :   0.9409 B( 15-C , 34-H ) :   0.9380
B( 15-C , 35-H ) :   0.9389 B( 16-O , 17-C ) :   0.9159 B( 17-C , 18-C ) :   1.1643
B( 17-C , 36-H ) :   0.9298 B( 17-C , 37-H ) :   0.9089 B( 18-C , 38-H ) :   0.9378
B( 18-C , 39-H ) :   0.9368 B( 18-C , 40-H ) :   0.9264

Dispersion correction           -0.067745285
FINAL SINGLE POINT ENERGY     -2929.515018280530

DIPOLE MOMENT
-------------

Method             : SCF
Type of density    : Electron Density
Multiplicity       :   1
Irrep              :   0
Energy             : -2929.6354989414708143 Eh
Relativity type    :
Basis              : AO
                                X                 Y                 Z
Electronic contribution:     -8.266626270      -2.827156150     -12.488399125
Nuclear contribution   :      9.926471217       2.913065898      12.882743591
                        -----------------------------------------
Total Dipole Moment    :      1.659844947       0.085909748       0.394344466
                        -----------------------------------------
Magnitude (a.u.)       :      1.708207625
Magnitude (Debye)      :      4.341918726

Rotational constants in cm-1:             0.012115             0.005657             0.005090
Rotational constants in MHz :           363.198577           169.606476           152.597144

                             ****ORCA TERMINATED NORMALLY****
TOTAL RUN TIME: 0 days 0 hours 0 minutes 22 seconds 39 msec
