                         Program Version 6.0.0  -   RELEASE  -
|  1> ! r2scan-3c def2/J RI DEFGRID2 scfconv6 printgap
|  2> %output
|  3>     printlevel normal
|  4> end
|  5> * xyz 0 1
|  6> C 2.9106729047 1.1694061142 3.1677067461
|  7> C 1.6007401829 0.578553578 2.6916699506
|  8> O 1.454603412 0.7242785824 1.263976964
|  9> P 2.305244687 -0.1433404229 0.2448159854
| 10> S 2.8541693753 -1.8940535994 0.9470747429
| 11> O 3.4441752159 0.8938686318 -0.139195203
| 12> C 4.2442414892 0.8623153454 -1.3346258596
| 13> C 4.8938690242 -0.4845539294 -1.575834499
| 14> S 1.0580436005 -0.1676268658 -1.4682357258
| 15> C 0.0883996097 -1.614870478 -0.9743585873
| 16> S -1.0205528527 -1.276335095 0.4124838376
| 17> P -2.263011589 0.1203584368 -0.629059499
| 18> S -2.5705693026 -0.2897534788 -2.5139547183
| 19> O -1.6299977921 1.5444283401 -0.4160141633
| 20> C -1.450989873 2.1462621991 0.8904078314
| 21> C -2.5524918405 3.1487385975 1.1633768081
| 22> O -3.5536047228 0.1698529519 0.2938860532
| 23> C -4.4757522952 -0.9395654212 0.3437603809
| 24> C -5.7439932145 -0.4571375792 1.0177367773
| 25> H 3.7403909819 0.6178926867 2.726439134
| 26> H 2.9854919914 2.2111498824 2.868024675
| 27> H 2.9704153066 1.0956251761 4.2488961105
| 28> H 0.7411385782 1.1069919673 3.1052550952
| 29> H 1.5393536468 -0.4854505907 2.9426599777
| 30> H 3.6057942558 1.1402836129 -2.1782162596
| 31> H 4.9904537956 1.6404970226 -1.1637731007
| 32> H 5.552688212 -0.4177573536 -2.43570555
| 33> H 5.4685104067 -0.7911670576 -0.704964395
| 34> H 4.1329632509 -1.2393379297 -1.7710627263
| 35> H 0.7588734397 -2.4131271745 -0.6543108869
| 36> H -0.500296255 -1.9060280137 -1.8441629887
| 37> H -1.4375051129 1.3542686416 1.6444050848
| 38> H -0.4705399214 2.624418916 0.8416045618
| 39> H -2.5745188768 3.8985240081 0.3774152955
| 40> H -3.5157051616 2.6464287552 1.1958478245
| 41> H -2.3658989767 3.6326474068 2.116949811
| 42> H -4.6662989607 -1.2785056033 -0.6795853617
| 43> H -4.0047701798 -1.7495205892 0.9073599405
| 44> H -5.5216428599 -0.102925899 2.0201080841
| 45> H -6.1863071047 0.3532827982 0.4452124979
| 46> H -6.4493488176 -1.2794194311 1.076258681
| 47> *
| 48>
| 49>                          ****END OF INPUT****

CARTESIAN COORDINATES (ANGSTROEM)
---------------------------------
  C      2.910673    1.169406    3.167707
  C      1.600740    0.578554    2.691670
  O      1.454603    0.724279    1.263977
  P      2.305245   -0.143340    0.244816
  S      2.854169   -1.894054    0.947075
  O      3.444175    0.893869   -0.139195
  C      4.244241    0.862315   -1.334626
  C      4.893869   -0.484554   -1.575834
  S      1.058044   -0.167627   -1.468236
  C      0.088400   -1.614870   -0.974359
  S     -1.020553   -1.276335    0.412484
  P     -2.263012    0.120358   -0.629059
  S     -2.570569   -0.289753   -2.513955
  O     -1.629998    1.544428   -0.416014
  C     -1.450990    2.146262    0.890408
  C     -2.552492    3.148739    1.163377
  O     -3.553605    0.169853    0.293886
  C     -4.475752   -0.939565    0.343760
  C     -5.743993   -0.457138    1.017737
  H      3.740391    0.617893    2.726439
  H      2.985492    2.211150    2.868025
  H      2.970415    1.095625    4.248896
  H      0.741139    1.106992    3.105255
  H      1.539354   -0.485451    2.942660
  H      3.605794    1.140284   -2.178216
  H      4.990454    1.640497   -1.163773
  H      5.552688   -0.417757   -2.435706
  H      5.468510   -0.791167   -0.704964
  H      4.132963   -1.239338   -1.771063
  H      0.758873   -2.413127   -0.654311
  H     -0.500296   -1.906028   -1.844163
  H     -1.437505    1.354269    1.644405
  H     -0.470540    2.624419    0.841605
  H     -2.574519    3.898524    0.377415
  H     -3.515705    2.646429    1.195848
  H     -2.365899    3.632647    2.116950
  H     -4.666299   -1.278506   -0.679585
  H     -4.004770   -1.749521    0.907360
  H     -5.521643   -0.102926    2.020108
  H     -6.186307    0.353283    0.445212
  H     -6.449349   -1.279419    1.076259

 Total Charge           Charge          ....    0
 Multiplicity           Mult            ....    1
 Number of Electrons    NEL             ....  202
 Basis Dimension        Dim             ....  539

ORBITAL ENERGIES
----------------

  NO   OCC          E(Eh)            E(eV)
   0   2.0000     -88.575581     -2410.2641
   1   2.0000     -88.572575     -2410.1823
   2   2.0000     -88.519852     -2408.7476
   3   2.0000     -88.518369     -2408.7073
   4   2.0000     -76.915067     -2092.9654
   5   2.0000     -76.912806     -2092.9038
   6   2.0000     -18.996096      -516.9100
   7   2.0000     -18.994061      -516.8547
   8   2.0000     -18.990461      -516.7567
   9   2.0000     -18.989431      -516.7287
  10   2.0000     -10.105069      -274.9729
  11   2.0000     -10.102365      -274.8993
  12   2.0000     -10.101870      -274.8859
  13   2.0000     -10.100993      -274.8620
  14   2.0000     -10.097945      -274.7791
  15   2.0000     -10.036670      -273.1117
  16   2.0000     -10.031471      -272.9702
  17   2.0000     -10.029428      -272.9146
  18   2.0000     -10.028321      -272.8845
  19   2.0000      -7.869741      -214.1465
  20   2.0000      -7.866799      -214.0665
  21   2.0000      -7.814739      -212.6499
  22   2.0000      -7.813183      -212.6075
  23   2.0000      -6.593415      -179.4159
  24   2.0000      -6.591394      -179.3610
  25   2.0000      -5.816584      -158.2773
  26   2.0000      -5.813576      -158.1955
  27   2.0000      -5.813569      -158.1952
  28   2.0000      -5.810663      -158.1162
  29   2.0000      -5.806938      -158.0148
  30   2.0000      -5.804050      -157.9362
  31   2.0000      -5.762390      -156.8026
  32   2.0000      -5.760897      -156.7620
  33   2.0000      -5.755095      -156.6041
  34   2.0000      -5.754651      -156.5920
  35   2.0000      -5.753404      -156.5581
  36   2.0000      -5.753162      -156.5515
  37   2.0000      -4.738948      -128.9533
  38   2.0000      -4.738488      -128.9408
  39   2.0000      -4.737244      -128.9070
  40   2.0000      -4.736985      -128.8999
  41   2.0000      -4.736382      -128.8835
  42   2.0000      -4.734743      -128.8389
  43   2.0000      -1.053224       -28.6597
  44   2.0000      -1.050880       -28.5959
  45   2.0000      -1.012036       -27.5389
  46   2.0000      -1.011467       -27.5234
  47   2.0000      -0.801378       -21.8066
  48   2.0000      -0.759989       -20.6804
  49   2.0000      -0.751408       -20.4469
  50   2.0000      -0.738394       -20.0927
  51   2.0000      -0.732771       -19.9397
  52   2.0000      -0.710525       -19.3344
  53   2.0000      -0.685129       -18.6433
  54   2.0000      -0.669108       -18.2074
  55   2.0000      -0.630075       -17.1452
  56   2.0000      -0.620804       -16.8929
  57   2.0000      -0.608088       -16.5469
  58   2.0000      -0.605067       -16.4647
  59   2.0000      -0.595800       -16.2125
  60   2.0000      -0.536157       -14.5896
  61   2.0000      -0.519494       -14.1362
  62   2.0000      -0.501837       -13.6557
  63   2.0000      -0.490398       -13.3444
  64   2.0000      -0.478601       -13.0234
  65   2.0000      -0.464713       -12.6455
  66   2.0000      -0.459808       -12.5120
  67   2.0000      -0.456341       -12.4177
  68   2.0000      -0.448993       -12.2177
  69   2.0000      -0.437001       -11.8914
  70   2.0000      -0.425160       -11.5692
  71   2.0000      -0.412854       -11.2343
  72   2.0000      -0.407591       -11.0911
  73   2.0000      -0.401285       -10.9195
  74   2.0000      -0.397883       -10.8269
  75   2.0000      -0.393457       -10.7065
  76   2.0000      -0.384481       -10.4623
  77   2.0000      -0.375322       -10.2130
  78   2.0000      -0.369375       -10.0512
  79   2.0000      -0.365826        -9.9546
  80   2.0000      -0.362518        -9.8646
  81   2.0000      -0.361179        -9.8282
  82   2.0000      -0.360129        -9.7996
  83   2.0000      -0.357794        -9.7361
  84   2.0000      -0.350249        -9.5308
  85   2.0000      -0.335649        -9.1335
  86   2.0000      -0.325319        -8.8524
  87   2.0000      -0.318844        -8.6762
  88   2.0000      -0.313762        -8.5379
  89   2.0000      -0.309624        -8.4253
  90   2.0000      -0.303960        -8.2712
  91   2.0000      -0.292840        -7.9686
  92   2.0000      -0.288158        -7.8412
  93   2.0000      -0.279435        -7.6038
  94   2.0000      -0.269978        -7.3465
  95   2.0000      -0.245964        -6.6930
  96   2.0000      -0.230859        -6.2820
  97   2.0000      -0.224446        -6.1075
  98   2.0000      -0.216663        -5.8957
  99   2.0000      -0.213402        -5.8070
 100   2.0000      -0.211268        -5.7489
 101   0.0000      -0.046076        -1.2538
 102   0.0000      -0.024081        -0.6553
 103   0.0000      -0.003710        -0.1009
 104   0.0000       0.002279         0.0620
 105   0.0000       0.014507         0.3947

MULLIKEN ATOMIC CHARGES
-----------------------
   0 C :   -0.438453
   1 C :   -0.156079
   2 O :   -0.254974
   3 P :    0.633302
   4 S :   -0.471556
   5 O :   -0.276956
   6 C :   -0.160007
   7 C :   -0.422724
   8 S :   -0.119042
   9 C :   -0.236376
  10 S :   -0.182409
  11 P :    0.666796
  12 S :   -0.447153
  13 O :   -0.256794
  14 C :   -0.104859
  15 C :   -0.485600
  16 O :   -0.283719
  17 C :   -0.153093
  18 C :   -0.442387
  19 H :    0.170274
  20 H :    0.153311
  21 H :    0.147077
  22 H :    0.144081
  23 H :    0.179135
  24 H :    0.155407
  25 H :    0.149993
  26 H :    0.147721
  27 H :    0.163881
  28 H :    0.169978
  29 H :    0.212221
  30 H :    0.218239
  31 H :    0.154990
  32 H :    0.170883
  33 H :    0.160215
  34 H :    0.166397
  35 H :    0.144665
  36 H :    0.171133
  37 H :    0.153700
  38 H :    0.150944
  39 H :    0.159534
  40 H :    0.148304
Sum of atomic charges:   -0.0000000

LOEWDIN ATOMIC CHARGES
----------------------
   0 C :   -0.398304
   1 C :    0.011805
   2 O :   -0.679921
   3 P :    0.382568
   4 S :   -0.134006
   5 O :   -0.658686
   6 C :    0.025109
   7 C :   -0.406638
   8 S :    0.174151
   9 C :   -0.424337
  10 S :    0.137274
  11 P :    0.376090
  12 S :   -0.102637
  13 O :   -0.645027
  14 C :    0.020697
  15 C :   -0.391980
  16 O :   -0.677414
  17 C :    0.019794
  18 C :   -0.386350
  19 H :    0.166900
  20 H :    0.159170
  21 H :    0.159327
  22 H :    0.175881
  23 H :    0.182766
  24 H :    0.173017
  25 H :    0.181653
  26 H :    0.158576
  27 H :    0.165029
  28 H :    0.166554
  29 H :    0.191953
  30 H :    0.191807
  31 H :    0.175476
  32 H :    0.187142
  33 H :    0.162816
  34 H :    0.165824
  35 H :    0.158130
  36 H :    0.181531
  37 H :    0.172957
  38 H :    0.158442
  39 H :    0.161838
  40 H :    0.161022

  Mayer bond orders larger than 0.100000
B(  0-C ,  1-C ) :   0.9253 B(  0-C , 19-H ) :   0.9594 B(  0-C , 20-H ) :   0.9728
B(  0-C , 21-H ) :   0.9642 B(  1-C ,  2-O ) :   0.7787 B(  1-C , 22-H ) :   0.9616
B(  1-C , 23-H ) :   0.9598 B(  2-O ,  3-P ) :   1.1213 B(  3-P ,  4-S ) :   1.7614
B(  3-P ,  5-O ) :   1.0946 B(  3-P ,  8-S ) :   1.0816 B(  5-O ,  6-C ) :   0.8038
B(  6-C ,  7-C ) :   0.9377 B(  6-C , 24-H ) :   0.9644 B(  6-C , 25-H ) :   0.9585
B(  7-C , 26-H ) :   0.9613 B(  7-C , 27-H ) :   0.9662 B(  7-C , 28-H ) :   0.9536
B(  8-S ,  9-C ) :   0.9209 B(  9-C , 10-S ) :   0.9131 B(  9-C , 29-H ) :   0.9053
B(  9-C , 30-H ) :   0.9067 B( 10-S , 11-P ) :   0.9798 B( 11-P , 12-S ) :   1.8341
B( 11-P , 13-O ) :   1.1612 B( 11-P , 16-O ) :   1.0482 B( 13-O , 14-C ) :   0.7301
B( 14-C , 15-C ) :   0.9317 B( 14-C , 31-H ) :   0.9700 B( 14-C , 32-H ) :   0.9537
B( 15-C , 33-H ) :   0.9738 B( 15-C , 34-H ) :   0.9694 B( 15-C , 35-H ) :   0.9661
B( 16-O , 17-C ) :   0.7881 B( 17-C , 18-C ) :   0.9541 B( 17-C , 36-H ) :   0.9501
B( 17-C , 37-H ) :   0.9414 B( 18-C , 38-H ) :   0.9719 B( 18-C , 39-H ) :   0.9713
B( 18-C , 40-H ) :   0.9632

Dispersion correction           -0.021295345
FINAL SINGLE POINT ENERGY     -2932.461868739059

DIPOLE MOMENT
-------------

Method             : SCF
Type of density    : Electron Density
Multiplicity       :   1
Irrep              :   0
Energy             : -2932.4869537101890273 Eh
Relativity type    :
Basis              : AO
                                X                 Y                 Z
Electronic contribution:      1.140880613      -9.358076508     -13.360337351
Nuclear contribution   :     -1.183395103      10.174660909      14.586089435
                        -----------------------------------------
Total Dipole Moment    :     -0.042514490       0.816584401       1.225752084
                        -----------------------------------------
Magnitude (a.u.)       :      1.473460463
Magnitude (Debye)      :      3.745238858

Rotational constants in cm-1:             0.013023             0.004766             0.004368
Rotational constants in MHz :           390.407335           142.866298           130.953280

                             ****ORCA TERMINATED NORMALLY****
TOTAL RUN TIME: 0 days 0 hours 1 minutes 20 seconds 955 msec
