                         Program Version 6.0.0  -   RELEASE  -
|  1> ! r2scan-3c def2/J RI DEFGRID2 scfconv6 printgap
|  2> %output
|  3>     printlevel normal
|  4> end
|  5> %cpcm
|  6>     smd true
|  7>     smdsolvent "water"
|  8> end
|  9> * xyz 0 1
| 10> C 2.9106729047 1.1694061142 3.1677067461
| 11> C 1.6007401829 0.578553578 2.6916699506
| 12> O 1.454603412 0.7242785824 1.263976964
| 13> P 2.305244687 -0.1433404229 0.2448159854
| 14> S 2.8541693753 -1.8940535994 0.9470747429
| 15> O 3.4441752159 0.8938686318 -0.139195203
| 16> C 4.2442414892 0.8623153454 -1.3346258596
| 17> C 4.8938690242 -0.4845539294 -1.575834499
| 18> S 1.0580436005 -0.1676268658 -1.4682357258
| 19> C 0.0883996097 -1.614870478 -0.9743585873
| 20> S -1.0205528527 -1.276335095 0.4124838376
| 21> P -2.263011589 0.1203584368 -0.629059499
| 22> S -2.5705693026 -0.2897534788 -2.5139547183
| 23> O -1.6299977921 1.5444283401 -0.4160141633
| 24> C -1.450989873 2.1462621991 0.8904078314
| 25> C -2.5524918405 3.1487385975 1.1633768081
| 26> O -3.5536047228 0.1698529519 0.2938860532
| 27> C -4.4757522952 -0.9395654212 0.3437603809
| 28> C -5.7439932145 -0.4571375792 1.0177367773
| 29> H 3.7403909819 0.6178926867 2.726439134
| 30> H 2.9854919914 2.2111498824 2.868024675
| 31> H 2.9704153066 1.0956251761 4.2488961105
| 32> H 0.7411385782 1.1069919673 3.1052550952
| 33> H 1.5393536468 -0.4854505907 2.9426599777
| 34> H 3.6057942558 1.1402836129 -2.1782162596
| 35> H 4.9904537956 1.6404970226 -1.1637731007
| 36> H 5.552688212 -0.4177573536 -2.43570555
| 37> H 5.4685104067 -0.7911670576 -0.704964395
| 38> H 4.1329632509 -1.2393379297 -1.7710627263
| 39> H 0.7588734397 -2.4131271745 -0.6543108869
| 40> H -0.500296255 -1.9060280137 -1.8441629887
| 41> H -1.4375051129 1.3542686416 1.6444050848
| 42> H -0.4705399214 2.624418916 0.8416045618
| 43> H -2.5745188768 3.8985240081 0.3774152955
| 44> H -3.5157051616 2.6464287552 1.1958478245
| 45> H -2.3658989767 3.6326474068 2.116949811
| 46> H -4.6662989607 -1.2785056033 -0.6795853617
| 47> H -4.0047701798 -1.7495205892 0.9073599405
| 48> H -5.5216428599 -0.102925899 2.0201080841
| 49> H -6.1863071047 0.3532827982 0.4452124979
| 50> H -6.4493488176 -1.2794194311 1.076258681
| 51> *
| 52>
| 53>                          ****END OF INPUT****

CARTESIAN COORDINATES (ANGSTROEM)
---------------------------------
  C      2.910673    1.169406    3.167707
  C      1.600740    0.578554    2.691670
  O      1.454603    0.724279    1.263977
  P      2.305245   -0.143340    0.244816
  S      2.854169   -1.894054    0.947075
  O      3.444175    0.893869   -0.139195
  C      4.244241    0.862315   -1.334626
  C      4.893869   -0.484554   -1.575834
  S      1.058044   -0.167627   -1.468236
  C      0.088400   -1.614870   -0.974359
  S     -1.020553   -1.276335    0.412484
  P     -2.263012    0.120358   -0.629059
  S     -2.570569   -0.289753   -2.513955
  O     -1.629998    1.544428   -0.416014
  C     -1.450990    2.146262    0.890408
  C     -2.552492    3.148739    1.163377
  O     -3.553605    0.169853    0.293886
  C     -4.475752   -0.939565    0.343760
  C     -5.743993   -0.457138    1.017737
  H      3.740391    0.617893    2.726439
  H      2.985492    2.211150    2.868025
  H      2.970415    1.095625    4.248896
  H      0.741139    1.106992    3.105255
  H      1.539354   -0.485451    2.942660
  H      3.605794    1.140284   -2.178216
  H      4.990454    1.640497   -1.163773
  H      5.552688   -0.417757   -2.435706
  H      5.468510   -0.791167   -0.704964
  H      4.132963   -1.239338   -1.771063
  H      0.758873   -2.413127   -0.654311
  H     -0.500296   -1.906028   -1.844163
  H     -1.437505    1.354269    1.644405
  H     -0.470540    2.624419    0.841605
  H     -2.574519    3.898524    0.377415
  H     -3.515705    2.646429    1.195848
  H     -2.365899    3.632647    2.116950
  H     -4.666299   -1.278506   -0.679585
  H     -4.004770   -1.749521    0.907360
  H     -5.521643   -0.102926    2.020108
  H     -6.186307    0.353283    0.445212
  H     -6.449349   -1.279419    1.076259

 Total Charge           Charge          ....    0
 Multiplicity           Mult            ....    1
 Number of Electrons    NEL             ....  202
 Basis Dimension        Dim             ....  539

ORBITAL ENERGIES
----------------

  NO   OCC          E(Eh)            E(eV)
   0   2.0000     -88.580661     -2410.4023
   1   2.0000     -88.577278     -2410.3103
   2   2.0000     -88.530455     -2409.0362
   3   2.0000     -88.526505     -2408.9287
   4   2.0000     -76.920368     -2093.1096
   5   2.0000     -76.919621     -2093.0893
   6   2.0000     -18.997221      -516.9407
   7   2.0000     -18.995978      -516.9068
   8   2.0000     -18.995632      -516.8974
   9   2.0000     -18.990843      -516.7671
  10   2.0000     -10.103889      -274.9408
  11   2.0000     -10.093457      -274.6569
  12   2.0000     -10.092351      -274.6268
  13   2.0000     -10.091559      -274.6053
  14   2.0000     -10.087727      -274.5010
  15   2.0000     -10.020178      -272.6629
  16   2.0000     -10.018757      -272.6242
  17   2.0000     -10.018755      -272.6242
  18   2.0000     -10.018133      -272.6073
  19   2.0000      -7.874901      -214.2870
  20   2.0000      -7.871483      -214.1939
  21   2.0000      -7.825634      -212.9463
  22   2.0000      -7.821677      -212.8387
  23   2.0000      -6.598983      -179.5674
  24   2.0000      -6.598014      -179.5411
  25   2.0000      -5.821708      -158.4167
  26   2.0000      -5.818725      -158.3356
  27   2.0000      -5.818256      -158.3228
  28   2.0000      -5.815371      -158.2443
  29   2.0000      -5.812149      -158.1566
  30   2.0000      -5.808713      -158.0631
  31   2.0000      -5.773224      -157.0974
  32   2.0000      -5.769275      -156.9900
  33   2.0000      -5.765824      -156.8961
  34   2.0000      -5.765699      -156.8926
  35   2.0000      -5.762037      -156.7930
  36   2.0000      -5.761584      -156.7807
  37   2.0000      -4.744757      -129.1114
  38   2.0000      -4.743939      -129.0891
  39   2.0000      -4.743501      -129.0772
  40   2.0000      -4.743073      -129.0656
  41   2.0000      -4.742479      -129.0494
  42   2.0000      -4.741671      -129.0274
  43   2.0000      -1.056179       -28.7401
  44   2.0000      -1.052031       -28.6272
  45   2.0000      -1.014374       -27.6025
  46   2.0000      -1.011894       -27.5350
  47   2.0000      -0.804923       -21.9031
  48   2.0000      -0.756474       -20.5847
  49   2.0000      -0.745124       -20.2758
  50   2.0000      -0.728019       -19.8104
  51   2.0000      -0.723740       -19.6940
  52   2.0000      -0.710229       -19.3263
  53   2.0000      -0.688998       -18.7486
  54   2.0000      -0.675652       -18.3854
  55   2.0000      -0.628071       -17.0907
  56   2.0000      -0.616674       -16.7805
  57   2.0000      -0.602148       -16.3853
  58   2.0000      -0.597918       -16.2702
  59   2.0000      -0.593316       -16.1449
  60   2.0000      -0.533125       -14.5071
  61   2.0000      -0.515003       -14.0139
  62   2.0000      -0.498497       -13.5648
  63   2.0000      -0.485553       -13.2126
  64   2.0000      -0.478055       -13.0085
  65   2.0000      -0.459900       -12.5145
  66   2.0000      -0.455585       -12.3971
  67   2.0000      -0.449815       -12.2401
  68   2.0000      -0.443969       -12.0810
  69   2.0000      -0.433771       -11.8035
  70   2.0000      -0.423316       -11.5190
  71   2.0000      -0.408997       -11.1294
  72   2.0000      -0.402496       -10.9525
  73   2.0000      -0.398293       -10.8381
  74   2.0000      -0.394855       -10.7445
  75   2.0000      -0.390225       -10.6186
  76   2.0000      -0.384059       -10.4508
  77   2.0000      -0.368185       -10.0188
  78   2.0000      -0.362510        -9.8644
  79   2.0000      -0.356951        -9.7131
  80   2.0000      -0.354473        -9.6457
  81   2.0000      -0.353463        -9.6182
  82   2.0000      -0.351847        -9.5742
  83   2.0000      -0.349936        -9.5223
  84   2.0000      -0.346672        -9.4334
  85   2.0000      -0.331146        -9.0110
  86   2.0000      -0.322478        -8.7751
  87   2.0000      -0.315333        -8.5807
  88   2.0000      -0.309341        -8.4176
  89   2.0000      -0.305289        -8.3073
  90   2.0000      -0.299145        -8.1401
  91   2.0000      -0.291381        -7.9289
  92   2.0000      -0.287846        -7.8327
  93   2.0000      -0.279130        -7.5955
  94   2.0000      -0.272053        -7.4029
  95   2.0000      -0.251173        -6.8348
  96   2.0000      -0.238879        -6.5002
  97   2.0000      -0.234722        -6.3871
  98   2.0000      -0.225484        -6.1357
  99   2.0000      -0.221482        -6.0268
 100   2.0000      -0.221281        -6.0214
 101   0.0000      -0.052239        -1.4215
 102   0.0000      -0.031417        -0.8549
 103   0.0000      -0.008263        -0.2248
 104   0.0000      -0.003175        -0.0864
 105   0.0000       0.013291         0.3617

MULLIKEN ATOMIC CHARGES
-----------------------
   0 C :   -0.483377
   1 C :   -0.148445
   2 O :   -0.280703
   3 P :    0.673710
   4 S :   -0.517337
   5 O :   -0.306278
   6 C :   -0.159210
   7 C :   -0.463001
   8 S :   -0.141774
   9 C :   -0.242827
  10 S :   -0.182739
  11 P :    0.676066
  12 S :   -0.501826
  13 O :   -0.289720
  14 C :   -0.090702
  15 C :   -0.530191
  16 O :   -0.300262
  17 C :   -0.139848
  18 C :   -0.481844
  19 H :    0.166524
  20 H :    0.169922
  21 H :    0.172037
  22 H :    0.179534
  23 H :    0.177266
  24 H :    0.173107
  25 H :    0.177245
  26 H :    0.173547
  27 H :    0.170613
  28 H :    0.166122
  29 H :    0.231455
  30 H :    0.235595
  31 H :    0.176416
  32 H :    0.182572
  33 H :    0.169395
  34 H :    0.170289
  35 H :    0.172069
  36 H :    0.172861
  37 H :    0.170369
  38 H :    0.166461
  39 H :    0.167076
  40 H :    0.169833
Sum of atomic charges:   -0.0000000

LOEWDIN ATOMIC CHARGES
----------------------
   0 C :   -0.402279
   1 C :    0.017525
   2 O :   -0.689213
   3 P :    0.387853
   4 S :   -0.162125
   5 O :   -0.670545
   6 C :    0.030951
   7 C :   -0.410175
   8 S :    0.161612
   9 C :   -0.419700
  10 S :    0.141215
  11 P :    0.377537
  12 S :   -0.145782
  13 O :   -0.668769
  14 C :    0.027624
  15 C :   -0.393723
  16 O :   -0.681765
  17 C :    0.025279
  18 C :   -0.388867
  19 H :    0.162643
  20 H :    0.163497
  21 H :    0.168582
  22 H :    0.190004
  23 H :    0.182178
  24 H :    0.179678
  25 H :    0.193234
  26 H :    0.168254
  27 H :    0.164413
  28 H :    0.161957
  29 H :    0.197647
  30 H :    0.196758
  31 H :    0.184132
  32 H :    0.192549
  33 H :    0.164448
  34 H :    0.165655
  35 H :    0.169437
  36 H :    0.181941
  37 H :    0.180046
  38 H :    0.163482
  39 H :    0.163429
  40 H :    0.169383

  Mayer bond orders larger than 0.100000
B(  0-C ,  1-C ) :   0.9120 B(  0-C , 19-H ) :   0.9603 B(  0-C , 20-H ) :   0.9719
B(  0-C , 21-H ) :   0.9580 B(  1-C ,  2-O ) :   0.7665 B(  1-C , 22-H ) :   0.9514
B(  1-C , 23-H ) :   0.9567 B(  2-O ,  3-P ) :   1.1303 B(  3-P ,  4-S ) :   1.7221
B(  3-P ,  5-O ) :   1.1043 B(  3-P ,  8-S ) :   1.0872 B(  5-O ,  6-C ) :   0.7945
B(  6-C ,  7-C ) :   0.9195 B(  6-C , 24-H ) :   0.9595 B(  6-C , 25-H ) :   0.9484
B(  7-C , 26-H ) :   0.9555 B(  7-C , 27-H ) :   0.9669 B(  7-C , 28-H ) :   0.9562
B(  8-S ,  9-C ) :   0.9075 B(  9-C , 10-S ) :   0.9018 B(  9-C , 29-H ) :   0.9017
B(  9-C , 30-H ) :   0.9021 B( 10-S , 11-P ) :   0.9941 B( 11-P , 12-S ) :   1.8099
B( 11-P , 13-O ) :   1.1669 B( 11-P , 16-O ) :   1.0627 B( 13-O , 14-C ) :   0.7178
B( 14-C , 15-C ) :   0.9285 B( 14-C , 31-H ) :   0.9562 B( 14-C , 32-H ) :   0.9449
B( 15-C , 33-H ) :   0.9725 B( 15-C , 34-H ) :   0.9683 B( 15-C , 35-H ) :   0.9587
B( 16-O , 17-C ) :   0.7788 B( 17-C , 18-C ) :   0.9540 B( 17-C , 36-H ) :   0.9472
B( 17-C , 37-H ) :   0.9323 B( 18-C , 38-H ) :   0.9682 B( 18-C , 39-H ) :   0.9691
B( 18-C , 40-H ) :   0.9576

Dispersion correction           -0.021295345
FINAL SINGLE POINT ENERGY     -2932.471969298007

DIPOLE MOMENT
-------------

Method             : SCF
Type of density    : Electron Density
Multiplicity       :   1
Irrep              :   0
Energy             : -2932.4970542691366973 Eh
Relativity type    :
Basis              : AO
                                X                 Y                 Z
Electronic contribution:      1.139498283      -9.218239355     -12.785015077
Nuclear contribution   :     -1.183395103      10.174660909      14.586089435
                        -----------------------------------------
Total Dipole Moment    :     -0.043896819       0.956421554       1.801074358
                        -----------------------------------------
Magnitude (a.u.)       :      2.039739680
Magnitude (Debye)      :      5.184606239

Rotational constants in cm-1:             0.013023             0.004766             0.004368
Rotational constants in MHz :           390.407335           142.866298           130.953280

                             ****ORCA TERMINATED NORMALLY****
TOTAL RUN TIME: 0 days 0 hours 1 minutes 49 seconds 188 msec
