                         Program Version 6.0.0  -   RELEASE  -
|  1> ! pbe def2-sv(p) def2/J RI DEFGRID1 loosescf d4 GCP(DFT/SV(P)) printgap
|  2> %output
|  3>     printlevel normal
|  4> end
|  5> * xyz 0 1
|  6> C 1.1184688041 -2.1036102479 1.9365486986
|  7> C 2.1945956024 -2.1561326563 0.8691918237
|  8> O 2.8794304356 -0.8944722769 0.788518289
|  9> P 2.7225984315 0.1170621833 -0.4320854521
| 10> S 2.9175298755 -0.724136947 -2.189643629
| 11> O 3.8678836694 1.152673979 -0.1439606085
| 12> C 3.8407094247 2.2195415623 0.8372677563
| 13> C 3.5296699834 1.7243425257 2.2324026357
| 14> S 0.9095731975 1.2162822639 -0.1403328759
| 15> C -0.0483482754 0.5236319972 -1.5030843324
| 16> S -0.8661759121 -1.0408737458 -1.0807812851
| 17> P -2.4177143738 -0.1682702057 0.0490603879
| 18> S -3.222358311 1.4835803315 -0.6505113464
| 19> O -1.699704479 -0.0703159415 1.4565168596
| 20> C -2.213967512 0.7529243637 2.5306585126
| 21> C -1.4506338045 2.0602237812 2.6017234102
| 22> O -3.4603328975 -1.338741133 0.316159732
| 23> C -4.5646956869 -1.6049273059 -0.5649957661
| 24> C -4.1047850524 -2.1457701138 -1.9034819765
| 25> H 0.3544545492 -1.3738479965 1.6794570851
| 26> H 0.652891745 -3.0804751873 2.018377985
| 27> H 1.557350236 -1.8322372096 2.8924487915
| 28> H 1.7769900108 -2.4084906215 -0.1116245978
| 29> H 2.9660640949 -2.8854804285 1.1251846112
| 30> H 4.8448418056 2.640879299 0.7713092073
| 31> H 3.1046271997 2.9593189704 0.5126376981
| 32> H 2.5171216023 1.3272883412 2.2694841059
| 33> H 4.2263765705 0.9408898401 2.5184119384
| 34> H 3.610532472 2.5528018383 2.9292862177
| 35> H 0.6188203591 0.3122892516 -2.3402303277
| 36> H -0.8061874951 1.2612250721 -1.7687265831
| 37> H -3.2809441616 0.9299590508 2.3707049161
| 38> H -2.072217006 0.1542455672 3.431523447
| 39> H -1.6077469715 2.6364728857 1.6923930776
| 40> H -1.8023842183 2.6348097863 3.4523155331
| 41> H -0.386945278 1.86824372 2.7076947473
| 42> H -5.1659735894 -2.3337190013 -0.0199713571
| 43> H -5.132109808 -0.6781788368 -0.6991536718
| 44> H -3.4536102117 -3.0045807143 -1.7608125118
| 45> H -4.9692425514 -2.4411092003 -2.4894248394
| 46> H -3.5561533448 -1.3777554565 -2.4477313235
| 47> *
| 48>
| 49>                          ****END OF INPUT****

CARTESIAN COORDINATES (ANGSTROEM)
---------------------------------
  C      1.118469   -2.103610    1.936549
  C      2.194596   -2.156133    0.869192
  O      2.879430   -0.894472    0.788518
  P      2.722598    0.117062   -0.432085
  S      2.917530   -0.724137   -2.189644
  O      3.867884    1.152674   -0.143961
  C      3.840709    2.219542    0.837268
  C      3.529670    1.724343    2.232403
  S      0.909573    1.216282   -0.140333
  C     -0.048348    0.523632   -1.503084
  S     -0.866176   -1.040874   -1.080781
  P     -2.417714   -0.168270    0.049060
  S     -3.222358    1.483580   -0.650511
  O     -1.699704   -0.070316    1.456517
  C     -2.213968    0.752924    2.530659
  C     -1.450634    2.060224    2.601723
  O     -3.460333   -1.338741    0.316160
  C     -4.564696   -1.604927   -0.564996
  C     -4.104785   -2.145770   -1.903482
  H      0.354455   -1.373848    1.679457
  H      0.652892   -3.080475    2.018378
  H      1.557350   -1.832237    2.892449
  H      1.776990   -2.408491   -0.111625
  H      2.966064   -2.885480    1.125185
  H      4.844842    2.640879    0.771309
  H      3.104627    2.959319    0.512638
  H      2.517122    1.327288    2.269484
  H      4.226377    0.940890    2.518412
  H      3.610532    2.552802    2.929286
  H      0.618820    0.312289   -2.340230
  H     -0.806187    1.261225   -1.768727
  H     -3.280944    0.929959    2.370705
  H     -2.072217    0.154246    3.431523
  H     -1.607747    2.636473    1.692393
  H     -1.802384    2.634810    3.452316
  H     -0.386945    1.868244    2.707695
  H     -5.165974   -2.333719   -0.019971
  H     -5.132110   -0.678179   -0.699154
  H     -3.453610   -3.004581   -1.760813
  H     -4.969243   -2.441109   -2.489425
  H     -3.556153   -1.377755   -2.447731

 Total Charge           Charge          ....    0
 Multiplicity           Mult            ....    1
 Number of Electrons    NEL             ....  202
 Basis Dimension        Dim             ....  334

ORBITAL ENERGIES
----------------

  NO   OCC          E(Eh)            E(eV)
   0   2.0000     -88.048146     -2395.9118
   1   2.0000     -88.044151     -2395.8032
   2   2.0000     -87.995064     -2394.4674
   3   2.0000     -87.984566     -2394.1818
   4   2.0000     -76.432205     -2079.8260
   5   2.0000     -76.426603     -2079.6736
   6   2.0000     -18.798382      -511.5300
   7   2.0000     -18.795952      -511.4639
   8   2.0000     -18.794700      -511.4298
   9   2.0000     -18.787735      -511.2403
  10   2.0000      -9.961707      -271.0718
  11   2.0000      -9.958396      -270.9817
  12   2.0000      -9.956289      -270.9244
  13   2.0000      -9.953373      -270.8450
  14   2.0000      -9.946819      -270.6667
  15   2.0000      -9.893139      -269.2060
  16   2.0000      -9.887320      -269.0476
  17   2.0000      -9.885273      -268.9920
  18   2.0000      -9.876614      -268.7563
  19   2.0000      -7.693150      -209.3413
  20   2.0000      -7.688866      -209.2247
  21   2.0000      -7.639890      -207.8920
  22   2.0000      -7.629806      -207.6176
  23   2.0000      -6.429979      -174.9686
  24   2.0000      -6.424069      -174.8078
  25   2.0000      -5.720909      -155.6738
  26   2.0000      -5.717840      -155.5903
  27   2.0000      -5.716684      -155.5589
  28   2.0000      -5.713308      -155.4670
  29   2.0000      -5.710045      -155.3782
  30   2.0000      -5.706023      -155.2688
  31   2.0000      -5.668677      -154.2525
  32   2.0000      -5.660643      -154.0339
  33   2.0000      -5.660086      -154.0188
  34   2.0000      -5.658806      -153.9840
  35   2.0000      -5.650426      -153.7559
  36   2.0000      -5.649829      -153.7397
  37   2.0000      -4.652505      -126.6011
  38   2.0000      -4.651663      -126.5782
  39   2.0000      -4.650511      -126.5468
  40   2.0000      -4.646743      -126.4443
  41   2.0000      -4.645840      -126.4197
  42   2.0000      -4.644431      -126.3814
  43   2.0000      -0.992616       -27.0105
  44   2.0000      -0.986993       -26.8574
  45   2.0000      -0.951015       -25.8784
  46   2.0000      -0.944206       -25.6931
  47   2.0000      -0.767008       -20.8713
  48   2.0000      -0.725022       -19.7289
  49   2.0000      -0.713999       -19.4289
  50   2.0000      -0.691243       -18.8097
  51   2.0000      -0.689081       -18.7508
  52   2.0000      -0.678345       -18.4587
  53   2.0000      -0.652680       -17.7603
  54   2.0000      -0.639679       -17.4066
  55   2.0000      -0.603960       -16.4346
  56   2.0000      -0.596809       -16.2400
  57   2.0000      -0.578800       -15.7499
  58   2.0000      -0.571329       -15.5467
  59   2.0000      -0.559656       -15.2290
  60   2.0000      -0.506125       -13.7724
  61   2.0000      -0.497733       -13.5440
  62   2.0000      -0.477688       -12.9986
  63   2.0000      -0.474983       -12.9249
  64   2.0000      -0.464469       -12.6389
  65   2.0000      -0.448051       -12.1921
  66   2.0000      -0.445167       -12.1136
  67   2.0000      -0.438662       -11.9366
  68   2.0000      -0.431026       -11.7288
  69   2.0000      -0.421797       -11.4777
  70   2.0000      -0.407063       -11.0768
  71   2.0000      -0.401737       -10.9318
  72   2.0000      -0.398205       -10.8357
  73   2.0000      -0.385247       -10.4831
  74   2.0000      -0.384449       -10.4614
  75   2.0000      -0.378822       -10.3083
  76   2.0000      -0.365985        -9.9590
  77   2.0000      -0.360554        -9.8112
  78   2.0000      -0.357943        -9.7401
  79   2.0000      -0.354659        -9.6508
  80   2.0000      -0.353042        -9.6068
  81   2.0000      -0.347861        -9.4658
  82   2.0000      -0.344507        -9.3745
  83   2.0000      -0.341155        -9.2833
  84   2.0000      -0.330347        -8.9892
  85   2.0000      -0.322006        -8.7622
  86   2.0000      -0.312978        -8.5166
  87   2.0000      -0.301097        -8.1933
  88   2.0000      -0.293680        -7.9914
  89   2.0000      -0.292687        -7.9644
  90   2.0000      -0.288061        -7.8385
  91   2.0000      -0.283325        -7.7097
  92   2.0000      -0.276820        -7.5327
  93   2.0000      -0.269187        -7.3250
  94   2.0000      -0.257034        -6.9943
  95   2.0000      -0.237203        -6.4546
  96   2.0000      -0.221823        -6.0361
  97   2.0000      -0.215894        -5.8748
  98   2.0000      -0.207944        -5.6584
  99   2.0000      -0.204525        -5.5654
 100   2.0000      -0.199380        -5.4254
 101   0.0000      -0.047908        -1.3036
 102   0.0000      -0.031278        -0.8511
 103   0.0000      -0.011170        -0.3040
 104   0.0000      -0.001757        -0.0478
 105   0.0000       0.009959         0.2710

MULLIKEN ATOMIC CHARGES
-----------------------
   0 C :   -0.322600
   1 C :   -0.004477
   2 O :   -0.372963
   3 P :    0.598826
   4 S :   -0.308368
   5 O :   -0.358855
   6 C :   -0.007759
   7 C :   -0.329088
   8 S :   -0.118239
   9 C :   -0.360860
  10 S :   -0.069704
  11 P :    0.608414
  12 S :   -0.333301
  13 O :   -0.358423
  14 C :    0.001924
  15 C :   -0.301370
  16 O :   -0.370680
  17 C :   -0.005395
  18 C :   -0.318544
  19 H :    0.151517
  20 H :    0.104764
  21 H :    0.104260
  22 H :    0.103422
  23 H :    0.104330
  24 H :    0.115754
  25 H :    0.117285
  26 H :    0.139604
  27 H :    0.127657
  28 H :    0.116113
  29 H :    0.198521
  30 H :    0.192705
  31 H :    0.104886
  32 H :    0.108853
  33 H :    0.124351
  34 H :    0.108556
  35 H :    0.125530
  36 H :    0.106794
  37 H :    0.112605
  38 H :    0.119396
  39 H :    0.115627
  40 H :    0.128932
Sum of atomic charges:    0.0000000

LOEWDIN ATOMIC CHARGES
----------------------
   0 C :   -0.369651
   1 C :   -0.118109
   2 O :   -0.245647
   3 P :    0.570104
   4 S :   -0.304342
   5 O :   -0.233402
   6 C :   -0.112045
   7 C :   -0.368408
   8 S :    0.073912
   9 C :   -0.489157
  10 S :    0.106086
  11 P :    0.573154
  12 S :   -0.321550
  13 O :   -0.236231
  14 C :   -0.110889
  15 C :   -0.362804
  16 O :   -0.244480
  17 C :   -0.119681
  18 C :   -0.369185
  19 H :    0.120203
  20 H :    0.128284
  21 H :    0.120638
  22 H :    0.101955
  23 H :    0.117323
  24 H :    0.125292
  25 H :    0.111537
  26 H :    0.119365
  27 H :    0.131718
  28 H :    0.132515
  29 H :    0.128952
  30 H :    0.128445
  31 H :    0.110385
  32 H :    0.119633
  33 H :    0.124351
  34 H :    0.128813
  35 H :    0.122711
  36 H :    0.119462
  37 H :    0.110883
  38 H :    0.125286
  39 H :    0.132444
  40 H :    0.122134

  Mayer bond orders larger than 0.100000
B(  0-C ,  1-C ) :   1.1645 B(  0-C , 19-H ) :   0.9200 B(  0-C , 20-H ) :   0.9406
B(  0-C , 21-H ) :   0.9456 B(  1-C ,  2-O ) :   0.9039 B(  1-C , 22-H ) :   0.9026
B(  1-C , 23-H ) :   0.9351 B(  2-O ,  3-P ) :   1.0909 B(  3-P ,  4-S ) :   1.6396
B(  3-P ,  5-O ) :   1.1544 B(  3-P ,  8-S ) :   0.9292 B(  4-S ,  8-S ) :   0.1116
B(  4-S , 29-H ) :   0.1042 B(  5-O ,  6-C ) :   0.9010 B(  6-C ,  7-C ) :   1.1678
B(  6-C , 24-H ) :   0.9339 B(  6-C , 25-H ) :   0.9218 B(  7-C , 26-H ) :   0.9321
B(  7-C , 27-H ) :   0.9412 B(  7-C , 28-H ) :   0.9345 B(  8-S ,  9-C ) :   1.0202
B(  9-C , 10-S ) :   1.0006 B(  9-C , 29-H ) :   0.8569 B(  9-C , 30-H ) :   0.8673
B( 10-S , 11-P ) :   0.9668 B( 10-S , 12-S ) :   0.1082 B( 11-P , 12-S ) :   1.5831
B( 11-P , 13-O ) :   1.1259 B( 11-P , 16-O ) :   1.1177 B( 13-O , 14-C ) :   0.8823
B( 14-C , 15-C ) :   1.1722 B( 14-C , 31-H ) :   0.9139 B( 14-C , 32-H ) :   0.9335
B( 15-C , 33-H ) :   0.9368 B( 15-C , 34-H ) :   0.9386 B( 15-C , 35-H ) :   0.9427
B( 16-O , 17-C ) :   0.9070 B( 17-C , 18-C ) :   1.1644 B( 17-C , 36-H ) :   0.9334
B( 17-C , 37-H ) :   0.9156 B( 18-C , 38-H ) :   0.9451 B( 18-C , 39-H ) :   0.9380
B( 18-C , 40-H ) :   0.9352

Dispersion correction           -0.065667484
FINAL SINGLE POINT ENERGY     -2929.521905422689

DIPOLE MOMENT
-------------

Method             : SCF
Type of density    : Electron Density
Multiplicity       :   1
Irrep              :   0
Energy             : -2929.6418385784127167 Eh
Relativity type    :
Basis              : AO
                                X                 Y                 Z
Electronic contribution:      5.209044508       1.064140859     -16.421871101
Nuclear contribution   :     -5.873601839      -1.121765931      18.070889366
                        -----------------------------------------
Total Dipole Moment    :     -0.664557332      -0.057625072       1.649018264
                        -----------------------------------------
Magnitude (a.u.)       :      1.778824986
Magnitude (Debye)      :      4.521413792

Rotational constants in cm-1:             0.012355             0.005031             0.004523
Rotational constants in MHz :           370.397074           150.840228           135.587727

                             ****ORCA TERMINATED NORMALLY****
TOTAL RUN TIME: 0 days 0 hours 0 minutes 21 seconds 790 msec
