                         Program Version 6.0.0  -   RELEASE  -
|  1> ! r2scan-3c def2/J RI DEFGRID2 scfconv6 printgap
|  2> %output
|  3>     printlevel normal
|  4> end
|  5> * xyz 0 1
|  6> C 2.0942992239 -1.5468006505 3.0917417113
|  7> C 1.1864809395 -1.3060189255 1.9013247172
|  8> O 1.5134886556 -0.0427391412 1.3011241583
|  9> P 2.1102720973 0.1494336991 -0.1618266123
| 10> S 2.8677409448 -1.4852496348 -0.9436758404
| 11> O 3.0268227372 1.427948964 0.0196004011
| 12> C 4.0499043123 1.5377120329 1.0329881645
| 13> C 5.2888840259 0.7402062175 0.6768212795
| 14> S 0.6683194934 1.1461276222 -1.3452995185
| 15> C -0.0841706335 -0.3319742254 -2.0736307141
| 16> S -0.8615222018 -1.4098968623 -0.8373263799
| 17> P -2.2840736345 -0.0135627126 -0.148829866
| 18> S -3.0885431632 1.2044205538 -1.4616236162
| 19> O -1.4591289756 0.6538350631 1.0272572367
| 20> C -1.8185350162 1.9253024711 1.6139898185
| 21> C -0.5468420337 2.6704933451 1.9656217293
| 22> O -3.3330619614 -0.8783257707 0.6767826478
| 23> C -4.513307124 -1.4421654673 0.0768711776
| 24> C -4.1791965365 -2.542244375 -0.9095481829
| 25> H 1.8030416936 -2.4723451382 3.5774301874
| 26> H 3.1271806955 -1.6307722943 2.7608138145
| 27> H 2.0129078131 -0.7283764365 3.8017557341
| 28> H 0.1371249181 -1.2397273994 2.1972938905
| 29> H 1.3037470527 -2.1003913421 1.1565876774
| 30> H 4.262844949 2.607613628 1.0679538088
| 31> H 3.6334001527 1.212810852 1.9897185326
| 32> H 6.0528544359 0.9075859228 1.4295789201
| 33> H 5.0582184749 -0.3227444851 0.6327680884
| 34> H 5.6671454549 1.0485900171 -0.294410094
| 35> H 0.6792332736 -0.9334219404 -2.5668277244
| 36> H -0.8355679311 0.017981984 -2.7802710908
| 37> H -2.4215637919 2.4876575398 0.8927453838
| 38> H -2.4189800835 1.7148746249 2.5019463688
| 39> H 0.063372408 2.0695005605 2.6338760084
| 40> H 0.0263485421 2.8813249129 1.065414691
| 41> H -0.8050187564 3.6053284255 2.4524189613
| 42> H -5.0835431957 -1.819981653 0.9264081075
| 43> H -5.0662577452 -0.6368463817 -0.4169005153
| 44> H -3.5372902248 -3.2860015162 -0.4442065812
| 45> H -5.0965525147 -3.0149877558 -1.2453112746
| 46> H -3.6616157008 -2.1240936485 -1.7719851462
| 47> *
| 48>
| 49>                          ****END OF INPUT****

CARTESIAN COORDINATES (ANGSTROEM)
---------------------------------
  C      2.094299   -1.546801    3.091742
  C      1.186481   -1.306019    1.901325
  O      1.513489   -0.042739    1.301124
  P      2.110272    0.149434   -0.161827
  S      2.867741   -1.485250   -0.943676
  O      3.026823    1.427949    0.019600
  C      4.049904    1.537712    1.032988
  C      5.288884    0.740206    0.676821
  S      0.668319    1.146128   -1.345300
  C     -0.084171   -0.331974   -2.073631
  S     -0.861522   -1.409897   -0.837326
  P     -2.284074   -0.013563   -0.148830
  S     -3.088543    1.204421   -1.461624
  O     -1.459129    0.653835    1.027257
  C     -1.818535    1.925302    1.613990
  C     -0.546842    2.670493    1.965622
  O     -3.333062   -0.878326    0.676783
  C     -4.513307   -1.442165    0.076871
  C     -4.179197   -2.542244   -0.909548
  H      1.803042   -2.472345    3.577430
  H      3.127181   -1.630772    2.760814
  H      2.012908   -0.728376    3.801756
  H      0.137125   -1.239727    2.197294
  H      1.303747   -2.100391    1.156588
  H      4.262845    2.607614    1.067954
  H      3.633400    1.212811    1.989719
  H      6.052854    0.907586    1.429579
  H      5.058218   -0.322744    0.632768
  H      5.667145    1.048590   -0.294410
  H      0.679233   -0.933422   -2.566828
  H     -0.835568    0.017982   -2.780271
  H     -2.421564    2.487658    0.892745
  H     -2.418980    1.714875    2.501946
  H      0.063372    2.069501    2.633876
  H      0.026349    2.881325    1.065415
  H     -0.805019    3.605328    2.452419
  H     -5.083543   -1.819982    0.926408
  H     -5.066258   -0.636846   -0.416901
  H     -3.537290   -3.286002   -0.444207
  H     -5.096553   -3.014988   -1.245311
  H     -3.661616   -2.124094   -1.771985

 Total Charge           Charge          ....    0
 Multiplicity           Mult            ....    1
 Number of Electrons    NEL             ....  202
 Basis Dimension        Dim             ....  539

ORBITAL ENERGIES
----------------

  NO   OCC          E(Eh)            E(eV)
   0   2.0000     -88.576994     -2410.3025
   1   2.0000     -88.571455     -2410.1518
   2   2.0000     -88.521963     -2408.8051
   3   2.0000     -88.519796     -2408.7461
   4   2.0000     -76.914251     -2092.9432
   5   2.0000     -76.914000     -2092.9363
   6   2.0000     -18.993563      -516.8411
   7   2.0000     -18.992688      -516.8173
   8   2.0000     -18.990638      -516.7615
   9   2.0000     -18.987432      -516.6743
  10   2.0000     -10.104514      -274.9578
  11   2.0000     -10.103592      -274.9327
  12   2.0000     -10.099211      -274.8135
  13   2.0000     -10.095665      -274.7170
  14   2.0000     -10.092460      -274.6298
  15   2.0000     -10.031551      -272.9724
  16   2.0000     -10.029687      -272.9217
  17   2.0000     -10.028761      -272.8965
  18   2.0000     -10.026808      -272.8433
  19   2.0000      -7.871492      -214.1942
  20   2.0000      -7.865681      -214.0361
  21   2.0000      -7.816708      -212.7034
  22   2.0000      -7.814638      -212.6471
  23   2.0000      -6.592855      -179.4007
  24   2.0000      -6.592123      -179.3808
  25   2.0000      -5.818381      -158.3262
  26   2.0000      -5.815342      -158.2435
  27   2.0000      -5.812722      -158.1722
  28   2.0000      -5.809554      -158.0860
  29   2.0000      -5.808576      -158.0594
  30   2.0000      -5.802617      -157.8972
  31   2.0000      -5.764282      -156.8541
  32   2.0000      -5.762276      -156.7995
  33   2.0000      -5.757031      -156.6568
  34   2.0000      -5.756745      -156.6490
  35   2.0000      -5.755076      -156.6036
  36   2.0000      -5.754488      -156.5876
  37   2.0000      -4.738285      -128.9353
  38   2.0000      -4.737898      -128.9248
  39   2.0000      -4.737727      -128.9201
  40   2.0000      -4.736827      -128.8956
  41   2.0000      -4.736677      -128.8915
  42   2.0000      -4.735865      -128.8694
  43   2.0000      -1.050397       -28.5828
  44   2.0000      -1.049046       -28.5460
  45   2.0000      -1.009946       -27.4820
  46   2.0000      -1.008655       -27.4469
  47   2.0000      -0.802769       -21.8445
  48   2.0000      -0.760814       -20.7028
  49   2.0000      -0.749313       -20.3899
  50   2.0000      -0.732920       -19.9438
  51   2.0000      -0.730572       -19.8799
  52   2.0000      -0.708920       -19.2907
  53   2.0000      -0.685667       -18.6580
  54   2.0000      -0.669290       -18.2123
  55   2.0000      -0.632500       -17.2112
  56   2.0000      -0.621949       -16.9241
  57   2.0000      -0.609404       -16.5827
  58   2.0000      -0.604617       -16.4525
  59   2.0000      -0.587496       -15.9866
  60   2.0000      -0.529579       -14.4106
  61   2.0000      -0.523193       -14.2368
  62   2.0000      -0.496293       -13.5048
  63   2.0000      -0.492488       -13.4013
  64   2.0000      -0.477025       -12.9805
  65   2.0000      -0.461110       -12.5475
  66   2.0000      -0.457927       -12.4608
  67   2.0000      -0.451668       -12.2905
  68   2.0000      -0.446273       -12.1437
  69   2.0000      -0.433037       -11.7835
  70   2.0000      -0.427703       -11.6384
  71   2.0000      -0.411128       -11.1874
  72   2.0000      -0.406303       -11.0561
  73   2.0000      -0.402412       -10.9502
  74   2.0000      -0.394941       -10.7469
  75   2.0000      -0.391310       -10.6481
  76   2.0000      -0.385183       -10.4814
  77   2.0000      -0.371383       -10.1059
  78   2.0000      -0.368651       -10.0315
  79   2.0000      -0.366087        -9.9617
  80   2.0000      -0.365047        -9.9334
  81   2.0000      -0.361315        -9.8319
  82   2.0000      -0.355209        -9.6657
  83   2.0000      -0.353535        -9.6202
  84   2.0000      -0.350508        -9.5378
  85   2.0000      -0.337145        -9.1742
  86   2.0000      -0.320439        -8.7196
  87   2.0000      -0.311747        -8.4831
  88   2.0000      -0.309039        -8.4094
  89   2.0000      -0.305521        -8.3136
  90   2.0000      -0.301948        -8.2164
  91   2.0000      -0.293655        -7.9908
  92   2.0000      -0.290415        -7.9026
  93   2.0000      -0.280100        -7.6219
  94   2.0000      -0.271963        -7.4005
  95   2.0000      -0.246225        -6.7001
  96   2.0000      -0.228043        -6.2054
  97   2.0000      -0.227503        -6.1907
  98   2.0000      -0.220970        -6.0129
  99   2.0000      -0.213739        -5.8161
 100   2.0000      -0.209842        -5.7101
 101   0.0000      -0.048191        -1.3113
 102   0.0000      -0.026277        -0.7150
 103   0.0000      -0.000874        -0.0238
 104   0.0000       0.002385         0.0649
 105   0.0000       0.010235         0.2785

MULLIKEN ATOMIC CHARGES
-----------------------
   0 C :   -0.500183
   1 C :   -0.113142
   2 O :   -0.264128
   3 P :    0.717958
   4 S :   -0.478640
   5 O :   -0.316694
   6 C :   -0.167594
   7 C :   -0.427820
   8 S :   -0.127313
   9 C :   -0.239238
  10 S :   -0.129067
  11 P :    0.700897
  12 S :   -0.484526
  13 O :   -0.256038
  14 C :   -0.136347
  15 C :   -0.462398
  16 O :   -0.307276
  17 C :   -0.152962
  18 C :   -0.448590
  19 H :    0.148976
  20 H :    0.161019
  21 H :    0.153295
  22 H :    0.168420
  23 H :    0.178628
  24 H :    0.150516
  25 H :    0.159741
  26 H :    0.145428
  27 H :    0.168412
  28 H :    0.158655
  29 H :    0.209328
  30 H :    0.210361
  31 H :    0.168163
  32 H :    0.146775
  33 H :    0.154158
  34 H :    0.167797
  35 H :    0.142862
  36 H :    0.147536
  37 H :    0.173492
  38 H :    0.155090
  39 H :    0.148474
  40 H :    0.175970
Sum of atomic charges:    0.0000000

LOEWDIN ATOMIC CHARGES
----------------------
   0 C :   -0.395189
   1 C :    0.002038
   2 O :   -0.670797
   3 P :    0.388037
   4 S :   -0.131852
   5 O :   -0.666592
   6 C :    0.030244
   7 C :   -0.401819
   8 S :    0.188249
   9 C :   -0.418573
  10 S :    0.174822
  11 P :    0.376793
  12 S :   -0.130531
  13 O :   -0.678864
  14 C :    0.025123
  15 C :   -0.391326
  16 O :   -0.660566
  17 C :    0.019401
  18 C :   -0.406728
  19 H :    0.160751
  20 H :    0.159594
  21 H :    0.156600
  22 H :    0.180778
  23 H :    0.184725
  24 H :    0.181090
  25 H :    0.175340
  26 H :    0.157565
  27 H :    0.166174
  28 H :    0.163423
  29 H :    0.190824
  30 H :    0.189661
  31 H :    0.182575
  32 H :    0.171028
  33 H :    0.161458
  34 H :    0.165376
  35 H :    0.157025
  36 H :    0.179215
  37 H :    0.180057
  38 H :    0.160061
  39 H :    0.159533
  40 H :    0.165277

  Mayer bond orders larger than 0.100000
B(  0-C ,  1-C ) :   0.9271 B(  0-C , 19-H ) :   0.9645 B(  0-C , 20-H ) :   0.9743
B(  0-C , 21-H ) :   0.9802 B(  1-C ,  2-O ) :   0.7263 B(  1-C , 22-H ) :   0.9569
B(  1-C , 23-H ) :   0.9454 B(  2-O ,  3-P ) :   1.0277 B(  3-P ,  4-S ) :   1.7698
B(  3-P ,  5-O ) :   1.1381 B(  3-P ,  8-S ) :   1.0688 B(  5-O ,  6-C ) :   0.7945
B(  6-C ,  7-C ) :   0.9457 B(  6-C , 24-H ) :   0.9596 B(  6-C , 25-H ) :   0.9688
B(  7-C , 26-H ) :   0.9663 B(  7-C , 27-H ) :   0.9535 B(  7-C , 28-H ) :   0.9686
B(  8-S ,  9-C ) :   0.9043 B(  9-C , 10-S ) :   0.8881 B(  9-C , 29-H ) :   0.9080
B(  9-C , 30-H ) :   0.9107 B( 10-S , 11-P ) :   1.0900 B( 11-P , 12-S ) :   1.7430
B( 11-P , 13-O ) :   1.1557 B( 11-P , 16-O ) :   1.0626 B( 13-O , 14-C ) :   0.7787
B( 14-C , 15-C ) :   0.9655 B( 14-C , 31-H ) :   0.9560 B( 14-C , 32-H ) :   0.9494
B( 15-C , 33-H ) :   0.9677 B( 15-C , 34-H ) :   0.9668 B( 15-C , 35-H ) :   0.9633
B( 16-O , 17-C ) :   0.8166 B( 17-C , 18-C ) :   0.9223 B( 17-C , 36-H ) :   0.9586
B( 17-C , 37-H ) :   0.9679 B( 18-C , 38-H ) :   0.9682 B( 18-C , 39-H ) :   0.9588
B( 18-C , 40-H ) :   0.9625

Dispersion correction           -0.022251985
FINAL SINGLE POINT ENERGY     -2932.463997116749

DIPOLE MOMENT
-------------

Method             : SCF
Type of density    : Electron Density
Multiplicity       :   1
Irrep              :   0
Energy             : -2932.4883512660603628 Eh
Relativity type    :
Basis              : AO
                                X                 Y                 Z
Electronic contribution:     -4.908334220       1.654808948     -17.186924766
Nuclear contribution   :      4.761554461      -1.736271509      18.812196185
                        -----------------------------------------
Total Dipole Moment    :     -0.146779759      -0.081462561       1.625271419
                        -----------------------------------------
Magnitude (a.u.)       :      1.633917878
Magnitude (Debye)      :      4.153089193

Rotational constants in cm-1:             0.013274             0.005114             0.004947
Rotational constants in MHz :           397.942200           153.327263           148.295454

                             ****ORCA TERMINATED NORMALLY****
TOTAL RUN TIME: 0 days 0 hours 1 minutes 22 seconds 1 msec
