                         Program Version 6.0.0  -   RELEASE  -
|  1> ! r2scan-3c def2/J RI DEFGRID2 scfconv6 printgap
|  2> %output
|  3>     printlevel normal
|  4> end
|  5> %cpcm
|  6>     smd true
|  7>     smdsolvent "water"
|  8> end
|  9> * xyz 0 1
| 10> C 2.0942992239 -1.5468006505 3.0917417113
| 11> C 1.1864809395 -1.3060189255 1.9013247172
| 12> O 1.5134886556 -0.0427391412 1.3011241583
| 13> P 2.1102720973 0.1494336991 -0.1618266123
| 14> S 2.8677409448 -1.4852496348 -0.9436758404
| 15> O 3.0268227372 1.427948964 0.0196004011
| 16> C 4.0499043123 1.5377120329 1.0329881645
| 17> C 5.2888840259 0.7402062175 0.6768212795
| 18> S 0.6683194934 1.1461276222 -1.3452995185
| 19> C -0.0841706335 -0.3319742254 -2.0736307141
| 20> S -0.8615222018 -1.4098968623 -0.8373263799
| 21> P -2.2840736345 -0.0135627126 -0.148829866
| 22> S -3.0885431632 1.2044205538 -1.4616236162
| 23> O -1.4591289756 0.6538350631 1.0272572367
| 24> C -1.8185350162 1.9253024711 1.6139898185
| 25> C -0.5468420337 2.6704933451 1.9656217293
| 26> O -3.3330619614 -0.8783257707 0.6767826478
| 27> C -4.513307124 -1.4421654673 0.0768711776
| 28> C -4.1791965365 -2.542244375 -0.9095481829
| 29> H 1.8030416936 -2.4723451382 3.5774301874
| 30> H 3.1271806955 -1.6307722943 2.7608138145
| 31> H 2.0129078131 -0.7283764365 3.8017557341
| 32> H 0.1371249181 -1.2397273994 2.1972938905
| 33> H 1.3037470527 -2.1003913421 1.1565876774
| 34> H 4.262844949 2.607613628 1.0679538088
| 35> H 3.6334001527 1.212810852 1.9897185326
| 36> H 6.0528544359 0.9075859228 1.4295789201
| 37> H 5.0582184749 -0.3227444851 0.6327680884
| 38> H 5.6671454549 1.0485900171 -0.294410094
| 39> H 0.6792332736 -0.9334219404 -2.5668277244
| 40> H -0.8355679311 0.017981984 -2.7802710908
| 41> H -2.4215637919 2.4876575398 0.8927453838
| 42> H -2.4189800835 1.7148746249 2.5019463688
| 43> H 0.063372408 2.0695005605 2.6338760084
| 44> H 0.0263485421 2.8813249129 1.065414691
| 45> H -0.8050187564 3.6053284255 2.4524189613
| 46> H -5.0835431957 -1.819981653 0.9264081075
| 47> H -5.0662577452 -0.6368463817 -0.4169005153
| 48> H -3.5372902248 -3.2860015162 -0.4442065812
| 49> H -5.0965525147 -3.0149877558 -1.2453112746
| 50> H -3.6616157008 -2.1240936485 -1.7719851462
| 51> *
| 52>
| 53>                          ****END OF INPUT****

CARTESIAN COORDINATES (ANGSTROEM)
---------------------------------
  C      2.094299   -1.546801    3.091742
  C      1.186481   -1.306019    1.901325
  O      1.513489   -0.042739    1.301124
  P      2.110272    0.149434   -0.161827
  S      2.867741   -1.485250   -0.943676
  O      3.026823    1.427949    0.019600
  C      4.049904    1.537712    1.032988
  C      5.288884    0.740206    0.676821
  S      0.668319    1.146128   -1.345300
  C     -0.084171   -0.331974   -2.073631
  S     -0.861522   -1.409897   -0.837326
  P     -2.284074   -0.013563   -0.148830
  S     -3.088543    1.204421   -1.461624
  O     -1.459129    0.653835    1.027257
  C     -1.818535    1.925302    1.613990
  C     -0.546842    2.670493    1.965622
  O     -3.333062   -0.878326    0.676783
  C     -4.513307   -1.442165    0.076871
  C     -4.179197   -2.542244   -0.909548
  H      1.803042   -2.472345    3.577430
  H      3.127181   -1.630772    2.760814
  H      2.012908   -0.728376    3.801756
  H      0.137125   -1.239727    2.197294
  H      1.303747   -2.100391    1.156588
  H      4.262845    2.607614    1.067954
  H      3.633400    1.212811    1.989719
  H      6.052854    0.907586    1.429579
  H      5.058218   -0.322744    0.632768
  H      5.667145    1.048590   -0.294410
  H      0.679233   -0.933422   -2.566828
  H     -0.835568    0.017982   -2.780271
  H     -2.421564    2.487658    0.892745
  H     -2.418980    1.714875    2.501946
  H      0.063372    2.069501    2.633876
  H      0.026349    2.881325    1.065415
  H     -0.805019    3.605328    2.452419
  H     -5.083543   -1.819982    0.926408
  H     -5.066258   -0.636846   -0.416901
  H     -3.537290   -3.286002   -0.444207
  H     -5.096553   -3.014988   -1.245311
  H     -3.661616   -2.124094   -1.771985

 Total Charge           Charge          ....    0
 Multiplicity           Mult            ....    1
 Number of Electrons    NEL             ....  202
 Basis Dimension        Dim             ....  539

ORBITAL ENERGIES
----------------

  NO   OCC          E(Eh)            E(eV)
   0   2.0000     -88.580059     -2410.3859
   1   2.0000     -88.577640     -2410.3201
   2   2.0000     -88.528633     -2408.9866
   3   2.0000     -88.527831     -2408.9648
   4   2.0000     -76.919845     -2093.0954
   5   2.0000     -76.918683     -2093.0638
   6   2.0000     -18.995168      -516.8848
   7   2.0000     -18.995122      -516.8836
   8   2.0000     -18.993537      -516.8404
   9   2.0000     -18.989960      -516.7431
  10   2.0000     -10.104765      -274.9646
  11   2.0000     -10.091218      -274.5960
  12   2.0000     -10.089265      -274.5429
  13   2.0000     -10.088143      -274.5123
  14   2.0000     -10.086128      -274.4575
  15   2.0000     -10.018624      -272.6206
  16   2.0000     -10.017679      -272.5949
  17   2.0000     -10.017523      -272.5907
  18   2.0000     -10.017469      -272.5892
  19   2.0000      -7.874561      -214.2777
  20   2.0000      -7.871949      -214.2066
  21   2.0000      -7.823668      -212.8928
  22   2.0000      -7.822968      -212.8738
  23   2.0000      -6.597987      -179.5403
  24   2.0000      -6.597308      -179.5219
  25   2.0000      -5.821455      -158.4098
  26   2.0000      -5.818917      -158.3408
  27   2.0000      -5.818421      -158.3273
  28   2.0000      -5.815765      -158.2550
  29   2.0000      -5.811631      -158.1425
  30   2.0000      -5.809020      -158.0715
  31   2.0000      -5.771178      -157.0417
  32   2.0000      -5.770545      -157.0245
  33   2.0000      -5.763974      -156.8457
  34   2.0000      -5.763731      -156.8391
  35   2.0000      -5.763317      -156.8278
  36   2.0000      -5.762911      -156.8168
  37   2.0000      -4.743706      -129.0828
  38   2.0000      -4.742697      -129.0553
  39   2.0000      -4.742694      -129.0553
  40   2.0000      -4.742183      -129.0414
  41   2.0000      -4.741815      -129.0314
  42   2.0000      -4.741202      -129.0147
  43   2.0000      -1.052549       -28.6413
  44   2.0000      -1.050780       -28.5932
  45   2.0000      -1.011438       -27.5226
  46   2.0000      -1.010098       -27.4862
  47   2.0000      -0.805565       -21.9205
  48   2.0000      -0.757975       -20.6256
  49   2.0000      -0.743455       -20.2304
  50   2.0000      -0.723443       -19.6859
  51   2.0000      -0.722243       -19.6532
  52   2.0000      -0.708034       -19.2666
  53   2.0000      -0.688999       -18.7486
  54   2.0000      -0.675555       -18.3828
  55   2.0000      -0.631409       -17.1815
  56   2.0000      -0.617734       -16.8094
  57   2.0000      -0.602408       -16.3924
  58   2.0000      -0.598525       -16.2867
  59   2.0000      -0.585252       -15.9255
  60   2.0000      -0.525942       -14.3116
  61   2.0000      -0.519703       -14.1419
  62   2.0000      -0.491989       -13.3877
  63   2.0000      -0.488829       -13.3017
  64   2.0000      -0.476874       -12.9764
  65   2.0000      -0.457075       -12.4376
  66   2.0000      -0.454267       -12.3612
  67   2.0000      -0.446868       -12.1599
  68   2.0000      -0.441207       -12.0058
  69   2.0000      -0.430775       -11.7220
  70   2.0000      -0.424689       -11.5564
  71   2.0000      -0.409222       -11.1355
  72   2.0000      -0.404053       -10.9948
  73   2.0000      -0.397854       -10.8261
  74   2.0000      -0.391475       -10.6526
  75   2.0000      -0.389948       -10.6110
  76   2.0000      -0.382876       -10.4186
  77   2.0000      -0.366254        -9.9663
  78   2.0000      -0.360202        -9.8016
  79   2.0000      -0.358931        -9.7670
  80   2.0000      -0.356287        -9.6951
  81   2.0000      -0.354234        -9.6392
  82   2.0000      -0.348351        -9.4791
  83   2.0000      -0.346893        -9.4394
  84   2.0000      -0.345143        -9.3918
  85   2.0000      -0.334050        -9.0900
  86   2.0000      -0.318283        -8.6609
  87   2.0000      -0.306657        -8.3445
  88   2.0000      -0.305262        -8.3066
  89   2.0000      -0.302419        -8.2292
  90   2.0000      -0.300481        -8.1765
  91   2.0000      -0.291262        -7.9256
  92   2.0000      -0.290321        -7.9000
  93   2.0000      -0.280038        -7.6202
  94   2.0000      -0.273369        -7.4387
  95   2.0000      -0.249808        -6.7976
  96   2.0000      -0.235325        -6.4035
  97   2.0000      -0.234599        -6.3838
  98   2.0000      -0.228124        -6.2076
  99   2.0000      -0.221618        -6.0305
 100   2.0000      -0.217367        -5.9149
 101   0.0000      -0.053648        -1.4598
 102   0.0000      -0.032780        -0.8920
 103   0.0000      -0.005391        -0.1467
 104   0.0000      -0.001795        -0.0489
 105   0.0000       0.009493         0.2583

MULLIKEN ATOMIC CHARGES
-----------------------
   0 C :   -0.530324
   1 C :   -0.096805
   2 O :   -0.290062
   3 P :    0.738143
   4 S :   -0.519900
   5 O :   -0.349270
   6 C :   -0.147109
   7 C :   -0.480254
   8 S :   -0.153611
   9 C :   -0.250822
  10 S :   -0.132583
  11 P :    0.737467
  12 S :   -0.532318
  13 O :   -0.281125
  14 C :   -0.127204
  15 C :   -0.509396
  16 O :   -0.334078
  17 C :   -0.151522
  18 C :   -0.485288
  19 H :    0.169618
  20 H :    0.167942
  21 H :    0.168865
  22 H :    0.178744
  23 H :    0.174747
  24 H :    0.174948
  25 H :    0.176809
  26 H :    0.171122
  27 H :    0.166287
  28 H :    0.168590
  29 H :    0.230090
  30 H :    0.233334
  31 H :    0.169486
  32 H :    0.171850
  33 H :    0.168907
  34 H :    0.169312
  35 H :    0.168264
  36 H :    0.174678
  37 H :    0.177920
  38 H :    0.169566
  39 H :    0.172850
  40 H :    0.172129
Sum of atomic charges:   -0.0000000

LOEWDIN ATOMIC CHARGES
----------------------
   0 C :   -0.396485
   1 C :    0.007194
   2 O :   -0.679313
   3 P :    0.389156
   4 S :   -0.160208
   5 O :   -0.682776
   6 C :    0.037711
   7 C :   -0.406072
   8 S :    0.170924
   9 C :   -0.412905
  10 S :    0.175344
  11 P :    0.382568
  12 S :   -0.160849
  13 O :   -0.690866
  14 C :    0.029732
  15 C :   -0.395147
  16 O :   -0.670979
  17 C :    0.024828
  18 C :   -0.409788
  19 H :    0.168009
  20 H :    0.161879
  21 H :    0.162887
  22 H :    0.185047
  23 H :    0.183694
  24 H :    0.191406
  25 H :    0.183745
  26 H :    0.167982
  27 H :    0.162536
  28 H :    0.163134
  29 H :    0.196997
  30 H :    0.196788
  31 H :    0.182947
  32 H :    0.181694
  33 H :    0.164121
  34 H :    0.162549
  35 H :    0.166946
  36 H :    0.190732
  37 H :    0.181377
  38 H :    0.163665
  39 H :    0.168433
  40 H :    0.161361

  Mayer bond orders larger than 0.100000
B(  0-C ,  1-C ) :   0.9336 B(  0-C , 19-H ) :   0.9598 B(  0-C , 20-H ) :   0.9702
B(  0-C , 21-H ) :   0.9743 B(  1-C ,  2-O ) :   0.7172 B(  1-C , 22-H ) :   0.9479
B(  1-C , 23-H ) :   0.9437 B(  2-O ,  3-P ) :   1.0335 B(  3-P ,  4-S ) :   1.7457
B(  3-P ,  5-O ) :   1.1461 B(  3-P ,  8-S ) :   1.0792 B(  5-O ,  6-C ) :   0.7876
B(  6-C ,  7-C ) :   0.9272 B(  6-C , 24-H ) :   0.9517 B(  6-C , 25-H ) :   0.9590
B(  7-C , 26-H ) :   0.9593 B(  7-C , 27-H ) :   0.9577 B(  7-C , 28-H ) :   0.9708
B(  8-S ,  9-C ) :   0.8914 B(  9-C , 10-S ) :   0.8820 B(  9-C , 29-H ) :   0.9032
B(  9-C , 30-H ) :   0.9039 B( 10-S , 11-P ) :   1.0987 B( 11-P , 12-S ) :   1.7007
B( 11-P , 13-O ) :   1.1636 B( 11-P , 16-O ) :   1.0714 B( 13-O , 14-C ) :   0.7715
B( 14-C , 15-C ) :   0.9496 B( 14-C , 31-H ) :   0.9543 B( 14-C , 32-H ) :   0.9392
B( 15-C , 33-H ) :   0.9663 B( 15-C , 34-H ) :   0.9673 B( 15-C , 35-H ) :   0.9575
B( 16-O , 17-C ) :   0.8047 B( 17-C , 18-C ) :   0.9100 B( 17-C , 36-H ) :   0.9486
B( 17-C , 37-H ) :   0.9662 B( 18-C , 38-H ) :   0.9655 B( 18-C , 39-H ) :   0.9535
B( 18-C , 40-H ) :   0.9633

Dispersion correction           -0.022251985
FINAL SINGLE POINT ENERGY     -2932.472027887265

DIPOLE MOMENT
-------------

Method             : SCF
Type of density    : Electron Density
Multiplicity       :   1
Irrep              :   0
Energy             : -2932.4963820365755964 Eh
Relativity type    :
Basis              : AO
                                X                 Y                 Z
Electronic contribution:     -5.057318226       1.544317650     -16.575428380
Nuclear contribution   :      4.761554461      -1.736271509      18.812196185
                        -----------------------------------------
Total Dipole Moment    :     -0.295763765      -0.191953859       2.236767805
                        -----------------------------------------
Magnitude (a.u.)       :      2.264387931
Magnitude (Debye)      :      5.755616714

Rotational constants in cm-1:             0.013274             0.005114             0.004947
Rotational constants in MHz :           397.942200           153.327263           148.295454

                             ****ORCA TERMINATED NORMALLY****
TOTAL RUN TIME: 0 days 0 hours 1 minutes 53 seconds 286 msec
