                         Program Version 6.0.0  -   RELEASE  -
|  1> ! r2scan-3c def2/J RI DEFGRID2 scfconv6 printgap
|  2> %output
|  3>     printlevel normal
|  4> end
|  5> %cpcm
|  6>     smd true
|  7>     smdsolvent "water"
|  8> end
|  9> * xyz 0 1
| 10> C -2.5873180681 0.5776040429 -0.0007506354
| 11> C -1.2286467239 -0.0621186701 -2.10182e-05
| 12> C -1.1360466907 -1.4487554992 8.41341e-05
| 13> C 0.0922835874 -2.082644531 0.00045182
| 14> C 1.2508843794 -1.3330883304 0.000201682
| 15> C 1.1739979607 0.0541596618 -7.13713e-05
| 16> C -0.0634584254 0.7070796388 0.0003661019
| 17> C -0.0912908175 2.2127241386 0.0009473085
| 18> O 2.3577069679 0.7359417014 -0.000758546
| 19> H -2.7217406661 1.2002771229 -0.8836374841
| 20> H -3.3595700106 -0.1866736539 -0.0023936395
| 21> H -2.7237657617 1.1983136971 0.8832297934
| 22> H -2.0402584466 -2.03930209 -8.77381e-05
| 23> H 0.1489897401 -3.1604983714 0.0007152122
| 24> H 2.2258877766 -1.7947502381 0.0001101836
| 25> H 0.4007473407 2.6050975598 -0.8896827347
| 26> H -1.1081919756 2.5857722861 0.0087511796
| 27> H 0.4139809485 2.6045660021 0.8843302434
| 28> H 2.1975218672 1.6910119132 -0.0036896804
| 29> *
| 30>
| 31>                          ****END OF INPUT****

CARTESIAN COORDINATES (ANGSTROEM)
---------------------------------
  C     -2.587318    0.577604   -0.000751
  C     -1.228647   -0.062119   -0.000021
  C     -1.136047   -1.448755    0.000084
  C      0.092284   -2.082645    0.000452
  C      1.250884   -1.333088    0.000202
  C      1.173998    0.054160   -0.000071
  C     -0.063458    0.707080    0.000366
  C     -0.091291    2.212724    0.000947
  O      2.357707    0.735942   -0.000759
  H     -2.721741    1.200277   -0.883637
  H     -3.359570   -0.186674   -0.002394
  H     -2.723766    1.198314    0.883230
  H     -2.040258   -2.039302   -0.000088
  H      0.148990   -3.160498    0.000715
  H      2.225888   -1.794750    0.000110
  H      0.400747    2.605098   -0.889683
  H     -1.108192    2.585772    0.008751
  H      0.413981    2.604566    0.884330
  H      2.197522    1.691012   -0.003690

 Total Charge           Charge          ....    0
 Multiplicity           Mult            ....    1
 Number of Electrons    NEL             ....   66
 Basis Dimension        Dim             ....  226

ORBITAL ENERGIES
----------------

  NO   OCC          E(Eh)            E(eV)
   0   2.0000     -18.981072      -516.5012
   1   2.0000     -10.090702      -274.5820
   2   2.0000     -10.040740      -273.2224
   3   2.0000     -10.038385      -273.1583
   4   2.0000     -10.028144      -272.8797
   5   2.0000     -10.023110      -272.7427
   6   2.0000     -10.022713      -272.7319
   7   2.0000     -10.018898      -272.6281
   8   2.0000     -10.017511      -272.5903
   9   2.0000      -1.024145       -27.8684
  10   2.0000      -0.825121       -22.4527
  11   2.0000      -0.746708       -20.3189
  12   2.0000      -0.722084       -19.6489
  13   2.0000      -0.666829       -18.1453
  14   2.0000      -0.639042       -17.3892
  15   2.0000      -0.570946       -15.5362
  16   2.0000      -0.546339       -14.8666
  17   2.0000      -0.502944       -13.6858
  18   2.0000      -0.459539       -12.5047
  19   2.0000      -0.432392       -11.7660
  20   2.0000      -0.408198       -11.1076
  21   2.0000      -0.385417       -10.4877
  22   2.0000      -0.374818       -10.1993
  23   2.0000      -0.372781       -10.1439
  24   2.0000      -0.368392       -10.0245
  25   2.0000      -0.358689        -9.7604
  26   2.0000      -0.357165        -9.7190
  27   2.0000      -0.334112        -9.0916
  28   2.0000      -0.313847        -8.5402
  29   2.0000      -0.304145        -8.2762
  30   2.0000      -0.295532        -8.0418
  31   2.0000      -0.221649        -6.0314
  32   2.0000      -0.202367        -5.5067
  33   0.0000      -0.025810        -0.7023
  34   0.0000      -0.013506        -0.3675
  35   0.0000       0.069627         1.8947
  36   0.0000       0.093840         2.5535
  37   0.0000       0.112987         3.0745

MULLIKEN ATOMIC CHARGES
-----------------------
   0 C :   -0.595525
   1 C :    0.183797
   2 C :   -0.312421
   3 C :   -0.166427
   4 C :   -0.354306
   5 C :    0.403230
   6 C :   -0.045790
   7 C :   -0.662980
   8 O :   -0.473729
   9 H :    0.184882
  10 H :    0.169762
  11 H :    0.184909
  12 H :    0.174495
  13 H :    0.176338
  14 H :    0.181019
  15 H :    0.194362
  16 H :    0.182787
  17 H :    0.193363
  18 H :    0.382236
Sum of atomic charges:    0.0000000

LOEWDIN ATOMIC CHARGES
----------------------
   0 C :   -0.396654
   1 C :   -0.094195
   2 C :   -0.206373
   3 C :   -0.173442
   4 C :   -0.169094
   5 C :    0.177962
   6 C :   -0.095107
   7 C :   -0.388816
   8 O :   -0.522096
   9 H :    0.170127
  10 H :    0.165456
  11 H :    0.170129
  12 H :    0.176038
  13 H :    0.177246
  14 H :    0.185716
  15 H :    0.173304
  16 H :    0.173745
  17 H :    0.173173
  18 H :    0.302883

  Mayer bond orders larger than 0.100000
B(  0-C ,  1-C ) :   0.7913 B(  0-C ,  9-H ) :   0.9713 B(  0-C , 10-H ) :   0.9823
B(  0-C , 11-H ) :   0.9714 B(  1-C ,  2-C ) :   1.3575 B(  1-C ,  6-C ) :   1.3880
B(  2-C ,  3-C ) :   1.3961 B(  2-C , 12-H ) :   0.9438 B(  3-C ,  4-C ) :   1.3628
B(  3-C , 13-H ) :   0.9614 B(  4-C ,  5-C ) :   1.3375 B(  4-C , 14-H ) :   0.9609
B(  5-C ,  6-C ) :   1.3700 B(  5-C ,  8-O ) :   0.9314 B(  6-C ,  7-C ) :   0.8115
B(  7-C , 15-H ) :   0.9771 B(  7-C , 16-H ) :   0.9543 B(  7-C , 17-H ) :   0.9773
B(  8-O , 18-H ) :   0.8352

Dispersion correction           -0.006349622
FINAL SINGLE POINT ENERGY      -386.012312324183

DIPOLE MOMENT
-------------

Method             : SCF
Type of density    : Electron Density
Multiplicity       :   1
Irrep              :   0
Energy             :  -386.0135435699554591 Eh
Relativity type    :
Basis              : AO
                                X                 Y                 Z
Electronic contribution:      5.529143202      -3.358967630      -0.000192550
Nuclear contribution   :     -6.125448984       4.423878099      -0.002220314
                        -----------------------------------------
Total Dipole Moment    :     -0.596305781       1.064910468      -0.002412865
                        -----------------------------------------
Magnitude (a.u.)       :      1.220500189
Magnitude (Debye)      :      3.102264941

Rotational constants in cm-1:             0.075594             0.059394             0.033681
Rotational constants in MHz :          2266.260923          1780.598922          1009.733817

                             ****ORCA TERMINATED NORMALLY****
TOTAL RUN TIME: 0 days 0 hours 0 minutes 30 seconds 155 msec
