                         Program Version 6.0.0  -   RELEASE  -
|  1> ! pbe def2-sv(p) def2/J RI DEFGRID1 loosescf d4 GCP(DFT/SV(P)) printgap
|  2> %output
|  3>     printlevel normal
|  4> end
|  5> * xyz 0 1
|  6> C 4.5914415089 2.0175769666 -0.088288785
|  7> C 4.0341688448 1.2397779924 -1.2624734965
|  8> O 3.3405555003 0.0414039045 -0.864897837
|  9> P 2.1880351742 -0.0421709605 0.2229145714
| 10> S 2.7254569609 -0.0516505727 2.1125046363
| 11> O 1.434719662 -1.3577088455 -0.2416322908
| 12> C 1.6475109034 -2.6366171831 0.3777633513
| 13> C 2.9964698109 -3.2086399257 -0.0021349318
| 14> S 0.8363519783 1.460242391 -0.3683554671
| 15> C -0.1530334907 1.4628108331 1.1506948998
| 16> S -1.0148009843 -0.1061465991 1.4594719052
| 17> P -2.1163724556 -0.2908530092 -0.3512664841
| 18> S -1.3066670733 -0.9807893163 -1.9884564265
| 19> O -2.7734958305 1.1603667277 -0.4566102284
| 20> C -2.8370823313 1.9493125724 -1.6643237691
| 21> C -2.1155127854 3.2675680173 -1.4689121054
| 22> O -3.2798528497 -1.2629303362 0.1042017533
| 23> C -4.182503329 -0.9637364214 1.2009624898
| 24> C -5.4998785057 -1.6567896307 0.9195995963
| 25> H 5.1718648639 2.8570096426 -0.457310614
| 26> H 3.7801476653 2.3927807859 0.5342790675
| 27> H 5.2273392041 1.380529295 0.5220438141
| 28> H 4.8297708119 0.8698672708 -1.9117628077
| 29> H 3.3406170401 1.8552952288 -1.8426506082
| 30> H 1.563917253 -2.5175089671 1.4640412368
| 31> H 0.8228408077 -3.2493849698 0.0089359136
| 32> H 3.108307048 -4.1958009292 0.434903838
| 33> H 3.0821571617 -3.2750865959 -1.0835446465
| 34> H 3.7859183592 -2.5580358105 0.3738335313
| 35> H -0.8772010636 2.2680547924 1.0585641736
| 36> H 0.5018760153 1.6095775842 2.0103086311
| 37> H -2.3987170671 1.3729816706 -2.4857285002
| 38> H -3.9001127006 2.1061149986 -1.8577420092
| 39> H -2.5164705473 3.7907659904 -0.6051904481
| 40> H -1.0487698169 3.1022019584 -1.3289327071
| 41> H -2.2617233749 3.8788495754 -2.3534549502
| 42> H -3.720785128 -1.3371715254 2.1177976155
| 43> H -4.3060075453 0.1192135474 1.270493835
| 44> H -5.9371806021 -1.2754453518 0.0010918856
| 45> H -5.3403433694 -2.7257483904 0.8111381472
| 46> H -6.180436352 -1.4760851155 1.7453825322
| 47> *
| 48>
| 49>                          ****END OF INPUT****

CARTESIAN COORDINATES (ANGSTROEM)
---------------------------------
  C      4.591442    2.017577   -0.088289
  C      4.034169    1.239778   -1.262473
  O      3.340556    0.041404   -0.864898
  P      2.188035   -0.042171    0.222915
  S      2.725457   -0.051651    2.112505
  O      1.434720   -1.357709   -0.241632
  C      1.647511   -2.636617    0.377763
  C      2.996470   -3.208640   -0.002135
  S      0.836352    1.460242   -0.368355
  C     -0.153033    1.462811    1.150695
  S     -1.014801   -0.106147    1.459472
  P     -2.116372   -0.290853   -0.351266
  S     -1.306667   -0.980789   -1.988456
  O     -2.773496    1.160367   -0.456610
  C     -2.837082    1.949313   -1.664324
  C     -2.115513    3.267568   -1.468912
  O     -3.279853   -1.262930    0.104202
  C     -4.182503   -0.963736    1.200962
  C     -5.499879   -1.656790    0.919600
  H      5.171865    2.857010   -0.457311
  H      3.780148    2.392781    0.534279
  H      5.227339    1.380529    0.522044
  H      4.829771    0.869867   -1.911763
  H      3.340617    1.855295   -1.842651
  H      1.563917   -2.517509    1.464041
  H      0.822841   -3.249385    0.008936
  H      3.108307   -4.195801    0.434904
  H      3.082157   -3.275087   -1.083545
  H      3.785918   -2.558036    0.373834
  H     -0.877201    2.268055    1.058564
  H      0.501876    1.609578    2.010309
  H     -2.398717    1.372982   -2.485729
  H     -3.900113    2.106115   -1.857742
  H     -2.516471    3.790766   -0.605190
  H     -1.048770    3.102202   -1.328933
  H     -2.261723    3.878850   -2.353455
  H     -3.720785   -1.337172    2.117798
  H     -4.306008    0.119214    1.270494
  H     -5.937181   -1.275445    0.001092
  H     -5.340343   -2.725748    0.811138
  H     -6.180436   -1.476085    1.745383

 Total Charge           Charge          ....    0
 Multiplicity           Mult            ....    1
 Number of Electrons    NEL             ....  202
 Basis Dimension        Dim             ....  334

ORBITAL ENERGIES
----------------

  NO   OCC          E(Eh)            E(eV)
   0   2.0000     -88.045880     -2395.8502
   1   2.0000     -88.039509     -2395.6768
   2   2.0000     -87.983757     -2394.1597
   3   2.0000     -87.976393     -2393.9594
   4   2.0000     -76.424379     -2079.6131
   5   2.0000     -76.421589     -2079.5372
   6   2.0000     -18.794407      -511.4218
   7   2.0000     -18.791014      -511.3295
   8   2.0000     -18.788248      -511.2542
   9   2.0000     -18.777460      -510.9607
  10   2.0000      -9.959375      -271.0084
  11   2.0000      -9.957708      -270.9630
  12   2.0000      -9.954477      -270.8751
  13   2.0000      -9.953237      -270.8414
  14   2.0000      -9.937673      -270.4178
  15   2.0000      -9.891319      -269.1565
  16   2.0000      -9.889300      -269.1015
  17   2.0000      -9.883380      -268.9404
  18   2.0000      -9.873408      -268.6691
  19   2.0000      -7.690604      -209.2720
  20   2.0000      -7.684427      -209.1039
  21   2.0000      -7.628729      -207.5883
  22   2.0000      -7.621804      -207.3998
  23   2.0000      -6.421535      -174.7388
  24   2.0000      -6.419030      -174.6707
  25   2.0000      -5.718384      -155.6051
  26   2.0000      -5.715173      -155.5178
  27   2.0000      -5.712459      -155.4439
  28   2.0000      -5.708871      -155.3463
  29   2.0000      -5.707624      -155.3124
  30   2.0000      -5.701328      -155.1410
  31   2.0000      -5.657577      -153.9505
  32   2.0000      -5.650892      -153.7686
  33   2.0000      -5.649530      -153.7315
  34   2.0000      -5.648804      -153.7118
  35   2.0000      -5.642271      -153.5340
  36   2.0000      -5.641875      -153.5232
  37   2.0000      -4.644010      -126.3699
  38   2.0000      -4.643409      -126.3536
  39   2.0000      -4.642175      -126.3200
  40   2.0000      -4.642056      -126.3168
  41   2.0000      -4.640571      -126.2764
  42   2.0000      -4.639195      -126.2389
  43   2.0000      -0.983108       -26.7517
  44   2.0000      -0.981244       -26.7010
  45   2.0000      -0.943022       -25.6609
  46   2.0000      -0.938640       -25.5417
  47   2.0000      -0.764998       -20.8167
  48   2.0000      -0.721402       -19.6304
  49   2.0000      -0.708049       -19.2670
  50   2.0000      -0.694244       -18.8913
  51   2.0000      -0.682883       -18.5822
  52   2.0000      -0.669433       -18.2162
  53   2.0000      -0.647094       -17.6083
  54   2.0000      -0.638330       -17.3698
  55   2.0000      -0.594795       -16.1852
  56   2.0000      -0.588083       -16.0025
  57   2.0000      -0.572560       -15.5801
  58   2.0000      -0.569889       -15.5075
  59   2.0000      -0.561404       -15.2766
  60   2.0000      -0.507844       -13.8191
  61   2.0000      -0.490716       -13.3530
  62   2.0000      -0.482967       -13.1422
  63   2.0000      -0.464888       -12.6503
  64   2.0000      -0.460397       -12.5280
  65   2.0000      -0.444406       -12.0929
  66   2.0000      -0.436610       -11.8808
  67   2.0000      -0.433624       -11.7995
  68   2.0000      -0.425940       -11.5904
  69   2.0000      -0.415649       -11.3104
  70   2.0000      -0.404102       -10.9962
  71   2.0000      -0.394944       -10.7470
  72   2.0000      -0.391273       -10.6471
  73   2.0000      -0.384999       -10.4763
  74   2.0000      -0.381765       -10.3884
  75   2.0000      -0.373548       -10.1648
  76   2.0000      -0.367741       -10.0067
  77   2.0000      -0.361633        -9.8405
  78   2.0000      -0.355669        -9.6783
  79   2.0000      -0.346678        -9.4336
  80   2.0000      -0.345755        -9.4085
  81   2.0000      -0.339829        -9.2472
  82   2.0000      -0.339699        -9.2437
  83   2.0000      -0.338019        -9.1980
  84   2.0000      -0.332794        -9.0558
  85   2.0000      -0.319449        -8.6927
  86   2.0000      -0.309674        -8.4267
  87   2.0000      -0.307187        -8.3590
  88   2.0000      -0.295094        -8.0299
  89   2.0000      -0.284813        -7.7502
  90   2.0000      -0.280160        -7.6235
  91   2.0000      -0.268056        -7.2942
  92   2.0000      -0.266373        -7.2484
  93   2.0000      -0.264131        -7.1874
  94   2.0000      -0.259673        -7.0661
  95   2.0000      -0.234893        -6.3918
  96   2.0000      -0.218335        -5.9412
  97   2.0000      -0.205617        -5.5951
  98   2.0000      -0.198364        -5.3978
  99   2.0000      -0.192655        -5.2424
 100   2.0000      -0.187141        -5.0924
 101   0.0000      -0.049518        -1.3475
 102   0.0000      -0.024162        -0.6575
 103   0.0000      -0.007504        -0.2042
 104   0.0000      -0.000060        -0.0016
 105   0.0000       0.018398         0.5006

MULLIKEN ATOMIC CHARGES
-----------------------
   0 C :   -0.309045
   1 C :   -0.011716
   2 O :   -0.369730
   3 P :    0.631906
   4 S :   -0.338982
   5 O :   -0.341595
   6 C :   -0.002248
   7 C :   -0.303860
   8 S :   -0.110789
   9 C :   -0.352739
  10 S :   -0.095724
  11 P :    0.608893
  12 S :   -0.287697
  13 O :   -0.397654
  14 C :   -0.006618
  15 C :   -0.313323
  16 O :   -0.366936
  17 C :   -0.024603
  18 C :   -0.276572
  19 H :    0.110718
  20 H :    0.122485
  21 H :    0.127146
  22 H :    0.111111
  23 H :    0.113842
  24 H :    0.108841
  25 H :    0.105780
  26 H :    0.107700
  27 H :    0.116769
  28 H :    0.118359
  29 H :    0.185889
  30 H :    0.192596
  31 H :    0.115702
  32 H :    0.101155
  33 H :    0.116538
  34 H :    0.131988
  35 H :    0.114960
  36 H :    0.112034
  37 H :    0.106426
  38 H :    0.115948
  39 H :    0.122771
  40 H :    0.110272
Sum of atomic charges:    0.0000000

LOEWDIN ATOMIC CHARGES
----------------------
   0 C :   -0.370036
   1 C :   -0.113143
   2 O :   -0.241289
   3 P :    0.576330
   4 S :   -0.323610
   5 O :   -0.226403
   6 C :   -0.120222
   7 C :   -0.363435
   8 S :    0.089728
   9 C :   -0.475558
  10 S :    0.079553
  11 P :    0.558067
  12 S :   -0.293424
  13 O :   -0.260128
  14 C :   -0.118672
  15 C :   -0.360987
  16 O :   -0.247462
  17 C :   -0.120515
  18 C :   -0.350097
  19 H :    0.129616
  20 H :    0.119591
  21 H :    0.130169
  22 H :    0.122574
  23 H :    0.109650
  24 H :    0.106318
  25 H :    0.118833
  26 H :    0.128165
  27 H :    0.126299
  28 H :    0.120677
  29 H :    0.130664
  30 H :    0.131375
  31 H :    0.109213
  32 H :    0.115246
  33 H :    0.123903
  34 H :    0.115628
  35 H :    0.133460
  36 H :    0.113039
  37 H :    0.109319
  38 H :    0.127461
  39 H :    0.130402
  40 H :    0.129699

  Mayer bond orders larger than 0.100000
B(  0-C ,  1-C ) :   1.1633 B(  0-C , 19-H ) :   0.9349 B(  0-C , 20-H ) :   0.9328
B(  0-C , 21-H ) :   0.9424 B(  1-C ,  2-O ) :   0.9150 B(  1-C , 22-H ) :   0.9343
B(  1-C , 23-H ) :   0.9283 B(  2-O ,  3-P ) :   1.1161 B(  3-P ,  4-S ) :   1.5907
B(  3-P ,  5-O ) :   1.1457 B(  3-P ,  8-S ) :   0.9366 B(  4-S ,  8-S ) :   0.1055
B(  5-O ,  6-C ) :   0.9053 B(  6-C ,  7-C ) :   1.1632 B(  6-C , 24-H ) :   0.9131
B(  6-C , 25-H ) :   0.9294 B(  7-C , 26-H ) :   0.9408 B(  7-C , 27-H ) :   0.9467
B(  7-C , 28-H ) :   0.9375 B(  8-S ,  9-C ) :   1.0142 B(  9-C , 10-S ) :   1.0024
B(  9-C , 29-H ) :   0.8992 B(  9-C , 30-H ) :   0.8818 B( 10-S , 11-P ) :   0.9514
B( 10-S , 12-S ) :   0.1057 B( 11-P , 12-S ) :   1.6839 B( 11-P , 13-O ) :   1.0532
B( 11-P , 16-O ) :   1.1280 B( 13-O , 14-C ) :   0.9065 B( 14-C , 15-C ) :   1.1666
B( 14-C , 31-H ) :   0.8967 B( 14-C , 32-H ) :   0.9341 B( 15-C , 33-H ) :   0.9442
B( 15-C , 34-H ) :   0.9318 B( 15-C , 35-H ) :   0.9378 B( 16-O , 17-C ) :   0.8970
B( 17-C , 18-C ) :   1.1624 B( 17-C , 36-H ) :   0.9301 B( 17-C , 37-H ) :   0.9188
B( 18-C , 38-H ) :   0.9503 B( 18-C , 39-H ) :   0.9499 B( 18-C , 40-H ) :   0.9412

Dispersion correction           -0.066063083
FINAL SINGLE POINT ENERGY     -2929.515288208375

DIPOLE MOMENT
-------------

Method             : SCF
Type of density    : Electron Density
Multiplicity       :   1
Irrep              :   0
Energy             : -2929.6332874674158120 Eh
Relativity type    :
Basis              : AO
                                X                 Y                 Z
Electronic contribution:      2.487540403      -3.881796559       1.374307184
Nuclear contribution   :     -3.189492081       4.951501946      -1.418315957
                        -----------------------------------------
Total Dipole Moment    :     -0.701951678       1.069705387      -0.044008773
                        -----------------------------------------
Magnitude (a.u.)       :      1.280211914
Magnitude (Debye)      :      3.254040084

Rotational constants in cm-1:             0.012404             0.005196             0.004600
Rotational constants in MHz :           371.865376           155.758510           137.914694

                             ****ORCA TERMINATED NORMALLY****
TOTAL RUN TIME: 0 days 0 hours 0 minutes 21 seconds 69 msec
