                         Program Version 6.0.0  -   RELEASE  -
|  1> ! pbe def2-sv(p) def2/J RI DEFGRID1 loosescf d4 GCP(DFT/SV(P)) printgap
|  2> %output
|  3>     printlevel normal
|  4> end
|  5> * xyz 0 1
|  6> C 1.8485177074 -0.574386596 -2.9249464723
|  7> C 3.212139004 -0.2605119339 -2.344162594
|  8> O 3.3357028633 -0.6938462047 -0.9785542165
|  9> P 2.5445543722 -0.0136377071 0.2233114721
| 10> S 2.4186652118 1.9369854804 0.1953360834
| 11> O 3.3674223868 -0.5028759896 1.4773954313
| 12> C 3.6618021106 -1.9008720646 1.7444906647
| 13> C 2.8630025071 -2.384670089 2.9385932385
| 14> S 0.7209143589 -1.1006002709 0.3117914422
| 15> C -0.1185938076 0.0639574401 1.4418023949
| 16> S -1.8884880694 -0.2585407014 1.5392025477
| 17> P -2.4697636288 0.4353630732 -0.395728378
| 18> S -1.1264705685 1.474723122 -1.3883509772
| 19> O -3.859800461 1.1483312765 -0.1535916953
| 20> C -3.9642966778 2.5498482255 0.150185915
| 21> C -3.380445912 2.8932394759 1.5066043541
| 22> O -3.0748003154 -0.8143015468 -1.1508539906
| 23> C -2.2766870119 -1.8181375408 -1.8076795071
| 24> C -2.0677515479 -3.0240854537 -0.912226027
| 25> H 1.5961638303 -1.6182347636 -2.7539149099
| 26> H 1.0898499458 0.0580561552 -2.4645290325
| 27> H 1.8587948079 -0.37534617 -3.9917451578
| 28> H 3.4107198042 0.8148848185 -2.3872667402
| 29> H 4.0040380958 -0.8060522669 -2.8597886293
| 30> H 3.4438468539 -2.4901293219 0.851667021
| 31> H 4.7333576186 -1.9245317759 1.9474136098
| 32> H 3.021876194 -1.7215846306 3.7846547802
| 33> H 1.8015992962 -2.4156000515 2.7048381312
| 34> H 3.1936782818 -3.3842606321 3.2022366031
| 35> H 0.0594675123 1.0745372979 1.0654240901
| 36> H 0.2743618715 -0.0546701479 2.4490502607
| 37> H -3.4608744186 3.1170900094 -0.6397269795
| 38> H -5.0373962223 2.7431807999 0.1154050354
| 39> H -2.2973398322 2.7740725229 1.4900874625
| 40> H -3.6123136388 3.9264105017 1.7453048862
| 41> H -3.7956496004 2.2428326908 2.2723873855
| 42> H -2.8533008038 -2.082591483 -2.6962100566
| 43> H -1.3222727093 -1.3768671337 -2.1134995408
| 44> H -1.5867107626 -3.8103960892 -1.4844931731
| 45> H -1.4347423182 -2.7692217393 -0.064966476
| 46> H -3.0258571714 -3.379801066 -0.5442748636
| 47> *
| 48>
| 49>                          ****END OF INPUT****

CARTESIAN COORDINATES (ANGSTROEM)
---------------------------------
  C      1.848518   -0.574387   -2.924946
  C      3.212139   -0.260512   -2.344163
  O      3.335703   -0.693846   -0.978554
  P      2.544554   -0.013638    0.223311
  S      2.418665    1.936985    0.195336
  O      3.367422   -0.502876    1.477395
  C      3.661802   -1.900872    1.744491
  C      2.863003   -2.384670    2.938593
  S      0.720914   -1.100600    0.311791
  C     -0.118594    0.063957    1.441802
  S     -1.888488   -0.258541    1.539203
  P     -2.469764    0.435363   -0.395728
  S     -1.126471    1.474723   -1.388351
  O     -3.859800    1.148331   -0.153592
  C     -3.964297    2.549848    0.150186
  C     -3.380446    2.893239    1.506604
  O     -3.074800   -0.814302   -1.150854
  C     -2.276687   -1.818138   -1.807680
  C     -2.067752   -3.024085   -0.912226
  H      1.596164   -1.618235   -2.753915
  H      1.089850    0.058056   -2.464529
  H      1.858795   -0.375346   -3.991745
  H      3.410720    0.814885   -2.387267
  H      4.004038   -0.806052   -2.859789
  H      3.443847   -2.490129    0.851667
  H      4.733358   -1.924532    1.947414
  H      3.021876   -1.721585    3.784655
  H      1.801599   -2.415600    2.704838
  H      3.193678   -3.384261    3.202237
  H      0.059468    1.074537    1.065424
  H      0.274362   -0.054670    2.449050
  H     -3.460874    3.117090   -0.639727
  H     -5.037396    2.743181    0.115405
  H     -2.297340    2.774073    1.490087
  H     -3.612314    3.926411    1.745305
  H     -3.795650    2.242833    2.272387
  H     -2.853301   -2.082591   -2.696210
  H     -1.322273   -1.376867   -2.113500
  H     -1.586711   -3.810396   -1.484493
  H     -1.434742   -2.769222   -0.064966
  H     -3.025857   -3.379801   -0.544275

 Total Charge           Charge          ....    0
 Multiplicity           Mult            ....    1
 Number of Electrons    NEL             ....  202
 Basis Dimension        Dim             ....  334

ORBITAL ENERGIES
----------------

  NO   OCC          E(Eh)            E(eV)
   0   2.0000     -88.049533     -2395.9496
   1   2.0000     -88.043470     -2395.7846
   2   2.0000     -87.989100     -2394.3051
   3   2.0000     -87.983257     -2394.1461
   4   2.0000     -76.427470     -2079.6972
   5   2.0000     -76.425008     -2079.6302
   6   2.0000     -18.794144      -511.4147
   7   2.0000     -18.790304      -511.3102
   8   2.0000     -18.789996      -511.3018
   9   2.0000     -18.788081      -511.2497
  10   2.0000      -9.957697      -270.9627
  11   2.0000      -9.955049      -270.8907
  12   2.0000      -9.952567      -270.8231
  13   2.0000      -9.952316      -270.8163
  14   2.0000      -9.952198      -270.8131
  15   2.0000      -9.889268      -269.1007
  16   2.0000      -9.883805      -268.9520
  17   2.0000      -9.883333      -268.9392
  18   2.0000      -9.880353      -268.8581
  19   2.0000      -7.694224      -209.3705
  20   2.0000      -7.687718      -209.1934
  21   2.0000      -7.633521      -207.7187
  22   2.0000      -7.628488      -207.5817
  23   2.0000      -6.424845      -174.8289
  24   2.0000      -6.422540      -174.7662
  25   2.0000      -5.722118      -155.7067
  26   2.0000      -5.718667      -155.6128
  27   2.0000      -5.715442      -155.5251
  28   2.0000      -5.712515      -155.4454
  29   2.0000      -5.711304      -155.4125
  30   2.0000      -5.704691      -155.2325
  31   2.0000      -5.662391      -154.0815
  32   2.0000      -5.657525      -153.9491
  33   2.0000      -5.654168      -153.8577
  34   2.0000      -5.653784      -153.8473
  35   2.0000      -5.649061      -153.7188
  36   2.0000      -5.648540      -153.7046
  37   2.0000      -4.646990      -126.4510
  38   2.0000      -4.646891      -126.4483
  39   2.0000      -4.645459      -126.4094
  40   2.0000      -4.645367      -126.4069
  41   2.0000      -4.644219      -126.3756
  42   2.0000      -4.642763      -126.3360
  43   2.0000      -0.988806       -26.9068
  44   2.0000      -0.987581       -26.8734
  45   2.0000      -0.944489       -25.7009
  46   2.0000      -0.944119       -25.6908
  47   2.0000      -0.764207       -20.7951
  48   2.0000      -0.721818       -19.6417
  49   2.0000      -0.712660       -19.3925
  50   2.0000      -0.688965       -18.7477
  51   2.0000      -0.683559       -18.6006
  52   2.0000      -0.679813       -18.4987
  53   2.0000      -0.650818       -17.7097
  54   2.0000      -0.635751       -17.2997
  55   2.0000      -0.603169       -16.4131
  56   2.0000      -0.591308       -16.0903
  57   2.0000      -0.576957       -15.6998
  58   2.0000      -0.567256       -15.4358
  59   2.0000      -0.559571       -15.2267
  60   2.0000      -0.503556       -13.7025
  61   2.0000      -0.496860       -13.5203
  62   2.0000      -0.472847       -12.8668
  63   2.0000      -0.469549       -12.7771
  64   2.0000      -0.452497       -12.3131
  65   2.0000      -0.451179       -12.2772
  66   2.0000      -0.442837       -12.0502
  67   2.0000      -0.437683       -11.9100
  68   2.0000      -0.428625       -11.6635
  69   2.0000      -0.421772       -11.4770
  70   2.0000      -0.413491       -11.2517
  71   2.0000      -0.396204       -10.7813
  72   2.0000      -0.393891       -10.7183
  73   2.0000      -0.389780       -10.6064
  74   2.0000      -0.383467       -10.4347
  75   2.0000      -0.368509       -10.0276
  76   2.0000      -0.366930        -9.9847
  77   2.0000      -0.359692        -9.7877
  78   2.0000      -0.355375        -9.6703
  79   2.0000      -0.351458        -9.5637
  80   2.0000      -0.351169        -9.5558
  81   2.0000      -0.347459        -9.4548
  82   2.0000      -0.340787        -9.2733
  83   2.0000      -0.337911        -9.1950
  84   2.0000      -0.331673        -9.0253
  85   2.0000      -0.318613        -8.6699
  86   2.0000      -0.313390        -8.5278
  87   2.0000      -0.301951        -8.2165
  88   2.0000      -0.298089        -8.1114
  89   2.0000      -0.292102        -7.9485
  90   2.0000      -0.289027        -7.8648
  91   2.0000      -0.271462        -7.3869
  92   2.0000      -0.269513        -7.3338
  93   2.0000      -0.261901        -7.1267
  94   2.0000      -0.261264        -7.1094
  95   2.0000      -0.235392        -6.4053
  96   2.0000      -0.221358        -6.0235
  97   2.0000      -0.210967        -5.7407
  98   2.0000      -0.203511        -5.5378
  99   2.0000      -0.200645        -5.4598
 100   2.0000      -0.193711        -5.2711
 101   0.0000      -0.049746        -1.3536
 102   0.0000      -0.035917        -0.9773
 103   0.0000      -0.012148        -0.3306
 104   0.0000       0.006066         0.1651
 105   0.0000       0.010623         0.2891

MULLIKEN ATOMIC CHARGES
-----------------------
   0 C :   -0.360603
   1 C :    0.008209
   2 O :   -0.381091
   3 P :    0.607210
   4 S :   -0.298770
   5 O :   -0.362553
   6 C :   -0.009085
   7 C :   -0.293461
   8 S :   -0.130582
   9 C :   -0.351808
  10 S :   -0.105216
  11 P :    0.592096
  12 S :   -0.303140
  13 O :   -0.358033
  14 C :    0.000751
  15 C :   -0.321679
  16 O :   -0.353498
  17 C :   -0.016133
  18 C :   -0.302591
  19 H :    0.111105
  20 H :    0.172701
  21 H :    0.112963
  22 H :    0.112835
  23 H :    0.102904
  24 H :    0.105196
  25 H :    0.112394
  26 H :    0.120174
  27 H :    0.119231
  28 H :    0.110199
  29 H :    0.215829
  30 H :    0.180078
  31 H :    0.113961
  32 H :    0.107674
  33 H :    0.130998
  34 H :    0.114334
  35 H :    0.119323
  36 H :    0.107633
  37 H :    0.119009
  38 H :    0.106646
  39 H :    0.129505
  40 H :    0.115284
Sum of atomic charges:   -0.0000000

LOEWDIN ATOMIC CHARGES
----------------------
   0 C :   -0.378175
   1 C :   -0.114689
   2 O :   -0.248492
   3 P :    0.569140
   4 S :   -0.294147
   5 O :   -0.243969
   6 C :   -0.112750
   7 C :   -0.361051
   8 S :    0.067004
   9 C :   -0.481802
  10 S :    0.086142
  11 P :    0.566758
  12 S :   -0.289939
  13 O :   -0.235005
  14 C :   -0.115840
  15 C :   -0.369648
  16 O :   -0.235259
  17 C :   -0.116680
  18 C :   -0.364349
  19 H :    0.119352
  20 H :    0.122435
  21 H :    0.131726
  22 H :    0.114069
  23 H :    0.117515
  24 H :    0.108594
  25 H :    0.122515
  26 H :    0.128637
  27 H :    0.119336
  28 H :    0.130279
  29 H :    0.121218
  30 H :    0.131837
  31 H :    0.112498
  32 H :    0.120282
  33 H :    0.122270
  34 H :    0.131560
  35 H :    0.124420
  36 H :    0.120078
  37 H :    0.109080
  38 H :    0.128736
  39 H :    0.109414
  40 H :    0.126900

  Mayer bond orders larger than 0.100000
B(  0-C ,  1-C ) :   1.1636 B(  0-C , 19-H ) :   0.9429 B(  0-C , 20-H ) :   0.9158
B(  0-C , 21-H ) :   0.9362 B(  1-C ,  2-O ) :   0.9053 B(  1-C , 22-H ) :   0.9175
B(  1-C , 23-H ) :   0.9340 B(  2-O ,  3-P ) :   1.0944 B(  3-P ,  4-S ) :   1.6560
B(  3-P ,  5-O ) :   1.1308 B(  3-P ,  8-S ) :   0.9394 B(  4-S ,  8-S ) :   0.1109
B(  5-O ,  6-C ) :   0.8907 B(  6-C ,  7-C ) :   1.1637 B(  6-C , 24-H ) :   0.9175
B(  6-C , 25-H ) :   0.9342 B(  7-C , 26-H ) :   0.9461 B(  7-C , 27-H ) :   0.9360
B(  7-C , 28-H ) :   0.9397 B(  8-S ,  9-C ) :   0.9747 B(  9-C , 10-S ) :   1.0235
B(  9-C , 29-H ) :   0.8502 B(  9-C , 30-H ) :   0.9016 B( 10-S , 11-P ) :   0.9186
B( 10-S , 12-S ) :   0.1218 B( 11-P , 12-S ) :   1.6259 B( 11-P , 13-O ) :   1.1307
B( 11-P , 16-O ) :   1.1338 B( 13-O , 14-C ) :   0.9116 B( 14-C , 15-C ) :   1.1638
B( 14-C , 31-H ) :   0.9182 B( 14-C , 32-H ) :   0.9344 B( 15-C , 33-H ) :   0.9370
B( 15-C , 34-H ) :   0.9374 B( 15-C , 35-H ) :   0.9433 B( 16-O , 17-C ) :   0.9101
B( 17-C , 18-C ) :   1.1695 B( 17-C , 36-H ) :   0.9351 B( 17-C , 37-H ) :   0.9054
B( 18-C , 38-H ) :   0.9398 B( 18-C , 39-H ) :   0.9289 B( 18-C , 40-H ) :   0.9452

Dispersion correction           -0.065743629
FINAL SINGLE POINT ENERGY     -2929.518753285746

DIPOLE MOMENT
-------------

Method             : SCF
Type of density    : Electron Density
Multiplicity       :   1
Irrep              :   0
Energy             : -2929.6370992593956544 Eh
Relativity type    :
Basis              : AO
                                X                 Y                 Z
Electronic contribution:     -0.052930051       9.884498009       0.316217411
Nuclear contribution   :     -0.016354761     -11.198787861      -0.225872042
                        -----------------------------------------
Total Dipole Moment    :     -0.069284812      -1.314289852       0.090345368
                        -----------------------------------------
Magnitude (a.u.)       :      1.319212070
Magnitude (Debye)      :      3.353170601

Rotational constants in cm-1:             0.011359             0.004977             0.004946
Rotational constants in MHz :           340.539865           149.219686           148.269414

                             ****ORCA TERMINATED NORMALLY****
TOTAL RUN TIME: 0 days 0 hours 0 minutes 21 seconds 200 msec
