                         Program Version 6.0.0  -   RELEASE  -
|  1> ! r2scan-3c def2/J RI DEFGRID2 scfconv6 printgap
|  2> %output
|  3>     printlevel normal
|  4> end
|  5> * xyz 0 1
|  6> C 5.4938521834 -1.1159575314 -1.4596585347
|  7> C 4.0705418453 -1.3316868386 -1.9364014189
|  8> O 3.1831494612 -1.537498192 -0.8177156312
|  9> P 2.3396698058 -0.3554258927 -0.1699656417
| 10> S 3.3392224661 1.256118711 0.3419905311
| 11> O 1.6142964237 -1.1167061532 1.008942129
| 12> C 2.1436494269 -1.1393691757 2.358726684
| 13> C 1.0155234033 -0.9048654551 3.3421589044
| 14> S 0.7817133106 -0.0631308305 -1.5650003311
| 15> C 0.1867437476 1.5049471903 -0.8718981842
| 16> S -0.7466547624 1.2807831632 0.6536260706
| 17> P -2.4255123644 0.3265923012 -0.2682403686
| 18> S -2.9258989489 1.015157193 -2.0286728582
| 19> O -3.5077089896 0.3283990224 0.8934466981
| 20> C -3.9026150211 1.4820654609 1.6609822205
| 21> C -4.3564347335 2.6368351373 0.7935762963
| 22> O -2.0750001655 -1.2047192196 -0.3868474444
| 23> C -1.7271179987 -2.0340824687 0.7474362445
| 24> C -2.8988813764 -2.9137578206 1.1310334219
| 25> H 6.1493002834 -1.0282072844 -2.320081071
| 26> H 5.5595883851 -0.2045179911 -0.8695410488
| 27> H 5.8128507521 -1.9545995368 -0.8473278519
| 28> H 3.9823764588 -2.2433783006 -2.5301760802
| 29> H 3.7191347571 -0.4796158783 -2.5253188509
| 30> H 2.604358862 -2.1186560065 2.5002126893
| 31> H 2.9086890686 -0.3608065816 2.4477409396
| 32> H 0.539372468 0.052182993 3.141925621
| 33> H 0.2767137802 -1.6970740029 3.2649852696
| 34> H 1.4244332181 -0.894595047 4.3474357724
| 35> H -0.4604062321 1.9530786474 -1.6267321458
| 36> H 1.0384153498 2.145106967 -0.6385648246
| 37> H -4.7164873412 1.1083824219 2.2847322925
| 38> H -3.057723233 1.7791280435 2.2883235945
| 39> H -4.723698943 3.4395883269 1.424770108
| 40> H -3.5254844103 3.0075847046 0.1950986755
| 41> H -5.1472034569 2.3174845095 0.1188955889
| 42> H -0.8703406625 -2.6235249809 0.412899205
| 43> H -1.4252311877 -1.3900607809 1.57770126
| 44> H -3.2045487603 -3.5162525693 0.2801457896
| 45> H -2.6048911455 -3.5669025289 1.9466936266
| 46> H -3.739419064 -2.2998462229 1.4441649194
| 47> *
| 48>
| 49>                          ****END OF INPUT****

CARTESIAN COORDINATES (ANGSTROEM)
---------------------------------
  C      5.493852   -1.115958   -1.459659
  C      4.070542   -1.331687   -1.936401
  O      3.183149   -1.537498   -0.817716
  P      2.339670   -0.355426   -0.169966
  S      3.339222    1.256119    0.341991
  O      1.614296   -1.116706    1.008942
  C      2.143649   -1.139369    2.358727
  C      1.015523   -0.904865    3.342159
  S      0.781713   -0.063131   -1.565000
  C      0.186744    1.504947   -0.871898
  S     -0.746655    1.280783    0.653626
  P     -2.425512    0.326592   -0.268240
  S     -2.925899    1.015157   -2.028673
  O     -3.507709    0.328399    0.893447
  C     -3.902615    1.482065    1.660982
  C     -4.356435    2.636835    0.793576
  O     -2.075000   -1.204719   -0.386847
  C     -1.727118   -2.034082    0.747436
  C     -2.898881   -2.913758    1.131033
  H      6.149300   -1.028207   -2.320081
  H      5.559588   -0.204518   -0.869541
  H      5.812851   -1.954600   -0.847328
  H      3.982376   -2.243378   -2.530176
  H      3.719135   -0.479616   -2.525319
  H      2.604359   -2.118656    2.500213
  H      2.908689   -0.360807    2.447741
  H      0.539372    0.052183    3.141926
  H      0.276714   -1.697074    3.264985
  H      1.424433   -0.894595    4.347436
  H     -0.460406    1.953079   -1.626732
  H      1.038415    2.145107   -0.638565
  H     -4.716487    1.108382    2.284732
  H     -3.057723    1.779128    2.288324
  H     -4.723699    3.439588    1.424770
  H     -3.525484    3.007585    0.195099
  H     -5.147203    2.317485    0.118896
  H     -0.870341   -2.623525    0.412899
  H     -1.425231   -1.390061    1.577701
  H     -3.204549   -3.516253    0.280146
  H     -2.604891   -3.566903    1.946694
  H     -3.739419   -2.299846    1.444165

 Total Charge           Charge          ....    0
 Multiplicity           Mult            ....    1
 Number of Electrons    NEL             ....  202
 Basis Dimension        Dim             ....  539

ORBITAL ENERGIES
----------------

  NO   OCC          E(Eh)            E(eV)
   0   2.0000     -88.576381     -2410.2859
   1   2.0000     -88.575742     -2410.2685
   2   2.0000     -88.522616     -2408.8229
   3   2.0000     -88.516438     -2408.6547
   4   2.0000     -76.916113     -2092.9938
   5   2.0000     -76.913878     -2092.9330
   6   2.0000     -18.997572      -516.9502
   7   2.0000     -18.994112      -516.8561
   8   2.0000     -18.994033      -516.8539
   9   2.0000     -18.987778      -516.6837
  10   2.0000     -10.107873      -275.0492
  11   2.0000     -10.102934      -274.9148
  12   2.0000     -10.101923      -274.8873
  13   2.0000     -10.101533      -274.8767
  14   2.0000     -10.098147      -274.7846
  15   2.0000     -10.035863      -273.0897
  16   2.0000     -10.030500      -272.9438
  17   2.0000     -10.029309      -272.9114
  18   2.0000     -10.027150      -272.8526
  19   2.0000      -7.870442      -214.1656
  20   2.0000      -7.870198      -214.1590
  21   2.0000      -7.817564      -212.7267
  22   2.0000      -7.811246      -212.5548
  23   2.0000      -6.594638      -179.4492
  24   2.0000      -6.592193      -179.3827
  25   2.0000      -5.817357      -158.2983
  26   2.0000      -5.816910      -158.2862
  27   2.0000      -5.814271      -158.2143
  28   2.0000      -5.813983      -158.2065
  29   2.0000      -5.807595      -158.0327
  30   2.0000      -5.807533      -158.0310
  31   2.0000      -5.765083      -156.8759
  32   2.0000      -5.759061      -156.7120
  33   2.0000      -5.757800      -156.6777
  34   2.0000      -5.757701      -156.6750
  35   2.0000      -5.751508      -156.5065
  36   2.0000      -5.751102      -156.4954
  37   2.0000      -4.740150      -128.9860
  38   2.0000      -4.739553      -128.9698
  39   2.0000      -4.738348      -128.9370
  40   2.0000      -4.738037      -128.9285
  41   2.0000      -4.737407      -128.9114
  42   2.0000      -4.735367      -128.8559
  43   2.0000      -1.052912       -28.6512
  44   2.0000      -1.051985       -28.6260
  45   2.0000      -1.012642       -27.5554
  46   2.0000      -1.010810       -27.5055
  47   2.0000      -0.803064       -21.8525
  48   2.0000      -0.761273       -20.7153
  49   2.0000      -0.752821       -20.4853
  50   2.0000      -0.736414       -20.0389
  51   2.0000      -0.733610       -19.9625
  52   2.0000      -0.712188       -19.3796
  53   2.0000      -0.686051       -18.6684
  54   2.0000      -0.670082       -18.2339
  55   2.0000      -0.628942       -17.1144
  56   2.0000      -0.622330       -16.9345
  57   2.0000      -0.608076       -16.5466
  58   2.0000      -0.606417       -16.5015
  59   2.0000      -0.594291       -16.1715
  60   2.0000      -0.536727       -14.6051
  61   2.0000      -0.524245       -14.2654
  62   2.0000      -0.501314       -13.6414
  63   2.0000      -0.494466       -13.4551
  64   2.0000      -0.477903       -13.0044
  65   2.0000      -0.462911       -12.5965
  66   2.0000      -0.461926       -12.5696
  67   2.0000      -0.453388       -12.3373
  68   2.0000      -0.449697       -12.2369
  69   2.0000      -0.432684       -11.7739
  70   2.0000      -0.428137       -11.6502
  71   2.0000      -0.419529       -11.4160
  72   2.0000      -0.411517       -11.1979
  73   2.0000      -0.405021       -11.0212
  74   2.0000      -0.398780       -10.8513
  75   2.0000      -0.390878       -10.6363
  76   2.0000      -0.380082       -10.3425
  77   2.0000      -0.374135       -10.1807
  78   2.0000      -0.372705       -10.1418
  79   2.0000      -0.365415        -9.9434
  80   2.0000      -0.362821        -9.8729
  81   2.0000      -0.360615        -9.8128
  82   2.0000      -0.358008        -9.7419
  83   2.0000      -0.355433        -9.6718
  84   2.0000      -0.350732        -9.5439
  85   2.0000      -0.337538        -9.1849
  86   2.0000      -0.327910        -8.9229
  87   2.0000      -0.315228        -8.5778
  88   2.0000      -0.313408        -8.5283
  89   2.0000      -0.307894        -8.3782
  90   2.0000      -0.303877        -8.2689
  91   2.0000      -0.296798        -8.0763
  92   2.0000      -0.291714        -7.9379
  93   2.0000      -0.281787        -7.6678
  94   2.0000      -0.271772        -7.3953
  95   2.0000      -0.248105        -6.7513
  96   2.0000      -0.234239        -6.3740
  97   2.0000      -0.223766        -6.0890
  98   2.0000      -0.217095        -5.9075
  99   2.0000      -0.213139        -5.7998
 100   2.0000      -0.211358        -5.7513
 101   0.0000      -0.046458        -1.2642
 102   0.0000      -0.025249        -0.6871
 103   0.0000      -0.005702        -0.1551
 104   0.0000      -0.001941        -0.0528
 105   0.0000       0.013551         0.3688

MULLIKEN ATOMIC CHARGES
-----------------------
   0 C :   -0.452264
   1 C :   -0.127901
   2 O :   -0.310447
   3 P :    0.679676
   4 S :   -0.496940
   5 O :   -0.255316
   6 C :   -0.114568
   7 C :   -0.479395
   8 S :   -0.109749
   9 C :   -0.235990
  10 S :   -0.180525
  11 P :    0.645884
  12 S :   -0.427616
  13 O :   -0.294859
  14 C :   -0.162489
  15 C :   -0.425317
  16 O :   -0.259649
  17 C :   -0.097819
  18 C :   -0.479678
  19 H :    0.145607
  20 H :    0.180437
  21 H :    0.150941
  22 H :    0.151302
  23 H :    0.154289
  24 H :    0.150287
  25 H :    0.171107
  26 H :    0.173743
  27 H :    0.148653
  28 H :    0.148182
  29 H :    0.219174
  30 H :    0.215525
  31 H :    0.149791
  32 H :    0.151253
  33 H :    0.146685
  34 H :    0.170553
  35 H :    0.165388
  36 H :    0.170605
  37 H :    0.153954
  38 H :    0.159541
  39 H :    0.144122
  40 H :    0.163824
Sum of atomic charges:    0.0000000

LOEWDIN ATOMIC CHARGES
----------------------
   0 C :   -0.400393
   1 C :    0.023111
   2 O :   -0.659385
   3 P :    0.372350
   4 S :   -0.143870
   5 O :   -0.665348
   6 C :    0.023699
   7 C :   -0.397892
   8 S :    0.187247
   9 C :   -0.424468
  10 S :    0.127622
  11 P :    0.380333
  12 S :   -0.099353
  13 O :   -0.667751
  14 C :    0.023594
  15 C :   -0.405311
  16 O :   -0.654485
  17 C :    0.017488
  18 C :   -0.391923
  19 H :    0.158524
  20 H :    0.168538
  21 H :    0.158047
  22 H :    0.178896
  23 H :    0.176554
  24 H :    0.172675
  25 H :    0.183793
  26 H :    0.165625
  27 H :    0.154871
  28 H :    0.159982
  29 H :    0.193555
  30 H :    0.193078
  31 H :    0.181057
  32 H :    0.171489
  33 H :    0.158582
  34 H :    0.167519
  35 H :    0.166140
  36 H :    0.185339
  37 H :    0.176042
  38 H :    0.162677
  39 H :    0.157566
  40 H :    0.164185

  Mayer bond orders larger than 0.100000
B(  0-C ,  1-C ) :   0.9567 B(  0-C , 19-H ) :   0.9645 B(  0-C , 20-H ) :   0.9573
B(  0-C , 21-H ) :   0.9750 B(  1-C ,  2-O ) :   0.7739 B(  1-C , 22-H ) :   0.9638
B(  1-C , 23-H ) :   0.9622 B(  2-O ,  3-P ) :   1.0725 B(  3-P ,  4-S ) :   1.7242
B(  3-P ,  5-O ) :   1.1591 B(  3-P ,  8-S ) :   1.1210 B(  5-O ,  6-C ) :   0.7613
B(  6-C ,  7-C ) :   0.9493 B(  6-C , 24-H ) :   0.9508 B(  6-C , 25-H ) :   0.9542
B(  7-C , 26-H ) :   0.9687 B(  7-C , 27-H ) :   0.9728 B(  7-C , 28-H ) :   0.9630
B(  8-S ,  9-C ) :   0.9138 B(  9-C , 10-S ) :   0.9163 B(  9-C , 29-H ) :   0.9041
B(  9-C , 30-H ) :   0.9020 B( 10-S , 11-P ) :   0.9902 B( 11-P , 12-S ) :   1.8680
B( 11-P , 13-O ) :   1.0387 B( 11-P , 16-O ) :   1.1352 B( 13-O , 14-C ) :   0.8037
B( 14-C , 15-C ) :   0.9439 B( 14-C , 31-H ) :   0.9584 B( 14-C , 32-H ) :   0.9611
B( 15-C , 33-H ) :   0.9615 B( 15-C , 34-H ) :   0.9537 B( 15-C , 35-H ) :   0.9655
B( 16-O , 17-C ) :   0.7394 B( 17-C , 18-C ) :   0.9375 B( 17-C , 36-H ) :   0.9543
B( 17-C , 37-H ) :   0.9642 B( 18-C , 38-H ) :   0.9723 B( 18-C , 39-H ) :   0.9668
B( 18-C , 40-H ) :   0.9713

Dispersion correction           -0.021392789
FINAL SINGLE POINT ENERGY     -2932.460475038751

DIPOLE MOMENT
-------------

Method             : SCF
Type of density    : Electron Density
Multiplicity       :   1
Irrep              :   0
Energy             : -2932.4856294380902000 Eh
Relativity type    :
Basis              : AO
                                X                 Y                 Z
Electronic contribution:     -0.342716062       7.349411284     -14.251492403
Nuclear contribution   :      0.558515628      -8.172812914      15.786152828
                        -----------------------------------------
Total Dipole Moment    :      0.215799567      -0.823401630       1.534660425
                        -----------------------------------------
Magnitude (a.u.)       :      1.754919462
Magnitude (Debye)      :      4.460650777

Rotational constants in cm-1:             0.013001             0.004705             0.004447
Rotational constants in MHz :           389.763840           141.045640           133.325920

                             ****ORCA TERMINATED NORMALLY****
TOTAL RUN TIME: 0 days 0 hours 1 minutes 19 seconds 240 msec
