                         Program Version 6.0.0  -   RELEASE  -
|  1> ! r2scan-3c def2/J RI DEFGRID2 scfconv6 printgap
|  2> %output
|  3>     printlevel normal
|  4> end
|  5> %cpcm
|  6>     smd true
|  7>     smdsolvent "water"
|  8> end
|  9> * xyz 0 1
| 10> C 5.4938521834 -1.1159575314 -1.4596585347
| 11> C 4.0705418453 -1.3316868386 -1.9364014189
| 12> O 3.1831494612 -1.537498192 -0.8177156312
| 13> P 2.3396698058 -0.3554258927 -0.1699656417
| 14> S 3.3392224661 1.256118711 0.3419905311
| 15> O 1.6142964237 -1.1167061532 1.008942129
| 16> C 2.1436494269 -1.1393691757 2.358726684
| 17> C 1.0155234033 -0.9048654551 3.3421589044
| 18> S 0.7817133106 -0.0631308305 -1.5650003311
| 19> C 0.1867437476 1.5049471903 -0.8718981842
| 20> S -0.7466547624 1.2807831632 0.6536260706
| 21> P -2.4255123644 0.3265923012 -0.2682403686
| 22> S -2.9258989489 1.015157193 -2.0286728582
| 23> O -3.5077089896 0.3283990224 0.8934466981
| 24> C -3.9026150211 1.4820654609 1.6609822205
| 25> C -4.3564347335 2.6368351373 0.7935762963
| 26> O -2.0750001655 -1.2047192196 -0.3868474444
| 27> C -1.7271179987 -2.0340824687 0.7474362445
| 28> C -2.8988813764 -2.9137578206 1.1310334219
| 29> H 6.1493002834 -1.0282072844 -2.320081071
| 30> H 5.5595883851 -0.2045179911 -0.8695410488
| 31> H 5.8128507521 -1.9545995368 -0.8473278519
| 32> H 3.9823764588 -2.2433783006 -2.5301760802
| 33> H 3.7191347571 -0.4796158783 -2.5253188509
| 34> H 2.604358862 -2.1186560065 2.5002126893
| 35> H 2.9086890686 -0.3608065816 2.4477409396
| 36> H 0.539372468 0.052182993 3.141925621
| 37> H 0.2767137802 -1.6970740029 3.2649852696
| 38> H 1.4244332181 -0.894595047 4.3474357724
| 39> H -0.4604062321 1.9530786474 -1.6267321458
| 40> H 1.0384153498 2.145106967 -0.6385648246
| 41> H -4.7164873412 1.1083824219 2.2847322925
| 42> H -3.057723233 1.7791280435 2.2883235945
| 43> H -4.723698943 3.4395883269 1.424770108
| 44> H -3.5254844103 3.0075847046 0.1950986755
| 45> H -5.1472034569 2.3174845095 0.1188955889
| 46> H -0.8703406625 -2.6235249809 0.412899205
| 47> H -1.4252311877 -1.3900607809 1.57770126
| 48> H -3.2045487603 -3.5162525693 0.2801457896
| 49> H -2.6048911455 -3.5669025289 1.9466936266
| 50> H -3.739419064 -2.2998462229 1.4441649194
| 51> *
| 52>
| 53>                          ****END OF INPUT****

CARTESIAN COORDINATES (ANGSTROEM)
---------------------------------
  C      5.493852   -1.115958   -1.459659
  C      4.070542   -1.331687   -1.936401
  O      3.183149   -1.537498   -0.817716
  P      2.339670   -0.355426   -0.169966
  S      3.339222    1.256119    0.341991
  O      1.614296   -1.116706    1.008942
  C      2.143649   -1.139369    2.358727
  C      1.015523   -0.904865    3.342159
  S      0.781713   -0.063131   -1.565000
  C      0.186744    1.504947   -0.871898
  S     -0.746655    1.280783    0.653626
  P     -2.425512    0.326592   -0.268240
  S     -2.925899    1.015157   -2.028673
  O     -3.507709    0.328399    0.893447
  C     -3.902615    1.482065    1.660982
  C     -4.356435    2.636835    0.793576
  O     -2.075000   -1.204719   -0.386847
  C     -1.727118   -2.034082    0.747436
  C     -2.898881   -2.913758    1.131033
  H      6.149300   -1.028207   -2.320081
  H      5.559588   -0.204518   -0.869541
  H      5.812851   -1.954600   -0.847328
  H      3.982376   -2.243378   -2.530176
  H      3.719135   -0.479616   -2.525319
  H      2.604359   -2.118656    2.500213
  H      2.908689   -0.360807    2.447741
  H      0.539372    0.052183    3.141926
  H      0.276714   -1.697074    3.264985
  H      1.424433   -0.894595    4.347436
  H     -0.460406    1.953079   -1.626732
  H      1.038415    2.145107   -0.638565
  H     -4.716487    1.108382    2.284732
  H     -3.057723    1.779128    2.288324
  H     -4.723699    3.439588    1.424770
  H     -3.525484    3.007585    0.195099
  H     -5.147203    2.317485    0.118896
  H     -0.870341   -2.623525    0.412899
  H     -1.425231   -1.390061    1.577701
  H     -3.204549   -3.516253    0.280146
  H     -2.604891   -3.566903    1.946694
  H     -3.739419   -2.299846    1.444165

 Total Charge           Charge          ....    0
 Multiplicity           Mult            ....    1
 Number of Electrons    NEL             ....  202
 Basis Dimension        Dim             ....  539

ORBITAL ENERGIES
----------------

  NO   OCC          E(Eh)            E(eV)
   0   2.0000     -88.581228     -2410.4177
   1   2.0000     -88.578651     -2410.3476
   2   2.0000     -88.528505     -2408.9831
   3   2.0000     -88.527999     -2408.9693
   4   2.0000     -76.920638     -2093.1170
   5   2.0000     -76.920156     -2093.1038
   6   2.0000     -18.997623      -516.9516
   7   2.0000     -18.995676      -516.8986
   8   2.0000     -18.994021      -516.8536
   9   2.0000     -18.993231      -516.8321
  10   2.0000     -10.104022      -274.9444
  11   2.0000     -10.094048      -274.6730
  12   2.0000     -10.091670      -274.6083
  13   2.0000     -10.090347      -274.5723
  14   2.0000     -10.089091      -274.5381
  15   2.0000     -10.018994      -272.6307
  16   2.0000     -10.018469      -272.6164
  17   2.0000     -10.018018      -272.6041
  18   2.0000     -10.016883      -272.5733
  19   2.0000      -7.875419      -214.3010
  20   2.0000      -7.873023      -214.2359
  21   2.0000      -7.823709      -212.8939
  22   2.0000      -7.823212      -212.8804
  23   2.0000      -6.598992      -179.5677
  24   2.0000      -6.598678      -179.5592
  25   2.0000      -5.822287      -158.4325
  26   2.0000      -5.819775      -158.3641
  27   2.0000      -5.819226      -158.3492
  28   2.0000      -5.816840      -158.2843
  29   2.0000      -5.812637      -158.1699
  30   2.0000      -5.810293      -158.1061
  31   2.0000      -5.771186      -157.0420
  32   2.0000      -5.770884      -157.0337
  33   2.0000      -5.763946      -156.8449
  34   2.0000      -5.763841      -156.8421
  35   2.0000      -5.763485      -156.8324
  36   2.0000      -5.763121      -156.8225
  37   2.0000      -4.744757      -129.1114
  38   2.0000      -4.744167      -129.0953
  39   2.0000      -4.744127      -129.0943
  40   2.0000      -4.743593      -129.0797
  41   2.0000      -4.742487      -129.0496
  42   2.0000      -4.742325      -129.0452
  43   2.0000      -1.054903       -28.7054
  44   2.0000      -1.052504       -28.6401
  45   2.0000      -1.012816       -27.5601
  46   2.0000      -1.012262       -27.5451
  47   2.0000      -0.805837       -21.9279
  48   2.0000      -0.757157       -20.6033
  49   2.0000      -0.746126       -20.3031
  50   2.0000      -0.727058       -19.7843
  51   2.0000      -0.722654       -19.6644
  52   2.0000      -0.711011       -19.3476
  53   2.0000      -0.689312       -18.7571
  54   2.0000      -0.675625       -18.3847
  55   2.0000      -0.625329       -17.0161
  56   2.0000      -0.618402       -16.8276
  57   2.0000      -0.602040       -16.3823
  58   2.0000      -0.600434       -16.3386
  59   2.0000      -0.590119       -16.0579
  60   2.0000      -0.531941       -14.4748
  61   2.0000      -0.519559       -14.1379
  62   2.0000      -0.496416       -13.5082
  63   2.0000      -0.489414       -13.3176
  64   2.0000      -0.477398       -12.9907
  65   2.0000      -0.458862       -12.4863
  66   2.0000      -0.456676       -12.4268
  67   2.0000      -0.447502       -12.1771
  68   2.0000      -0.440974       -11.9995
  69   2.0000      -0.428624       -11.6634
  70   2.0000      -0.424336       -11.5468
  71   2.0000      -0.416691       -11.3387
  72   2.0000      -0.409549       -11.1444
  73   2.0000      -0.399620       -10.8742
  74   2.0000      -0.393446       -10.7062
  75   2.0000      -0.388012       -10.5583
  76   2.0000      -0.375867       -10.2279
  77   2.0000      -0.368968       -10.0401
  78   2.0000      -0.363844        -9.9007
  79   2.0000      -0.357907        -9.7391
  80   2.0000      -0.356069        -9.6891
  81   2.0000      -0.352208        -9.5841
  82   2.0000      -0.348792        -9.4911
  83   2.0000      -0.347832        -9.4650
  84   2.0000      -0.344662        -9.3787
  85   2.0000      -0.335181        -9.1207
  86   2.0000      -0.324451        -8.8288
  87   2.0000      -0.309272        -8.4157
  88   2.0000      -0.307303        -8.3621
  89   2.0000      -0.304762        -8.2930
  90   2.0000      -0.300806        -8.1854
  91   2.0000      -0.293984        -7.9997
  92   2.0000      -0.288135        -7.8406
  93   2.0000      -0.282267        -7.6809
  94   2.0000      -0.273196        -7.4341
  95   2.0000      -0.251960        -6.8562
  96   2.0000      -0.240238        -6.5372
  97   2.0000      -0.231595        -6.3020
  98   2.0000      -0.224385        -6.1058
  99   2.0000      -0.222954        -6.0669
 100   2.0000      -0.221684        -6.0323
 101   0.0000      -0.051668        -1.4060
 102   0.0000      -0.031657        -0.8614
 103   0.0000      -0.008258        -0.2247
 104   0.0000      -0.006854        -0.1865
 105   0.0000       0.013372         0.3639

MULLIKEN ATOMIC CHARGES
-----------------------
   0 C :   -0.491165
   1 C :   -0.122700
   2 O :   -0.336205
   3 P :    0.708283
   4 S :   -0.535885
   5 O :   -0.278933
   6 C :   -0.110336
   7 C :   -0.507733
   8 S :   -0.137726
   9 C :   -0.242007
  10 S :   -0.170742
  11 P :    0.666222
  12 S :   -0.493158
  13 O :   -0.312543
  14 C :   -0.162252
  15 C :   -0.463943
  16 O :   -0.289925
  17 C :   -0.091414
  18 C :   -0.525482
  19 H :    0.169785
  20 H :    0.171089
  21 H :    0.167123
  22 H :    0.177035
  23 H :    0.164461
  24 H :    0.173774
  25 H :    0.169246
  26 H :    0.170562
  27 H :    0.170800
  28 H :    0.169291
  29 H :    0.233724
  30 H :    0.233325
  31 H :    0.178437
  32 H :    0.172867
  33 H :    0.173808
  34 H :    0.164908
  35 H :    0.170624
  36 H :    0.182042
  37 H :    0.175800
  38 H :    0.168009
  39 H :    0.171387
  40 H :    0.169546
Sum of atomic charges:    0.0000000

LOEWDIN ATOMIC CHARGES
----------------------
   0 C :   -0.404637
   1 C :    0.027878
   2 O :   -0.671576
   3 P :    0.377030
   4 S :   -0.168822
   5 O :   -0.675356
   6 C :    0.029689
   7 C :   -0.399309
   8 S :    0.169621
   9 C :   -0.420596
  10 S :    0.140206
  11 P :    0.383408
  12 S :   -0.148347
  13 O :   -0.672068
  14 C :    0.031627
  15 C :   -0.409161
  16 O :   -0.678358
  17 C :    0.022768
  18 C :   -0.393955
  19 H :    0.167573
  20 H :    0.162706
  21 H :    0.162543
  22 H :    0.189834
  23 H :    0.180236
  24 H :    0.182842
  25 H :    0.183406
  26 H :    0.163696
  27 H :    0.162839
  28 H :    0.167864
  29 H :    0.197520
  30 H :    0.198181
  31 H :    0.193420
  32 H :    0.179842
  33 H :    0.168832
  34 H :    0.162120
  35 H :    0.164516
  36 H :    0.190087
  37 H :    0.184498
  38 H :    0.163886
  39 H :    0.168857
  40 H :    0.164661

  Mayer bond orders larger than 0.100000
B(  0-C ,  1-C ) :   0.9463 B(  0-C , 19-H ) :   0.9594 B(  0-C , 20-H ) :   0.9615
B(  0-C , 21-H ) :   0.9721 B(  1-C ,  2-O ) :   0.7611 B(  1-C , 22-H ) :   0.9535
B(  1-C , 23-H ) :   0.9560 B(  2-O ,  3-P ) :   1.0778 B(  3-P ,  4-S ) :   1.6980
B(  3-P ,  5-O ) :   1.1710 B(  3-P ,  8-S ) :   1.1232 B(  5-O ,  6-C ) :   0.7506
B(  6-C ,  7-C ) :   0.9483 B(  6-C , 24-H ) :   0.9409 B(  6-C , 25-H ) :   0.9529
B(  7-C , 26-H ) :   0.9672 B(  7-C , 27-H ) :   0.9670 B(  7-C , 28-H ) :   0.9583
B(  8-S ,  9-C ) :   0.9011 B(  9-C , 10-S ) :   0.9055 B(  9-C , 29-H ) :   0.8999
B(  9-C , 30-H ) :   0.8991 B( 10-S , 11-P ) :   1.0031 B( 11-P , 12-S ) :   1.8301
B( 11-P , 13-O ) :   1.0600 B( 11-P , 16-O ) :   1.1421 B( 13-O , 14-C ) :   0.7918
B( 14-C , 15-C ) :   0.9211 B( 14-C , 31-H ) :   0.9485 B( 14-C , 32-H ) :   0.9572
B( 15-C , 33-H ) :   0.9556 B( 15-C , 34-H ) :   0.9575 B( 15-C , 35-H ) :   0.9667
B( 16-O , 17-C ) :   0.7243 B( 17-C , 18-C ) :   0.9354 B( 17-C , 36-H ) :   0.9462
B( 17-C , 37-H ) :   0.9520 B( 18-C , 38-H ) :   0.9715 B( 18-C , 39-H ) :   0.9593
B( 18-C , 40-H ) :   0.9699

Dispersion correction           -0.021392789
FINAL SINGLE POINT ENERGY     -2932.470524968035

DIPOLE MOMENT
-------------

Method             : SCF
Type of density    : Electron Density
Multiplicity       :   1
Irrep              :   0
Energy             : -2932.4956793673741231 Eh
Relativity type    :
Basis              : AO
                                X                 Y                 Z
Electronic contribution:     -0.177443916       7.171009618     -13.479476826
Nuclear contribution   :      0.558515628      -8.172812914      15.786152828
                        -----------------------------------------
Total Dipole Moment    :      0.381071713      -1.001803297       2.306676002
                        -----------------------------------------
Magnitude (a.u.)       :      2.543536843
Magnitude (Debye)      :      6.465156861

Rotational constants in cm-1:             0.013001             0.004705             0.004447
Rotational constants in MHz :           389.763840           141.045640           133.325920

                             ****ORCA TERMINATED NORMALLY****
TOTAL RUN TIME: 0 days 0 hours 1 minutes 56 seconds 34 msec
