                         Program Version 6.0.0  -   RELEASE  -
|  1> ! pbe def2-sv(p) def2/J RI DEFGRID1 loosescf d4 GCP(DFT/SV(P)) printgap
|  2> %output
|  3>     printlevel normal
|  4> end
|  5> * xyz 0 1
|  6> C 5.43406727 0.168839398 -0.7083741508
|  7> C 4.4750244803 -0.6845719288 0.098322797
|  8> O 3.3648861975 0.1091596323 0.5642805343
|  9> P 1.9442423683 0.0812471643 -0.1541798832
| 10> S 2.0158135038 0.0572536625 -2.1191481089
| 11> O 1.2028006619 1.2418460072 0.6221552104
| 12> C 1.7098506291 2.5814657715 0.7983315015
| 13> C 2.0535191378 3.2485576737 -0.5162550097
| 14> S 1.0325811152 -1.6184867161 0.6844073028
| 15> C -0.1733890101 -2.0453616151 -0.6151427048
| 16> S -1.8787411986 -1.9796404704 -0.0351236355
| 17> P -2.0827188319 0.1349400029 0.1217430478
| 18> S -1.2957211004 1.169580831 -1.3417514347
| 19> O -1.4900952577 0.6186129713 1.5005887002
| 20> C -1.9787865638 0.2234341365 2.8089377991
| 21> C -1.1427564574 -0.8962106434 3.3959703759
| 22> O -3.641342613 0.3043221197 0.382889332
| 23> C -4.6892668489 -0.3306489118 -0.3745054785
| 24> C -4.5960740729 -0.0475972054 -1.8588031207
| 25> H 5.7621868401 1.0225841278 -0.122071039
| 26> H 6.2955661826 -0.4289143784 -0.9874044884
| 27> H 4.9441253718 0.525383768 -1.6121910059
| 28> H 4.9449319236 -1.0699473329 1.0047120189
| 29> H 4.0978754725 -1.5159423919 -0.5030462377
| 30> H 0.8889290941 3.0951786024 1.3023845141
| 31> H 2.5817827576 2.5286519176 1.4545213624
| 32> H 2.3342721025 4.2817414113 -0.3381264425
| 33> H 2.8824752163 2.7291667009 -0.9958216637
| 34> H 1.1954019424 3.2174838216 -1.1861390118
| 35> H 0.0037218209 -3.0750796899 -0.9145397104
| 36> H -0.0352781467 -1.3596438315 -1.456681052
| 37> H -1.8939604421 1.1332498696 3.4056416292
| 38> H -3.0283107388 -0.0627536637 2.7238335764
| 39> H -1.4655113447 -1.0755070087 4.4166764875
| 40> H -1.2579307282 -1.812345997 2.8218193287
| 41> H -0.0915245487 -0.6193939633 3.3965032915
| 42> H -4.6450387662 -1.406008748 -0.1821650473
| 43> H -5.6016424399 0.0881637658 0.0539089572
| 44> H -3.6850717531 -0.4810645681 -2.2690461715
| 45> H -5.4529761922 -0.482263391 -2.3631116487
| 46> H -4.5749288148 1.0243796469 -2.0407481794
| 47> *
| 48>
| 49>                          ****END OF INPUT****

CARTESIAN COORDINATES (ANGSTROEM)
---------------------------------
  C      5.434067    0.168839   -0.708374
  C      4.475024   -0.684572    0.098323
  O      3.364886    0.109160    0.564281
  P      1.944242    0.081247   -0.154180
  S      2.015814    0.057254   -2.119148
  O      1.202801    1.241846    0.622155
  C      1.709851    2.581466    0.798332
  C      2.053519    3.248558   -0.516255
  S      1.032581   -1.618487    0.684407
  C     -0.173389   -2.045362   -0.615143
  S     -1.878741   -1.979640   -0.035124
  P     -2.082719    0.134940    0.121743
  S     -1.295721    1.169581   -1.341751
  O     -1.490095    0.618613    1.500589
  C     -1.978787    0.223434    2.808938
  C     -1.142756   -0.896211    3.395970
  O     -3.641343    0.304322    0.382889
  C     -4.689267   -0.330649   -0.374505
  C     -4.596074   -0.047597   -1.858803
  H      5.762187    1.022584   -0.122071
  H      6.295566   -0.428914   -0.987404
  H      4.944125    0.525384   -1.612191
  H      4.944932   -1.069947    1.004712
  H      4.097875   -1.515942   -0.503046
  H      0.888929    3.095179    1.302385
  H      2.581783    2.528652    1.454521
  H      2.334272    4.281741   -0.338126
  H      2.882475    2.729167   -0.995822
  H      1.195402    3.217484   -1.186139
  H      0.003722   -3.075080   -0.914540
  H     -0.035278   -1.359644   -1.456681
  H     -1.893960    1.133250    3.405642
  H     -3.028311   -0.062754    2.723834
  H     -1.465511   -1.075507    4.416676
  H     -1.257931   -1.812346    2.821819
  H     -0.091525   -0.619394    3.396503
  H     -4.645039   -1.406009   -0.182165
  H     -5.601642    0.088164    0.053909
  H     -3.685072   -0.481065   -2.269046
  H     -5.452976   -0.482263   -2.363112
  H     -4.574929    1.024380   -2.040748

 Total Charge           Charge          ....    0
 Multiplicity           Mult            ....    1
 Number of Electrons    NEL             ....  202
 Basis Dimension        Dim             ....  334

ORBITAL ENERGIES
----------------

  NO   OCC          E(Eh)            E(eV)
   0   2.0000     -88.043567     -2395.7873
   1   2.0000     -88.037262     -2395.6157
   2   2.0000     -87.978034     -2394.0040
   3   2.0000     -87.974547     -2393.9091
   4   2.0000     -76.421669     -2079.5393
   5   2.0000     -76.420801     -2079.5157
   6   2.0000     -18.792696      -511.3753
   7   2.0000     -18.789843      -511.2976
   8   2.0000     -18.784066      -511.1404
   9   2.0000     -18.778146      -510.9793
  10   2.0000      -9.957983      -270.9705
  11   2.0000      -9.952422      -270.8192
  12   2.0000      -9.951051      -270.7819
  13   2.0000      -9.950765      -270.7741
  14   2.0000      -9.945753      -270.6377
  15   2.0000      -9.880741      -268.8686
  16   2.0000      -9.880386      -268.8590
  17   2.0000      -9.879131      -268.8248
  18   2.0000      -9.872952      -268.6567
  19   2.0000      -7.688499      -209.2147
  20   2.0000      -7.682566      -209.0533
  21   2.0000      -7.623025      -207.4330
  22   2.0000      -7.619634      -207.3408
  23   2.0000      -6.418716      -174.6622
  24   2.0000      -6.417917      -174.6404
  25   2.0000      -5.716228      -155.5465
  26   2.0000      -5.712840      -155.4543
  27   2.0000      -5.710412      -155.3882
  28   2.0000      -5.706997      -155.2953
  29   2.0000      -5.705820      -155.2633
  30   2.0000      -5.699543      -155.0924
  31   2.0000      -5.651962      -153.7977
  32   2.0000      -5.648730      -153.7098
  33   2.0000      -5.643694      -153.5727
  34   2.0000      -5.643112      -153.5569
  35   2.0000      -5.640174      -153.4769
  36   2.0000      -5.639648      -153.4626
  37   2.0000      -4.641609      -126.3046
  38   2.0000      -4.640791      -126.2823
  39   2.0000      -4.640781      -126.2821
  40   2.0000      -4.639449      -126.2458
  41   2.0000      -4.638657      -126.2243
  42   2.0000      -4.638404      -126.2174
  43   2.0000      -0.984694       -26.7949
  44   2.0000      -0.980936       -26.6926
  45   2.0000      -0.939681       -25.5700
  46   2.0000      -0.935825       -25.4651
  47   2.0000      -0.760393       -20.6913
  48   2.0000      -0.717569       -19.5260
  49   2.0000      -0.706824       -19.2336
  50   2.0000      -0.687335       -18.7033
  51   2.0000      -0.682468       -18.5709
  52   2.0000      -0.671376       -18.2691
  53   2.0000      -0.647142       -17.6096
  54   2.0000      -0.629886       -17.1401
  55   2.0000      -0.589230       -16.0338
  56   2.0000      -0.584142       -15.8953
  57   2.0000      -0.574400       -15.6302
  58   2.0000      -0.569060       -15.4849
  59   2.0000      -0.560700       -15.2574
  60   2.0000      -0.501207       -13.6385
  61   2.0000      -0.495955       -13.4956
  62   2.0000      -0.468951       -12.7608
  63   2.0000      -0.465501       -12.6669
  64   2.0000      -0.448901       -12.2152
  65   2.0000      -0.443483       -12.0678
  66   2.0000      -0.436132       -11.8678
  67   2.0000      -0.431825       -11.7505
  68   2.0000      -0.428669       -11.6647
  69   2.0000      -0.411405       -11.1949
  70   2.0000      -0.406144       -11.0517
  71   2.0000      -0.404406       -11.0044
  72   2.0000      -0.394629       -10.7384
  73   2.0000      -0.383194       -10.4272
  74   2.0000      -0.380944       -10.3660
  75   2.0000      -0.363637        -9.8951
  76   2.0000      -0.353839        -9.6284
  77   2.0000      -0.351652        -9.5689
  78   2.0000      -0.348499        -9.4831
  79   2.0000      -0.341856        -9.3024
  80   2.0000      -0.340800        -9.2736
  81   2.0000      -0.340129        -9.2554
  82   2.0000      -0.337262        -9.1774
  83   2.0000      -0.331235        -9.0134
  84   2.0000      -0.327820        -8.9204
  85   2.0000      -0.314594        -8.5605
  86   2.0000      -0.311693        -8.4816
  87   2.0000      -0.295561        -8.0426
  88   2.0000      -0.293943        -7.9986
  89   2.0000      -0.291297        -7.9266
  90   2.0000      -0.276355        -7.5200
  91   2.0000      -0.271949        -7.4001
  92   2.0000      -0.269319        -7.3285
  93   2.0000      -0.259058        -7.0493
  94   2.0000      -0.253908        -6.9092
  95   2.0000      -0.233241        -6.3468
  96   2.0000      -0.220986        -6.0133
  97   2.0000      -0.208100        -5.6627
  98   2.0000      -0.193474        -5.2647
  99   2.0000      -0.186309        -5.0697
 100   2.0000      -0.178570        -4.8591
 101   0.0000      -0.037941        -1.0324
 102   0.0000      -0.028980        -0.7886
 103   0.0000      -0.008979        -0.2443
 104   0.0000       0.015594         0.4243
 105   0.0000       0.018486         0.5030

MULLIKEN ATOMIC CHARGES
-----------------------
   0 C :   -0.293298
   1 C :   -0.003322
   2 O :   -0.386815
   3 P :    0.621375
   4 S :   -0.315087
   5 O :   -0.350528
   6 C :    0.010528
   7 C :   -0.326930
   8 S :   -0.097110
   9 C :   -0.348061
  10 S :   -0.130599
  11 P :    0.599668
  12 S :   -0.287652
  13 O :   -0.344109
  14 C :   -0.012272
  15 C :   -0.290185
  16 O :   -0.383109
  17 C :   -0.013510
  18 C :   -0.305826
  19 H :    0.109921
  20 H :    0.107777
  21 H :    0.129387
  22 H :    0.103847
  23 H :    0.100101
  24 H :    0.105193
  25 H :    0.101735
  26 H :    0.105500
  27 H :    0.125317
  28 H :    0.138058
  29 H :    0.180547
  30 H :    0.210192
  31 H :    0.105947
  32 H :    0.100902
  33 H :    0.103821
  34 H :    0.120287
  35 H :    0.123577
  36 H :    0.113202
  37 H :    0.108004
  38 H :    0.127621
  39 H :    0.109456
  40 H :    0.126449
Sum of atomic charges:    0.0000000

LOEWDIN ATOMIC CHARGES
----------------------
   0 C :   -0.361755
   1 C :   -0.117499
   2 O :   -0.252464
   3 P :    0.569961
   4 S :   -0.306967
   5 O :   -0.229719
   6 C :   -0.107162
   7 C :   -0.370130
   8 S :    0.082454
   9 C :   -0.479227
  10 S :    0.061698
  11 P :    0.560825
  12 S :   -0.289810
  13 O :   -0.229281
  14 C :   -0.110963
  15 C :   -0.366162
  16 O :   -0.247153
  17 C :   -0.115368
  18 C :   -0.369079
  19 H :    0.123290
  20 H :    0.128968
  21 H :    0.125441
  22 H :    0.116623
  23 H :    0.108114
  24 H :    0.120652
  25 H :    0.109212
  26 H :    0.126983
  27 H :    0.119569
  28 H :    0.132416
  29 H :    0.136734
  30 H :    0.126232
  31 H :    0.119983
  32 H :    0.107933
  33 H :    0.126284
  34 H :    0.114593
  35 H :    0.125269
  36 H :    0.106802
  37 H :    0.120570
  38 H :    0.122293
  39 H :    0.129193
  40 H :    0.130646

  Mayer bond orders larger than 0.100000
B(  0-C ,  1-C ) :   1.1683 B(  0-C , 19-H ) :   0.9476 B(  0-C , 20-H ) :   0.9402
B(  0-C , 21-H ) :   0.9331 B(  1-C ,  2-O ) :   0.9030 B(  1-C , 22-H ) :   0.9351
B(  1-C , 23-H ) :   0.9109 B(  2-O ,  3-P ) :   1.0788 B(  3-P ,  4-S ) :   1.5993
B(  3-P ,  5-O ) :   1.1454 B(  3-P ,  8-S ) :   0.9675 B(  4-S ,  8-S ) :   0.1206
B(  5-O ,  6-C ) :   0.9064 B(  6-C ,  7-C ) :   1.1673 B(  6-C , 24-H ) :   0.9319
B(  6-C , 25-H ) :   0.9321 B(  7-C , 26-H ) :   0.9353 B(  7-C , 27-H ) :   0.9349
B(  7-C , 28-H ) :   0.9398 B(  8-S ,  9-C ) :   0.9979 B(  9-C , 10-S ) :   1.0079
B(  9-C , 29-H ) :   0.9111 B(  9-C , 30-H ) :   0.8430 B( 10-S , 11-P ) :   0.9228
B( 10-S , 12-S ) :   0.1074 B( 11-P , 12-S ) :   1.6667 B( 11-P , 13-O ) :   1.1392
B( 11-P , 16-O ) :   1.0783 B( 13-O , 14-C ) :   0.9010 B( 14-C , 15-C ) :   1.1695
B( 14-C , 31-H ) :   0.9355 B( 14-C , 32-H ) :   0.9190 B( 15-C , 33-H ) :   0.9372
B( 15-C , 34-H ) :   0.9334 B( 15-C , 35-H ) :   0.9419 B( 16-O , 17-C ) :   0.9131
B( 17-C , 18-C ) :   1.1674 B( 17-C , 36-H ) :   0.9256 B( 17-C , 37-H ) :   0.9334
B( 18-C , 38-H ) :   0.9318 B( 18-C , 39-H ) :   0.9348 B( 18-C , 40-H ) :   0.9430

Dispersion correction           -0.068279951
FINAL SINGLE POINT ENERGY     -2929.512723968402

DIPOLE MOMENT
-------------

Method             : SCF
Type of density    : Electron Density
Multiplicity       :   1
Irrep              :   0
Energy             : -2929.6298993398536368 Eh
Relativity type    :
Basis              : AO
                                X                 Y                 Z
Electronic contribution:     -4.310897698      -6.171114270      -4.108597151
Nuclear contribution   :      4.058501745       5.779407769       5.417957770
                        -----------------------------------------
Total Dipole Moment    :     -0.252395953      -0.391706502       1.309360619
                        -----------------------------------------
Magnitude (a.u.)       :      1.389806796
Magnitude (Debye)      :      3.532608135

Rotational constants in cm-1:             0.013301             0.005278             0.005088
Rotational constants in MHz :           398.758848           158.232266           152.523871

                             ****ORCA TERMINATED NORMALLY****
TOTAL RUN TIME: 0 days 0 hours 0 minutes 21 seconds 614 msec
