                         Program Version 6.0.0  -   RELEASE  -
|  1> ! pbe def2-sv(p) def2/J RI DEFGRID1 loosescf d4 GCP(DFT/SV(P)) printgap
|  2> %output
|  3>     printlevel normal
|  4> end
|  5> * xyz 0 1
|  6> C 5.8018910585 -0.0067393108 0.1354800615
|  7> C 4.4988274261 -0.6875785076 -0.23277477
|  8> O 3.4178106803 0.0568876666 0.3621634105
|  9> P 1.9577482671 0.0887245901 -0.2683978513
| 10> S 1.9497790518 0.2330022589 -2.2296130526
| 11> O 1.2690247665 1.1840280634 0.6371465218
| 12> C 1.8067611318 2.4981512743 0.9002484432
| 13> C 2.0409975758 3.2901854856 -0.3683346787
| 14> S 1.0732062599 -1.6746294655 0.4697024886
| 15> C -0.1225558352 -2.036126728 -0.858958721
| 16> S -1.8293890328 -2.0468436323 -0.279953314
| 17> P -2.022319428 0.0317491757 0.1498620784
| 18> S -1.3448253099 1.2723411815 -1.2023388636
| 19> O -1.3029464952 0.2902293227 1.5275765583
| 20> C -1.595734997 -0.4518157663 2.7386375946
| 21> C -2.5063639926 0.3499446944 3.6452847229
| 22> O -3.5549351679 0.1462664877 0.5521285074
| 23> C -4.6566482041 -0.3814081296 -0.2112888736
| 24> C -4.664374816 0.10265411 -1.6456821427
| 25> H 6.6277276557 -0.5772390429 -0.2763831474
| 26> H 5.82749904 1.0011260428 -0.2698320486
| 27> H 5.9023667246 0.0438678149 1.2158238013
| 28> H 4.456052646 -1.706752901 0.1586693779
| 29> H 4.3504140346 -0.7108464843 -1.3178539654
| 30> H 1.0385727495 2.9613919401 1.522105917
| 31> H 2.7317945293 2.3783642404 1.4688416625
| 32> H 2.3475901886 4.30021558 -0.1156861421
| 33> H 2.8184548763 2.8190113071 -0.9688779278
| 34> H 1.1271848682 3.3266752271 -0.959522986
| 35> H 0.0764381481 -3.0386206374 -1.2289138883
| 36> H 0.003312674 -1.2912976414 -1.6507767195
| 37> H -2.0473245103 -1.4109496911 2.4694272491
| 38> H -0.6198019539 -0.6242907213 3.1973838578
| 39> H -3.4596272465 0.530397812 3.1555604876
| 40> H -2.6718859511 -0.20678552 4.562298201
| 41> H -2.0494555311 1.3065671294 3.882856816
| 42> H -4.6051142067 -1.4728679153 -0.1720128356
| 43> H -5.5358390984 -0.0299649284 0.3316189788
| 44> H -3.7859235842 -0.2670971034 -2.1729315868
| 45> H -5.5560641987 -0.2623422284 -2.1449224555
| 46> H -4.6499225513 1.1895562898 -1.680366487
| 47> *
| 48>
| 49>                          ****END OF INPUT****

CARTESIAN COORDINATES (ANGSTROEM)
---------------------------------
  C      5.801891   -0.006739    0.135480
  C      4.498827   -0.687579   -0.232775
  O      3.417811    0.056888    0.362163
  P      1.957748    0.088725   -0.268398
  S      1.949779    0.233002   -2.229613
  O      1.269025    1.184028    0.637147
  C      1.806761    2.498151    0.900248
  C      2.040998    3.290185   -0.368335
  S      1.073206   -1.674629    0.469702
  C     -0.122556   -2.036127   -0.858959
  S     -1.829389   -2.046844   -0.279953
  P     -2.022319    0.031749    0.149862
  S     -1.344825    1.272341   -1.202339
  O     -1.302946    0.290229    1.527577
  C     -1.595735   -0.451816    2.738638
  C     -2.506364    0.349945    3.645285
  O     -3.554935    0.146266    0.552129
  C     -4.656648   -0.381408   -0.211289
  C     -4.664375    0.102654   -1.645682
  H      6.627728   -0.577239   -0.276383
  H      5.827499    1.001126   -0.269832
  H      5.902367    0.043868    1.215824
  H      4.456053   -1.706753    0.158669
  H      4.350414   -0.710846   -1.317854
  H      1.038573    2.961392    1.522106
  H      2.731795    2.378364    1.468842
  H      2.347590    4.300216   -0.115686
  H      2.818455    2.819011   -0.968878
  H      1.127185    3.326675   -0.959523
  H      0.076438   -3.038621   -1.228914
  H      0.003313   -1.291298   -1.650777
  H     -2.047325   -1.410950    2.469427
  H     -0.619802   -0.624291    3.197384
  H     -3.459627    0.530398    3.155560
  H     -2.671886   -0.206786    4.562298
  H     -2.049456    1.306567    3.882857
  H     -4.605114   -1.472868   -0.172013
  H     -5.535839   -0.029965    0.331619
  H     -3.785924   -0.267097   -2.172932
  H     -5.556064   -0.262342   -2.144922
  H     -4.649923    1.189556   -1.680366

 Total Charge           Charge          ....    0
 Multiplicity           Mult            ....    1
 Number of Electrons    NEL             ....  202
 Basis Dimension        Dim             ....  334

ORBITAL ENERGIES
----------------

  NO   OCC          E(Eh)            E(eV)
   0   2.0000     -88.042578     -2395.7604
   1   2.0000     -88.037711     -2395.6279
   2   2.0000     -87.977881     -2393.9999
   3   2.0000     -87.974187     -2393.8993
   4   2.0000     -76.420831     -2079.5165
   5   2.0000     -76.420179     -2079.4988
   6   2.0000     -18.792817      -511.3786
   7   2.0000     -18.790194      -511.3072
   8   2.0000     -18.783920      -511.1364
   9   2.0000     -18.778604      -510.9918
  10   2.0000      -9.958152      -270.9751
  11   2.0000      -9.952185      -270.8127
  12   2.0000      -9.949214      -270.7319
  13   2.0000      -9.948303      -270.7071
  14   2.0000      -9.946113      -270.6475
  15   2.0000      -9.886836      -269.0345
  16   2.0000      -9.883545      -268.9449
  17   2.0000      -9.880894      -268.8728
  18   2.0000      -9.872710      -268.6501
  19   2.0000      -7.687616      -209.1907
  20   2.0000      -7.683041      -209.0662
  21   2.0000      -7.622858      -207.4285
  22   2.0000      -7.619311      -207.3320
  23   2.0000      -6.417995      -174.6425
  24   2.0000      -6.417445      -174.6275
  25   2.0000      -5.715336      -155.5222
  26   2.0000      -5.711910      -155.4290
  27   2.0000      -5.710884      -155.4010
  28   2.0000      -5.707542      -155.3101
  29   2.0000      -5.704990      -155.2407
  30   2.0000      -5.699984      -155.1044
  31   2.0000      -5.651743      -153.7917
  32   2.0000      -5.648428      -153.7015
  33   2.0000      -5.643665      -153.5719
  34   2.0000      -5.642851      -153.5498
  35   2.0000      -5.639852      -153.4682
  36   2.0000      -5.639304      -153.4533
  37   2.0000      -4.640853      -126.2840
  38   2.0000      -4.640262      -126.2679
  39   2.0000      -4.640138      -126.2646
  40   2.0000      -4.638984      -126.2332
  41   2.0000      -4.637920      -126.2042
  42   2.0000      -4.637875      -126.2030
  43   2.0000      -0.984947       -26.8018
  44   2.0000      -0.981347       -26.7038
  45   2.0000      -0.940989       -25.6056
  46   2.0000      -0.936217       -25.4758
  47   2.0000      -0.760116       -20.6838
  48   2.0000      -0.717843       -19.5335
  49   2.0000      -0.707639       -19.2558
  50   2.0000      -0.688631       -18.7386
  51   2.0000      -0.684492       -18.6260
  52   2.0000      -0.670909       -18.2564
  53   2.0000      -0.646554       -17.5936
  54   2.0000      -0.629405       -17.1270
  55   2.0000      -0.589811       -16.0496
  56   2.0000      -0.584669       -15.9096
  57   2.0000      -0.570818       -15.5327
  58   2.0000      -0.567617       -15.4456
  59   2.0000      -0.563114       -15.3231
  60   2.0000      -0.502960       -13.6862
  61   2.0000      -0.495929       -13.4949
  62   2.0000      -0.471639       -12.8340
  63   2.0000      -0.465922       -12.6784
  64   2.0000      -0.450130       -12.2487
  65   2.0000      -0.444941       -12.1075
  66   2.0000      -0.434576       -11.8254
  67   2.0000      -0.434281       -11.8174
  68   2.0000      -0.428973       -11.6729
  69   2.0000      -0.408305       -11.1105
  70   2.0000      -0.406662       -11.0658
  71   2.0000      -0.402911       -10.9638
  72   2.0000      -0.394175       -10.7260
  73   2.0000      -0.383116       -10.4251
  74   2.0000      -0.380876       -10.3642
  75   2.0000      -0.365115        -9.9353
  76   2.0000      -0.356711        -9.7066
  77   2.0000      -0.353498        -9.6192
  78   2.0000      -0.351764        -9.5720
  79   2.0000      -0.344563        -9.3760
  80   2.0000      -0.341797        -9.3008
  81   2.0000      -0.338721        -9.2171
  82   2.0000      -0.336172        -9.1477
  83   2.0000      -0.335176        -9.1206
  84   2.0000      -0.328077        -8.9274
  85   2.0000      -0.317447        -8.6382
  86   2.0000      -0.311831        -8.4854
  87   2.0000      -0.296210        -8.0603
  88   2.0000      -0.294775        -8.0212
  89   2.0000      -0.287507        -7.8235
  90   2.0000      -0.276425        -7.5219
  91   2.0000      -0.271675        -7.3926
  92   2.0000      -0.267782        -7.2867
  93   2.0000      -0.259767        -7.0686
  94   2.0000      -0.253561        -6.8998
  95   2.0000      -0.235112        -6.3977
  96   2.0000      -0.220457        -5.9990
  97   2.0000      -0.208877        -5.6838
  98   2.0000      -0.193820        -5.2741
  99   2.0000      -0.186513        -5.0753
 100   2.0000      -0.178238        -4.8501
 101   0.0000      -0.036724        -0.9993
 102   0.0000      -0.028003        -0.7620
 103   0.0000      -0.009415        -0.2562
 104   0.0000       0.014730         0.4008
 105   0.0000       0.021418         0.5828

MULLIKEN ATOMIC CHARGES
-----------------------
   0 C :   -0.284956
   1 C :   -0.006222
   2 O :   -0.389206
   3 P :    0.628712
   4 S :   -0.314491
   5 O :   -0.348618
   6 C :    0.008380
   7 C :   -0.322946
   8 S :   -0.104981
   9 C :   -0.348612
  10 S :   -0.121533
  11 P :    0.582019
  12 S :   -0.286110
  13 O :   -0.339372
  14 C :   -0.007202
  15 C :   -0.284262
  16 O :   -0.380523
  17 C :   -0.014055
  18 C :   -0.307013
  19 H :    0.111783
  20 H :    0.117726
  21 H :    0.114551
  22 H :    0.098903
  23 H :    0.105123
  24 H :    0.105639
  25 H :    0.102047
  26 H :    0.105150
  27 H :    0.122258
  28 H :    0.137750
  29 H :    0.180777
  30 H :    0.209333
  31 H :    0.094713
  32 H :    0.107117
  33 H :    0.118484
  34 H :    0.106940
  35 H :    0.116248
  36 H :    0.113548
  37 H :    0.108136
  38 H :    0.128398
  39 H :    0.109737
  40 H :    0.126631
Sum of atomic charges:    0.0000000

LOEWDIN ATOMIC CHARGES
----------------------
   0 C :   -0.351540
   1 C :   -0.122775
   2 O :   -0.252545
   3 P :    0.570338
   4 S :   -0.303473
   5 O :   -0.227761
   6 C :   -0.107145
   7 C :   -0.369721
   8 S :    0.071700
   9 C :   -0.479191
  10 S :    0.060735
  11 P :    0.559515
  12 S :   -0.291360
  13 O :   -0.226052
  14 C :   -0.118046
  15 C :   -0.358461
  16 O :   -0.248054
  17 C :   -0.115501
  18 C :   -0.369399
  19 H :    0.130764
  20 H :    0.126796
  21 H :    0.125336
  22 H :    0.110410
  23 H :    0.105776
  24 H :    0.120804
  25 H :    0.109206
  26 H :    0.126717
  27 H :    0.118680
  28 H :    0.132452
  29 H :    0.136726
  30 H :    0.126360
  31 H :    0.100605
  32 H :    0.117594
  33 H :    0.125409
  34 H :    0.127986
  35 H :    0.126875
  36 H :    0.107265
  37 H :    0.120440
  38 H :    0.122573
  39 H :    0.129313
  40 H :    0.130649

  Mayer bond orders larger than 0.100000
B(  0-C ,  1-C ) :   1.1593 B(  0-C , 19-H ) :   0.9423 B(  0-C , 20-H ) :   0.9513
B(  0-C , 21-H ) :   0.9509 B(  1-C ,  2-O ) :   0.9067 B(  1-C , 22-H ) :   0.9311
B(  1-C , 23-H ) :   0.9012 B(  2-O ,  3-P ) :   1.0778 B(  3-P ,  4-S ) :   1.6089
B(  3-P ,  5-O ) :   1.1502 B(  3-P ,  8-S ) :   0.9602 B(  4-S ,  8-S ) :   0.1217
B(  5-O ,  6-C ) :   0.9057 B(  6-C ,  7-C ) :   1.1673 B(  6-C , 24-H ) :   0.9324
B(  6-C , 25-H ) :   0.9314 B(  7-C , 26-H ) :   0.9357 B(  7-C , 27-H ) :   0.9346
B(  7-C , 28-H ) :   0.9402 B(  8-S ,  9-C ) :   0.9975 B(  9-C , 10-S ) :   1.0015
B(  9-C , 29-H ) :   0.9120 B(  9-C , 30-H ) :   0.8438 B( 10-S , 11-P ) :   0.9326
B( 10-S , 12-S ) :   0.1072 B( 11-P , 12-S ) :   1.6724 B( 11-P , 13-O ) :   1.1400
B( 11-P , 16-O ) :   1.0721 B( 13-O , 14-C ) :   0.8934 B( 14-C , 15-C ) :   1.1630
B( 14-C , 31-H ) :   0.9112 B( 14-C , 32-H ) :   0.9320 B( 15-C , 33-H ) :   0.9432
B( 15-C , 34-H ) :   0.9409 B( 15-C , 35-H ) :   0.9478 B( 16-O , 17-C ) :   0.9149
B( 17-C , 18-C ) :   1.1670 B( 17-C , 36-H ) :   0.9259 B( 17-C , 37-H ) :   0.9333
B( 18-C , 38-H ) :   0.9315 B( 18-C , 39-H ) :   0.9345 B( 18-C , 40-H ) :   0.9429

Dispersion correction           -0.066936145
FINAL SINGLE POINT ENERGY     -2929.513460334431

DIPOLE MOMENT
-------------

Method             : SCF
Type of density    : Electron Density
Multiplicity       :   1
Irrep              :   0
Energy             : -2929.6317180902678956 Eh
Relativity type    :
Basis              : AO
                                X                 Y                 Z
Electronic contribution:     -2.368115180      -8.275068112      -7.396460240
Nuclear contribution   :      2.242148159       7.728883592       8.695016081
                        -----------------------------------------
Total Dipole Moment    :     -0.125967021      -0.546184520       1.298555840
                        -----------------------------------------
Magnitude (a.u.)       :      1.414366463
Magnitude (Debye)      :      3.595033846

Rotational constants in cm-1:             0.013198             0.005020             0.004989
Rotational constants in MHz :           395.680171           150.502584           149.577720

                             ****ORCA TERMINATED NORMALLY****
TOTAL RUN TIME: 0 days 0 hours 0 minutes 21 seconds 411 msec
