                         Program Version 6.0.0  -   RELEASE  -
|  1> ! pbe def2-sv(p) def2/J RI DEFGRID1 loosescf d4 GCP(DFT/SV(P)) printgap
|  2> %output
|  3>     printlevel normal
|  4> end
|  5> * xyz 0 1
|  6> C 5.3133569552 0.5310562668 -0.6143115703
|  7> C 4.6003705428 0.1359586511 0.6636724501
|  8> O 3.4470999044 -0.6893918447 0.4079061663
|  9> P 2.0874122886 -0.1426494679 -0.2045156268
| 10> S 2.008330444 0.2406216568 -2.1298849217
| 11> O 1.7706086098 1.102209084 0.7409500828
| 12> C 1.3024035009 2.3848404564 0.3001628654
| 13> C 2.3621324592 3.4334905294 0.5730744945
| 14> S 0.9640828009 -1.7832163174 0.4691404625
| 15> C -0.2389449503 -1.9819970909 -0.8938917364
| 16> S -1.9489998766 -1.9467958459 -0.3279402427
| 17> P -2.0529777271 0.1410555525 0.0737210131
| 18> S -1.5233277475 1.2738813817 -1.4355251308
| 19> O -1.144322512 0.4231191009 1.3352348827
| 20> C -1.4930491636 0.1704769617 2.7209283977
| 21> C -1.819906208 -1.2808137877 2.9990544377
| 22> O -3.5145810197 0.3768902604 0.6419907458
| 23> C -4.6489539589 0.6196403515 -0.2104843327
| 24> C -4.9918376889 -0.5814426074 -1.066733854
| 25> H 5.5915173797 -0.355380977 -1.1785273403
| 26> H 4.6633486839 1.1420208072 -1.2390781877
| 27> H 6.2065670927 1.0971202769 -0.3692715794
| 28> H 4.2825991271 1.0176070468 1.2265131728
| 29> H 5.2317323653 -0.4945530341 1.2922165312
| 30> H 1.0643477575 2.3351294803 -0.7679887906
| 31> H 0.3840583412 2.5829708343 0.8567845265
| 32> H 2.6294318527 3.4306757886 1.626269168
| 33> H 3.2496842948 3.2336436279 -0.0232912536
| 34> H 1.9691936772 4.4086876583 0.3044824471
| 35> H -0.0852171618 -2.9625516872 -1.336742615
| 36> H -0.0693584585 -1.1895727613 -1.6297815748
| 37> H -0.5981775762 0.4880945462 3.2593547278
| 38> H -2.334489218 0.8174796563 2.9757775077
| 39> H -1.0018187159 -1.9238242156 2.6814532438
| 40> H -1.9752246947 -1.4039347192 4.0665027641
| 41> H -2.7258158357 -1.5736947727 2.473071866
| 42> H -5.450404478 0.8582937839 0.4901835122
| 43> H -4.4291540048 1.4891180508 -0.8374386581
| 44> H -5.0919752086 -1.4717130027 -0.4513298767
| 45> H -5.9256880334 -0.3946494578 -1.5871753916
| 46> H -4.2070010478 -0.751133514 -1.80212627
| 47> *
| 48>
| 49>                          ****END OF INPUT****

CARTESIAN COORDINATES (ANGSTROEM)
---------------------------------
  C      5.313357    0.531056   -0.614312
  C      4.600371    0.135959    0.663672
  O      3.447100   -0.689392    0.407906
  P      2.087412   -0.142649   -0.204516
  S      2.008330    0.240622   -2.129885
  O      1.770609    1.102209    0.740950
  C      1.302404    2.384840    0.300163
  C      2.362132    3.433491    0.573074
  S      0.964083   -1.783216    0.469140
  C     -0.238945   -1.981997   -0.893892
  S     -1.949000   -1.946796   -0.327940
  P     -2.052978    0.141056    0.073721
  S     -1.523328    1.273881   -1.435525
  O     -1.144323    0.423119    1.335235
  C     -1.493049    0.170477    2.720928
  C     -1.819906   -1.280814    2.999054
  O     -3.514581    0.376890    0.641991
  C     -4.648954    0.619640   -0.210484
  C     -4.991838   -0.581443   -1.066734
  H      5.591517   -0.355381   -1.178527
  H      4.663349    1.142021   -1.239078
  H      6.206567    1.097120   -0.369272
  H      4.282599    1.017607    1.226513
  H      5.231732   -0.494553    1.292217
  H      1.064348    2.335129   -0.767989
  H      0.384058    2.582971    0.856785
  H      2.629432    3.430676    1.626269
  H      3.249684    3.233644   -0.023291
  H      1.969194    4.408688    0.304482
  H     -0.085217   -2.962552   -1.336743
  H     -0.069358   -1.189573   -1.629782
  H     -0.598178    0.488095    3.259355
  H     -2.334489    0.817480    2.975778
  H     -1.001819   -1.923824    2.681453
  H     -1.975225   -1.403935    4.066503
  H     -2.725816   -1.573695    2.473072
  H     -5.450404    0.858294    0.490184
  H     -4.429154    1.489118   -0.837439
  H     -5.091975   -1.471713   -0.451330
  H     -5.925688   -0.394649   -1.587175
  H     -4.207001   -0.751134   -1.802126

 Total Charge           Charge          ....    0
 Multiplicity           Mult            ....    1
 Number of Electrons    NEL             ....  202
 Basis Dimension        Dim             ....  334

ORBITAL ENERGIES
----------------

  NO   OCC          E(Eh)            E(eV)
   0   2.0000     -88.042108     -2395.7476
   1   2.0000     -88.035466     -2395.5668
   2   2.0000     -87.981723     -2394.1044
   3   2.0000     -87.980262     -2394.0646
   4   2.0000     -76.427753     -2079.7049
   5   2.0000     -76.419972     -2079.4932
   6   2.0000     -18.801232      -511.6075
   7   2.0000     -18.791210      -511.3348
   8   2.0000     -18.785758      -511.1865
   9   2.0000     -18.783809      -511.1334
  10   2.0000      -9.958505      -270.9847
  11   2.0000      -9.956386      -270.9270
  12   2.0000      -9.951847      -270.8035
  13   2.0000      -9.950516      -270.7673
  14   2.0000      -9.935387      -270.3556
  15   2.0000      -9.888209      -269.0718
  16   2.0000      -9.884676      -268.9757
  17   2.0000      -9.880420      -268.8599
  18   2.0000      -9.880118      -268.8517
  19   2.0000      -7.687126      -209.1773
  20   2.0000      -7.680835      -209.0062
  21   2.0000      -7.626742      -207.5342
  22   2.0000      -7.625130      -207.4903
  23   2.0000      -6.424921      -174.8310
  24   2.0000      -6.417552      -174.6305
  25   2.0000      -5.714992      -155.5128
  26   2.0000      -5.711642      -155.4217
  27   2.0000      -5.708822      -155.3449
  28   2.0000      -5.705363      -155.2508
  29   2.0000      -5.704103      -155.2165
  30   2.0000      -5.697560      -155.0385
  31   2.0000      -5.655645      -153.8979
  32   2.0000      -5.654005      -153.8533
  33   2.0000      -5.647481      -153.6758
  34   2.0000      -5.646761      -153.6562
  35   2.0000      -5.646068      -153.6373
  36   2.0000      -5.645005      -153.6084
  37   2.0000      -4.648140      -126.4823
  38   2.0000      -4.646469      -126.4368
  39   2.0000      -4.645017      -126.3973
  40   2.0000      -4.640221      -126.2668
  41   2.0000      -4.638893      -126.2307
  42   2.0000      -4.638348      -126.2159
  43   2.0000      -0.991822       -26.9889
  44   2.0000      -0.979426       -26.6515
  45   2.0000      -0.947218       -25.7751
  46   2.0000      -0.935765       -25.4635
  47   2.0000      -0.759841       -20.6763
  48   2.0000      -0.721451       -19.6317
  49   2.0000      -0.708754       -19.2862
  50   2.0000      -0.693701       -18.8766
  51   2.0000      -0.681731       -18.5509
  52   2.0000      -0.673084       -18.3155
  53   2.0000      -0.649905       -17.6848
  54   2.0000      -0.630191       -17.1484
  55   2.0000      -0.600100       -16.3296
  56   2.0000      -0.588174       -16.0050
  57   2.0000      -0.581023       -15.8104
  58   2.0000      -0.569195       -15.4886
  59   2.0000      -0.554669       -15.0933
  60   2.0000      -0.498672       -13.5696
  61   2.0000      -0.491980       -13.3874
  62   2.0000      -0.472206       -12.8494
  63   2.0000      -0.469650       -12.7798
  64   2.0000      -0.454433       -12.3657
  65   2.0000      -0.448236       -12.1971
  66   2.0000      -0.444521       -12.0960
  67   2.0000      -0.429729       -11.6935
  68   2.0000      -0.424379       -11.5479
  69   2.0000      -0.418018       -11.3748
  70   2.0000      -0.406941       -11.0734
  71   2.0000      -0.402697       -10.9579
  72   2.0000      -0.391006       -10.6398
  73   2.0000      -0.382322       -10.4035
  74   2.0000      -0.378716       -10.3054
  75   2.0000      -0.369718       -10.0605
  76   2.0000      -0.368159       -10.0181
  77   2.0000      -0.358006        -9.7418
  78   2.0000      -0.351734        -9.5712
  79   2.0000      -0.346201        -9.4206
  80   2.0000      -0.344771        -9.3817
  81   2.0000      -0.344133        -9.3643
  82   2.0000      -0.338390        -9.2081
  83   2.0000      -0.335274        -9.1233
  84   2.0000      -0.333644        -9.0789
  85   2.0000      -0.321111        -8.7379
  86   2.0000      -0.308773        -8.4021
  87   2.0000      -0.298478        -8.1220
  88   2.0000      -0.297090        -8.0842
  89   2.0000      -0.287128        -7.8131
  90   2.0000      -0.282179        -7.6785
  91   2.0000      -0.275124        -7.4865
  92   2.0000      -0.268915        -7.3176
  93   2.0000      -0.261644        -7.1197
  94   2.0000      -0.255419        -6.9503
  95   2.0000      -0.230992        -6.2856
  96   2.0000      -0.215723        -5.8701
  97   2.0000      -0.214472        -5.8361
  98   2.0000      -0.198616        -5.4046
  99   2.0000      -0.190094        -5.1727
 100   2.0000      -0.185728        -5.0539
 101   0.0000      -0.038814        -1.0562
 102   0.0000      -0.027869        -0.7583
 103   0.0000      -0.011036        -0.3003
 104   0.0000       0.008402         0.2286
 105   0.0000       0.022188         0.6038

MULLIKEN ATOMIC CHARGES
-----------------------
   0 C :   -0.313672
   1 C :   -0.015730
   2 O :   -0.377643
   3 P :    0.639090
   4 S :   -0.316708
   5 O :   -0.380659
   6 C :   -0.025626
   7 C :   -0.292022
   8 S :   -0.093189
   9 C :   -0.362358
  10 S :   -0.101882
  11 P :    0.600850
  12 S :   -0.303817
  13 O :   -0.359432
  14 C :    0.013333
  15 C :   -0.326024
  16 O :   -0.382332
  17 C :    0.001109
  18 C :   -0.326996
  19 H :    0.121018
  20 H :    0.135012
  21 H :    0.106996
  22 H :    0.108073
  23 H :    0.106469
  24 H :    0.134189
  25 H :    0.104399
  26 H :    0.109674
  27 H :    0.112501
  28 H :    0.112648
  29 H :    0.185583
  30 H :    0.213336
  31 H :    0.108696
  32 H :    0.106410
  33 H :    0.134363
  34 H :    0.110933
  35 H :    0.121133
  36 H :    0.105405
  37 H :    0.114052
  38 H :    0.119140
  39 H :    0.117464
  40 H :    0.136216
Sum of atomic charges:   -0.0000000

LOEWDIN ATOMIC CHARGES
----------------------
   0 C :   -0.366748
   1 C :   -0.114626
   2 O :   -0.248744
   3 P :    0.566384
   4 S :   -0.298725
   5 O :   -0.243494
   6 C :   -0.127787
   7 C :   -0.358232
   8 S :    0.087002
   9 C :   -0.481576
  10 S :    0.081595
  11 P :    0.568130
  12 S :   -0.296701
  13 O :   -0.235043
  14 C :   -0.106357
  15 C :   -0.373372
  16 O :   -0.246037
  17 C :   -0.116007
  18 C :   -0.372490
  19 H :    0.129980
  20 H :    0.121055
  21 H :    0.127824
  22 H :    0.109302
  23 H :    0.119891
  24 H :    0.106270
  25 H :    0.110993
  26 H :    0.120727
  27 H :    0.120997
  28 H :    0.131254
  29 H :    0.138722
  30 H :    0.125224
  31 H :    0.122098
  32 H :    0.113506
  33 H :    0.122439
  34 H :    0.130317
  35 H :    0.117099
  36 H :    0.118831
  37 H :    0.114123
  38 H :    0.123849
  39 H :    0.133692
  40 H :    0.124635

  Mayer bond orders larger than 0.100000
B(  0-C ,  1-C ) :   1.1637 B(  0-C , 19-H ) :   0.9453 B(  0-C , 20-H ) :   0.9305
B(  0-C , 21-H ) :   0.9380 B(  1-C ,  2-O ) :   0.9172 B(  1-C , 22-H ) :   0.9213
B(  1-C , 23-H ) :   0.9355 B(  2-O ,  3-P ) :   1.1074 B(  3-P ,  4-S ) :   1.6267
B(  3-P ,  5-O ) :   1.0973 B(  3-P ,  8-S ) :   0.9691 B(  4-S ,  8-S ) :   0.1143
B(  5-O ,  6-C ) :   0.9049 B(  6-C ,  7-C ) :   1.1539 B(  6-C , 24-H ) :   0.8967
B(  6-C , 25-H ) :   0.9274 B(  7-C , 26-H ) :   0.9463 B(  7-C , 27-H ) :   0.9416
B(  7-C , 28-H ) :   0.9414 B(  8-S ,  9-C ) :   0.9966 B(  9-C , 10-S ) :   1.0037
B(  9-C , 29-H ) :   0.9117 B(  9-C , 30-H ) :   0.8418 B( 10-S , 11-P ) :   0.9441
B( 10-S , 12-S ) :   0.1054 B( 11-P , 12-S ) :   1.6502 B( 11-P , 13-O ) :   1.1271
B( 11-P , 16-O ) :   1.0793 B( 13-O , 14-C ) :   0.8901 B( 14-C , 15-C ) :   1.1730
B( 14-C , 31-H ) :   0.9323 B( 14-C , 32-H ) :   0.9304 B( 15-C , 33-H ) :   0.9345
B( 15-C , 34-H ) :   0.9343 B( 15-C , 35-H ) :   0.9387 B( 16-O , 17-C ) :   0.9011
B( 17-C , 18-C ) :   1.1669 B( 17-C , 36-H ) :   0.9339 B( 17-C , 37-H ) :   0.9169
B( 18-C , 38-H ) :   0.9440 B( 18-C , 39-H ) :   0.9366 B( 18-C , 40-H ) :   0.9319

Dispersion correction           -0.067969712
FINAL SINGLE POINT ENERGY     -2929.515915889814

DIPOLE MOMENT
-------------

Method             : SCF
Type of density    : Electron Density
Multiplicity       :   1
Irrep              :   0
Energy             : -2929.6347689584877116 Eh
Relativity type    :
Basis              : AO
                                X                 Y                 Z
Electronic contribution:     -1.839420210      -9.610404381      -8.191118556
Nuclear contribution   :      1.284926791       9.821586272       9.672014895
                        -----------------------------------------
Total Dipole Moment    :     -0.554493420       0.211181891       1.480896339
                        -----------------------------------------
Magnitude (a.u.)       :      1.595341566
Magnitude (Debye)      :      4.055036001

Rotational constants in cm-1:             0.013686             0.005127             0.004970
Rotational constants in MHz :           410.281107           153.695733           149.007605

                             ****ORCA TERMINATED NORMALLY****
TOTAL RUN TIME: 0 days 0 hours 0 minutes 21 seconds 709 msec
