                         Program Version 6.0.0  -   RELEASE  -
|  1> ! pbe def2-sv(p) def2/J RI DEFGRID1 loosescf d4 GCP(DFT/SV(P)) printgap
|  2> %output
|  3>     printlevel normal
|  4> end
|  5> * xyz 0 1
|  6> C 2.7417081109 -0.3931231439 -2.7430571808
|  7> C 1.5786096566 0.3085548082 -2.0762025492
|  8> O 1.0453966041 -0.459185607 -0.9798728639
|  9> P 1.8815182857 -0.670569514 0.3606525889
| 10> S 3.1229051144 0.7688453861 0.8584504462
| 11> O 2.5737910342 -2.0696223428 0.0626303498
| 12> C 3.6925658288 -2.5578194816 0.8234156581
| 13> C 3.2985737858 -2.9371978025 2.2362651023
| 14> S 0.3497385942 -1.2036051954 1.6989854075
| 15> C -0.2961158594 0.4467843098 2.1252207832
| 16> S -0.3183151894 1.6273821162 0.7496079833
| 17> P -1.9332933898 0.8672521341 -0.3980146795
| 18> S -1.9282669398 1.4271494052 -2.2736841601
| 19> O -3.2133232035 1.2755325899 0.4675795296
| 20> C -3.6283025235 2.6468624633 0.6034464042
| 21> C -4.6690891298 3.0057632138 -0.4394352057
| 22> O -1.9380718953 -0.683776793 -0.1186654391
| 23> C -2.2850490366 -1.6774817365 -1.1099123343
| 24> C -1.3864067686 -2.8844113388 -0.9365009368
| 25> H 3.0432488047 0.172042676 -3.619307239
| 26> H 3.5823414352 -0.452831282 -2.0525238992
| 27> H 2.4547433165 -1.3984035507 -3.0400995972
| 28> H 0.7320841482 0.4325401818 -2.7549227371
| 29> H 1.880943496 1.2905493842 -1.6952526853
| 30> H 4.0384751513 -3.4218338597 0.254536637
| 31> H 4.4665433224 -1.7835348575 0.8352147367
| 32> H 2.4534965632 -3.6206912481 2.2221362126
| 33> H 4.1410881963 -3.4129220907 2.7278922386
| 34> H 3.0195387388 -2.0460610204 2.796624333
| 35> H 0.3461939937 0.8997792471 2.8782021805
| 36> H -1.3049401126 0.2938013119 2.5020119687
| 37> H -4.0402888162 2.7137591723 1.6122927884
| 38> H -2.7507845615 3.2978440825 0.5237161363
| 39> H -4.2453384006 2.9295153571 -1.4383822676
| 40> H -5.5166587007 2.3301496647 -0.3669258413
| 41> H -5.0047525645 4.0244171907 -0.2743794239
| 42> H -3.3325579108 -1.9368695066 -0.9415863213
| 43> H -2.1794242152 -1.2338619525 -2.1060333898
| 44> H -1.4836982037 -3.2797462183 0.0707906753
| 45> H -1.6761757137 -3.64443745 -1.65489474
| 46> H -0.3473687186 -2.6115065401 -1.1041177629
| 47> *
| 48>
| 49>                          ****END OF INPUT****

CARTESIAN COORDINATES (ANGSTROEM)
---------------------------------
  C      2.741708   -0.393123   -2.743057
  C      1.578610    0.308555   -2.076203
  O      1.045397   -0.459186   -0.979873
  P      1.881518   -0.670570    0.360653
  S      3.122905    0.768845    0.858450
  O      2.573791   -2.069622    0.062630
  C      3.692566   -2.557819    0.823416
  C      3.298574   -2.937198    2.236265
  S      0.349739   -1.203605    1.698985
  C     -0.296116    0.446784    2.125221
  S     -0.318315    1.627382    0.749608
  P     -1.933293    0.867252   -0.398015
  S     -1.928267    1.427149   -2.273684
  O     -3.213323    1.275533    0.467580
  C     -3.628303    2.646862    0.603446
  C     -4.669089    3.005763   -0.439435
  O     -1.938072   -0.683777   -0.118665
  C     -2.285049   -1.677482   -1.109912
  C     -1.386407   -2.884411   -0.936501
  H      3.043249    0.172043   -3.619307
  H      3.582341   -0.452831   -2.052524
  H      2.454743   -1.398404   -3.040100
  H      0.732084    0.432540   -2.754923
  H      1.880943    1.290549   -1.695253
  H      4.038475   -3.421834    0.254537
  H      4.466543   -1.783535    0.835215
  H      2.453497   -3.620691    2.222136
  H      4.141088   -3.412922    2.727892
  H      3.019539   -2.046061    2.796624
  H      0.346194    0.899779    2.878202
  H     -1.304940    0.293801    2.502012
  H     -4.040289    2.713759    1.612293
  H     -2.750785    3.297844    0.523716
  H     -4.245338    2.929515   -1.438382
  H     -5.516659    2.330150   -0.366926
  H     -5.004753    4.024417   -0.274379
  H     -3.332558   -1.936870   -0.941586
  H     -2.179424   -1.233862   -2.106033
  H     -1.483698   -3.279746    0.070791
  H     -1.676176   -3.644437   -1.654895
  H     -0.347369   -2.611507   -1.104118

 Total Charge           Charge          ....    0
 Multiplicity           Mult            ....    1
 Number of Electrons    NEL             ....  202
 Basis Dimension        Dim             ....  334

ORBITAL ENERGIES
----------------

  NO   OCC          E(Eh)            E(eV)
   0   2.0000     -88.045718     -2395.8458
   1   2.0000     -88.041782     -2395.7387
   2   2.0000     -87.990775     -2394.3507
   3   2.0000     -87.986176     -2394.2256
   4   2.0000     -76.427668     -2079.7026
   5   2.0000     -76.426903     -2079.6817
   6   2.0000     -18.794877      -511.4346
   7   2.0000     -18.791470      -511.3419
   8   2.0000     -18.789847      -511.2977
   9   2.0000     -18.786565      -511.2084
  10   2.0000      -9.963173      -271.1117
  11   2.0000      -9.953371      -270.8450
  12   2.0000      -9.952875      -270.8315
  13   2.0000      -9.950450      -270.7655
  14   2.0000      -9.937896      -270.4239
  15   2.0000      -9.885007      -268.9847
  16   2.0000      -9.880071      -268.8504
  17   2.0000      -9.878331      -268.8030
  18   2.0000      -9.876327      -268.7485
  19   2.0000      -7.690279      -209.2631
  20   2.0000      -7.686994      -209.1737
  21   2.0000      -7.635781      -207.7802
  22   2.0000      -7.631086      -207.6524
  23   2.0000      -6.425239      -174.8396
  24   2.0000      -6.423841      -174.8016
  25   2.0000      -5.718563      -155.6100
  26   2.0000      -5.715097      -155.5157
  27   2.0000      -5.714609      -155.5024
  28   2.0000      -5.711583      -155.4201
  29   2.0000      -5.707023      -155.2960
  30   2.0000      -5.703549      -155.2015
  31   2.0000      -5.664573      -154.1409
  32   2.0000      -5.659983      -154.0160
  33   2.0000      -5.656635      -153.9249
  34   2.0000      -5.655805      -153.9023
  35   2.0000      -5.651681      -153.7901
  36   2.0000      -5.651362      -153.7814
  37   2.0000      -4.647731      -126.4712
  38   2.0000      -4.647153      -126.4555
  39   2.0000      -4.646294      -126.4321
  40   2.0000      -4.645672      -126.4152
  41   2.0000      -4.645648      -126.4145
  42   2.0000      -4.644465      -126.3823
  43   2.0000      -0.986892       -26.8547
  44   2.0000      -0.984992       -26.8030
  45   2.0000      -0.944253       -25.6944
  46   2.0000      -0.942797       -25.6548
  47   2.0000      -0.765717       -20.8362
  48   2.0000      -0.721153       -19.6236
  49   2.0000      -0.706648       -19.2289
  50   2.0000      -0.683802       -18.6072
  51   2.0000      -0.682905       -18.5828
  52   2.0000      -0.672775       -18.3071
  53   2.0000      -0.654693       -17.8151
  54   2.0000      -0.640228       -17.4215
  55   2.0000      -0.600168       -16.3314
  56   2.0000      -0.590012       -16.0550
  57   2.0000      -0.572447       -15.5771
  58   2.0000      -0.566874       -15.4254
  59   2.0000      -0.560569       -15.2539
  60   2.0000      -0.506153       -13.7731
  61   2.0000      -0.490114       -13.3367
  62   2.0000      -0.479016       -13.0347
  63   2.0000      -0.468915       -12.7598
  64   2.0000      -0.455128       -12.3847
  65   2.0000      -0.441932       -12.0256
  66   2.0000      -0.438931       -11.9439
  67   2.0000      -0.435029       -11.8377
  68   2.0000      -0.424725       -11.5574
  69   2.0000      -0.413364       -11.2482
  70   2.0000      -0.409761       -11.1502
  71   2.0000      -0.400019       -10.8851
  72   2.0000      -0.389213       -10.5910
  73   2.0000      -0.387438       -10.5427
  74   2.0000      -0.383734       -10.4419
  75   2.0000      -0.375734       -10.2242
  76   2.0000      -0.366379        -9.9697
  77   2.0000      -0.356808        -9.7092
  78   2.0000      -0.354203        -9.6383
  79   2.0000      -0.348006        -9.4697
  80   2.0000      -0.345750        -9.4083
  81   2.0000      -0.342882        -9.3303
  82   2.0000      -0.337891        -9.1945
  83   2.0000      -0.334655        -9.1064
  84   2.0000      -0.327662        -8.9161
  85   2.0000      -0.321942        -8.7605
  86   2.0000      -0.309977        -8.4349
  87   2.0000      -0.296651        -8.0723
  88   2.0000      -0.295330        -8.0363
  89   2.0000      -0.293147        -7.9769
  90   2.0000      -0.281533        -7.6609
  91   2.0000      -0.273642        -7.4462
  92   2.0000      -0.266661        -7.2562
  93   2.0000      -0.263644        -7.1741
  94   2.0000      -0.259636        -7.0650
  95   2.0000      -0.229236        -6.2378
  96   2.0000      -0.223451        -6.0804
  97   2.0000      -0.213253        -5.8029
  98   2.0000      -0.205208        -5.5840
  99   2.0000      -0.199016        -5.4155
 100   2.0000      -0.196507        -5.3472
 101   0.0000      -0.047892        -1.3032
 102   0.0000      -0.025484        -0.6935
 103   0.0000      -0.012984        -0.3533
 104   0.0000      -0.001439        -0.0392
 105   0.0000       0.016110         0.4384

MULLIKEN ATOMIC CHARGES
-----------------------
   0 C :   -0.300660
   1 C :   -0.017293
   2 O :   -0.372548
   3 P :    0.617609
   4 S :   -0.326332
   5 O :   -0.376340
   6 C :   -0.005244
   7 C :   -0.316052
   8 S :   -0.081306
   9 C :   -0.322577
  10 S :   -0.076767
  11 P :    0.617263
  12 S :   -0.322980
  13 O :   -0.372558
  14 C :   -0.011412
  15 C :   -0.289008
  16 O :   -0.368430
  17 C :   -0.005553
  18 C :   -0.297804
  19 H :    0.111084
  20 H :    0.116766
  21 H :    0.111659
  22 H :    0.115601
  23 H :    0.112216
  24 H :    0.105622
  25 H :    0.111718
  26 H :    0.117615
  27 H :    0.113661
  28 H :    0.126910
  29 H :    0.190985
  30 H :    0.181962
  31 H :    0.103183
  32 H :    0.099082
  33 H :    0.129108
  34 H :    0.111081
  35 H :    0.106680
  36 H :    0.101707
  37 H :    0.110614
  38 H :    0.113217
  39 H :    0.105213
  40 H :    0.132308
Sum of atomic charges:    0.0000000

LOEWDIN ATOMIC CHARGES
----------------------
   0 C :   -0.364958
   1 C :   -0.129068
   2 O :   -0.238862
   3 P :    0.568213
   4 S :   -0.328741
   5 O :   -0.243014
   6 C :   -0.119985
   7 C :   -0.369947
   8 S :    0.101174
   9 C :   -0.468248
  10 S :    0.106093
  11 P :    0.571424
  12 S :   -0.303505
  13 O :   -0.254336
  14 C :   -0.120136
  15 C :   -0.363383
  16 O :   -0.237261
  17 C :   -0.110202
  18 C :   -0.360837
  19 H :    0.130198
  20 H :    0.118922
  21 H :    0.123647
  22 H :    0.111484
  23 H :    0.109826
  24 H :    0.118889
  25 H :    0.110581
  26 H :    0.123879
  27 H :    0.131367
  28 H :    0.121396
  29 H :    0.138889
  30 H :    0.135297
  31 H :    0.116615
  32 H :    0.104077
  33 H :    0.124061
  34 H :    0.124842
  35 H :    0.128179
  36 H :    0.113648
  37 H :    0.106902
  38 H :    0.122023
  39 H :    0.127232
  40 H :    0.123627

  Mayer bond orders larger than 0.100000
B(  0-C ,  1-C ) :   1.1619 B(  0-C , 19-H ) :   0.9400 B(  0-C , 20-H ) :   0.9348
B(  0-C , 21-H ) :   0.9474 B(  1-C ,  2-O ) :   0.8906 B(  1-C , 22-H ) :   0.9164
B(  1-C , 23-H ) :   0.9165 B(  2-O ,  3-P ) :   1.0860 B(  3-P ,  4-S ) :   1.5935
B(  3-P ,  5-O ) :   1.0934 B(  3-P ,  8-S ) :   0.9878 B(  4-S ,  8-S ) :   0.1112
B(  5-O ,  6-C ) :   0.9084 B(  6-C ,  7-C ) :   1.1672 B(  6-C , 24-H ) :   0.9335
B(  6-C , 25-H ) :   0.9144 B(  7-C , 26-H ) :   0.9445 B(  7-C , 27-H ) :   0.9378
B(  7-C , 28-H ) :   0.9354 B(  8-S ,  9-C ) :   0.9784 B(  9-C , 10-S ) :   1.0015
B(  9-C , 29-H ) :   0.9041 B(  9-C , 30-H ) :   0.9052 B( 10-S , 11-P ) :   0.9559
B( 11-P , 12-S ) :   1.6346 B( 11-P , 13-O ) :   1.0880 B( 11-P , 16-O ) :   1.1378
B( 13-O , 14-C ) :   0.9099 B( 14-C , 15-C ) :   1.1664 B( 14-C , 31-H ) :   0.9364
B( 14-C , 32-H ) :   0.9123 B( 15-C , 33-H ) :   0.9320 B( 15-C , 34-H ) :   0.9475
B( 15-C , 35-H ) :   0.9399 B( 16-O , 17-C ) :   0.8950 B( 17-C , 18-C ) :   1.1652
B( 17-C , 36-H ) :   0.9347 B( 17-C , 37-H ) :   0.9052 B( 18-C , 38-H ) :   0.9460
B( 18-C , 39-H ) :   0.9382 B( 18-C , 40-H ) :   0.9367

Dispersion correction           -0.068569714
FINAL SINGLE POINT ENERGY     -2929.520276089339

DIPOLE MOMENT
-------------

Method             : SCF
Type of density    : Electron Density
Multiplicity       :   1
Irrep              :   0
Energy             : -2929.6380374233708608 Eh
Relativity type    :
Basis              : AO
                                X                 Y                 Z
Electronic contribution:      1.140933115       9.273296768       4.883711846
Nuclear contribution   :     -1.628664788     -10.091943517      -4.343998875
                        -----------------------------------------
Total Dipole Moment    :     -0.487731673      -0.818646749       0.539712971
                        -----------------------------------------
Magnitude (a.u.)       :      1.095150572
Magnitude (Debye)      :      2.783651535

Rotational constants in cm-1:             0.013417             0.005236             0.005145
Rotational constants in MHz :           402.233518           156.962483           154.240943

                             ****ORCA TERMINATED NORMALLY****
TOTAL RUN TIME: 0 days 0 hours 0 minutes 21 seconds 904 msec
