                         Program Version 6.0.0  -   RELEASE  -
|  1> ! r2scan-3c def2/J RI DEFGRID2 scfconv6 printgap
|  2> %output
|  3>     printlevel normal
|  4> end
|  5> * xyz 0 1
|  6> C -0.6608424118 1.0343235206 7.54411e-05
|  7> C 0.6608365913 1.0343256143 -7.47056e-05
|  8> Cl 1.6110464897 -0.4056994864 1.64901e-05
|  9> Cl -1.6110441732 -0.4057017312 -1.65866e-05
| 10> H -1.2358986907 1.9448418939 0.0002772691
| 11> H 1.2358865712 1.9448294888 -0.0002826396
| 12> *
| 13>
| 14>                          ****END OF INPUT****

CARTESIAN COORDINATES (ANGSTROEM)
---------------------------------
  C     -0.660842    1.034324    0.000075
  C      0.660837    1.034326   -0.000075
  Cl     1.611046   -0.405699    0.000016
  Cl    -1.611044   -0.405702   -0.000017
  H     -1.235899    1.944842    0.000277
  H      1.235887    1.944829   -0.000283

 Total Charge           Charge          ....    0
 Multiplicity           Mult            ....    1
 Number of Electrons    NEL             ....   48
 Basis Dimension        Dim             ....  102

ORBITAL ENERGIES
----------------

  NO   OCC          E(Eh)            E(eV)
   0   2.0000    -101.232519     -2754.6769
   1   2.0000    -101.232512     -2754.6767
   2   2.0000     -10.111315      -275.1429
   3   2.0000     -10.110511      -275.1210
   4   2.0000      -9.388128      -255.4639
   5   2.0000      -9.388119      -255.4637
   6   2.0000      -7.134520      -194.1402
   7   2.0000      -7.134520      -194.1402
   8   2.0000      -7.124582      -193.8697
   9   2.0000      -7.124582      -193.8697
  10   2.0000      -7.123605      -193.8431
  11   2.0000      -7.123604      -193.8431
  12   2.0000      -0.873003       -23.7556
  13   2.0000      -0.824125       -22.4256
  14   2.0000      -0.712519       -19.3886
  15   2.0000      -0.555797       -15.1240
  16   2.0000      -0.490116       -13.3367
  17   2.0000      -0.444696       -12.1008
  18   2.0000      -0.387898       -10.5553
  19   2.0000      -0.373780       -10.1711
  20   2.0000      -0.321369        -8.7449
  21   2.0000      -0.302413        -8.2291
  22   2.0000      -0.288124        -7.8403
  23   2.0000      -0.238750        -6.4967
  24   0.0000      -0.047537        -1.2935
  25   0.0000      -0.017642        -0.4801
  26   0.0000       0.040229         1.0947
  27   0.0000       0.095471         2.5979
  28   0.0000       0.137731         3.7479

MULLIKEN ATOMIC CHARGES
-----------------------
   0 C :   -0.085458
   1 C :   -0.085457
   2 Cl:   -0.091549
   3 Cl:   -0.091545
   4 H :    0.177005
   5 H :    0.177004
Sum of atomic charges:   -0.0000000

LOEWDIN ATOMIC CHARGES
----------------------
   0 C :   -0.290081
   1 C :   -0.290079
   2 Cl:    0.115635
   3 Cl:    0.115638
   4 H :    0.174445
   5 H :    0.174442

  Mayer bond orders larger than 0.100000
B(  0-C ,  1-C ) :   1.7961 B(  0-C ,  3-Cl) :   1.0659 B(  0-C ,  4-H ) :   0.9314
B(  1-C ,  2-Cl) :   1.0659 B(  1-C ,  5-H ) :   0.9314

Dispersion correction           -0.001499724
FINAL SINGLE POINT ENERGY      -997.717359112321

DIPOLE MOMENT
-------------

Method             : SCF
Type of density    : Electron Density
Multiplicity       :   1
Irrep              :   0
Energy             :  -997.7207619073716387 Eh
Relativity type    :
Basis              : AO
                                X                 Y                 Z
Electronic contribution:      0.000006562      -3.968430358       0.000002740
Nuclear contribution   :     -0.000014479       4.738272768      -0.000004909
                        -----------------------------------------
Total Dipole Moment    :     -0.000007917       0.769842410      -0.000002169
                        -----------------------------------------
Magnitude (a.u.)       :      0.769842410
Magnitude (Debye)      :      1.956783899

Rotational constants in cm-1:             0.374653             0.085310             0.069488
Rotational constants in MHz :         11231.825212          2557.535294          2083.185037

                             ****ORCA TERMINATED NORMALLY****
TOTAL RUN TIME: 0 days 0 hours 0 minutes 10 seconds 53 msec
