                         Program Version 6.0.0  -   RELEASE  -
|  1> ! r2scan-3c def2/J RI DEFGRID2 scfconv6 printgap
|  2> %output
|  3>     printlevel normal
|  4> end
|  5> %cpcm
|  6>     smd true
|  7>     smdsolvent "water"
|  8> end
|  9> * xyz 0 1
| 10> C -0.6608424118 1.0343235206 7.54411e-05
| 11> C 0.6608365913 1.0343256143 -7.47056e-05
| 12> Cl 1.6110464897 -0.4056994864 1.64901e-05
| 13> Cl -1.6110441732 -0.4057017312 -1.65866e-05
| 14> H -1.2358986907 1.9448418939 0.0002772691
| 15> H 1.2358865712 1.9448294888 -0.0002826396
| 16> *
| 17>
| 18>                          ****END OF INPUT****

CARTESIAN COORDINATES (ANGSTROEM)
---------------------------------
  C     -0.660842    1.034324    0.000075
  C      0.660837    1.034326   -0.000075
  Cl     1.611046   -0.405699    0.000016
  Cl    -1.611044   -0.405702   -0.000017
  H     -1.235899    1.944842    0.000277
  H      1.235887    1.944829   -0.000283

 Total Charge           Charge          ....    0
 Multiplicity           Mult            ....    1
 Number of Electrons    NEL             ....   48
 Basis Dimension        Dim             ....  102

ORBITAL ENERGIES
----------------

  NO   OCC          E(Eh)            E(eV)
   0   2.0000    -101.230611     -2754.6250
   1   2.0000    -101.230604     -2754.6248
   2   2.0000     -10.101646      -274.8798
   3   2.0000     -10.100842      -274.8579
   4   2.0000      -9.386535      -255.4206
   5   2.0000      -9.386526      -255.4204
   6   2.0000      -7.132686      -194.0902
   7   2.0000      -7.132685      -194.0902
   8   2.0000      -7.123075      -193.8287
   9   2.0000      -7.123075      -193.8287
  10   2.0000      -7.122105      -193.8023
  11   2.0000      -7.122104      -193.8023
  12   2.0000      -0.869164       -23.6512
  13   2.0000      -0.822162       -22.3722
  14   2.0000      -0.705071       -19.1860
  15   2.0000      -0.545873       -14.8540
  16   2.0000      -0.478027       -13.0078
  17   2.0000      -0.440409       -11.9841
  18   2.0000      -0.379371       -10.3232
  19   2.0000      -0.370701       -10.0873
  20   2.0000      -0.321460        -8.7474
  21   2.0000      -0.300576        -8.1791
  22   2.0000      -0.287334        -7.8188
  23   2.0000      -0.234755        -6.3880
  24   0.0000      -0.039802        -1.0831
  25   0.0000      -0.013129        -0.3573
  26   0.0000       0.047432         1.2907
  27   0.0000       0.110857         3.0166
  28   0.0000       0.149837         4.0773

MULLIKEN ATOMIC CHARGES
-----------------------
   0 C :   -0.105140
   1 C :   -0.105139
   2 Cl:   -0.124172
   3 Cl:   -0.124168
   4 H :    0.229310
   5 H :    0.229309
Sum of atomic charges:   -0.0000000

LOEWDIN ATOMIC CHARGES
----------------------
   0 C :   -0.286398
   1 C :   -0.286396
   2 Cl:    0.092953
   3 Cl:    0.092956
   4 H :    0.193444
   5 H :    0.193440

  Mayer bond orders larger than 0.100000
B(  0-C ,  1-C ) :   1.8146 B(  0-C ,  3-Cl) :   1.0361 B(  0-C ,  4-H ) :   0.9097
B(  1-C ,  2-Cl) :   1.0361 B(  1-C ,  5-H ) :   0.9097

Dispersion correction           -0.001499724
FINAL SINGLE POINT ENERGY      -997.719041272435

DIPOLE MOMENT
-------------

Method             : SCF
Type of density    : Electron Density
Multiplicity       :   1
Irrep              :   0
Energy             :  -997.7224440674851849 Eh
Relativity type    :
Basis              : AO
                                X                 Y                 Z
Electronic contribution:      0.000003233      -3.647843203       0.000002069
Nuclear contribution   :     -0.000014479       4.738272768      -0.000004909
                        -----------------------------------------
Total Dipole Moment    :     -0.000011247       1.090429565      -0.000002840
                        -----------------------------------------
Magnitude (a.u.)       :      1.090429565
Magnitude (Debye)      :      2.771651687

Rotational constants in cm-1:             0.374653             0.085310             0.069488
Rotational constants in MHz :         11231.825212          2557.535294          2083.185037

                             ****ORCA TERMINATED NORMALLY****
TOTAL RUN TIME: 0 days 0 hours 0 minutes 13 seconds 584 msec
