                         Program Version 6.0.0  -   RELEASE  -
|  1> ! pbe def2-sv(p) def2/J RI DEFGRID1 loosescf d4 GCP(DFT/SV(P)) printgap
|  2> %output
|  3>     printlevel normal
|  4> end
|  5> * xyz 0 1
|  6> C 5.9021282386 -0.7419018477 -0.9829036206
|  7> C 4.6652302702 0.106314671 -0.7681623658
|  8> O 3.6021171873 -0.7643413076 -0.3261171333
|  9> P 2.3164754571 -0.1763046221 0.3932072724
| 10> S 2.6826974872 1.03344352 1.8899122164
| 11> O 1.5438220621 -1.4752297622 0.8385065509
| 12> C 1.6392240805 -2.7782549425 0.2063834666
| 13> C 1.1958582592 -2.7664088545 -1.2404841665
| 14> S 1.2273191923 0.7336657268 -1.2046064376
| 15> C 0.251638181 1.8589028647 -0.1735046472
| 16> S -0.709928928 1.0120485629 1.1115885908
| 17> P -2.3625111752 0.4224489889 -0.0860219987
| 18> S -2.0082595635 -0.7620475585 -1.6104721963
| 19> O -2.9434403231 1.8622595138 -0.4076101097
| 20> C -4.3352450991 2.1429427386 -0.6802019937
| 21> C -4.8418650436 1.4165039152 -1.9084852075
| 22> O -3.4139418126 -0.1555064454 0.955275075
| 23> C -3.4442301044 -1.5539094473 1.2895211084
| 24> C -2.2565404233 -1.9518064144 2.1415541675
| 25> H 5.7040886482 -1.5092604812 -1.7255101616
| 26> H 6.7110791043 -0.107214872 -1.329217131
| 27> H 6.1947518487 -1.217987654 -0.0512900566
| 28> H 4.3440343488 0.5899282872 -1.6944005332
| 29> H 4.8297467396 0.8707823859 -0.0015870267
| 30> H 2.6719545836 -3.1197217139 0.2948457039
| 31> H 0.9869129513 -3.399687632 0.8221504859
| 32> H 1.8570176897 -2.140018753 -1.8358444643
| 33> H 1.2262076275 -3.7801159854 -1.6271498842
| 34> H 0.1817490992 -2.384350803 -1.3359134163
| 35> H -0.4131609112 2.4075869029 -0.8357542115
| 36> H 0.9272178474 2.5281465162 0.3584317682
| 37> H -4.917166531 1.8727201256 0.203341238
| 38> H -4.3507412337 3.225250551 -0.8194341421
| 39> H -5.8626741494 1.7240244872 -2.1125513667
| 40> H -4.2179356032 1.6453495617 -2.7693732495
| 41> H -4.820418082 0.3399359457 -1.7451415967
| 42> H -4.3855706682 -1.6787975015 1.8259845568
| 43> H -3.4615615561 -2.131724946 0.3591764071
| 44> H -2.3548424494 -2.9914258886 2.4368391272
| 45> H -1.3331117074 -1.8283188745 1.5754622827
| 46> H -2.1990654462 -1.3265008585 3.0291266692
| 47> *
| 48>
| 49>                          ****END OF INPUT****

CARTESIAN COORDINATES (ANGSTROEM)
---------------------------------
  C      5.902128   -0.741902   -0.982904
  C      4.665230    0.106315   -0.768162
  O      3.602117   -0.764341   -0.326117
  P      2.316475   -0.176305    0.393207
  S      2.682697    1.033444    1.889912
  O      1.543822   -1.475230    0.838507
  C      1.639224   -2.778255    0.206383
  C      1.195858   -2.766409   -1.240484
  S      1.227319    0.733666   -1.204606
  C      0.251638    1.858903   -0.173505
  S     -0.709929    1.012049    1.111589
  P     -2.362511    0.422449   -0.086022
  S     -2.008260   -0.762048   -1.610472
  O     -2.943440    1.862260   -0.407610
  C     -4.335245    2.142943   -0.680202
  C     -4.841865    1.416504   -1.908485
  O     -3.413942   -0.155506    0.955275
  C     -3.444230   -1.553909    1.289521
  C     -2.256540   -1.951806    2.141554
  H      5.704089   -1.509260   -1.725510
  H      6.711079   -0.107215   -1.329217
  H      6.194752   -1.217988   -0.051290
  H      4.344034    0.589928   -1.694401
  H      4.829747    0.870782   -0.001587
  H      2.671955   -3.119722    0.294846
  H      0.986913   -3.399688    0.822150
  H      1.857018   -2.140019   -1.835844
  H      1.226208   -3.780116   -1.627150
  H      0.181749   -2.384351   -1.335913
  H     -0.413161    2.407587   -0.835754
  H      0.927218    2.528147    0.358432
  H     -4.917167    1.872720    0.203341
  H     -4.350741    3.225251   -0.819434
  H     -5.862674    1.724024   -2.112551
  H     -4.217936    1.645350   -2.769373
  H     -4.820418    0.339936   -1.745142
  H     -4.385571   -1.678798    1.825985
  H     -3.461562   -2.131725    0.359176
  H     -2.354842   -2.991426    2.436839
  H     -1.333112   -1.828319    1.575462
  H     -2.199065   -1.326501    3.029127

 Total Charge           Charge          ....    0
 Multiplicity           Mult            ....    1
 Number of Electrons    NEL             ....  202
 Basis Dimension        Dim             ....  334

ORBITAL ENERGIES
----------------

  NO   OCC          E(Eh)            E(eV)
   0   2.0000     -88.035472     -2395.5670
   1   2.0000     -88.032981     -2395.4992
   2   2.0000     -87.984566     -2394.1818
   3   2.0000     -87.979926     -2394.0555
   4   2.0000     -76.424912     -2079.6276
   5   2.0000     -76.423277     -2079.5831
   6   2.0000     -18.797474      -511.5053
   7   2.0000     -18.795532      -511.4524
   8   2.0000     -18.789981      -511.3014
   9   2.0000     -18.787016      -511.2207
  10   2.0000      -9.956691      -270.9353
  11   2.0000      -9.953844      -270.8579
  12   2.0000      -9.953497      -270.8484
  13   2.0000      -9.951923      -270.8056
  14   2.0000      -9.951009      -270.7807
  15   2.0000      -9.889428      -269.1050
  16   2.0000      -9.884478      -268.9703
  17   2.0000      -9.884131      -268.9609
  18   2.0000      -9.875917      -268.7374
  19   2.0000      -7.680199      -208.9888
  20   2.0000      -7.678064      -208.9307
  21   2.0000      -7.629261      -207.6027
  22   2.0000      -7.625200      -207.4922
  23   2.0000      -6.422515      -174.7655
  24   2.0000      -6.420502      -174.7107
  25   2.0000      -5.708157      -155.3269
  26   2.0000      -5.705869      -155.2646
  27   2.0000      -5.704990      -155.2407
  28   2.0000      -5.702680      -155.1778
  29   2.0000      -5.696854      -155.0193
  30   2.0000      -5.695026      -154.9695
  31   2.0000      -5.657940      -153.9604
  32   2.0000      -5.654159      -153.8575
  33   2.0000      -5.649943      -153.7428
  34   2.0000      -5.649623      -153.7341
  35   2.0000      -5.645925      -153.6334
  36   2.0000      -5.645183      -153.6132
  37   2.0000      -4.645703      -126.4160
  38   2.0000      -4.644099      -126.3724
  39   2.0000      -4.643699      -126.3615
  40   2.0000      -4.642561      -126.3305
  41   2.0000      -4.642054      -126.3167
  42   2.0000      -4.640624      -126.2778
  43   2.0000      -0.989351       -26.9216
  44   2.0000      -0.987432       -26.8694
  45   2.0000      -0.946685       -25.7606
  46   2.0000      -0.942479       -25.6462
  47   2.0000      -0.758712       -20.6456
  48   2.0000      -0.719405       -19.5760
  49   2.0000      -0.707859       -19.2618
  50   2.0000      -0.690387       -18.7864
  51   2.0000      -0.689598       -18.7649
  52   2.0000      -0.669404       -18.2154
  53   2.0000      -0.648765       -17.6538
  54   2.0000      -0.633106       -17.2277
  55   2.0000      -0.594645       -16.1811
  56   2.0000      -0.588783       -16.0216
  57   2.0000      -0.579500       -15.7690
  58   2.0000      -0.571208       -15.5434
  59   2.0000      -0.556824       -15.1519
  60   2.0000      -0.504604       -13.7310
  61   2.0000      -0.498013       -13.5516
  62   2.0000      -0.473799       -12.8927
  63   2.0000      -0.470595       -12.8055
  64   2.0000      -0.460309       -12.5257
  65   2.0000      -0.444559       -12.0971
  66   2.0000      -0.441279       -12.0078
  67   2.0000      -0.431728       -11.7479
  68   2.0000      -0.426296       -11.6001
  69   2.0000      -0.412426       -11.2227
  70   2.0000      -0.410607       -11.1732
  71   2.0000      -0.406626       -11.0649
  72   2.0000      -0.395896       -10.7729
  73   2.0000      -0.376721       -10.2511
  74   2.0000      -0.374389       -10.1877
  75   2.0000      -0.371057       -10.0970
  76   2.0000      -0.366956        -9.9854
  77   2.0000      -0.356206        -9.6929
  78   2.0000      -0.353385        -9.6161
  79   2.0000      -0.350301        -9.5322
  80   2.0000      -0.346214        -9.4210
  81   2.0000      -0.342413        -9.3175
  82   2.0000      -0.339470        -9.2375
  83   2.0000      -0.336423        -9.1545
  84   2.0000      -0.332376        -9.0444
  85   2.0000      -0.324767        -8.8374
  86   2.0000      -0.308538        -8.3957
  87   2.0000      -0.301448        -8.2028
  88   2.0000      -0.296649        -8.0722
  89   2.0000      -0.292532        -7.9602
  90   2.0000      -0.289799        -7.8858
  91   2.0000      -0.276981        -7.5370
  92   2.0000      -0.272152        -7.4056
  93   2.0000      -0.260038        -7.0760
  94   2.0000      -0.254548        -6.9266
  95   2.0000      -0.233923        -6.3654
  96   2.0000      -0.211927        -5.7668
  97   2.0000      -0.205621        -5.5952
  98   2.0000      -0.199335        -5.4242
  99   2.0000      -0.193129        -5.2553
 100   2.0000      -0.187199        -5.0939
 101   0.0000      -0.042335        -1.1520
 102   0.0000      -0.026694        -0.7264
 103   0.0000      -0.003061        -0.0833
 104   0.0000       0.008056         0.2192
 105   0.0000       0.018752         0.5103

MULLIKEN ATOMIC CHARGES
-----------------------
   0 C :   -0.281590
   1 C :   -0.009042
   2 O :   -0.387851
   3 P :    0.613990
   4 S :   -0.322966
   5 O :   -0.360816
   6 C :    0.011280
   7 C :   -0.341617
   8 S :   -0.089008
   9 C :   -0.355801
  10 S :   -0.060461
  11 P :    0.613748
  12 S :   -0.318647
  13 O :   -0.381108
  14 C :    0.000079
  15 C :   -0.312122
  16 O :   -0.381004
  17 C :   -0.005751
  18 C :   -0.343068
  19 H :    0.115215
  20 H :    0.113484
  21 H :    0.120810
  22 H :    0.104177
  23 H :    0.107399
  24 H :    0.107637
  25 H :    0.107515
  26 H :    0.116129
  27 H :    0.106585
  28 H :    0.152938
  29 H :    0.184052
  30 H :    0.195202
  31 H :    0.110508
  32 H :    0.107378
  33 H :    0.109649
  34 H :    0.122920
  35 H :    0.126469
  36 H :    0.104452
  37 H :    0.109484
  38 H :    0.113101
  39 H :    0.152761
  40 H :    0.123890
Sum of atomic charges:    0.0000000

LOEWDIN ATOMIC CHARGES
----------------------
   0 C :   -0.350643
   1 C :   -0.120415
   2 O :   -0.248282
   3 P :    0.571814
   4 S :   -0.318491
   5 O :   -0.235428
   6 C :   -0.105297
   7 C :   -0.376626
   8 S :    0.068913
   9 C :   -0.478801
  10 S :    0.100490
  11 P :    0.567926
  12 S :   -0.307567
  13 O :   -0.252254
  14 C :   -0.108460
  15 C :   -0.367344
  16 O :   -0.244370
  17 C :   -0.122096
  18 C :   -0.371685
  19 H :    0.125844
  20 H :    0.131839
  21 H :    0.129027
  22 H :    0.110006
  23 H :    0.109685
  24 H :    0.113040
  25 H :    0.119430
  26 H :    0.116616
  27 H :    0.129295
  28 H :    0.122334
  29 H :    0.133640
  30 H :    0.132051
  31 H :    0.114064
  32 H :    0.120471
  33 H :    0.128936
  34 H :    0.129437
  35 H :    0.121553
  36 H :    0.117943
  37 H :    0.108279
  38 H :    0.131272
  39 H :    0.125445
  40 H :    0.128408

  Mayer bond orders larger than 0.100000
B(  0-C ,  1-C ) :   1.1598 B(  0-C , 19-H ) :   0.9513 B(  0-C , 20-H ) :   0.9417
B(  0-C , 21-H ) :   0.9506 B(  1-C ,  2-O ) :   0.8987 B(  1-C , 22-H ) :   0.9284
B(  1-C , 23-H ) :   0.9080 B(  2-O ,  3-P ) :   1.0758 B(  3-P ,  4-S ) :   1.6256
B(  3-P ,  5-O ) :   1.1358 B(  3-P ,  8-S ) :   0.9515 B(  4-S ,  8-S ) :   0.1144
B(  5-O ,  6-C ) :   0.8880 B(  6-C ,  7-C ) :   1.1734 B(  6-C , 24-H ) :   0.9304
B(  6-C , 25-H ) :   0.9310 B(  7-C , 26-H ) :   0.9385 B(  7-C , 27-H ) :   0.9342
B(  7-C , 28-H ) :   0.9197 B(  8-S ,  9-C ) :   1.0035 B(  9-C , 10-S ) :   0.9993
B(  9-C , 29-H ) :   0.8963 B(  9-C , 30-H ) :   0.8839 B( 10-S , 11-P ) :   0.9582
B( 10-S , 12-S ) :   0.1193 B( 11-P , 12-S ) :   1.6300 B( 11-P , 13-O ) :   1.0961
B( 11-P , 16-O ) :   1.0839 B( 13-O , 14-C ) :   0.9083 B( 14-C , 15-C ) :   1.1668
B( 14-C , 31-H ) :   0.9297 B( 14-C , 32-H ) :   0.9360 B( 15-C , 33-H ) :   0.9355
B( 15-C , 34-H ) :   0.9452 B( 15-C , 35-H ) :   0.9352 B( 16-O , 17-C ) :   0.9055
B( 17-C , 18-C ) :   1.1628 B( 17-C , 36-H ) :   0.9318 B( 17-C , 37-H ) :   0.9103
B( 18-C , 38-H ) :   0.9383 B( 18-C , 39-H ) :   0.9249 B( 18-C , 40-H ) :   0.9438

Dispersion correction           -0.065136425
FINAL SINGLE POINT ENERGY     -2929.516044343740

DIPOLE MOMENT
-------------

Method             : SCF
Type of density    : Electron Density
Multiplicity       :   1
Irrep              :   0
Energy             : -2929.6356341700011399 Eh
Relativity type    :
Basis              : AO
                                X                 Y                 Z
Electronic contribution:      2.007569163      11.464012584       6.296188560
Nuclear contribution   :     -2.527005009     -11.930238869      -6.810552082
                        -----------------------------------------
Total Dipole Moment    :     -0.519435846      -0.466226285      -0.514363522
                        -----------------------------------------
Magnitude (a.u.)       :      0.867035397
Magnitude (Debye)      :      2.203828839

Rotational constants in cm-1:             0.014128             0.004573             0.004414
Rotational constants in MHz :           423.547662           137.090846           132.337811

                             ****ORCA TERMINATED NORMALLY****
TOTAL RUN TIME: 0 days 0 hours 0 minutes 21 seconds 120 msec
