                         Program Version 6.0.0  -   RELEASE  -
|  1> ! r2scan-3c def2/J RI DEFGRID2 scfconv6 printgap
|  2> %output
|  3>     printlevel normal
|  4> end
|  5> * xyz 0 1
|  6> C 5.2254898648 -2.4787305143 -0.9927875659
|  7> C 4.1369025442 -1.4912004361 -1.3604007354
|  8> O 3.3776839188 -1.2061988559 -0.1658089898
|  9> P 2.398877856 0.0407755746 -0.0969297498
| 10> S 3.1770868269 1.7738565561 -0.5539886449
| 11> O 1.8711406668 -0.0085069859 1.3828851996
| 12> C 1.3511170084 -1.2148123784 1.9966917317
| 13> C 2.3994801048 -1.8433103424 2.8904861842
| 14> S 0.7816319759 -0.5813671426 -1.3529190273
| 15> C 0.0566333942 1.0600123415 -1.5392630097
| 16> S -0.6343444822 1.6965187882 0.0134672272
| 17> P -2.3570825427 0.4801570521 0.0053507655
| 18> S -3.2391193651 0.2401768082 -1.733219519
| 19> O -3.2793925446 1.1133036623 1.1331975783
| 20> C -4.1259762863 2.2549110098 0.8882234318
| 21> C -5.2875069125 2.1943748681 1.859892146
| 22> O -1.8419193079 -0.8329465064 0.7168349723
| 23> C -2.574491039 -2.0822201519 0.6269075049
| 24> C -1.5914065103 -3.2202948465 0.4461407591
| 25> H 4.7847891437 -3.3908342268 -0.6012750897
| 26> H 5.8061598139 -2.7125362572 -1.8789419865
| 27> H 5.8801705016 -2.0494776458 -0.239563937
| 28> H 3.45390919 -1.905433429 -2.1067613063
| 29> H 4.5549595695 -0.5526417374 -1.7382314133
| 30> H 0.479204557 -0.8826223826 2.5642931769
| 31> H 1.036531237 -1.9028874369 1.2078027856
| 32> H 1.9709964414 -2.7051321393 3.3925558915
| 33> H 3.2544862259 -2.1588414593 2.2984641347
| 34> H 2.7337716576 -1.1242435275 3.6332543112
| 35> H -0.7355845731 0.9819898444 -2.2845988107
| 36> H 0.8314198414 1.7624085579 -1.8475032626
| 37> H -3.5261905183 3.1564752936 1.0360058642
| 38> H -4.4713321021 2.2184655394 -0.1506169917
| 39> H -5.9179711121 3.0653979093 1.7145661011
| 40> H -5.8728538196 1.295485176 1.6878497665
| 41> H -4.9161766278 2.1843145983 2.8805168612
| 42> H -3.1455667938 -2.1846394366 1.5513983158
| 43> H -3.2640958994 -2.0217388952 -0.2217752406
| 44> H -0.9864708112 -3.0515352551 -0.4417792161
| 45> H -0.9421353257 -3.300079656 1.3128294013
| 46> H -2.1453931301 -4.1460583583 0.3276549742
| 47> *
| 48>
| 49>                          ****END OF INPUT****

CARTESIAN COORDINATES (ANGSTROEM)
---------------------------------
  C      5.225490   -2.478731   -0.992788
  C      4.136903   -1.491200   -1.360401
  O      3.377684   -1.206199   -0.165809
  P      2.398878    0.040776   -0.096930
  S      3.177087    1.773857   -0.553989
  O      1.871141   -0.008507    1.382885
  C      1.351117   -1.214812    1.996692
  C      2.399480   -1.843310    2.890486
  S      0.781632   -0.581367   -1.352919
  C      0.056633    1.060012   -1.539263
  S     -0.634344    1.696519    0.013467
  P     -2.357083    0.480157    0.005351
  S     -3.239119    0.240177   -1.733220
  O     -3.279393    1.113304    1.133198
  C     -4.125976    2.254911    0.888223
  C     -5.287507    2.194375    1.859892
  O     -1.841919   -0.832947    0.716835
  C     -2.574491   -2.082220    0.626908
  C     -1.591407   -3.220295    0.446141
  H      4.784789   -3.390834   -0.601275
  H      5.806160   -2.712536   -1.878942
  H      5.880171   -2.049478   -0.239564
  H      3.453909   -1.905433   -2.106761
  H      4.554960   -0.552642   -1.738231
  H      0.479205   -0.882622    2.564293
  H      1.036531   -1.902887    1.207803
  H      1.970996   -2.705132    3.392556
  H      3.254486   -2.158841    2.298464
  H      2.733772   -1.124244    3.633254
  H     -0.735585    0.981990   -2.284599
  H      0.831420    1.762409   -1.847503
  H     -3.526191    3.156475    1.036006
  H     -4.471332    2.218466   -0.150617
  H     -5.917971    3.065398    1.714566
  H     -5.872854    1.295485    1.687850
  H     -4.916177    2.184315    2.880517
  H     -3.145567   -2.184639    1.551398
  H     -3.264096   -2.021739   -0.221775
  H     -0.986471   -3.051535   -0.441779
  H     -0.942135   -3.300080    1.312829
  H     -2.145393   -4.146058    0.327655

 Total Charge           Charge          ....    0
 Multiplicity           Mult            ....    1
 Number of Electrons    NEL             ....  202
 Basis Dimension        Dim             ....  539

ORBITAL ENERGIES
----------------

  NO   OCC          E(Eh)            E(eV)
   0   2.0000     -88.575248     -2410.2550
   1   2.0000     -88.572791     -2410.1882
   2   2.0000     -88.520674     -2408.7700
   3   2.0000     -88.518696     -2408.7162
   4   2.0000     -76.914212     -2092.9421
   5   2.0000     -76.913123     -2092.9125
   6   2.0000     -18.996843      -516.9304
   7   2.0000     -18.993753      -516.8463
   8   2.0000     -18.993645      -516.8434
   9   2.0000     -18.991097      -516.7740
  10   2.0000     -10.102509      -274.9033
  11   2.0000     -10.101239      -274.8687
  12   2.0000     -10.101215      -274.8680
  13   2.0000     -10.100893      -274.8593
  14   2.0000     -10.099115      -274.8109
  15   2.0000     -10.037022      -273.1212
  16   2.0000     -10.035912      -273.0911
  17   2.0000     -10.033798      -273.0335
  18   2.0000     -10.031913      -272.9822
  19   2.0000      -7.869338      -214.1356
  20   2.0000      -7.867167      -214.0765
  21   2.0000      -7.815579      -212.6727
  22   2.0000      -7.813469      -212.6153
  23   2.0000      -6.592946      -179.4032
  24   2.0000      -6.591774      -179.3713
  25   2.0000      -5.816257      -158.2684
  26   2.0000      -5.813905      -158.2044
  27   2.0000      -5.813210      -158.1855
  28   2.0000      -5.811030      -158.1262
  29   2.0000      -5.806441      -158.0013
  30   2.0000      -5.804417      -157.9462
  31   2.0000      -5.763089      -156.8216
  32   2.0000      -5.761167      -156.7693
  33   2.0000      -5.755850      -156.6246
  34   2.0000      -5.755688      -156.6202
  35   2.0000      -5.753695      -156.5660
  36   2.0000      -5.753468      -156.5598
  37   2.0000      -4.738429      -128.9392
  38   2.0000      -4.737844      -128.9233
  39   2.0000      -4.737612      -128.9170
  40   2.0000      -4.736774      -128.8942
  41   2.0000      -4.736659      -128.8910
  42   2.0000      -4.735109      -128.8489
  43   2.0000      -1.053896       -28.6780
  44   2.0000      -1.051452       -28.6115
  45   2.0000      -1.012737       -27.5580
  46   2.0000      -1.012180       -27.5428
  47   2.0000      -0.801586       -21.8123
  48   2.0000      -0.762535       -20.7496
  49   2.0000      -0.754068       -20.5192
  50   2.0000      -0.738817       -20.1042
  51   2.0000      -0.736019       -20.0281
  52   2.0000      -0.709650       -19.3106
  53   2.0000      -0.682827       -18.5807
  54   2.0000      -0.667843       -18.1729
  55   2.0000      -0.628254       -17.0956
  56   2.0000      -0.620978       -16.8977
  57   2.0000      -0.606295       -16.4981
  58   2.0000      -0.603810       -16.4305
  59   2.0000      -0.592813       -16.1313
  60   2.0000      -0.539868       -14.6905
  61   2.0000      -0.529959       -14.4209
  62   2.0000      -0.503746       -13.7076
  63   2.0000      -0.500777       -13.6268
  64   2.0000      -0.474612       -12.9148
  65   2.0000      -0.465205       -12.6589
  66   2.0000      -0.461771       -12.5654
  67   2.0000      -0.455064       -12.3829
  68   2.0000      -0.452930       -12.3248
  69   2.0000      -0.433155       -11.7868
  70   2.0000      -0.420609       -11.4454
  71   2.0000      -0.413094       -11.2409
  72   2.0000      -0.408445       -11.1144
  73   2.0000      -0.399271       -10.8647
  74   2.0000      -0.397154       -10.8071
  75   2.0000      -0.393289       -10.7019
  76   2.0000      -0.382112       -10.3978
  77   2.0000      -0.375945       -10.2300
  78   2.0000      -0.374370       -10.1871
  79   2.0000      -0.371014       -10.0958
  80   2.0000      -0.367568       -10.0020
  81   2.0000      -0.363077        -9.8798
  82   2.0000      -0.360104        -9.7989
  83   2.0000      -0.358475        -9.7546
  84   2.0000      -0.350226        -9.5301
  85   2.0000      -0.334280        -9.0962
  86   2.0000      -0.327605        -8.9146
  87   2.0000      -0.319340        -8.6897
  88   2.0000      -0.315950        -8.5974
  89   2.0000      -0.309169        -8.4129
  90   2.0000      -0.307079        -8.3560
  91   2.0000      -0.296415        -8.0659
  92   2.0000      -0.287410        -7.8208
  93   2.0000      -0.279360        -7.6018
  94   2.0000      -0.272033        -7.4024
  95   2.0000      -0.247555        -6.7363
  96   2.0000      -0.232711        -6.3324
  97   2.0000      -0.225271        -6.1299
  98   2.0000      -0.216932        -5.9030
  99   2.0000      -0.214092        -5.8258
 100   2.0000      -0.212084        -5.7711
 101   0.0000      -0.045681        -1.2431
 102   0.0000      -0.023532        -0.6403
 103   0.0000      -0.000953        -0.0259
 104   0.0000       0.002106         0.0573
 105   0.0000       0.014532         0.3954

MULLIKEN ATOMIC CHARGES
-----------------------
   0 C :   -0.442154
   1 C :   -0.152881
   2 O :   -0.284782
   3 P :    0.662578
   4 S :   -0.446200
   5 O :   -0.260270
   6 C :   -0.104427
   7 C :   -0.478218
   8 S :   -0.183868
   9 C :   -0.235902
  10 S :   -0.116774
  11 P :    0.695964
  12 S :   -0.502901
  13 O :   -0.298107
  14 C :   -0.142839
  15 C :   -0.444986
  16 O :   -0.255826
  17 C :   -0.119048
  18 C :   -0.479583
  19 H :    0.150715
  20 H :    0.148425
  21 H :    0.160099
  22 H :    0.153074
  23 H :    0.171543
  24 H :    0.170549
  25 H :    0.159072
  26 H :    0.144531
  27 H :    0.165944
  28 H :    0.160017
  29 H :    0.213539
  30 H :    0.218537
  31 H :    0.151405
  32 H :    0.170489
  33 H :    0.147528
  34 H :    0.156168
  35 H :    0.153934
  36 H :    0.150756
  37 H :    0.171717
  38 H :    0.175616
  39 H :    0.148207
  40 H :    0.148363
Sum of atomic charges:   -0.0000000

LOEWDIN ATOMIC CHARGES
----------------------
   0 C :   -0.386226
   1 C :    0.020236
   2 O :   -0.675640
   3 P :    0.375426
   4 S :   -0.103385
   5 O :   -0.646773
   6 C :    0.018727
   7 C :   -0.392030
   8 S :    0.130060
   9 C :   -0.423751
  10 S :    0.186110
  11 P :    0.369952
  12 S :   -0.148672
  13 O :   -0.662164
  14 C :    0.021995
  15 C :   -0.386307
  16 O :   -0.666890
  17 C :    0.023213
  18 C :   -0.396234
  19 H :    0.158314
  20 H :    0.161091
  21 H :    0.162169
  22 H :    0.172699
  23 H :    0.181828
  24 H :    0.185371
  25 H :    0.177589
  26 H :    0.158054
  27 H :    0.165429
  28 H :    0.162922
  29 H :    0.192821
  30 H :    0.192603
  31 H :    0.172273
  32 H :    0.181464
  33 H :    0.160360
  34 H :    0.160288
  35 H :    0.159720
  36 H :    0.172329
  37 H :    0.183855
  38 H :    0.166402
  39 H :    0.154632
  40 H :    0.160140

  Mayer bond orders larger than 0.100000
B(  0-C ,  1-C ) :   0.9546 B(  0-C , 19-H ) :   0.9719 B(  0-C , 20-H ) :   0.9632
B(  0-C , 21-H ) :   0.9712 B(  1-C ,  2-O ) :   0.7865 B(  1-C , 22-H ) :   0.9417
B(  1-C , 23-H ) :   0.9502 B(  2-O ,  3-P ) :   1.0496 B(  3-P ,  4-S ) :   1.8395
B(  3-P ,  5-O ) :   1.1597 B(  3-P ,  8-S ) :   0.9796 B(  5-O ,  6-C ) :   0.7324
B(  6-C ,  7-C ) :   0.9324 B(  6-C , 24-H ) :   0.9551 B(  6-C , 25-H ) :   0.9645
B(  7-C , 26-H ) :   0.9660 B(  7-C , 27-H ) :   0.9691 B(  7-C , 28-H ) :   0.9729
B(  8-S ,  9-C ) :   0.9193 B(  9-C , 10-S ) :   0.9190 B(  9-C , 29-H ) :   0.9020
B(  9-C , 30-H ) :   0.9054 B( 10-S , 11-P ) :   1.0943 B( 11-P , 12-S ) :   1.7265
B( 11-P , 13-O ) :   1.0885 B( 11-P , 16-O ) :   1.1633 B( 13-O , 14-C ) :   0.7736
B( 14-C , 15-C ) :   0.9579 B( 14-C , 31-H ) :   0.9458 B( 14-C , 32-H ) :   0.9523
B( 15-C , 33-H ) :   0.9646 B( 15-C , 34-H ) :   0.9720 B( 15-C , 35-H ) :   0.9717
B( 16-O , 17-C ) :   0.7627 B( 17-C , 18-C ) :   0.9485 B( 17-C , 36-H ) :   0.9495
B( 17-C , 37-H ) :   0.9540 B( 18-C , 38-H ) :   0.9699 B( 18-C , 39-H ) :   0.9726
B( 18-C , 40-H ) :   0.9627

Dispersion correction           -0.020771535
FINAL SINGLE POINT ENERGY     -2932.465140423687

DIPOLE MOMENT
-------------

Method             : SCF
Type of density    : Electron Density
Multiplicity       :   1
Irrep              :   0
Energy             : -2932.4907627291063363 Eh
Relativity type    :
Basis              : AO
                                X                 Y                 Z
Electronic contribution:      0.746280438      17.254560296     -10.752291196
Nuclear contribution   :     -1.104974625     -18.793078924      11.580494037
                        -----------------------------------------
Total Dipole Moment    :     -0.358694186      -1.538518628       0.828202840
                        -----------------------------------------
Magnitude (a.u.)       :      1.783709907
Magnitude (Debye)      :      4.533830275

Rotational constants in cm-1:             0.013079             0.004486             0.004220
Rotational constants in MHz :           392.086742           134.491734           126.511101

                             ****ORCA TERMINATED NORMALLY****
TOTAL RUN TIME: 0 days 0 hours 1 minutes 21 seconds 645 msec
