                         Program Version 6.0.0  -   RELEASE  -
|  1> ! r2scan-3c def2/J RI DEFGRID2 scfconv6 printgap
|  2> %output
|  3>     printlevel normal
|  4> end
|  5> %cpcm
|  6>     smd true
|  7>     smdsolvent "water"
|  8> end
|  9> * xyz 0 1
| 10> C 5.2254898648 -2.4787305143 -0.9927875659
| 11> C 4.1369025442 -1.4912004361 -1.3604007354
| 12> O 3.3776839188 -1.2061988559 -0.1658089898
| 13> P 2.398877856 0.0407755746 -0.0969297498
| 14> S 3.1770868269 1.7738565561 -0.5539886449
| 15> O 1.8711406668 -0.0085069859 1.3828851996
| 16> C 1.3511170084 -1.2148123784 1.9966917317
| 17> C 2.3994801048 -1.8433103424 2.8904861842
| 18> S 0.7816319759 -0.5813671426 -1.3529190273
| 19> C 0.0566333942 1.0600123415 -1.5392630097
| 20> S -0.6343444822 1.6965187882 0.0134672272
| 21> P -2.3570825427 0.4801570521 0.0053507655
| 22> S -3.2391193651 0.2401768082 -1.733219519
| 23> O -3.2793925446 1.1133036623 1.1331975783
| 24> C -4.1259762863 2.2549110098 0.8882234318
| 25> C -5.2875069125 2.1943748681 1.859892146
| 26> O -1.8419193079 -0.8329465064 0.7168349723
| 27> C -2.574491039 -2.0822201519 0.6269075049
| 28> C -1.5914065103 -3.2202948465 0.4461407591
| 29> H 4.7847891437 -3.3908342268 -0.6012750897
| 30> H 5.8061598139 -2.7125362572 -1.8789419865
| 31> H 5.8801705016 -2.0494776458 -0.239563937
| 32> H 3.45390919 -1.905433429 -2.1067613063
| 33> H 4.5549595695 -0.5526417374 -1.7382314133
| 34> H 0.479204557 -0.8826223826 2.5642931769
| 35> H 1.036531237 -1.9028874369 1.2078027856
| 36> H 1.9709964414 -2.7051321393 3.3925558915
| 37> H 3.2544862259 -2.1588414593 2.2984641347
| 38> H 2.7337716576 -1.1242435275 3.6332543112
| 39> H -0.7355845731 0.9819898444 -2.2845988107
| 40> H 0.8314198414 1.7624085579 -1.8475032626
| 41> H -3.5261905183 3.1564752936 1.0360058642
| 42> H -4.4713321021 2.2184655394 -0.1506169917
| 43> H -5.9179711121 3.0653979093 1.7145661011
| 44> H -5.8728538196 1.295485176 1.6878497665
| 45> H -4.9161766278 2.1843145983 2.8805168612
| 46> H -3.1455667938 -2.1846394366 1.5513983158
| 47> H -3.2640958994 -2.0217388952 -0.2217752406
| 48> H -0.9864708112 -3.0515352551 -0.4417792161
| 49> H -0.9421353257 -3.300079656 1.3128294013
| 50> H -2.1453931301 -4.1460583583 0.3276549742
| 51> *
| 52>
| 53>                          ****END OF INPUT****

CARTESIAN COORDINATES (ANGSTROEM)
---------------------------------
  C      5.225490   -2.478731   -0.992788
  C      4.136903   -1.491200   -1.360401
  O      3.377684   -1.206199   -0.165809
  P      2.398878    0.040776   -0.096930
  S      3.177087    1.773857   -0.553989
  O      1.871141   -0.008507    1.382885
  C      1.351117   -1.214812    1.996692
  C      2.399480   -1.843310    2.890486
  S      0.781632   -0.581367   -1.352919
  C      0.056633    1.060012   -1.539263
  S     -0.634344    1.696519    0.013467
  P     -2.357083    0.480157    0.005351
  S     -3.239119    0.240177   -1.733220
  O     -3.279393    1.113304    1.133198
  C     -4.125976    2.254911    0.888223
  C     -5.287507    2.194375    1.859892
  O     -1.841919   -0.832947    0.716835
  C     -2.574491   -2.082220    0.626908
  C     -1.591407   -3.220295    0.446141
  H      4.784789   -3.390834   -0.601275
  H      5.806160   -2.712536   -1.878942
  H      5.880171   -2.049478   -0.239564
  H      3.453909   -1.905433   -2.106761
  H      4.554960   -0.552642   -1.738231
  H      0.479205   -0.882622    2.564293
  H      1.036531   -1.902887    1.207803
  H      1.970996   -2.705132    3.392556
  H      3.254486   -2.158841    2.298464
  H      2.733772   -1.124244    3.633254
  H     -0.735585    0.981990   -2.284599
  H      0.831420    1.762409   -1.847503
  H     -3.526191    3.156475    1.036006
  H     -4.471332    2.218466   -0.150617
  H     -5.917971    3.065398    1.714566
  H     -5.872854    1.295485    1.687850
  H     -4.916177    2.184315    2.880517
  H     -3.145567   -2.184639    1.551398
  H     -3.264096   -2.021739   -0.221775
  H     -0.986471   -3.051535   -0.441779
  H     -0.942135   -3.300080    1.312829
  H     -2.145393   -4.146058    0.327655

 Total Charge           Charge          ....    0
 Multiplicity           Mult            ....    1
 Number of Electrons    NEL             ....  202
 Basis Dimension        Dim             ....  539

ORBITAL ENERGIES
----------------

  NO   OCC          E(Eh)            E(eV)
   0   2.0000     -88.581822     -2410.4339
   1   2.0000     -88.577534     -2410.3172
   2   2.0000     -88.530872     -2409.0475
   3   2.0000     -88.528282     -2408.9770
   4   2.0000     -76.920611     -2093.1162
   5   2.0000     -76.919572     -2093.0880
   6   2.0000     -18.997725      -516.9544
   7   2.0000     -18.996538      -516.9221
   8   2.0000     -18.996108      -516.9104
   9   2.0000     -18.994409      -516.8641
  10   2.0000     -10.103973      -274.9431
  11   2.0000     -10.092402      -274.6282
  12   2.0000     -10.091864      -274.6136
  13   2.0000     -10.089965      -274.5619
  14   2.0000     -10.089321      -274.5444
  15   2.0000     -10.020297      -272.6661
  16   2.0000     -10.019548      -272.6458
  17   2.0000     -10.018987      -272.6305
  18   2.0000     -10.018381      -272.6140
  19   2.0000      -7.876028      -214.3176
  20   2.0000      -7.871858      -214.2041
  21   2.0000      -7.826018      -212.9568
  22   2.0000      -7.823463      -212.8872
  23   2.0000      -6.599289      -179.5758
  24   2.0000      -6.598301      -179.5489
  25   2.0000      -5.822890      -158.4489
  26   2.0000      -5.819870      -158.3667
  27   2.0000      -5.818611      -158.3325
  28   2.0000      -5.815744      -158.2544
  29   2.0000      -5.813217      -158.1857
  30   2.0000      -5.809074      -158.0729
  31   2.0000      -5.773585      -157.1072
  32   2.0000      -5.770922      -157.0348
  33   2.0000      -5.766216      -156.9067
  34   2.0000      -5.766103      -156.9036
  35   2.0000      -5.763734      -156.8392
  36   2.0000      -5.763572      -156.8348
  37   2.0000      -4.745054      -129.1195
  38   2.0000      -4.744250      -129.0976
  39   2.0000      -4.743708      -129.0829
  40   2.0000      -4.743204      -129.0691
  41   2.0000      -4.742780      -129.0576
  42   2.0000      -4.742126      -129.0398
  43   2.0000      -1.056693       -28.7541
  44   2.0000      -1.052752       -28.6468
  45   2.0000      -1.015026       -27.6203
  46   2.0000      -1.012655       -27.5558
  47   2.0000      -0.805913       -21.9300
  48   2.0000      -0.758506       -20.6400
  49   2.0000      -0.747079       -20.3290
  50   2.0000      -0.728247       -19.8166
  51   2.0000      -0.724195       -19.7063
  52   2.0000      -0.709537       -19.3075
  53   2.0000      -0.687607       -18.7107
  54   2.0000      -0.675167       -18.3722
  55   2.0000      -0.624260       -16.9870
  56   2.0000      -0.615812       -16.7571
  57   2.0000      -0.599209       -16.3053
  58   2.0000      -0.595306       -16.1991
  59   2.0000      -0.589714       -16.0469
  60   2.0000      -0.536151       -14.5894
  61   2.0000      -0.526368       -14.3232
  62   2.0000      -0.500214       -13.6115
  63   2.0000      -0.496798       -13.5185
  64   2.0000      -0.476462       -12.9652
  65   2.0000      -0.460348       -12.5267
  66   2.0000      -0.455831       -12.4038
  67   2.0000      -0.448191       -12.1959
  68   2.0000      -0.445249       -12.1158
  69   2.0000      -0.432306       -11.7637
  70   2.0000      -0.419403       -11.4125
  71   2.0000      -0.409251       -11.1363
  72   2.0000      -0.405163       -11.0251
  73   2.0000      -0.395593       -10.7646
  74   2.0000      -0.392051       -10.6682
  75   2.0000      -0.388356       -10.5677
  76   2.0000      -0.379958       -10.3392
  77   2.0000      -0.366028        -9.9601
  78   2.0000      -0.363157        -9.8820
  79   2.0000      -0.362345        -9.8599
  80   2.0000      -0.357499        -9.7280
  81   2.0000      -0.354197        -9.6382
  82   2.0000      -0.349902        -9.5213
  83   2.0000      -0.347337        -9.4515
  84   2.0000      -0.344734        -9.3807
  85   2.0000      -0.329749        -8.9729
  86   2.0000      -0.323007        -8.7895
  87   2.0000      -0.315782        -8.5929
  88   2.0000      -0.312255        -8.4969
  89   2.0000      -0.305639        -8.3169
  90   2.0000      -0.304149        -8.2763
  91   2.0000      -0.293626        -7.9900
  92   2.0000      -0.284651        -7.7457
  93   2.0000      -0.279232        -7.5983
  94   2.0000      -0.274072        -7.4579
  95   2.0000      -0.253422        -6.8960
  96   2.0000      -0.241353        -6.5675
  97   2.0000      -0.235719        -6.4142
  98   2.0000      -0.226988        -6.1767
  99   2.0000      -0.224397        -6.1062
 100   2.0000      -0.221295        -6.0217
 101   0.0000      -0.052507        -1.4288
 102   0.0000      -0.031339        -0.8528
 103   0.0000      -0.006015        -0.1637
 104   0.0000      -0.003725        -0.1014
 105   0.0000       0.013214         0.3596

MULLIKEN ATOMIC CHARGES
-----------------------
   0 C :   -0.482070
   1 C :   -0.139717
   2 O :   -0.300208
   3 P :    0.674029
   4 S :   -0.502866
   5 O :   -0.290877
   6 C :   -0.093966
   7 C :   -0.523593
   8 S :   -0.177834
   9 C :   -0.243383
  10 S :   -0.142987
  11 P :    0.722678
  12 S :   -0.545232
  13 O :   -0.321274
  14 C :   -0.137152
  15 C :   -0.484429
  16 O :   -0.278233
  17 C :   -0.113953
  18 C :   -0.507646
  19 H :    0.166602
  20 H :    0.169970
  21 H :    0.167296
  22 H :    0.170729
  23 H :    0.172918
  24 H :    0.184164
  25 H :    0.178282
  26 H :    0.172120
  27 H :    0.170215
  28 H :    0.169029
  29 H :    0.231270
  30 H :    0.234422
  31 H :    0.172119
  32 H :    0.170858
  33 H :    0.169536
  34 H :    0.166294
  35 H :    0.165979
  36 H :    0.174684
  37 H :    0.169927
  38 H :    0.171373
  39 H :    0.171273
  40 H :    0.169654
Sum of atomic charges:   -0.0000000

LOEWDIN ATOMIC CHARGES
----------------------
   0 C :   -0.388811
   1 C :    0.025806
   2 O :   -0.679336
   3 P :    0.377097
   4 S :   -0.147917
   5 O :   -0.669832
   6 C :    0.024970
   7 C :   -0.393417
   8 S :    0.138528
   9 C :   -0.420203
  10 S :    0.168654
  11 P :    0.374320
  12 S :   -0.176449
  13 O :   -0.673141
  14 C :    0.026114
  15 C :   -0.389909
  16 O :   -0.676155
  17 C :    0.029590
  18 C :   -0.397721
  19 H :    0.163483
  20 H :    0.169464
  21 H :    0.163571
  22 H :    0.180215
  23 H :    0.182073
  24 H :    0.191111
  25 H :    0.185319
  26 H :    0.169463
  27 H :    0.165444
  28 H :    0.164525
  29 H :    0.197827
  30 H :    0.196894
  31 H :    0.180405
  32 H :    0.181901
  33 H :    0.168908
  34 H :    0.162520
  35 H :    0.163195
  36 H :    0.182775
  37 H :    0.183487
  38 H :    0.164131
  39 H :    0.163025
  40 H :    0.168075

  Mayer bond orders larger than 0.100000
B(  0-C ,  1-C ) :   0.9544 B(  0-C , 19-H ) :   0.9681 B(  0-C , 20-H ) :   0.9576
B(  0-C , 21-H ) :   0.9690 B(  1-C ,  2-O ) :   0.7769 B(  1-C , 22-H ) :   0.9323
B(  1-C , 23-H ) :   0.9474 B(  2-O ,  3-P ) :   1.0645 B(  3-P ,  4-S ) :   1.8128
B(  3-P ,  5-O ) :   1.1658 B(  3-P ,  8-S ) :   0.9934 B(  5-O ,  6-C ) :   0.7173
B(  6-C ,  7-C ) :   0.9316 B(  6-C , 24-H ) :   0.9458 B(  6-C , 25-H ) :   0.9522
B(  7-C , 26-H ) :   0.9586 B(  7-C , 27-H ) :   0.9681 B(  7-C , 28-H ) :   0.9719
B(  8-S ,  9-C ) :   0.9099 B(  9-C , 10-S ) :   0.9061 B(  9-C , 29-H ) :   0.8992
B(  9-C , 30-H ) :   0.9010 B( 10-S , 11-P ) :   1.1003 B( 11-P , 12-S ) :   1.6957
B( 11-P , 13-O ) :   1.0967 B( 11-P , 16-O ) :   1.1763 B( 13-O , 14-C ) :   0.7651
B( 14-C , 15-C ) :   0.9542 B( 14-C , 31-H ) :   0.9374 B( 14-C , 32-H ) :   0.9495
B( 15-C , 33-H ) :   0.9589 B( 15-C , 34-H ) :   0.9692 B( 15-C , 35-H ) :   0.9688
B( 16-O , 17-C ) :   0.7517 B( 17-C , 18-C ) :   0.9479 B( 17-C , 36-H ) :   0.9394
B( 17-C , 37-H ) :   0.9528 B( 18-C , 38-H ) :   0.9684 B( 18-C , 39-H ) :   0.9665
B( 18-C , 40-H ) :   0.9579

Dispersion correction           -0.020771535
FINAL SINGLE POINT ENERGY     -2932.475276685210

DIPOLE MOMENT
-------------

Method             : SCF
Type of density    : Electron Density
Multiplicity       :   1
Irrep              :   0
Energy             : -2932.5008989906291390 Eh
Relativity type    :
Basis              : AO
                                X                 Y                 Z
Electronic contribution:      0.514481144      16.581083820     -10.649570117
Nuclear contribution   :     -1.104974625     -18.793078924      11.580494037
                        -----------------------------------------
Total Dipole Moment    :     -0.590493481      -2.211995104       0.930923920
                        -----------------------------------------
Magnitude (a.u.)       :      2.471482194
Magnitude (Debye)      :      6.282008498

Rotational constants in cm-1:             0.013079             0.004486             0.004220
Rotational constants in MHz :           392.086742           134.491734           126.511101

                             ****ORCA TERMINATED NORMALLY****
TOTAL RUN TIME: 0 days 0 hours 1 minutes 54 seconds 12 msec
