                         Program Version 6.0.0  -   RELEASE  -
|  1> ! pbe def2-sv(p) def2/J RI DEFGRID1 loosescf d4 GCP(DFT/SV(P)) printgap
|  2> %output
|  3>     printlevel normal
|  4> end
|  5> * xyz 0 1
|  6> C 4.6095368092 -0.0344907075 -1.7803655691
|  7> C 4.4032884622 1.049189215 -0.7425103417
|  8> O 3.478287074 0.6546257679 0.2860301146
|  9> P 1.9394835275 0.3860297948 0.0001580038
| 10> S 1.0701671894 1.6125462079 -1.2600362419
| 11> O 1.3104790303 0.5022196743 1.4439439507
| 12> C 1.9541173538 0.1284516697 2.6904370779
| 13> C 2.1313741361 -1.3691951187 2.8283624162
| 14> S 1.8716741447 -1.6668133003 -0.5607802033
| 15> C 0.1237691219 -1.7530852608 -0.9934353012
| 16> S -0.9754357432 -1.503099005 0.4360135135
| 17> P -2.1746847061 0.1029275717 -0.2770922454
| 18> S -2.1977767801 0.3692194917 -2.2145998537
| 19> O -1.7484202903 1.4205807219 0.4749114333
| 20> C -1.7686953241 1.5395217614 1.920056801
| 21> C -1.0401590196 2.8152438681 2.285821699
| 22> O -3.5667019838 -0.1878530714 0.4415787508
| 23> C -4.2855828824 -1.4355385801 0.4171825989
| 24> C -4.5694756408 -1.9284863531 -0.9860285099
| 25> H 4.8624528024 -0.9769609981 -1.301396597
| 26> H 3.6998841763 -0.1689278216 -2.3638190398
| 27> H 5.412982893 0.258791554 -2.4484230756
| 28> H 4.0269857889 1.9634736486 -1.2115722885
| 29> H 5.3221436818 1.2624397571 -0.1942300521
| 30> H 2.9127877404 0.6460639377 2.7482514964
| 31> H 1.2722719198 0.5218532364 3.4464374472
| 32> H 2.4659155525 -1.5899829326 3.8371941865
| 33> H 1.1893938716 -1.8814117652 2.6441622978
| 34> H 2.8731604344 -1.7337672989 2.1218068041
| 35> H -0.0410178019 -2.7569615359 -1.3766390383
| 36> H -0.1203172388 -0.9983860963 -1.7474697557
| 37> H -2.8120578425 1.5635994638 2.240372915
| 38> H -1.2768101522 0.6585360511 2.3432460777
| 39> H -0.0181564132 2.7758980203 1.9169786557
| 40> H -1.5361080745 3.6690794233 1.8328400177
| 41> H -1.0344028967 2.9290313516 3.3650317582
| 42> H -3.7045337958 -2.1734748439 0.9771990134
| 43> H -5.2087513198 -1.205889506 0.9523501163
| 44> H -3.6388152547 -2.1637570027 -1.4999954824
| 45> H -5.1839597073 -2.8214684443 -0.9354960104
| 46> H -5.088614403 -1.1640837104 -1.559327963
| 47> *
| 48>
| 49>                          ****END OF INPUT****

CARTESIAN COORDINATES (ANGSTROEM)
---------------------------------
  C      4.609537   -0.034491   -1.780366
  C      4.403288    1.049189   -0.742510
  O      3.478287    0.654626    0.286030
  P      1.939484    0.386030    0.000158
  S      1.070167    1.612546   -1.260036
  O      1.310479    0.502220    1.443944
  C      1.954117    0.128452    2.690437
  C      2.131374   -1.369195    2.828362
  S      1.871674   -1.666813   -0.560780
  C      0.123769   -1.753085   -0.993435
  S     -0.975436   -1.503099    0.436014
  P     -2.174685    0.102928   -0.277092
  S     -2.197777    0.369219   -2.214600
  O     -1.748420    1.420581    0.474911
  C     -1.768695    1.539522    1.920057
  C     -1.040159    2.815244    2.285822
  O     -3.566702   -0.187853    0.441579
  C     -4.285583   -1.435539    0.417183
  C     -4.569476   -1.928486   -0.986029
  H      4.862453   -0.976961   -1.301397
  H      3.699884   -0.168928   -2.363819
  H      5.412983    0.258792   -2.448423
  H      4.026986    1.963474   -1.211572
  H      5.322144    1.262440   -0.194230
  H      2.912788    0.646064    2.748251
  H      1.272272    0.521853    3.446437
  H      2.465916   -1.589983    3.837194
  H      1.189394   -1.881412    2.644162
  H      2.873160   -1.733767    2.121807
  H     -0.041018   -2.756962   -1.376639
  H     -0.120317   -0.998386   -1.747470
  H     -2.812058    1.563599    2.240373
  H     -1.276810    0.658536    2.343246
  H     -0.018156    2.775898    1.916979
  H     -1.536108    3.669079    1.832840
  H     -1.034403    2.929031    3.365032
  H     -3.704534   -2.173475    0.977199
  H     -5.208751   -1.205890    0.952350
  H     -3.638815   -2.163757   -1.499995
  H     -5.183960   -2.821468   -0.935496
  H     -5.088614   -1.164084   -1.559328

 Total Charge           Charge          ....    0
 Multiplicity           Mult            ....    1
 Number of Electrons    NEL             ....  202
 Basis Dimension        Dim             ....  334

ORBITAL ENERGIES
----------------

  NO   OCC          E(Eh)            E(eV)
   0   2.0000     -88.042465     -2395.7573
   1   2.0000     -88.041233     -2395.7237
   2   2.0000     -87.978577     -2394.0188
   3   2.0000     -87.975044     -2393.9227
   4   2.0000     -76.424910     -2079.6275
   5   2.0000     -76.418993     -2079.4665
   6   2.0000     -18.796976      -511.4917
   7   2.0000     -18.791160      -511.3335
   8   2.0000     -18.787689      -511.2390
   9   2.0000     -18.779777      -511.0237
  10   2.0000      -9.959261      -271.0053
  11   2.0000      -9.955879      -270.9132
  12   2.0000      -9.953237      -270.8414
  13   2.0000      -9.952648      -270.8253
  14   2.0000      -9.946151      -270.6485
  15   2.0000      -9.888292      -269.0741
  16   2.0000      -9.885680      -269.0030
  17   2.0000      -9.879198      -268.8266
  18   2.0000      -9.877281      -268.7745
  19   2.0000      -7.687418      -209.1853
  20   2.0000      -7.685765      -209.1403
  21   2.0000      -7.623444      -207.4445
  22   2.0000      -7.620311      -207.3592
  23   2.0000      -6.422081      -174.7537
  24   2.0000      -6.416107      -174.5911
  25   2.0000      -5.715308      -155.5214
  26   2.0000      -5.713511      -155.4725
  27   2.0000      -5.711860      -155.4276
  28   2.0000      -5.710144      -155.3809
  29   2.0000      -5.704451      -155.2260
  30   2.0000      -5.703055      -155.1880
  31   2.0000      -5.652460      -153.8113
  32   2.0000      -5.649478      -153.7301
  33   2.0000      -5.644173      -153.5858
  34   2.0000      -5.643447      -153.5660
  35   2.0000      -5.640876      -153.4960
  36   2.0000      -5.640220      -153.4782
  37   2.0000      -4.645223      -126.4029
  38   2.0000      -4.643670      -126.3607
  39   2.0000      -4.642177      -126.3201
  40   2.0000      -4.638814      -126.2286
  41   2.0000      -4.638122      -126.2097
  42   2.0000      -4.636288      -126.1598
  43   2.0000      -0.990046       -26.9405
  44   2.0000      -0.980517       -26.6812
  45   2.0000      -0.946015       -25.7424
  46   2.0000      -0.934638       -25.4328
  47   2.0000      -0.761114       -20.7110
  48   2.0000      -0.718581       -19.5536
  49   2.0000      -0.709362       -19.3027
  50   2.0000      -0.692770       -18.8512
  51   2.0000      -0.684048       -18.6139
  52   2.0000      -0.676651       -18.4126
  53   2.0000      -0.647191       -17.6110
  54   2.0000      -0.630084       -17.1455
  55   2.0000      -0.596151       -16.2221
  56   2.0000      -0.582922       -15.8621
  57   2.0000      -0.581631       -15.8270
  58   2.0000      -0.563809       -15.3420
  59   2.0000      -0.560622       -15.2553
  60   2.0000      -0.501740       -13.6530
  61   2.0000      -0.497691       -13.5429
  62   2.0000      -0.472578       -12.8595
  63   2.0000      -0.468564       -12.7503
  64   2.0000      -0.453220       -12.3328
  65   2.0000      -0.449717       -12.2374
  66   2.0000      -0.444646       -12.0994
  67   2.0000      -0.430805       -11.7228
  68   2.0000      -0.426289       -11.5999
  69   2.0000      -0.418497       -11.3879
  70   2.0000      -0.410438       -11.1686
  71   2.0000      -0.406234       -11.0542
  72   2.0000      -0.399603       -10.8738
  73   2.0000      -0.379246       -10.3198
  74   2.0000      -0.378419       -10.2973
  75   2.0000      -0.367399        -9.9974
  76   2.0000      -0.358252        -9.7485
  77   2.0000      -0.354180        -9.6377
  78   2.0000      -0.350269        -9.5313
  79   2.0000      -0.346876        -9.4390
  80   2.0000      -0.345116        -9.3911
  81   2.0000      -0.343523        -9.3477
  82   2.0000      -0.339309        -9.2331
  83   2.0000      -0.334579        -9.1044
  84   2.0000      -0.329873        -8.9763
  85   2.0000      -0.318676        -8.6716
  86   2.0000      -0.313402        -8.5281
  87   2.0000      -0.300390        -8.1740
  88   2.0000      -0.294938        -8.0257
  89   2.0000      -0.291527        -7.9328
  90   2.0000      -0.287085        -7.8120
  91   2.0000      -0.273227        -7.4349
  92   2.0000      -0.265996        -7.2381
  93   2.0000      -0.261871        -7.1259
  94   2.0000      -0.254717        -6.9312
  95   2.0000      -0.232670        -6.3313
  96   2.0000      -0.219172        -5.9640
  97   2.0000      -0.209150        -5.6913
  98   2.0000      -0.196851        -5.3566
  99   2.0000      -0.186942        -5.0869
 100   2.0000      -0.179239        -4.8773
 101   0.0000      -0.041196        -1.1210
 102   0.0000      -0.030715        -0.8358
 103   0.0000      -0.008076        -0.2197
 104   0.0000       0.008948         0.2435
 105   0.0000       0.021673         0.5897

MULLIKEN ATOMIC CHARGES
-----------------------
   0 C :   -0.323987
   1 C :    0.001971
   2 O :   -0.387339
   3 P :    0.600666
   4 S :   -0.276798
   5 O :   -0.359845
   6 C :   -0.001206
   7 C :   -0.314592
   8 S :   -0.109205
   9 C :   -0.344767
  10 S :   -0.135643
  11 P :    0.608914
  12 S :   -0.285591
  13 O :   -0.345636
  14 C :   -0.012974
  15 C :   -0.286007
  16 O :   -0.388037
  17 C :   -0.004728
  18 C :   -0.304837
  19 H :    0.116549
  20 H :    0.135018
  21 H :    0.116021
  22 H :    0.113922
  23 H :    0.103524
  24 H :    0.111979
  25 H :    0.106575
  26 H :    0.110786
  27 H :    0.126413
  28 H :    0.123637
  29 H :    0.179808
  30 H :    0.208951
  31 H :    0.103324
  32 H :    0.098245
  33 H :    0.132919
  34 H :    0.119211
  35 H :    0.098723
  36 H :    0.106213
  37 H :    0.104716
  38 H :    0.119520
  39 H :    0.107351
  40 H :    0.126237
Sum of atomic charges:    0.0000000

LOEWDIN ATOMIC CHARGES
----------------------
   0 C :   -0.372349
   1 C :   -0.116226
   2 O :   -0.249155
   3 P :    0.561644
   4 S :   -0.286364
   5 O :   -0.235664
   6 C :   -0.108677
   7 C :   -0.370196
   8 S :    0.079421
   9 C :   -0.481450
  10 S :    0.057668
  11 P :    0.568102
  12 S :   -0.289018
  13 O :   -0.226600
  14 C :   -0.115223
  15 C :   -0.353627
  16 O :   -0.249262
  17 C :   -0.116826
  18 C :   -0.368837
  19 H :    0.122490
  20 H :    0.124318
  21 H :    0.132822
  22 H :    0.114199
  23 H :    0.117883
  24 H :    0.114855
  25 H :    0.117222
  26 H :    0.129686
  27 H :    0.123403
  28 H :    0.118414
  29 H :    0.136079
  30 H :    0.125563
  31 H :    0.110682
  32 H :    0.100913
  33 H :    0.129284
  34 H :    0.129667
  35 H :    0.124045
  36 H :    0.104598
  37 H :    0.118932
  38 H :    0.119328
  39 H :    0.127938
  40 H :    0.130317

  Mayer bond orders larger than 0.100000
B(  0-C ,  1-C ) :   1.1670 B(  0-C , 19-H ) :   0.9436 B(  0-C , 20-H ) :   0.9327
B(  0-C , 21-H ) :   0.9367 B(  1-C ,  2-O ) :   0.9034 B(  1-C , 22-H ) :   0.9170
B(  1-C , 23-H ) :   0.9342 B(  2-O ,  3-P ) :   1.0742 B(  3-P ,  4-S ) :   1.6752
B(  3-P ,  5-O ) :   1.1110 B(  3-P ,  8-S ) :   0.9327 B(  4-S ,  8-S ) :   0.1087
B(  5-O ,  6-C ) :   0.8969 B(  6-C ,  7-C ) :   1.1751 B(  6-C , 24-H ) :   0.9260
B(  6-C , 25-H ) :   0.9296 B(  7-C , 26-H ) :   0.9355 B(  7-C , 27-H ) :   0.9396
B(  7-C , 28-H ) :   0.9388 B(  8-S ,  9-C ) :   1.0061 B(  9-C , 10-S ) :   0.9954
B(  9-C , 29-H ) :   0.9112 B(  9-C , 30-H ) :   0.8407 B( 10-S , 11-P ) :   0.9389
B( 10-S , 12-S ) :   0.1150 B( 11-P , 12-S ) :   1.6483 B( 11-P , 13-O ) :   1.1410
B( 11-P , 16-O ) :   1.0710 B( 12-S , 30-H ) :   0.1005 B( 13-O , 14-C ) :   0.8953
B( 14-C , 15-C ) :   1.1681 B( 14-C , 31-H ) :   0.9278 B( 14-C , 32-H ) :   0.9133
B( 15-C , 33-H ) :   0.9392 B( 15-C , 34-H ) :   0.9486 B( 15-C , 35-H ) :   0.9404
B( 16-O , 17-C ) :   0.9185 B( 17-C , 18-C ) :   1.1668 B( 17-C , 36-H ) :   0.9241
B( 17-C , 37-H ) :   0.9335 B( 18-C , 38-H ) :   0.9334 B( 18-C , 39-H ) :   0.9351
B( 18-C , 40-H ) :   0.9438

Dispersion correction           -0.068548157
FINAL SINGLE POINT ENERGY     -2929.512924047248

DIPOLE MOMENT
-------------

Method             : SCF
Type of density    : Electron Density
Multiplicity       :   1
Irrep              :   0
Energy             : -2929.6310978162150604 Eh
Relativity type    :
Basis              : AO
                                X                 Y                 Z
Electronic contribution:     -3.582407674       2.548409755     -11.531915030
Nuclear contribution   :      4.313026252      -3.544038746      13.325874781
                        -----------------------------------------
Total Dipole Moment    :      0.730618578      -0.995628991       1.793959751
                        -----------------------------------------
Magnitude (a.u.)       :      2.177928415
Magnitude (Debye)      :      5.535854090

Rotational constants in cm-1:             0.012438             0.005514             0.005244
Rotational constants in MHz :           372.884613           165.309776           157.213223

                             ****ORCA TERMINATED NORMALLY****
TOTAL RUN TIME: 0 days 0 hours 0 minutes 22 seconds 209 msec
