                         Program Version 6.0.0  -   RELEASE  -
|  1> ! wb97x-v def2-tzvp def2/J RIJCOSX DEFGRID2 scfconv7 GCP(DFT/TZ) printgap
|  2> %output
|  3>     printlevel normal
|  4> end
|  5> * xyz 0 1
|  6> C 0.9690435775786953 0.7906126612074198 0.08437065501851637
|  7> C -0.347558673288738 0.04371382554783518 0.0014496766064904232
|  8> F -1.3912305482546978 0.8959116424278605 0.14549916304404503
|  9> F -0.4648540476335727 -0.9031774453111505 0.9660603219598556
| 10> F -0.5068138577201372 -0.5902093645960975 -1.1854936602261916
| 11> O 2.06882017925183 -0.08606427167223894 -0.08835030385486191
| 12> H 0.9810472437303892 1.5226728760809705 -0.7280758302605973
| 13> H 0.9950156260380026 1.3186084786957177 1.044927677023459
| 14> H 2.2208274390364755 -0.5484126261619265 0.7463248441874674
| 15> *
| 16>
| 17>                          ****END OF INPUT****

CARTESIAN COORDINATES (ANGSTROEM)
---------------------------------
  C      0.969044    0.790613    0.084371
  C     -0.347559    0.043714    0.001450
  F     -1.391231    0.895912    0.145499
  F     -0.464854   -0.903177    0.966060
  F     -0.506814   -0.590209   -1.185494
  O      2.068820   -0.086064   -0.088350
  H      0.981047    1.522673   -0.728076
  H      0.995016    1.318608    1.044928
  H      2.220827   -0.548413    0.746325

 Total Charge           Charge          ....    0
 Multiplicity           Mult            ....    1
 Number of Electrons    NEL             ....   50
 Basis Dimension        Dim             ....  204

ORBITAL ENERGIES
----------------

  NO   OCC          E(Eh)            E(eV)
   0   2.0000     -27.603249      -751.1226
   1   2.0000     -27.603070      -751.1177
   2   2.0000     -27.596765      -750.9462
   3   2.0000     -21.706057      -590.6518
   4   2.0000     -12.301677      -334.7457
   5   2.0000     -12.136278      -330.2449
   6   2.0000      -2.060969       -56.0818
   7   2.0000      -2.015112       -54.8340
   8   2.0000      -2.010253       -54.7018
   9   2.0000      -1.710929       -46.5567
  10   2.0000      -1.395538       -37.9745
  11   2.0000      -1.274946       -34.6930
  12   2.0000      -1.258302       -34.2401
  13   2.0000      -1.255379       -34.1606
  14   2.0000      -1.180544       -32.1242
  15   2.0000      -1.165704       -31.7204
  16   2.0000      -1.165100       -31.7040
  17   2.0000      -1.152534       -31.3620
  18   2.0000      -1.149845       -31.2889
  19   2.0000      -1.146979       -31.2109
  20   2.0000      -1.079905       -29.3857
  21   2.0000      -1.000740       -27.2315
  22   2.0000      -0.984482       -26.7891
  23   2.0000      -0.886350       -24.1188
  24   2.0000      -0.865650       -23.5555
  25   0.0000      -0.280143        -7.6231
  26   0.0000      -0.268006        -7.2928
  27   0.0000      -0.229771        -6.2524
  28   0.0000      -0.117535        -3.1983
  29   0.0000      -0.063379        -1.7246

MULLIKEN ATOMIC CHARGES
-----------------------
   0 C :   -0.060848
   1 C :    0.421191
   2 F :   -0.165258
   3 F :   -0.174731
   4 F :   -0.158758
   5 O :   -0.431569
   6 H :    0.129443
   7 H :    0.122694
   8 H :    0.317836
Sum of atomic charges:   -0.0000000

LOEWDIN ATOMIC CHARGES
----------------------
   0 C :   -0.311147
   1 C :   -0.657101
   2 F :    0.178506
   3 F :    0.171363
   4 F :    0.182352
   5 O :   -0.018784
   6 H :    0.143941
   7 H :    0.132128
   8 H :    0.178741

  Mayer bond orders larger than 0.100000
B(  0-C ,  1-C ) :   0.9895 B(  0-C ,  5-O ) :   1.0443 B(  0-C ,  6-H ) :   0.9542
B(  0-C ,  7-H ) :   0.9567 B(  1-C ,  2-F ) :   1.1416 B(  1-C ,  3-F ) :   1.1284
B(  1-C ,  4-F ) :   1.1543 B(  5-O ,  8-H ) :   0.8916

FINAL SINGLE POINT ENERGY      -452.817745409969

DIPOLE MOMENT
-------------

Method             : SCF
Type of density    : Electron Density
Multiplicity       :   1
Irrep              :   0
Energy             :  -452.8291177105687098 Eh
Relativity type    :
Basis              : AO
                                X                 Y                 Z
Electronic contribution:     -5.676519651      -2.247800663      -0.450484324
Nuclear contribution   :      6.157372932       2.703620000       1.064998831
                        -----------------------------------------
Total Dipole Moment    :      0.480853282       0.455819337       0.614514507
                        -----------------------------------------
Magnitude (a.u.)       :      0.903669865
Magnitude (Debye)      :      2.296946257

Rotational constants in cm-1:             0.174566             0.093036             0.091959
Rotational constants in MHz :          5233.353346          2789.163289          2756.863706

                             ****ORCA TERMINATED NORMALLY****
TOTAL RUN TIME: 0 days 0 hours 0 minutes 50 seconds 247 msec
