                         Program Version 6.0.0  -   RELEASE  -
|  1> ! wb97x-v def2-tzvp def2/J RIJCOSX DEFGRID2 scfconv7 GCP(DFT/TZ) printgap
|  2> %output
|  3>     printlevel normal
|  4> end
|  5> %cpcm
|  6>     smd true
|  7>     smdsolvent "water"
|  8> end
|  9> * xyz 0 1
| 10> C 0.9690435775786953 0.7906126612074198 0.08437065501851637
| 11> C -0.347558673288738 0.04371382554783518 0.0014496766064904232
| 12> F -1.3912305482546978 0.8959116424278605 0.14549916304404503
| 13> F -0.4648540476335727 -0.9031774453111505 0.9660603219598556
| 14> F -0.5068138577201372 -0.5902093645960975 -1.1854936602261916
| 15> O 2.06882017925183 -0.08606427167223894 -0.08835030385486191
| 16> H 0.9810472437303892 1.5226728760809705 -0.7280758302605973
| 17> H 0.9950156260380026 1.3186084786957177 1.044927677023459
| 18> H 2.2208274390364755 -0.5484126261619265 0.7463248441874674
| 19> *
| 20>
| 21>                          ****END OF INPUT****

CARTESIAN COORDINATES (ANGSTROEM)
---------------------------------
  C      0.969044    0.790613    0.084371
  C     -0.347559    0.043714    0.001450
  F     -1.391231    0.895912    0.145499
  F     -0.464854   -0.903177    0.966060
  F     -0.506814   -0.590209   -1.185494
  O      2.068820   -0.086064   -0.088350
  H      0.981047    1.522673   -0.728076
  H      0.995016    1.318608    1.044928
  H      2.220827   -0.548413    0.746325

 Total Charge           Charge          ....    0
 Multiplicity           Mult            ....    1
 Number of Electrons    NEL             ....   50
 Basis Dimension        Dim             ....  204

ORBITAL ENERGIES
----------------

  NO   OCC          E(Eh)            E(eV)
   0   2.0000     -27.601671      -751.0797
   1   2.0000     -27.600160      -751.0385
   2   2.0000     -27.599353      -751.0166
   3   2.0000     -21.693168      -590.3011
   4   2.0000     -12.296742      -334.6114
   5   2.0000     -12.115634      -329.6832
   6   2.0000      -2.060270       -56.0628
   7   2.0000      -2.013268       -54.7838
   8   2.0000      -2.011649       -54.7397
   9   2.0000      -1.697709       -46.1970
  10   2.0000      -1.392263       -37.8854
  11   2.0000      -1.264026       -34.3959
  12   2.0000      -1.256900       -34.2020
  13   2.0000      -1.256354       -34.1871
  14   2.0000      -1.174767       -31.9670
  15   2.0000      -1.165370       -31.7113
  16   2.0000      -1.165113       -31.7043
  17   2.0000      -1.151250       -31.3271
  18   2.0000      -1.151140       -31.3241
  19   2.0000      -1.148429       -31.2503
  20   2.0000      -1.067135       -29.0382
  21   2.0000      -0.990782       -26.9606
  22   2.0000      -0.970230       -26.4013
  23   2.0000      -0.872382       -23.7387
  24   2.0000      -0.844871       -22.9901
  25   0.0000      -0.277833        -7.5602
  26   0.0000      -0.259482        -7.0609
  27   0.0000      -0.222173        -6.0456
  28   0.0000      -0.101764        -2.7691
  29   0.0000      -0.039984        -1.0880

MULLIKEN ATOMIC CHARGES
-----------------------
   0 C :   -0.049423
   1 C :    0.425306
   2 F :   -0.177759
   3 F :   -0.182535
   4 F :   -0.180172
   5 O :   -0.528859
   6 H :    0.159905
   7 H :    0.158560
   8 H :    0.374979
Sum of atomic charges:   -0.0000000

LOEWDIN ATOMIC CHARGES
----------------------
   0 C :   -0.300840
   1 C :   -0.651807
   2 F :    0.172051
   3 F :    0.166323
   4 F :    0.168712
   5 O :   -0.053508
   6 H :    0.152171
   7 H :    0.146809
   8 H :    0.200088

  Mayer bond orders larger than 0.100000
B(  0-C ,  1-C ) :   0.9997 B(  0-C ,  5-O ) :   1.0036 B(  0-C ,  6-H ) :   0.9466
B(  0-C ,  7-H ) :   0.9495 B(  1-C ,  2-F ) :   1.1336 B(  1-C ,  3-F ) :   1.1312
B(  1-C ,  4-F ) :   1.1320 B(  5-O ,  8-H ) :   0.8555

FINAL SINGLE POINT ENERGY      -452.826201725675

DIPOLE MOMENT
-------------

Method             : SCF
Type of density    : Electron Density
Multiplicity       :   1
Irrep              :   0
Energy             :  -452.8375740262750355 Eh
Relativity type    :
Basis              : AO
                                X                 Y                 Z
Electronic contribution:     -5.619976347      -2.104753301      -0.239780149
Nuclear contribution   :      6.157372932       2.703620000       1.064998831
                        -----------------------------------------
Total Dipole Moment    :      0.537396586       0.598866699       0.825218682
                        -----------------------------------------
Magnitude (a.u.)       :      1.152572031
Magnitude (Debye)      :      2.929605284

Rotational constants in cm-1:             0.174566             0.093036             0.091959
Rotational constants in MHz :          5233.353346          2789.163289          2756.863706

                             ****ORCA TERMINATED NORMALLY****
TOTAL RUN TIME: 0 days 0 hours 0 minutes 59 seconds 894 msec
