                         Program Version 6.0.0  -   RELEASE  -
|  1> ! pbe def2-sv(p) def2/J RI DEFGRID1 loosescf d4 GCP(DFT/SV(P)) printgap
|  2> %output
|  3>     printlevel normal
|  4> end
|  5> * xyz 0 1
|  6> C 1.372879596 -2.1153283821 1.9862416163
|  7> C 2.8592453722 -1.9298806064 1.7616098525
|  8> O 3.1771000411 -0.6085269414 1.2887785655
|  9> P 2.7920915072 -0.0979502888 -0.1701460186
| 10> S 2.9770896133 -1.4096390035 -1.6068202673
| 11> O 3.7745926171 1.1217515131 -0.3412413151
| 12> C 3.8738151976 2.1831511985 0.6433283595
| 13> C 4.582485698 3.351043094 -0.0094434501
| 14> S 0.8698138332 0.8404471087 0.0318759449
| 15> C -0.0307264469 -0.0288460192 -1.2758857928
| 16> S -1.241822957 -1.2080331283 -0.6363091945
| 17> P -2.7320892205 0.2482097074 -0.1749093413
| 18> S -2.9992298417 1.6427923908 -1.5191679603
| 19> O -2.3093472331 0.8546074417 1.2149443617
| 20> C -2.1040290296 0.0486732666 2.4052420168
| 21> C -1.1550528487 0.8023394722 3.3135516388
| 22> O -4.0072372099 -0.6188847516 0.2125449315
| 23> C -4.9709054704 -1.0728577712 -0.7553101163
| 24> C -4.3763060435 -2.0508580733 -1.7475534141
| 25> H 0.9884142939 -1.3266677361 2.6276502488
| 26> H 0.8442494277 -2.0947071406 1.0335817393
| 27> H 1.1997717515 -3.0779438649 2.4563917285
| 28> H 3.2342408734 -2.6569957841 1.0348383072
| 29> H 3.4203154557 -2.0127342932 2.6936007669
| 30> H 2.8633657829 2.4546774813 0.9633419376
| 31> H 4.4327774186 1.7962560273 1.497197352
| 32> H 5.5633742625 3.0419219034 -0.3588965216
| 33> H 4.0076517915 3.7117044493 -0.8578729333
| 34> H 4.6932309828 4.1511770789 0.7151849165
| 35> H 0.6820950977 -0.5928501243 -1.8819806006
| 36> H -0.5573722481 0.7181404574 -1.8713083537
| 37> H -3.0788490232 -0.1010501027 2.8724850527
| 38> H -1.6946721762 -0.9207181767 2.1055477117
| 39> H -1.5799326824 1.7666132511 3.5763217213
| 40> H -0.9895179179 0.2234480383 4.2165748576
| 41> H -0.2084245991 0.9710187661 2.8060079952
| 42> H -5.7474183772 -1.5383066005 -0.1465634385
| 43> H -5.3768040775 -0.1985541427 -1.2731485527
| 44> H -3.8714564738 -2.8608289712 -1.2268801704
| 45> H -5.1687486831 -2.4584010104 -2.3670439985
| 46> H -3.6571405061 -1.5422693964 -2.3881554076
| 47> *
| 48>
| 49>                          ****END OF INPUT****

CARTESIAN COORDINATES (ANGSTROEM)
---------------------------------
  C      1.372880   -2.115328    1.986242
  C      2.859245   -1.929881    1.761610
  O      3.177100   -0.608527    1.288779
  P      2.792092   -0.097950   -0.170146
  S      2.977090   -1.409639   -1.606820
  O      3.774593    1.121752   -0.341241
  C      3.873815    2.183151    0.643328
  C      4.582486    3.351043   -0.009443
  S      0.869814    0.840447    0.031876
  C     -0.030726   -0.028846   -1.275886
  S     -1.241823   -1.208033   -0.636309
  P     -2.732089    0.248210   -0.174909
  S     -2.999230    1.642792   -1.519168
  O     -2.309347    0.854607    1.214944
  C     -2.104029    0.048673    2.405242
  C     -1.155053    0.802339    3.313552
  O     -4.007237   -0.618885    0.212545
  C     -4.970905   -1.072858   -0.755310
  C     -4.376306   -2.050858   -1.747553
  H      0.988414   -1.326668    2.627650
  H      0.844249   -2.094707    1.033582
  H      1.199772   -3.077944    2.456392
  H      3.234241   -2.656996    1.034838
  H      3.420315   -2.012734    2.693601
  H      2.863366    2.454677    0.963342
  H      4.432777    1.796256    1.497197
  H      5.563374    3.041922   -0.358897
  H      4.007652    3.711704   -0.857873
  H      4.693231    4.151177    0.715185
  H      0.682095   -0.592850   -1.881981
  H     -0.557372    0.718140   -1.871308
  H     -3.078849   -0.101050    2.872485
  H     -1.694672   -0.920718    2.105548
  H     -1.579933    1.766613    3.576322
  H     -0.989518    0.223448    4.216575
  H     -0.208425    0.971019    2.806008
  H     -5.747418   -1.538307   -0.146563
  H     -5.376804   -0.198554   -1.273149
  H     -3.871456   -2.860829   -1.226880
  H     -5.168749   -2.458401   -2.367044
  H     -3.657141   -1.542269   -2.388155

 Total Charge           Charge          ....    0
 Multiplicity           Mult            ....    1
 Number of Electrons    NEL             ....  202
 Basis Dimension        Dim             ....  334

ORBITAL ENERGIES
----------------

  NO   OCC          E(Eh)            E(eV)
   0   2.0000     -88.044885     -2395.8231
   1   2.0000     -88.042713     -2395.7640
   2   2.0000     -87.993262     -2394.4184
   3   2.0000     -87.987433     -2394.2598
   4   2.0000     -76.428731     -2079.7315
   5   2.0000     -76.427458     -2079.6969
   6   2.0000     -18.796998      -511.4923
   7   2.0000     -18.794920      -511.4358
   8   2.0000     -18.793682      -511.4021
   9   2.0000     -18.793368      -511.3935
  10   2.0000      -9.960032      -271.0262
  11   2.0000      -9.956884      -270.9406
  12   2.0000      -9.956696      -270.9355
  13   2.0000      -9.956306      -270.9249
  14   2.0000      -9.949304      -270.7343
  15   2.0000      -9.890752      -269.1410
  16   2.0000      -9.888771      -269.0871
  17   2.0000      -9.887421      -269.0504
  18   2.0000      -9.886483      -269.0249
  19   2.0000      -7.689270      -209.2357
  20   2.0000      -7.687288      -209.1817
  21   2.0000      -7.638380      -207.8509
  22   2.0000      -7.632683      -207.6959
  23   2.0000      -6.426549      -174.8753
  24   2.0000      -6.425181      -174.8381
  25   2.0000      -5.716879      -155.5642
  26   2.0000      -5.715074      -155.5151
  27   2.0000      -5.713861      -155.4821
  28   2.0000      -5.711827      -155.4267
  29   2.0000      -5.706536      -155.2827
  30   2.0000      -5.704390      -155.2243
  31   2.0000      -5.667281      -154.2146
  32   2.0000      -5.661645      -154.0612
  33   2.0000      -5.658934      -153.9874
  34   2.0000      -5.658592      -153.9781
  35   2.0000      -5.653257      -153.8329
  36   2.0000      -5.652819      -153.8210
  37   2.0000      -4.649279      -126.5133
  38   2.0000      -4.648108      -126.4815
  39   2.0000      -4.648050      -126.4799
  40   2.0000      -4.647084      -126.4536
  41   2.0000      -4.646817      -126.4463
  42   2.0000      -4.645408      -126.4080
  43   2.0000      -0.991119       -26.9697
  44   2.0000      -0.991037       -26.9675
  45   2.0000      -0.947786       -25.7906
  46   2.0000      -0.947069       -25.7711
  47   2.0000      -0.762426       -20.7467
  48   2.0000      -0.725183       -19.7332
  49   2.0000      -0.715558       -19.4713
  50   2.0000      -0.692837       -18.8531
  51   2.0000      -0.691933       -18.8285
  52   2.0000      -0.679197       -18.4819
  53   2.0000      -0.652862       -17.7653
  54   2.0000      -0.640109       -17.4183
  55   2.0000      -0.600078       -16.3289
  56   2.0000      -0.592235       -16.1155
  57   2.0000      -0.575701       -15.6656
  58   2.0000      -0.574378       -15.6296
  59   2.0000      -0.559171       -15.2158
  60   2.0000      -0.511557       -13.9202
  61   2.0000      -0.505719       -13.7613
  62   2.0000      -0.478396       -13.0178
  63   2.0000      -0.476960       -12.9787
  64   2.0000      -0.463684       -12.6175
  65   2.0000      -0.447997       -12.1906
  66   2.0000      -0.441070       -12.0021
  67   2.0000      -0.440481       -11.9861
  68   2.0000      -0.436563       -11.8795
  69   2.0000      -0.427692       -11.6381
  70   2.0000      -0.410953       -11.1826
  71   2.0000      -0.397115       -10.8061
  72   2.0000      -0.393710       -10.7134
  73   2.0000      -0.390650       -10.6301
  74   2.0000      -0.378356       -10.2956
  75   2.0000      -0.369729       -10.0608
  76   2.0000      -0.366439        -9.9713
  77   2.0000      -0.362021        -9.8511
  78   2.0000      -0.358614        -9.7584
  79   2.0000      -0.358071        -9.7436
  80   2.0000      -0.350591        -9.5401
  81   2.0000      -0.345660        -9.4059
  82   2.0000      -0.342325        -9.3151
  83   2.0000      -0.341263        -9.2862
  84   2.0000      -0.337659        -9.1882
  85   2.0000      -0.320020        -8.7082
  86   2.0000      -0.316344        -8.6081
  87   2.0000      -0.306115        -8.3298
  88   2.0000      -0.304213        -8.2781
  89   2.0000      -0.299861        -8.1596
  90   2.0000      -0.296734        -8.0745
  91   2.0000      -0.275106        -7.4860
  92   2.0000      -0.271822        -7.3966
  93   2.0000      -0.266165        -7.2427
  94   2.0000      -0.258120        -7.0238
  95   2.0000      -0.233670        -6.3585
  96   2.0000      -0.221955        -6.0397
  97   2.0000      -0.214342        -5.8325
  98   2.0000      -0.209474        -5.7001
  99   2.0000      -0.206936        -5.6310
 100   2.0000      -0.200547        -5.4572
 101   0.0000      -0.043379        -1.1804
 102   0.0000      -0.033138        -0.9017
 103   0.0000      -0.016353        -0.4450
 104   0.0000       0.003518         0.0957
 105   0.0000       0.013233         0.3601

MULLIKEN ATOMIC CHARGES
-----------------------
   0 C :   -0.344963
   1 C :    0.008274
   2 O :   -0.385909
   3 P :    0.602878
   4 S :   -0.300053
   5 O :   -0.358851
   6 C :   -0.021795
   7 C :   -0.277559
   8 S :   -0.108954
   9 C :   -0.358381
  10 S :   -0.098838
  11 P :    0.597953
  12 S :   -0.307181
  13 O :   -0.355999
  14 C :   -0.017930
  15 C :   -0.292410
  16 O :   -0.385370
  17 C :    0.001072
  18 C :   -0.323100
  19 H :    0.123693
  20 H :    0.136078
  21 H :    0.111562
  22 H :    0.112844
  23 H :    0.103191
  24 H :    0.109421
  25 H :    0.110387
  26 H :    0.123860
  27 H :    0.124548
  28 H :    0.111873
  29 H :    0.194717
  30 H :    0.195749
  31 H :    0.108497
  32 H :    0.110081
  33 H :    0.120533
  34 H :    0.108136
  35 H :    0.134962
  36 H :    0.105692
  37 H :    0.114063
  38 H :    0.118515
  39 H :    0.115894
  40 H :    0.132822
Sum of atomic charges:   -0.0000000

LOEWDIN ATOMIC CHARGES
----------------------
   0 C :   -0.373459
   1 C :   -0.115085
   2 O :   -0.251271
   3 P :    0.569736
   4 S :   -0.292729
   5 O :   -0.239601
   6 C :   -0.114744
   7 C :   -0.349213
   8 S :    0.071141
   9 C :   -0.491540
  10 S :    0.087990
  11 P :    0.568921
  12 S :   -0.307307
  13 O :   -0.236505
  14 C :   -0.114837
  15 C :   -0.356245
  16 O :   -0.249330
  17 C :   -0.114840
  18 C :   -0.371701
  19 H :    0.124130
  20 H :    0.113738
  21 H :    0.130951
  22 H :    0.112290
  23 H :    0.118103
  24 H :    0.104890
  25 H :    0.115595
  26 H :    0.131043
  27 H :    0.131569
  28 H :    0.131065
  29 H :    0.125814
  30 H :    0.127552
  31 H :    0.116224
  32 H :    0.104190
  33 H :    0.129880
  34 H :    0.128281
  35 H :    0.122073
  36 H :    0.119087
  37 H :    0.114426
  38 H :    0.123510
  39 H :    0.132658
  40 H :    0.123552

  Mayer bond orders larger than 0.100000
B(  0-C ,  1-C ) :   1.1614 B(  0-C , 19-H ) :   0.9367 B(  0-C , 20-H ) :   0.9265
B(  0-C , 21-H ) :   0.9363 B(  1-C ,  2-O ) :   0.9139 B(  1-C , 22-H ) :   0.9175
B(  1-C , 23-H ) :   0.9334 B(  2-O ,  3-P ) :   1.0807 B(  3-P ,  4-S ) :   1.6350
B(  3-P ,  5-O ) :   1.1417 B(  3-P ,  8-S ) :   0.9457 B(  4-S ,  8-S ) :   0.1152
B(  4-S , 29-H ) :   0.1177 B(  5-O ,  6-C ) :   0.8941 B(  6-C ,  7-C ) :   1.1652
B(  6-C , 24-H ) :   0.9139 B(  6-C , 25-H ) :   0.9285 B(  7-C , 26-H ) :   0.9499
B(  7-C , 27-H ) :   0.9494 B(  7-C , 28-H ) :   0.9404 B(  8-S ,  9-C ) :   1.0067
B(  9-C , 10-S ) :   1.0052 B(  9-C , 29-H ) :   0.8491 B(  9-C , 30-H ) :   0.8640
B( 10-S , 11-P ) :   0.9482 B( 10-S , 12-S ) :   0.1069 B( 11-P , 12-S ) :   1.6409
B( 11-P , 13-O ) :   1.1430 B( 11-P , 16-O ) :   1.0905 B( 13-O , 14-C ) :   0.8861
B( 14-C , 15-C ) :   1.1703 B( 14-C , 31-H ) :   0.9307 B( 14-C , 32-H ) :   0.9076
B( 15-C , 33-H ) :   0.9459 B( 15-C , 34-H ) :   0.9388 B( 15-C , 35-H ) :   0.9334
B( 16-O , 17-C ) :   0.9057 B( 17-C , 18-C ) :   1.1658 B( 17-C , 36-H ) :   0.9344
B( 17-C , 37-H ) :   0.9201 B( 18-C , 38-H ) :   0.9434 B( 18-C , 39-H ) :   0.9368
B( 18-C , 40-H ) :   0.9343

Dispersion correction           -0.062909520
FINAL SINGLE POINT ENERGY     -2929.520705208070

DIPOLE MOMENT
-------------

Method             : SCF
Type of density    : Electron Density
Multiplicity       :   1
Irrep              :   0
Energy             : -2929.6425168893429145 Eh
Relativity type    :
Basis              : AO
                                X                 Y                 Z
Electronic contribution:     -0.137434238       2.000778307     -13.869387985
Nuclear contribution   :     -0.033593915      -2.508863304      15.675064770
                        -----------------------------------------
Total Dipole Moment    :     -0.171028153      -0.508084997       1.805676786
                        -----------------------------------------
Magnitude (a.u.)       :      1.883578947
Magnitude (Debye)      :      4.787677200

Rotational constants in cm-1:             0.012259             0.004264             0.004209
Rotational constants in MHz :           367.522037           127.841729           126.168238

                             ****ORCA TERMINATED NORMALLY****
TOTAL RUN TIME: 0 days 0 hours 0 minutes 20 seconds 852 msec
