                         Program Version 6.0.0  -   RELEASE  -
|  1> ! r2scan-3c def2/J RI DEFGRID2 scfconv6 printgap
|  2> %output
|  3>     printlevel normal
|  4> end
|  5> * xyz 0 1
|  6> C 0.0586325224 -1.5875623649 2.9361286206
|  7> C 1.3852987296 -1.5369664862 2.2076318008
|  8> O 1.5052556567 -0.2568261214 1.5471903478
|  9> P 2.315690464 -0.0237904162 0.210226756
| 10> S 3.1063567142 -1.636815032 -0.584592562
| 11> O 3.2936948994 1.1077660411 0.7370508512
| 12> C 4.1587878785 1.8904337617 -0.1091499631
| 13> C 5.4466915252 1.1558927265 -0.4275977962
| 14> S 1.0223304629 1.0711775 -1.0689660957
| 15> C 0.3062466043 -0.3629119516 -1.9138241104
| 16> S -0.6218302959 -1.4369339524 -0.7902175903
| 17> P -2.0747196661 0.0078847353 -0.2380853475
| 18> S -2.6815341336 1.1793914483 -1.6932118712
| 19> O -1.4039842049 0.7249007704 0.9995425575
| 20> C -1.5858267318 2.1250564637 1.2783823001
| 21> C -2.9525126585 2.3823400101 1.8766240169
| 22> O -3.162537628 -0.8742817335 0.5086933865
| 23> C -4.0103628908 -1.8208544784 -0.1729223479
| 24> C -5.2955637892 -1.1672588795 -0.6428491198
| 25> H -0.0185426216 -2.534747938 3.4599547114
| 26> H -0.0040680438 -0.7717382253 3.6502117399
| 27> H -0.7662524661 -1.4997690086 2.233185097
| 28> H 1.4643336854 -2.3335492875 1.4600142853
| 29> H 2.2218260243 -1.6206113814 2.9054969373
| 30> H 3.620045492 2.1573224076 -1.0231752715
| 31> H 4.3514774009 2.7918762411 0.4757854614
| 32> H 5.2408041156 0.2583090895 -1.0063912391
| 33> H 6.0959589203 1.8073513838 -1.0035982039
| 34> H 5.9496959465 0.8677993708 0.4915207272
| 35> H 1.1023390138 -0.9720610409 -2.3414839932
| 36> H -0.358844063 0.0291411428 -2.6829576019
| 37> H -0.7789872961 2.365209277 1.9723965417
| 38> H -1.4528653921 2.6909354505 0.3499798774
| 39> H -3.7218110288 2.1211984371 1.1506160275
| 40> H -3.0926426761 1.7785383066 2.768971034
| 41> H -3.0457779703 3.4337025607 2.1294022206
| 42> H -3.4605023809 -2.2584844609 -1.0113022866
| 43> H -4.2079510651 -2.5924140904 0.5735709316
| 44> H -5.9311506208 -1.9182238858 -1.1008457567
| 45> H -5.8170017563 -0.7202620376 0.1989511202
| 46> H -5.0809837426 -0.3913559697 -1.3743541936
| 47> *
| 48>
| 49>                          ****END OF INPUT****

CARTESIAN COORDINATES (ANGSTROEM)
---------------------------------
  C      0.058633   -1.587562    2.936129
  C      1.385299   -1.536966    2.207632
  O      1.505256   -0.256826    1.547190
  P      2.315690   -0.023790    0.210227
  S      3.106357   -1.636815   -0.584593
  O      3.293695    1.107766    0.737051
  C      4.158788    1.890434   -0.109150
  C      5.446692    1.155893   -0.427598
  S      1.022330    1.071177   -1.068966
  C      0.306247   -0.362912   -1.913824
  S     -0.621830   -1.436934   -0.790218
  P     -2.074720    0.007885   -0.238085
  S     -2.681534    1.179391   -1.693212
  O     -1.403984    0.724901    0.999543
  C     -1.585827    2.125056    1.278382
  C     -2.952513    2.382340    1.876624
  O     -3.162538   -0.874282    0.508693
  C     -4.010363   -1.820854   -0.172922
  C     -5.295564   -1.167259   -0.642849
  H     -0.018543   -2.534748    3.459955
  H     -0.004068   -0.771738    3.650212
  H     -0.766252   -1.499769    2.233185
  H      1.464334   -2.333549    1.460014
  H      2.221826   -1.620611    2.905497
  H      3.620045    2.157322   -1.023175
  H      4.351477    2.791876    0.475785
  H      5.240804    0.258309   -1.006391
  H      6.095959    1.807351   -1.003598
  H      5.949696    0.867799    0.491521
  H      1.102339   -0.972061   -2.341484
  H     -0.358844    0.029141   -2.682958
  H     -0.778987    2.365209    1.972397
  H     -1.452865    2.690935    0.349980
  H     -3.721811    2.121198    1.150616
  H     -3.092643    1.778538    2.768971
  H     -3.045778    3.433703    2.129402
  H     -3.460502   -2.258484   -1.011302
  H     -4.207951   -2.592414    0.573571
  H     -5.931151   -1.918224   -1.100846
  H     -5.817002   -0.720262    0.198951
  H     -5.080984   -0.391356   -1.374354

 Total Charge           Charge          ....    0
 Multiplicity           Mult            ....    1
 Number of Electrons    NEL             ....  202
 Basis Dimension        Dim             ....  539

ORBITAL ENERGIES
----------------

  NO   OCC          E(Eh)            E(eV)
   0   2.0000     -88.576956     -2410.3015
   1   2.0000     -88.575166     -2410.2528
   2   2.0000     -88.523378     -2408.8436
   3   2.0000     -88.519040     -2408.7255
   4   2.0000     -76.916420     -2093.0022
   5   2.0000     -76.913164     -2092.9136
   6   2.0000     -18.996604      -516.9239
   7   2.0000     -18.991418      -516.7828
   8   2.0000     -18.989073      -516.7189
   9   2.0000     -18.985141      -516.6119
  10   2.0000     -10.105345      -274.9804
  11   2.0000     -10.104344      -274.9532
  12   2.0000     -10.100706      -274.8542
  13   2.0000     -10.095233      -274.7052
  14   2.0000     -10.091598      -274.6063
  15   2.0000     -10.028349      -272.8853
  16   2.0000     -10.027339      -272.8578
  17   2.0000     -10.024701      -272.7860
  18   2.0000     -10.023159      -272.7440
  19   2.0000      -7.871238      -214.1873
  20   2.0000      -7.869456      -214.1388
  21   2.0000      -7.818213      -212.7444
  22   2.0000      -7.813963      -212.6287
  23   2.0000      -6.594866      -179.4554
  24   2.0000      -6.591404      -179.3612
  25   2.0000      -5.818045      -158.3171
  26   2.0000      -5.816296      -158.2695
  27   2.0000      -5.815081      -158.2364
  28   2.0000      -5.813264      -158.1869
  29   2.0000      -5.808453      -158.0560
  30   2.0000      -5.806670      -158.0075
  31   2.0000      -5.765814      -156.8958
  32   2.0000      -5.761585      -156.7807
  33   2.0000      -5.758430      -156.6948
  34   2.0000      -5.758319      -156.6918
  35   2.0000      -5.754183      -156.5793
  36   2.0000      -5.754027      -156.5750
  37   2.0000      -4.740235      -128.9884
  38   2.0000      -4.739840      -128.9776
  39   2.0000      -4.738683      -128.9461
  40   2.0000      -4.736760      -128.8938
  41   2.0000      -4.736463      -128.8857
  42   2.0000      -4.735177      -128.8507
  43   2.0000      -1.052873       -28.6501
  44   2.0000      -1.047676       -28.5087
  45   2.0000      -1.013008       -27.5654
  46   2.0000      -1.006268       -27.3819
  47   2.0000      -0.803625       -21.8677
  48   2.0000      -0.758982       -20.6530
  49   2.0000      -0.749525       -20.3956
  50   2.0000      -0.730913       -19.8892
  51   2.0000      -0.726840       -19.7783
  52   2.0000      -0.709814       -19.3150
  53   2.0000      -0.685662       -18.6578
  54   2.0000      -0.670333       -18.2407
  55   2.0000      -0.630870       -17.1668
  56   2.0000      -0.623995       -16.9798
  57   2.0000      -0.605845       -16.4859
  58   2.0000      -0.600517       -16.3409
  59   2.0000      -0.590261       -16.0618
  60   2.0000      -0.530637       -14.4394
  61   2.0000      -0.521985       -14.2039
  62   2.0000      -0.497329       -13.5330
  63   2.0000      -0.493637       -13.4325
  64   2.0000      -0.473889       -12.8952
  65   2.0000      -0.460463       -12.5298
  66   2.0000      -0.457858       -12.4589
  67   2.0000      -0.449636       -12.2352
  68   2.0000      -0.440254       -11.9799
  69   2.0000      -0.427686       -11.6379
  70   2.0000      -0.424661       -11.5556
  71   2.0000      -0.419620       -11.4184
  72   2.0000      -0.409619       -11.1463
  73   2.0000      -0.407135       -11.0787
  74   2.0000      -0.399743       -10.8775
  75   2.0000      -0.393019       -10.6946
  76   2.0000      -0.381413       -10.3788
  77   2.0000      -0.368075       -10.0158
  78   2.0000      -0.365298        -9.9403
  79   2.0000      -0.363072        -9.8797
  80   2.0000      -0.362576        -9.8662
  81   2.0000      -0.357099        -9.7172
  82   2.0000      -0.352621        -9.5953
  83   2.0000      -0.350471        -9.5368
  84   2.0000      -0.343877        -9.3574
  85   2.0000      -0.340587        -9.2678
  86   2.0000      -0.324067        -8.8183
  87   2.0000      -0.314457        -8.5568
  88   2.0000      -0.310331        -8.4445
  89   2.0000      -0.303765        -8.2659
  90   2.0000      -0.300205        -8.1690
  91   2.0000      -0.291906        -7.9432
  92   2.0000      -0.285241        -7.7618
  93   2.0000      -0.282667        -7.6918
  94   2.0000      -0.269560        -7.3351
  95   2.0000      -0.246245        -6.7007
  96   2.0000      -0.232537        -6.3277
  97   2.0000      -0.227234        -6.1834
  98   2.0000      -0.220884        -6.0106
  99   2.0000      -0.212742        -5.7890
 100   2.0000      -0.211886        -5.7657
 101   0.0000      -0.049330        -1.3423
 102   0.0000      -0.025545        -0.6951
 103   0.0000      -0.004042        -0.1100
 104   0.0000      -0.001114        -0.0303
 105   0.0000       0.010752         0.2926

MULLIKEN ATOMIC CHARGES
-----------------------
   0 C :   -0.463787
   1 C :   -0.104892
   2 O :   -0.267745
   3 P :    0.702134
   4 S :   -0.480383
   5 O :   -0.311188
   6 C :   -0.143474
   7 C :   -0.436457
   8 S :   -0.158583
   9 C :   -0.217895
  10 S :   -0.155598
  11 P :    0.699633
  12 S :   -0.483687
  13 O :   -0.238954
  14 C :   -0.159696
  15 C :   -0.445060
  16 O :   -0.309730
  17 C :   -0.137820
  18 C :   -0.451846
  19 H :    0.143085
  20 H :    0.147717
  21 H :    0.168607
  22 H :    0.171418
  23 H :    0.146618
  24 H :    0.153309
  25 H :    0.149609
  26 H :    0.176471
  27 H :    0.144222
  28 H :    0.152922
  29 H :    0.211270
  30 H :    0.211475
  31 H :    0.160632
  32 H :    0.173673
  33 H :    0.166038
  34 H :    0.154873
  35 H :    0.147363
  36 H :    0.154340
  37 H :    0.151276
  38 H :    0.146025
  39 H :    0.152504
  40 H :    0.181582
Sum of atomic charges:   -0.0000000

LOEWDIN ATOMIC CHARGES
----------------------
   0 C :   -0.391653
   1 C :    0.016940
   2 O :   -0.652608
   3 P :    0.384240
   4 S :   -0.133593
   5 O :   -0.653755
   6 C :    0.023004
   7 C :   -0.402197
   8 S :    0.160910
   9 C :   -0.420568
  10 S :    0.161725
  11 P :    0.378136
  12 S :   -0.127534
  13 O :   -0.672216
  14 C :    0.014809
  15 C :   -0.398112
  16 O :   -0.659275
  17 C :    0.022842
  18 C :   -0.401467
  19 H :    0.157658
  20 H :    0.159126
  21 H :    0.168201
  22 H :    0.182666
  23 H :    0.171992
  24 H :    0.174329
  25 H :    0.179612
  26 H :    0.168525
  27 H :    0.157274
  28 H :    0.160411
  29 H :    0.191185
  30 H :    0.190094
  31 H :    0.182208
  32 H :    0.181909
  33 H :    0.164607
  34 H :    0.159194
  35 H :    0.159617
  36 H :    0.175756
  37 H :    0.179611
  38 H :    0.158399
  39 H :    0.158727
  40 H :    0.169270

  Mayer bond orders larger than 0.100000
B(  0-C ,  1-C ) :   0.9390 B(  0-C , 19-H ) :   0.9672 B(  0-C , 20-H ) :   0.9679
B(  0-C , 21-H ) :   0.9668 B(  1-C ,  2-O ) :   0.7563 B(  1-C , 22-H ) :   0.9606
B(  1-C , 23-H ) :   0.9451 B(  2-O ,  3-P ) :   1.1673 B(  3-P ,  4-S ) :   1.7532
B(  3-P ,  5-O ) :   1.1163 B(  3-P ,  8-S ) :   1.0387 B(  5-O ,  6-C ) :   0.7977
B(  6-C ,  7-C ) :   0.9568 B(  6-C , 24-H ) :   0.9596 B(  6-C , 25-H ) :   0.9621
B(  7-C , 26-H ) :   0.9541 B(  7-C , 27-H ) :   0.9653 B(  7-C , 28-H ) :   0.9723
B(  8-S ,  9-C ) :   0.8954 B(  9-C , 10-S ) :   0.8956 B(  9-C , 29-H ) :   0.9070
B(  9-C , 30-H ) :   0.9097 B( 10-S , 11-P ) :   1.0687 B( 11-P , 12-S ) :   1.7566
B( 11-P , 13-O ) :   1.1227 B( 11-P , 16-O ) :   1.0621 B( 13-O , 14-C ) :   0.7640
B( 14-C , 15-C ) :   0.9229 B( 14-C , 31-H ) :   0.9638 B( 14-C , 32-H ) :   0.9555
B( 15-C , 33-H ) :   0.9606 B( 15-C , 34-H ) :   0.9755 B( 15-C , 35-H ) :   0.9648
B( 16-O , 17-C ) :   0.7840 B( 17-C , 18-C ) :   0.9564 B( 17-C , 36-H ) :   0.9622
B( 17-C , 37-H ) :   0.9623 B( 18-C , 38-H ) :   0.9644 B( 18-C , 39-H ) :   0.9742
B( 18-C , 40-H ) :   0.9557

Dispersion correction           -0.021961440
FINAL SINGLE POINT ENERGY     -2932.463019825550

DIPOLE MOMENT
-------------

Method             : SCF
Type of density    : Electron Density
Multiplicity       :   1
Irrep              :   0
Energy             : -2932.4876438524534024 Eh
Relativity type    :
Basis              : AO
                                X                 Y                 Z
Electronic contribution:      7.060225895      -2.329673221     -10.913007146
Nuclear contribution   :     -7.451143130       2.570392677      11.717761848
                        -----------------------------------------
Total Dipole Moment    :     -0.390917236       0.240719457       0.804754702
                        -----------------------------------------
Magnitude (a.u.)       :      0.926494615
Magnitude (Debye)      :      2.354962161

Rotational constants in cm-1:             0.013643             0.004921             0.004804
Rotational constants in MHz :           409.017442           147.540029           144.029880

                             ****ORCA TERMINATED NORMALLY****
TOTAL RUN TIME: 0 days 0 hours 1 minutes 21 seconds 682 msec
