                         Program Version 6.0.0  -   RELEASE  -
|  1> ! r2scan-3c def2/J RI DEFGRID2 scfconv6 printgap
|  2> %output
|  3>     printlevel normal
|  4> end
|  5> %cpcm
|  6>     smd true
|  7>     smdsolvent "water"
|  8> end
|  9> * xyz 0 1
| 10> C 0.0586325224 -1.5875623649 2.9361286206
| 11> C 1.3852987296 -1.5369664862 2.2076318008
| 12> O 1.5052556567 -0.2568261214 1.5471903478
| 13> P 2.315690464 -0.0237904162 0.210226756
| 14> S 3.1063567142 -1.636815032 -0.584592562
| 15> O 3.2936948994 1.1077660411 0.7370508512
| 16> C 4.1587878785 1.8904337617 -0.1091499631
| 17> C 5.4466915252 1.1558927265 -0.4275977962
| 18> S 1.0223304629 1.0711775 -1.0689660957
| 19> C 0.3062466043 -0.3629119516 -1.9138241104
| 20> S -0.6218302959 -1.4369339524 -0.7902175903
| 21> P -2.0747196661 0.0078847353 -0.2380853475
| 22> S -2.6815341336 1.1793914483 -1.6932118712
| 23> O -1.4039842049 0.7249007704 0.9995425575
| 24> C -1.5858267318 2.1250564637 1.2783823001
| 25> C -2.9525126585 2.3823400101 1.8766240169
| 26> O -3.162537628 -0.8742817335 0.5086933865
| 27> C -4.0103628908 -1.8208544784 -0.1729223479
| 28> C -5.2955637892 -1.1672588795 -0.6428491198
| 29> H -0.0185426216 -2.534747938 3.4599547114
| 30> H -0.0040680438 -0.7717382253 3.6502117399
| 31> H -0.7662524661 -1.4997690086 2.233185097
| 32> H 1.4643336854 -2.3335492875 1.4600142853
| 33> H 2.2218260243 -1.6206113814 2.9054969373
| 34> H 3.620045492 2.1573224076 -1.0231752715
| 35> H 4.3514774009 2.7918762411 0.4757854614
| 36> H 5.2408041156 0.2583090895 -1.0063912391
| 37> H 6.0959589203 1.8073513838 -1.0035982039
| 38> H 5.9496959465 0.8677993708 0.4915207272
| 39> H 1.1023390138 -0.9720610409 -2.3414839932
| 40> H -0.358844063 0.0291411428 -2.6829576019
| 41> H -0.7789872961 2.365209277 1.9723965417
| 42> H -1.4528653921 2.6909354505 0.3499798774
| 43> H -3.7218110288 2.1211984371 1.1506160275
| 44> H -3.0926426761 1.7785383066 2.768971034
| 45> H -3.0457779703 3.4337025607 2.1294022206
| 46> H -3.4605023809 -2.2584844609 -1.0113022866
| 47> H -4.2079510651 -2.5924140904 0.5735709316
| 48> H -5.9311506208 -1.9182238858 -1.1008457567
| 49> H -5.8170017563 -0.7202620376 0.1989511202
| 50> H -5.0809837426 -0.3913559697 -1.3743541936
| 51> *
| 52>
| 53>                          ****END OF INPUT****

CARTESIAN COORDINATES (ANGSTROEM)
---------------------------------
  C      0.058633   -1.587562    2.936129
  C      1.385299   -1.536966    2.207632
  O      1.505256   -0.256826    1.547190
  P      2.315690   -0.023790    0.210227
  S      3.106357   -1.636815   -0.584593
  O      3.293695    1.107766    0.737051
  C      4.158788    1.890434   -0.109150
  C      5.446692    1.155893   -0.427598
  S      1.022330    1.071177   -1.068966
  C      0.306247   -0.362912   -1.913824
  S     -0.621830   -1.436934   -0.790218
  P     -2.074720    0.007885   -0.238085
  S     -2.681534    1.179391   -1.693212
  O     -1.403984    0.724901    0.999543
  C     -1.585827    2.125056    1.278382
  C     -2.952513    2.382340    1.876624
  O     -3.162538   -0.874282    0.508693
  C     -4.010363   -1.820854   -0.172922
  C     -5.295564   -1.167259   -0.642849
  H     -0.018543   -2.534748    3.459955
  H     -0.004068   -0.771738    3.650212
  H     -0.766252   -1.499769    2.233185
  H      1.464334   -2.333549    1.460014
  H      2.221826   -1.620611    2.905497
  H      3.620045    2.157322   -1.023175
  H      4.351477    2.791876    0.475785
  H      5.240804    0.258309   -1.006391
  H      6.095959    1.807351   -1.003598
  H      5.949696    0.867799    0.491521
  H      1.102339   -0.972061   -2.341484
  H     -0.358844    0.029141   -2.682958
  H     -0.778987    2.365209    1.972397
  H     -1.452865    2.690935    0.349980
  H     -3.721811    2.121198    1.150616
  H     -3.092643    1.778538    2.768971
  H     -3.045778    3.433703    2.129402
  H     -3.460502   -2.258484   -1.011302
  H     -4.207951   -2.592414    0.573571
  H     -5.931151   -1.918224   -1.100846
  H     -5.817002   -0.720262    0.198951
  H     -5.080984   -0.391356   -1.374354

 Total Charge           Charge          ....    0
 Multiplicity           Mult            ....    1
 Number of Electrons    NEL             ....  202
 Basis Dimension        Dim             ....  539

ORBITAL ENERGIES
----------------

  NO   OCC          E(Eh)            E(eV)
   0   2.0000     -88.579813     -2410.3793
   1   2.0000     -88.579537     -2410.3717
   2   2.0000     -88.529015     -2408.9970
   3   2.0000     -88.527925     -2408.9673
   4   2.0000     -76.920469     -2093.1124
   5   2.0000     -76.920290     -2093.1075
   6   2.0000     -18.997181      -516.9396
   7   2.0000     -18.996039      -516.9085
   8   2.0000     -18.992829      -516.8211
   9   2.0000     -18.992717      -516.8181
  10   2.0000     -10.104872      -274.9675
  11   2.0000     -10.092333      -274.6264
  12   2.0000     -10.091909      -274.6148
  13   2.0000     -10.089023      -274.5363
  14   2.0000     -10.088752      -274.5289
  15   2.0000     -10.018185      -272.6087
  16   2.0000     -10.017548      -272.5913
  17   2.0000     -10.016924      -272.5744
  18   2.0000     -10.016715      -272.5687
  19   2.0000      -7.874117      -214.2656
  20   2.0000      -7.873817      -214.2574
  21   2.0000      -7.824107      -212.9048
  22   2.0000      -7.823111      -212.8777
  23   2.0000      -6.598943      -179.5664
  24   2.0000      -6.598608      -179.5573
  25   2.0000      -5.820911      -158.3950
  26   2.0000      -5.820659      -158.3882
  27   2.0000      -5.817958      -158.3147
  28   2.0000      -5.817615      -158.3054
  29   2.0000      -5.811350      -158.1349
  30   2.0000      -5.811044      -158.1265
  31   2.0000      -5.771664      -157.0550
  32   2.0000      -5.770678      -157.0281
  33   2.0000      -5.764324      -156.8552
  34   2.0000      -5.764209      -156.8521
  35   2.0000      -5.763346      -156.8286
  36   2.0000      -5.763164      -156.8237
  37   2.0000      -4.744275      -129.0983
  38   2.0000      -4.743941      -129.0892
  39   2.0000      -4.743932      -129.0889
  40   2.0000      -4.743678      -129.0820
  41   2.0000      -4.742807      -129.0583
  42   2.0000      -4.742409      -129.0475
  43   2.0000      -1.054770       -28.7017
  44   2.0000      -1.053263       -28.6607
  45   2.0000      -1.014370       -27.6024
  46   2.0000      -1.011545       -27.5255
  47   2.0000      -0.805836       -21.9279
  48   2.0000      -0.757265       -20.6062
  49   2.0000      -0.745181       -20.2774
  50   2.0000      -0.722618       -19.6634
  51   2.0000      -0.721596       -19.6356
  52   2.0000      -0.710363       -19.3300
  53   2.0000      -0.689708       -18.7679
  54   2.0000      -0.676054       -18.3964
  55   2.0000      -0.629530       -17.1304
  56   2.0000      -0.622341       -16.9348
  57   2.0000      -0.601670       -16.3723
  58   2.0000      -0.595277       -16.1983
  59   2.0000      -0.588812       -16.0224
  60   2.0000      -0.528974       -14.3941
  61   2.0000      -0.518857       -14.1188
  62   2.0000      -0.495876       -13.4935
  63   2.0000      -0.492462       -13.4006
  64   2.0000      -0.474430       -12.9099
  65   2.0000      -0.458197       -12.4682
  66   2.0000      -0.454344       -12.3633
  67   2.0000      -0.446734       -12.1563
  68   2.0000      -0.437254       -11.8983
  69   2.0000      -0.429989       -11.7006
  70   2.0000      -0.421035       -11.4569
  71   2.0000      -0.418315       -11.3829
  72   2.0000      -0.408107       -11.1052
  73   2.0000      -0.404892       -11.0177
  74   2.0000      -0.398999       -10.8573
  75   2.0000      -0.390634       -10.6297
  76   2.0000      -0.379113       -10.3162
  77   2.0000      -0.362821        -9.8729
  78   2.0000      -0.361666        -9.8414
  79   2.0000      -0.358128        -9.7452
  80   2.0000      -0.353699        -9.6246
  81   2.0000      -0.352748        -9.5988
  82   2.0000      -0.349467        -9.5095
  83   2.0000      -0.346389        -9.4257
  84   2.0000      -0.341328        -9.2880
  85   2.0000      -0.338891        -9.2217
  86   2.0000      -0.323632        -8.8065
  87   2.0000      -0.308390        -8.3917
  88   2.0000      -0.306979        -8.3533
  89   2.0000      -0.304826        -8.2947
  90   2.0000      -0.300138        -8.1672
  91   2.0000      -0.291788        -7.9400
  92   2.0000      -0.286122        -7.7858
  93   2.0000      -0.284391        -7.7387
  94   2.0000      -0.272500        -7.4151
  95   2.0000      -0.250119        -6.8061
  96   2.0000      -0.238412        -6.4875
  97   2.0000      -0.234489        -6.3808
  98   2.0000      -0.226709        -6.1691
  99   2.0000      -0.220218        -5.9924
 100   2.0000      -0.219316        -5.9679
 101   0.0000      -0.053868        -1.4658
 102   0.0000      -0.031374        -0.8537
 103   0.0000      -0.008829        -0.2403
 104   0.0000      -0.004832        -0.1315
 105   0.0000       0.009727         0.2647

MULLIKEN ATOMIC CHARGES
-----------------------
   0 C :   -0.511250
   1 C :   -0.097444
   2 O :   -0.300620
   3 P :    0.724113
   4 S :   -0.518930
   5 O :   -0.343246
   6 C :   -0.128414
   7 C :   -0.482177
   8 S :   -0.164374
   9 C :   -0.228861
  10 S :   -0.163689
  11 P :    0.726975
  12 S :   -0.522296
  13 O :   -0.269481
  14 C :   -0.150106
  15 C :   -0.486561
  16 O :   -0.337060
  17 C :   -0.129031
  18 C :   -0.490814
  19 H :    0.169579
  20 H :    0.167895
  21 H :    0.166394
  22 H :    0.172014
  23 H :    0.171228
  24 H :    0.163958
  25 H :    0.176324
  26 H :    0.168262
  27 H :    0.169785
  28 H :    0.167488
  29 H :    0.230776
  30 H :    0.233039
  31 H :    0.181786
  32 H :    0.175844
  33 H :    0.165336
  34 H :    0.169731
  35 H :    0.172309
  36 H :    0.164396
  37 H :    0.177806
  38 H :    0.170337
  39 H :    0.167913
  40 H :    0.171067
Sum of atomic charges:   -0.0000000

LOEWDIN ATOMIC CHARGES
----------------------
   0 C :   -0.395611
   1 C :    0.019885
   2 O :   -0.671705
   3 P :    0.386423
   4 S :   -0.159695
   5 O :   -0.669283
   6 C :    0.030016
   7 C :   -0.406816
   8 S :    0.159949
   9 C :   -0.414534
  10 S :    0.159053
  11 P :    0.382867
  12 S :   -0.151876
  13 O :   -0.689791
  14 C :    0.018362
  15 C :   -0.401353
  16 O :   -0.670787
  17 C :    0.029149
  18 C :   -0.405649
  19 H :    0.168291
  20 H :    0.163581
  21 H :    0.164964
  22 H :    0.183141
  23 H :    0.181480
  24 H :    0.179463
  25 H :    0.191269
  26 H :    0.162716
  27 H :    0.167256
  28 H :    0.162989
  29 H :    0.197175
  30 H :    0.196818
  31 H :    0.190565
  32 H :    0.182701
  33 H :    0.162249
  34 H :    0.163469
  35 H :    0.168785
  36 H :    0.180201
  37 H :    0.191081
  38 H :    0.167590
  39 H :    0.162605
  40 H :    0.163005

  Mayer bond orders larger than 0.100000
B(  0-C ,  1-C ) :   0.9282 B(  0-C , 19-H ) :   0.9599 B(  0-C , 20-H ) :   0.9662
B(  0-C , 21-H ) :   0.9668 B(  1-C ,  2-O ) :   0.7498 B(  1-C , 22-H ) :   0.9570
B(  1-C , 23-H ) :   0.9361 B(  2-O ,  3-P ) :   1.1626 B(  3-P ,  4-S ) :   1.7292
B(  3-P ,  5-O ) :   1.1196 B(  3-P ,  8-S ) :   1.0561 B(  5-O ,  6-C ) :   0.7887
B(  6-C ,  7-C ) :   0.9401 B(  6-C , 24-H ) :   0.9529 B(  6-C , 25-H ) :   0.9528
B(  7-C , 26-H ) :   0.9586 B(  7-C , 27-H ) :   0.9593 B(  7-C , 28-H ) :   0.9719
B(  8-S ,  9-C ) :   0.8866 B(  9-C , 10-S ) :   0.8866 B(  9-C , 29-H ) :   0.9021
B(  9-C , 30-H ) :   0.9036 B( 10-S , 11-P ) :   1.0783 B( 11-P , 12-S ) :   1.7279
B( 11-P , 13-O ) :   1.1261 B( 11-P , 16-O ) :   1.0684 B( 13-O , 14-C ) :   0.7524
B( 14-C , 15-C ) :   0.9160 B( 14-C , 31-H ) :   0.9539 B( 14-C , 32-H ) :   0.9510
B( 15-C , 33-H ) :   0.9607 B( 15-C , 34-H ) :   0.9732 B( 15-C , 35-H ) :   0.9588
B( 16-O , 17-C ) :   0.7731 B( 17-C , 18-C ) :   0.9444 B( 17-C , 36-H ) :   0.9553
B( 17-C , 37-H ) :   0.9524 B( 18-C , 38-H ) :   0.9592 B( 18-C , 39-H ) :   0.9720
B( 18-C , 40-H ) :   0.9602

Dispersion correction           -0.021961440
FINAL SINGLE POINT ENERGY     -2932.470377770500

DIPOLE MOMENT
-------------

Method             : SCF
Type of density    : Electron Density
Multiplicity       :   1
Irrep              :   0
Energy             : -2932.4950017974038019 Eh
Relativity type    :
Basis              : AO
                                X                 Y                 Z
Electronic contribution:      6.994338164      -2.308044286     -10.798506359
Nuclear contribution   :     -7.451143130       2.570392677      11.717761848
                        -----------------------------------------
Total Dipole Moment    :     -0.456804966       0.262348391       0.919255489
                        -----------------------------------------
Magnitude (a.u.)       :      1.059494271
Magnitude (Debye)      :      2.693020419

Rotational constants in cm-1:             0.013643             0.004921             0.004804
Rotational constants in MHz :           409.017442           147.540029           144.029880

                             ****ORCA TERMINATED NORMALLY****
TOTAL RUN TIME: 0 days 0 hours 1 minutes 50 seconds 449 msec
