                         Program Version 6.0.0  -   RELEASE  -
|  1> ! pbe def2-sv(p) def2/J RI DEFGRID1 loosescf d4 GCP(DFT/SV(P)) printgap
|  2> %output
|  3>     printlevel normal
|  4> end
|  5> * xyz 0 1
|  6> C 3.0925798407 -0.017735029 -3.3006517547
|  7> C 2.1464534322 -0.8461323411 -2.4546316714
|  8> O 2.7544821275 -1.1683454751 -1.1887126185
|  9> P 2.5254175164 -0.3334488694 0.1448777753
| 10> S 2.7695122059 1.6053657411 0.0863076931
| 11> O 3.5808305736 -0.9952505084 1.1071525262
| 12> C 3.6338284798 -2.4218448539 1.3781439952
| 13> C 3.1970480186 -2.6939888694 2.8037020834
| 14> S 0.6224021813 -1.0229614277 0.8140907038
| 15> C 0.0890688523 0.4919693216 1.6788778007
| 16> S -1.7012192124 0.5632121743 1.8329152732
| 17> P -2.2211049116 0.8624360717 -0.2263574518
| 18> S -0.7628368049 1.2921252469 -1.4585870326
| 19> O -3.2658778222 2.0358691775 -0.2121329491
| 20> C -4.4550518721 2.0394097844 0.6193173133
| 21> C -5.6623393618 1.5756433706 -0.1691911438
| 22> O -3.1366555137 -0.3953844289 -0.5597849505
| 23> C -2.7158746998 -1.7694621833 -0.4747402824
| 24> C -1.9351407711 -2.1970903378 -1.7009364922
| 25> H 4.0365724079 -0.5397377972 -3.4298923995
| 26> H 2.6394202865 0.1618150803 -4.2700811358
| 27> H 3.2813366752 0.9393904413 -2.8184422258
| 28> H 1.9399871298 -1.813279882 -2.9169371499
| 29> H 1.2101346727 -0.306270048 -2.2900404238
| 30> H 3.0026503827 -2.9476828399 0.658985493
| 31> H 4.6776459925 -2.6970757147 1.2213673935
| 32> H 2.1439807141 -2.4563129373 2.932141499
| 33> H 3.3522067697 -3.7447514955 3.0266281601
| 34> H 3.7825993184 -2.0910767747 3.492221841
| 35> H 0.4561057761 1.3525664649 1.1133345734
| 36> H 0.4816013614 0.4917079443 2.6930530912
| 37> H -4.2785652161 1.4052134767 1.4924123025
| 38> H -4.5612839639 3.0786256372 0.9353899305
| 39> H -5.5317059068 0.5461028064 -0.4902001375
| 40> H -6.5447029939 1.6482845078 0.4588390862
| 41> H -5.7942955172 2.2012907611 -1.0476820183
| 42> H -2.1186619484 -1.9064815965 0.4325384485
| 43> H -3.6510970321 -2.3253447031 -0.3868621962
| 44> H -1.704311884 -3.2544711684 -1.6256806007
| 45> H -2.5165018901 -2.0146945902 -2.6005381454
| 46> H -1.0056792912 -1.6363914056 -1.7692896261
| 47> *
| 48>
| 49>                          ****END OF INPUT****

CARTESIAN COORDINATES (ANGSTROEM)
---------------------------------
  C      3.092580   -0.017735   -3.300652
  C      2.146453   -0.846132   -2.454632
  O      2.754482   -1.168345   -1.188713
  P      2.525418   -0.333449    0.144878
  S      2.769512    1.605366    0.086308
  O      3.580831   -0.995251    1.107153
  C      3.633828   -2.421845    1.378144
  C      3.197048   -2.693989    2.803702
  S      0.622402   -1.022961    0.814091
  C      0.089069    0.491969    1.678878
  S     -1.701219    0.563212    1.832915
  P     -2.221105    0.862436   -0.226357
  S     -0.762837    1.292125   -1.458587
  O     -3.265878    2.035869   -0.212133
  C     -4.455052    2.039410    0.619317
  C     -5.662339    1.575643   -0.169191
  O     -3.136656   -0.395384   -0.559785
  C     -2.715875   -1.769462   -0.474740
  C     -1.935141   -2.197090   -1.700936
  H      4.036572   -0.539738   -3.429892
  H      2.639420    0.161815   -4.270081
  H      3.281337    0.939390   -2.818442
  H      1.939987   -1.813280   -2.916937
  H      1.210135   -0.306270   -2.290040
  H      3.002650   -2.947683    0.658985
  H      4.677646   -2.697076    1.221367
  H      2.143981   -2.456313    2.932141
  H      3.352207   -3.744751    3.026628
  H      3.782599   -2.091077    3.492222
  H      0.456106    1.352566    1.113335
  H      0.481601    0.491708    2.693053
  H     -4.278565    1.405213    1.492412
  H     -4.561284    3.078626    0.935390
  H     -5.531706    0.546103   -0.490200
  H     -6.544703    1.648285    0.458839
  H     -5.794296    2.201291   -1.047682
  H     -2.118662   -1.906482    0.432538
  H     -3.651097   -2.325345   -0.386862
  H     -1.704312   -3.254471   -1.625681
  H     -2.516502   -2.014695   -2.600538
  H     -1.005679   -1.636391   -1.769290

 Total Charge           Charge          ....    0
 Multiplicity           Mult            ....    1
 Number of Electrons    NEL             ....  202
 Basis Dimension        Dim             ....  334

ORBITAL ENERGIES
----------------

  NO   OCC          E(Eh)            E(eV)
   0   2.0000     -88.047968     -2395.9070
   1   2.0000     -88.040896     -2395.7146
   2   2.0000     -87.983684     -2394.1578
   3   2.0000     -87.982368     -2394.1219
   4   2.0000     -76.427514     -2079.6984
   5   2.0000     -76.423342     -2079.5849
   6   2.0000     -18.794614      -511.4274
   7   2.0000     -18.793368      -511.3935
   8   2.0000     -18.789668      -511.2928
   9   2.0000     -18.787398      -511.2311
  10   2.0000      -9.961556      -271.0677
  11   2.0000      -9.956457      -270.9290
  12   2.0000      -9.956420      -270.9280
  13   2.0000      -9.953113      -270.8380
  14   2.0000      -9.946992      -270.6714
  15   2.0000      -9.889608      -269.1099
  16   2.0000      -9.886699      -269.0308
  17   2.0000      -9.882433      -268.9147
  18   2.0000      -9.875400      -268.7233
  19   2.0000      -7.692774      -209.3310
  20   2.0000      -7.685331      -209.1285
  21   2.0000      -7.628518      -207.5825
  22   2.0000      -7.627599      -207.5575
  23   2.0000      -6.424875      -174.8297
  24   2.0000      -6.420796      -174.7187
  25   2.0000      -5.720666      -155.6672
  26   2.0000      -5.717162      -155.5719
  27   2.0000      -5.713112      -155.4617
  28   2.0000      -5.710004      -155.3771
  29   2.0000      -5.709931      -155.3751
  30   2.0000      -5.702335      -155.1684
  31   2.0000      -5.657696      -153.9537
  32   2.0000      -5.656638      -153.9249
  33   2.0000      -5.648929      -153.7152
  34   2.0000      -5.648616      -153.7066
  35   2.0000      -5.648047      -153.6912
  36   2.0000      -5.647758      -153.6833
  37   2.0000      -4.647594      -126.4675
  38   2.0000      -4.646847      -126.4471
  39   2.0000      -4.645022      -126.3975
  40   2.0000      -4.643541      -126.3572
  41   2.0000      -4.642566      -126.3307
  42   2.0000      -4.641136      -126.2917
  43   2.0000      -0.990652       -26.9570
  44   2.0000      -0.985094       -26.8058
  45   2.0000      -0.947178       -25.7740
  46   2.0000      -0.940798       -25.6004
  47   2.0000      -0.762439       -20.7470
  48   2.0000      -0.722007       -19.6468
  49   2.0000      -0.712959       -19.4006
  50   2.0000      -0.692734       -18.8502
  51   2.0000      -0.686447       -18.6792
  52   2.0000      -0.674539       -18.3551
  53   2.0000      -0.649986       -17.6870
  54   2.0000      -0.635916       -17.3041
  55   2.0000      -0.589771       -16.0485
  56   2.0000      -0.584410       -15.9026
  57   2.0000      -0.577416       -15.7123
  58   2.0000      -0.572982       -15.5916
  59   2.0000      -0.566094       -15.4042
  60   2.0000      -0.510152       -13.8819
  61   2.0000      -0.499611       -13.5951
  62   2.0000      -0.481265       -13.0959
  63   2.0000      -0.475559       -12.9406
  64   2.0000      -0.451677       -12.2908
  65   2.0000      -0.446693       -12.1551
  66   2.0000      -0.442738       -12.0475
  67   2.0000      -0.435352       -11.8465
  68   2.0000      -0.431045       -11.7293
  69   2.0000      -0.421620       -11.4729
  70   2.0000      -0.407871       -11.0987
  71   2.0000      -0.400135       -10.8882
  72   2.0000      -0.390140       -10.6163
  73   2.0000      -0.386963       -10.5298
  74   2.0000      -0.384659       -10.4671
  75   2.0000      -0.365145        -9.9361
  76   2.0000      -0.361619        -9.8402
  77   2.0000      -0.359586        -9.7848
  78   2.0000      -0.354990        -9.6598
  79   2.0000      -0.352143        -9.5823
  80   2.0000      -0.346977        -9.4417
  81   2.0000      -0.346237        -9.4216
  82   2.0000      -0.341672        -9.2974
  83   2.0000      -0.337003        -9.1703
  84   2.0000      -0.328794        -8.9470
  85   2.0000      -0.321321        -8.7436
  86   2.0000      -0.312543        -8.5047
  87   2.0000      -0.299667        -8.1544
  88   2.0000      -0.297203        -8.0873
  89   2.0000      -0.292798        -7.9674
  90   2.0000      -0.288860        -7.8603
  91   2.0000      -0.280080        -7.6214
  92   2.0000      -0.272445        -7.4136
  93   2.0000      -0.264512        -7.1977
  94   2.0000      -0.258082        -7.0228
  95   2.0000      -0.239096        -6.5061
  96   2.0000      -0.221654        -6.0315
  97   2.0000      -0.208142        -5.6638
  98   2.0000      -0.199197        -5.4204
  99   2.0000      -0.192651        -5.2423
 100   2.0000      -0.191166        -5.2019
 101   0.0000      -0.049576        -1.3490
 102   0.0000      -0.033807        -0.9199
 103   0.0000      -0.012905        -0.3512
 104   0.0000       0.006247         0.1700
 105   0.0000       0.012257         0.3335

MULLIKEN ATOMIC CHARGES
-----------------------
   0 C :   -0.281285
   1 C :   -0.055324
   2 O :   -0.381954
   3 P :    0.606709
   4 S :   -0.292729
   5 O :   -0.357349
   6 C :   -0.011709
   7 C :   -0.286425
   8 S :   -0.142943
   9 C :   -0.323729
  10 S :   -0.134213
  11 P :    0.599846
  12 S :   -0.294320
  13 O :   -0.350894
  14 C :   -0.019321
  15 C :   -0.288585
  16 O :   -0.376947
  17 C :   -0.012575
  18 C :   -0.309729
  19 H :    0.108730
  20 H :    0.108166
  21 H :    0.128341
  22 H :    0.100877
  23 H :    0.157408
  24 H :    0.103902
  25 H :    0.112332
  26 H :    0.116542
  27 H :    0.107948
  28 H :    0.120129
  29 H :    0.214666
  30 H :    0.179468
  31 H :    0.107241
  32 H :    0.116065
  33 H :    0.123270
  34 H :    0.110318
  35 H :    0.123215
  36 H :    0.108617
  37 H :    0.103443
  38 H :    0.105078
  39 H :    0.114589
  40 H :    0.143129
Sum of atomic charges:   -0.0000000

LOEWDIN ATOMIC CHARGES
----------------------
   0 C :   -0.359177
   1 C :   -0.122285
   2 O :   -0.248327
   3 P :    0.565509
   4 S :   -0.284825
   5 O :   -0.240364
   6 C :   -0.112474
   7 C :   -0.360277
   8 S :    0.051758
   9 C :   -0.477508
  10 S :    0.063974
  11 P :    0.563747
  12 S :   -0.281906
  13 O :   -0.232910
  14 C :   -0.111834
  15 C :   -0.358747
  16 O :   -0.245412
  17 C :   -0.118326
  18 C :   -0.366701
  19 H :    0.123199
  20 H :    0.129615
  21 H :    0.127200
  22 H :    0.115029
  23 H :    0.107784
  24 H :    0.107398
  25 H :    0.122389
  26 H :    0.119191
  27 H :    0.128852
  28 H :    0.129142
  29 H :    0.124342
  30 H :    0.134054
  31 H :    0.104445
  32 H :    0.124179
  33 H :    0.127080
  34 H :    0.129666
  35 H :    0.130862
  36 H :    0.097849
  37 H :    0.117294
  38 H :    0.128129
  39 H :    0.126848
  40 H :    0.121540

  Mayer bond orders larger than 0.100000
B(  0-C ,  1-C ) :   1.1675 B(  0-C , 19-H ) :   0.9476 B(  0-C , 20-H ) :   0.9398
B(  0-C , 21-H ) :   0.9344 B(  1-C ,  2-O ) :   0.8935 B(  1-C , 22-H ) :   0.9356
B(  1-C , 23-H ) :   0.8885 B(  2-O ,  3-P ) :   1.0998 B(  3-P ,  4-S ) :   1.6573
B(  3-P ,  5-O ) :   1.1388 B(  3-P ,  8-S ) :   0.9297 B(  4-S ,  8-S ) :   0.1159
B(  5-O ,  6-C ) :   0.8900 B(  6-C ,  7-C ) :   1.1629 B(  6-C , 24-H ) :   0.9182
B(  6-C , 25-H ) :   0.9346 B(  7-C , 26-H ) :   0.9382 B(  7-C , 27-H ) :   0.9402
B(  7-C , 28-H ) :   0.9463 B(  8-S ,  9-C ) :   0.9822 B(  9-C , 10-S ) :   1.0139
B(  9-C , 29-H ) :   0.8495 B(  9-C , 30-H ) :   0.9081 B( 10-S , 11-P ) :   0.9283
B( 10-S , 12-S ) :   0.1147 B( 11-P , 12-S ) :   1.6694 B( 11-P , 13-O ) :   1.1478
B( 11-P , 16-O ) :   1.0754 B( 13-O , 14-C ) :   0.8922 B( 14-C , 15-C ) :   1.1653
B( 14-C , 31-H ) :   0.9163 B( 14-C , 32-H ) :   0.9354 B( 15-C , 33-H ) :   0.9416
B( 15-C , 34-H ) :   0.9394 B( 15-C , 35-H ) :   0.9464 B( 16-O , 17-C ) :   0.9140
B( 17-C , 18-C ) :   1.1665 B( 17-C , 36-H ) :   0.9063 B( 17-C , 37-H ) :   0.9350
B( 18-C , 38-H ) :   0.9383 B( 18-C , 39-H ) :   0.9448 B( 18-C , 40-H ) :   0.9292

Dispersion correction           -0.064523631
FINAL SINGLE POINT ENERGY     -2929.515071868931

DIPOLE MOMENT
-------------

Method             : SCF
Type of density    : Electron Density
Multiplicity       :   1
Irrep              :   0
Energy             : -2929.6348377178610463 Eh
Relativity type    :
Basis              : AO
                                X                 Y                 Z
Electronic contribution:      5.433325521      13.717468002       5.328376678
Nuclear contribution   :     -6.587916143     -15.475941540      -4.844661609
                        -----------------------------------------
Total Dipole Moment    :     -1.154590622      -1.758473537       0.483715069
                        -----------------------------------------
Magnitude (a.u.)       :      2.158538615
Magnitude (Debye)      :      5.486569135

Rotational constants in cm-1:             0.012687             0.004699             0.004418
Rotational constants in MHz :           380.342895           140.860899           132.446396

                             ****ORCA TERMINATED NORMALLY****
TOTAL RUN TIME: 0 days 0 hours 0 minutes 20 seconds 790 msec
