                         Program Version 6.0.1  -  RELEASE   -
|  1> ! pbe def2-sv(p) def2/J RI DEFGRID1 loosescf d4 GCP(DFT/SV(P)) printgap
|  2> %output
|  3>     printlevel normal
|  4> end
|  5> * xyz 0 1
|  6> C 4.9374923591 0.3244274021 -1.2105855106
|  7> C 4.4749298942 -1.0837261723 -1.5467127971
|  8> O 3.039523605 -1.1946561262 -1.4888126941
|  9> C 2.4714785212 -1.3866387462 -0.3131559656
| 10> O 3.0704038495 -1.4961327086 0.731308937
| 11> C 0.9616523212 -1.5021871151 -0.4423313291
| 12> C 0.3755470149 -0.2696093998 -1.1339580361
| 13> H 0.8480589633 -0.1344209181 -2.1104291662
| 14> C 0.5821368335 0.9722083012 -0.2904214965
| 15> O -0.342332302 1.6314524719 0.142792731
| 16> O 1.8471066019 1.2270732552 -0.0986306907
| 17> C 2.2015301113 2.277095747 0.8285786088
| 18> C 2.2436099926 1.7258632617 2.2440796349
| 19> S -1.4026893904 -0.4494395501 -1.469535642
| 20> P -2.3052300427 0.0487175437 0.3982479946
| 21> S -1.3981814518 -0.3569414967 2.0895141718
| 22> O -2.9770071598 1.4777099294 0.3304845522
| 23> C -3.8289489048 1.8830937704 -0.7576799525
| 24> O -3.6417488519 -0.8396064548 0.236044284
| 25> C -3.6137614328 -2.2644715617 0.3330636348
| 26> H 4.6968249521 0.5553014857 -0.176127022
| 27> H 6.0118525831 0.390421323 -1.347241881
| 28> H 4.446651833 1.0452600056 -1.8586043776
| 29> H 4.9077847217 -1.8066977873 -0.8494507917
| 30> H 4.7222131492 -1.3506243442 -2.5742307216
| 31> H 0.5376532914 -1.6278884304 0.5565581793
| 32> H 0.7345471372 -2.3815502167 -1.0471324375
| 33> H 3.1843325317 2.6123064531 0.4976759184
| 34> H 1.4688648554 3.0836214797 0.7421078058
| 35> H 1.2483482168 1.4148827099 2.5587006226
| 36> H 2.9005187395 0.860028947 2.2895211116
| 37> H 2.6050108716 2.4912700345 2.9221898254
| 38> H -4.0755776369 2.9208460117 -0.5487554692
| 39> H -4.7251032835 1.2653680773 -0.7773134855
| 40> H -3.2935249519 1.7976645952 -1.7033555406
| 41> H -3.0280527478 -2.5695932843 1.2022594359
| 42> H -3.1857220937 -2.6893403226 -0.5747339123
| 43> H -4.649820416 -2.5724148743 0.4487512247
| 44> *
| 45>
| 46>                          ****END OF INPUT****

CARTESIAN COORDINATES (ANGSTROEM)
---------------------------------
  C      4.937492    0.324427   -1.210586
  C      4.474930   -1.083726   -1.546713
  O      3.039524   -1.194656   -1.488813
  C      2.471479   -1.386639   -0.313156
  O      3.070404   -1.496133    0.731309
  C      0.961652   -1.502187   -0.442331
  C      0.375547   -0.269609   -1.133958
  H      0.848059   -0.134421   -2.110429
  C      0.582137    0.972208   -0.290421
  O     -0.342332    1.631452    0.142793
  O      1.847107    1.227073   -0.098631
  C      2.201530    2.277096    0.828579
  C      2.243610    1.725863    2.244080
  S     -1.402689   -0.449440   -1.469536
  P     -2.305230    0.048718    0.398248
  S     -1.398181   -0.356941    2.089514
  O     -2.977007    1.477710    0.330485
  C     -3.828949    1.883094   -0.757680
  O     -3.641749   -0.839606    0.236044
  C     -3.613761   -2.264472    0.333064
  H      4.696825    0.555301   -0.176127
  H      6.011853    0.390421   -1.347242
  H      4.446652    1.045260   -1.858604
  H      4.907785   -1.806698   -0.849451
  H      4.722213   -1.350624   -2.574231
  H      0.537653   -1.627888    0.556558
  H      0.734547   -2.381550   -1.047132
  H      3.184333    2.612306    0.497676
  H      1.468865    3.083621    0.742108
  H      1.248348    1.414883    2.558701
  H      2.900519    0.860029    2.289521
  H      2.605011    2.491270    2.922190
  H     -4.075578    2.920846   -0.548755
  H     -4.725103    1.265368   -0.777313
  H     -3.293525    1.797665   -1.703356
  H     -3.028053   -2.569593    1.202259
  H     -3.185722   -2.689340   -0.574734
  H     -4.649820   -2.572415    0.448751

 Total Charge           Charge          ....    0
 Multiplicity           Mult            ....    1
 Number of Electrons    NEL             ....  174
 Basis Dimension        Dim             ....  316

ORBITAL ENERGIES
----------------

  NO   OCC          E(Eh)            E(eV)
   0   2.0000     -88.039039     -2395.6640
   1   2.0000     -87.973914     -2393.8919
   2   2.0000     -76.421472     -2079.5340
   3   2.0000     -18.822750      -512.1931
   4   2.0000     -18.805506      -511.7238
   5   2.0000     -18.781437      -511.0689
   6   2.0000     -18.779949      -511.0284
   7   2.0000     -18.755172      -510.3542
   8   2.0000     -18.740786      -509.9627
   9   2.0000     -10.027094      -272.8511
  10   2.0000     -10.012236      -272.4468
  11   2.0000      -9.954355      -270.8718
  12   2.0000      -9.954307      -270.8705
  13   2.0000      -9.952967      -270.8340
  14   2.0000      -9.942071      -270.5375
  15   2.0000      -9.935191      -270.3503
  16   2.0000      -9.908436      -269.6222
  17   2.0000      -9.891261      -269.1549
  18   2.0000      -9.879714      -268.8407
  19   2.0000      -7.683890      -209.0893
  20   2.0000      -7.618964      -207.3226
  21   2.0000      -6.417197      -174.6208
  22   2.0000      -5.711835      -155.4269
  23   2.0000      -5.708273      -155.3300
  24   2.0000      -5.700919      -155.1299
  25   2.0000      -5.648240      -153.6964
  26   2.0000      -5.639662      -153.4630
  27   2.0000      -5.638627      -153.4348
  28   2.0000      -4.640089      -126.2632
  29   2.0000      -4.639280      -126.2412
  30   2.0000      -4.637498      -126.1927
  31   2.0000      -1.032028       -28.0829
  32   2.0000      -1.012952       -27.5638
  33   2.0000      -0.976329       -26.5673
  34   2.0000      -0.936225       -25.4760
  35   2.0000      -0.929425       -25.2909
  36   2.0000      -0.917617       -24.9696
  37   2.0000      -0.769482       -20.9387
  38   2.0000      -0.712827       -19.3970
  39   2.0000      -0.709791       -19.3144
  40   2.0000      -0.687394       -18.7049
  41   2.0000      -0.658600       -17.9214
  42   2.0000      -0.627482       -17.0747
  43   2.0000      -0.622102       -16.9282
  44   2.0000      -0.612993       -16.6804
  45   2.0000      -0.597068       -16.2470
  46   2.0000      -0.570931       -15.5358
  47   2.0000      -0.512255       -13.9392
  48   2.0000      -0.504259       -13.7216
  49   2.0000      -0.501048       -13.6342
  50   2.0000      -0.486802       -13.2465
  51   2.0000      -0.467949       -12.7335
  52   2.0000      -0.465583       -12.6691
  53   2.0000      -0.447904       -12.1881
  54   2.0000      -0.444946       -12.1076
  55   2.0000      -0.431113       -11.7312
  56   2.0000      -0.422710       -11.5025
  57   2.0000      -0.421742       -11.4762
  58   2.0000      -0.410093       -11.1592
  59   2.0000      -0.406609       -11.0644
  60   2.0000      -0.404782       -11.0147
  61   2.0000      -0.396625       -10.7927
  62   2.0000      -0.391395       -10.6504
  63   2.0000      -0.385123       -10.4797
  64   2.0000      -0.381982       -10.3942
  65   2.0000      -0.365536        -9.9467
  66   2.0000      -0.359656        -9.7867
  67   2.0000      -0.353097        -9.6083
  68   2.0000      -0.344752        -9.3812
  69   2.0000      -0.343301        -9.3417
  70   2.0000      -0.337260        -9.1773
  71   2.0000      -0.330801        -9.0015
  72   2.0000      -0.326009        -8.8712
  73   2.0000      -0.315096        -8.5742
  74   2.0000      -0.301713        -8.2100
  75   2.0000      -0.299961        -8.1623
  76   2.0000      -0.292410        -7.9569
  77   2.0000      -0.288680        -7.8554
  78   2.0000      -0.274528        -7.4703
  79   2.0000      -0.264790        -7.2053
  80   2.0000      -0.262981        -7.1561
  81   2.0000      -0.251873        -6.8538
  82   2.0000      -0.241489        -6.5712
  83   2.0000      -0.231389        -6.2964
  84   2.0000      -0.217128        -5.9084
  85   2.0000      -0.192869        -5.2482
  86   2.0000      -0.186378        -5.0716
  87   0.0000      -0.045200        -1.2299
  88   0.0000      -0.037035        -1.0078
  89   0.0000      -0.022428        -0.6103
  90   0.0000       0.005976         0.1626
  91   0.0000       0.027583         0.7506

MULLIKEN ATOMIC CHARGES
-----------------------
   0 C :   -0.315197
   1 C :   -0.011179
   2 O :   -0.242588
   3 C :    0.109638
   4 O :   -0.192295
   5 C :   -0.047881
   6 C :   -0.322093
   7 H :    0.156504
   8 C :    0.217431
   9 O :   -0.180263
  10 O :   -0.222532
  11 C :   -0.015281
  12 C :   -0.328021
  13 S :   -0.094915
  14 P :    0.620619
  15 S :   -0.313926
  16 O :   -0.357190
  17 C :   -0.101500
  18 O :   -0.398792
  19 C :   -0.099107
  20 H :    0.136759
  21 H :    0.112694
  22 H :    0.113346
  23 H :    0.109068
  24 H :    0.102674
  25 H :    0.121244
  26 H :    0.119037
  27 H :    0.106979
  28 H :    0.116594
  29 H :    0.143156
  30 H :    0.137010
  31 H :    0.110960
  32 H :    0.128964
  33 H :    0.122473
  34 H :    0.114212
  35 H :    0.114616
  36 H :    0.108319
  37 H :    0.120460
Sum of atomic charges:    0.0000000

LOEWDIN ATOMIC CHARGES
----------------------
   0 C :   -0.357558
   1 C :   -0.108562
   2 O :   -0.064915
   3 C :    0.025303
   4 O :   -0.159344
   5 C :   -0.249542
   6 C :   -0.268150
   7 H :    0.149523
   8 C :    0.024114
   9 O :   -0.148129
  10 O :   -0.030928
  11 C :   -0.105866
  12 C :   -0.361620
  13 S :    0.095489
  14 P :    0.589653
  15 S :   -0.314278
  16 O :   -0.233649
  17 C :   -0.208752
  18 O :   -0.269111
  19 C :   -0.220944
  20 H :    0.129570
  21 H :    0.130511
  22 H :    0.123775
  23 H :    0.120691
  24 H :    0.117700
  25 H :    0.134783
  26 H :    0.142914
  27 H :    0.117120
  28 H :    0.123586
  29 H :    0.133771
  30 H :    0.132265
  31 H :    0.130140
  32 H :    0.125155
  33 H :    0.114650
  34 H :    0.108098
  35 H :    0.108265
  36 H :    0.104221
  37 H :    0.120049

  Mayer bond orders larger than 0.100000
B(  0-C ,  1-C ) :   1.1750 B(  0-C , 20-H ) :   0.9373 B(  0-C , 21-H ) :   0.9411
B(  0-C , 22-H ) :   0.9471 B(  1-C ,  2-O ) :   0.9208 B(  1-C , 23-H ) :   0.9169
B(  1-C , 24-H ) :   0.9380 B(  2-O ,  3-C ) :   1.1972 B(  3-C ,  4-O ) :   2.0486
B(  3-C ,  5-C ) :   1.0183 B(  5-C ,  6-C ) :   1.0276 B(  5-C , 25-H ) :   0.8767
B(  5-C , 26-H ) :   0.8855 B(  6-C ,  7-H ) :   0.8649 B(  6-C ,  8-C ) :   0.8989
B(  6-C , 13-S ) :   1.0270 B(  8-C ,  9-O ) :   1.9781 B(  8-C , 10-O ) :   1.2635
B(  9-O , 14-P ) :   0.1142 B( 10-O , 11-C ) :   0.8873 B( 11-C , 12-C ) :   1.1811
B( 11-C , 27-H ) :   0.9301 B( 11-C , 28-H ) :   0.9141 B( 12-C , 29-H ) :   0.9311
B( 12-C , 30-H ) :   0.9404 B( 12-C , 31-H ) :   0.9403 B( 13-S , 14-P ) :   0.9342
B( 13-S , 15-S ) :   0.1116 B( 14-P , 15-S ) :   1.6008 B( 14-P , 16-O ) :   1.1268
B( 14-P , 18-O ) :   1.0374 B( 16-O , 17-C ) :   0.9246 B( 17-C , 32-H ) :   0.9595
B( 17-C , 33-H ) :   0.9464 B( 17-C , 34-H ) :   0.9399 B( 18-O , 19-C ) :   0.9412
B( 19-C , 35-H ) :   0.9318 B( 19-C , 36-H ) :   0.9464 B( 19-C , 37-H ) :   0.9589

Dispersion correction           -0.053465885
FINAL SINGLE POINT ENERGY     -1979.014303453951

DIPOLE MOMENT
-------------

Method             : SCF
Type of density    : Electron Density
Multiplicity       :   1
Irrep              :   0
Energy             : -1979.1451964822340415 Eh
Relativity type    :
Basis              : AO
                                X                 Y                 Z
Electronic contribution:    -15.900374498      -2.785808648       0.902074634
Nuclear contribution   :     16.561059590       3.091880672      -2.580296506
                        -----------------------------------------
Total Dipole Moment    :      0.660685092       0.306072024      -1.678221871
                        -----------------------------------------
Magnitude (a.u.)       :      1.829375173
Magnitude (Debye)      :      4.649902156

Rotational constants in cm-1:             0.017511             0.006198             0.005741
Rotational constants in MHz :           524.979691           185.806569           172.111105

                             ****ORCA TERMINATED NORMALLY****
TOTAL RUN TIME: 0 days 0 hours 0 minutes 46 seconds 132 msec
