                         Program Version 6.0.0  -   RELEASE  -
|  1> ! pbe def2-sv(p) def2/J RI DEFGRID1 loosescf d4 GCP(DFT/SV(P)) printgap
|  2> %output
|  3>     printlevel normal
|  4> end
|  5> * xyz 0 1
|  6> C 1.1248870707 0.1579318551 2.919502659
|  7> C 2.6207151693 0.0569272799 2.7020286801
|  8> O 3.0147907893 0.5671107374 1.4165813372
|  9> P 2.6647675373 -0.1823551842 0.0581645586
| 10> S 2.7756691842 -2.1424652195 0.1425813015
| 11> O 3.6413838703 0.5280819242 -0.9651413584
| 12> C 4.9867984767 0.0613452401 -1.1991814867
| 13> C 5.8743063003 0.2346300372 0.0157090525
| 14> S 0.8575900091 0.6764670601 -0.6463263424
| 15> C -0.1028862119 -0.8404392447 -0.9370567617
| 16> S -1.4065560709 -1.0931159192 0.2872549582
| 17> P -2.7723627791 0.3109832245 -0.558608554
| 18> S -2.9165148342 0.284250646 -2.5081910322
| 19> O -2.3081948442 1.7190306759 -0.0285013654
| 20> C -2.175247381 2.0319785029 1.3824755093
| 21> C -1.1881818024 3.1735829824 1.5100421619
| 22> O -4.117214288 0.0754214544 0.2561021592
| 23> C -5.1083832664 -0.8950101044 -0.129762695
| 24> C -4.586339581 -2.3149820392 -0.055909231
| 25> H 0.6011721687 -0.5072305035 2.2325662679
| 26> H 0.8885026321 -0.1375481383 3.936615862
| 27> H 0.789995954 1.1783408916 2.7528963226
| 28> H 2.9507529944 -0.9842382304 2.7780806683
| 29> H 3.1731949524 0.67551981 3.4105387827
| 30> H 4.9394420341 -0.9912294759 -1.4964735102
| 31> H 5.3276417976 0.6679737861 -2.0392789589
| 32> H 5.5454889314 -0.4276426413 0.8152416651
| 33> H 6.8970899195 -0.0145588541 -0.2495847259
| 34> H 5.8308611012 1.2616946749 0.3683663635
| 35> H 0.5638221733 -1.7033500647 -0.8793183764
| 36> H -0.5644431627 -0.7586799542 -1.92175812
| 37> H -3.1638448889 2.3087199229 1.7529414925
| 38> H -1.8299786577 1.1369659623 1.9086285691
| 39> H -1.5500418747 4.0402024726 0.964559617
| 40> H -1.0722118882 3.4306498496 2.5581767928
| 41> H -0.2261315801 2.8841558374 1.0935710465
| 42> H -5.9215975286 -0.7269629319 0.5777759546
| 43> H -5.4423468383 -0.6602816791 -1.1449121712
| 44> H -5.40510979 -3.0063986337 -0.2272923388
| 45> H -3.8272408768 -2.4735806421 -0.8205019005
| 46> H -4.1474870157 -2.5081827389 0.9197677305
| 47> *
| 48>
| 49>                          ****END OF INPUT****

CARTESIAN COORDINATES (ANGSTROEM)
---------------------------------
  C      1.124887    0.157932    2.919503
  C      2.620715    0.056927    2.702029
  O      3.014791    0.567111    1.416581
  P      2.664768   -0.182355    0.058165
  S      2.775669   -2.142465    0.142581
  O      3.641384    0.528082   -0.965141
  C      4.986798    0.061345   -1.199181
  C      5.874306    0.234630    0.015709
  S      0.857590    0.676467   -0.646326
  C     -0.102886   -0.840439   -0.937057
  S     -1.406556   -1.093116    0.287255
  P     -2.772363    0.310983   -0.558609
  S     -2.916515    0.284251   -2.508191
  O     -2.308195    1.719031   -0.028501
  C     -2.175247    2.031979    1.382476
  C     -1.188182    3.173583    1.510042
  O     -4.117214    0.075421    0.256102
  C     -5.108383   -0.895010   -0.129763
  C     -4.586340   -2.314982   -0.055909
  H      0.601172   -0.507231    2.232566
  H      0.888503   -0.137548    3.936616
  H      0.789996    1.178341    2.752896
  H      2.950753   -0.984238    2.778081
  H      3.173195    0.675520    3.410539
  H      4.939442   -0.991229   -1.496474
  H      5.327642    0.667974   -2.039279
  H      5.545489   -0.427643    0.815242
  H      6.897090   -0.014559   -0.249585
  H      5.830861    1.261695    0.368366
  H      0.563822   -1.703350   -0.879318
  H     -0.564443   -0.758680   -1.921758
  H     -3.163845    2.308720    1.752941
  H     -1.829979    1.136966    1.908629
  H     -1.550042    4.040202    0.964560
  H     -1.072212    3.430650    2.558177
  H     -0.226132    2.884156    1.093571
  H     -5.921598   -0.726963    0.577776
  H     -5.442347   -0.660282   -1.144912
  H     -5.405110   -3.006399   -0.227292
  H     -3.827241   -2.473581   -0.820502
  H     -4.147487   -2.508183    0.919768

 Total Charge           Charge          ....    0
 Multiplicity           Mult            ....    1
 Number of Electrons    NEL             ....  202
 Basis Dimension        Dim             ....  334

ORBITAL ENERGIES
----------------

  NO   OCC          E(Eh)            E(eV)
   0   2.0000     -88.044096     -2395.8016
   1   2.0000     -88.042141     -2395.7485
   2   2.0000     -87.996906     -2394.5175
   3   2.0000     -87.986683     -2394.2394
   4   2.0000     -76.429601     -2079.7552
   5   2.0000     -76.426589     -2079.6732
   6   2.0000     -18.796719      -511.4847
   7   2.0000     -18.795645      -511.4555
   8   2.0000     -18.792668      -511.3745
   9   2.0000     -18.791557      -511.3443
  10   2.0000      -9.956228      -270.9227
  11   2.0000      -9.956150      -270.9206
  12   2.0000      -9.955325      -270.8982
  13   2.0000      -9.954292      -270.8701
  14   2.0000      -9.949745      -270.7463
  15   2.0000      -9.887557      -269.0541
  16   2.0000      -9.886546      -269.0266
  17   2.0000      -9.886528      -269.0261
  18   2.0000      -9.885993      -269.0116
  19   2.0000      -7.688556      -209.2163
  20   2.0000      -7.687198      -209.1793
  21   2.0000      -7.641665      -207.9403
  22   2.0000      -7.631942      -207.6757
  23   2.0000      -6.427510      -174.9014
  24   2.0000      -6.424334      -174.8150
  25   2.0000      -5.716151      -155.5444
  26   2.0000      -5.715043      -155.5142
  27   2.0000      -5.713159      -155.4630
  28   2.0000      -5.711843      -155.4272
  29   2.0000      -5.705801      -155.2627
  30   2.0000      -5.704021      -155.2143
  31   2.0000      -5.670345      -154.2979
  32   2.0000      -5.662553      -154.0859
  33   2.0000      -5.661829      -154.0662
  34   2.0000      -5.660915      -154.0413
  35   2.0000      -5.652485      -153.8119
  36   2.0000      -5.652094      -153.8013
  37   2.0000      -4.649785      -126.5271
  38   2.0000      -4.649128      -126.5092
  39   2.0000      -4.648317      -126.4871
  40   2.0000      -4.647256      -126.4583
  41   2.0000      -4.645970      -126.4233
  42   2.0000      -4.644563      -126.3850
  43   2.0000      -0.990286       -26.9471
  44   2.0000      -0.989602       -26.9284
  45   2.0000      -0.948350       -25.8059
  46   2.0000      -0.946966       -25.7683
  47   2.0000      -0.762569       -20.7506
  48   2.0000      -0.724361       -19.7109
  49   2.0000      -0.712506       -19.3883
  50   2.0000      -0.691422       -18.8145
  51   2.0000      -0.690361       -18.7857
  52   2.0000      -0.677497       -18.4356
  53   2.0000      -0.653994       -17.7961
  54   2.0000      -0.639962       -17.4142
  55   2.0000      -0.606781       -16.5114
  56   2.0000      -0.593621       -16.1533
  57   2.0000      -0.575702       -15.6656
  58   2.0000      -0.572691       -15.5837
  59   2.0000      -0.557741       -15.1769
  60   2.0000      -0.507302       -13.8044
  61   2.0000      -0.495876       -13.4935
  62   2.0000      -0.476516       -12.9667
  63   2.0000      -0.475986       -12.9522
  64   2.0000      -0.461113       -12.5475
  65   2.0000      -0.445994       -12.1361
  66   2.0000      -0.443009       -12.0549
  67   2.0000      -0.439626       -11.9628
  68   2.0000      -0.433873       -11.8063
  69   2.0000      -0.422520       -11.4973
  70   2.0000      -0.409648       -11.1471
  71   2.0000      -0.396525       -10.7900
  72   2.0000      -0.392622       -10.6838
  73   2.0000      -0.392516       -10.6809
  74   2.0000      -0.384732       -10.4691
  75   2.0000      -0.376238       -10.2380
  76   2.0000      -0.365510        -9.9460
  77   2.0000      -0.359687        -9.7876
  78   2.0000      -0.357015        -9.7149
  79   2.0000      -0.355891        -9.6843
  80   2.0000      -0.351112        -9.5542
  81   2.0000      -0.344141        -9.3645
  82   2.0000      -0.343843        -9.3564
  83   2.0000      -0.340699        -9.2709
  84   2.0000      -0.336054        -9.1445
  85   2.0000      -0.319091        -8.6829
  86   2.0000      -0.314127        -8.5478
  87   2.0000      -0.303346        -8.2545
  88   2.0000      -0.299563        -8.1515
  89   2.0000      -0.296161        -8.0590
  90   2.0000      -0.288406        -7.8479
  91   2.0000      -0.276656        -7.5282
  92   2.0000      -0.271982        -7.4010
  93   2.0000      -0.266806        -7.2602
  94   2.0000      -0.261016        -7.1026
  95   2.0000      -0.233148        -6.3443
  96   2.0000      -0.221480        -6.0268
  97   2.0000      -0.218157        -5.9364
  98   2.0000      -0.210436        -5.7263
  99   2.0000      -0.206914        -5.6304
 100   2.0000      -0.199850        -5.4382
 101   0.0000      -0.043668        -1.1883
 102   0.0000      -0.032433        -0.8826
 103   0.0000      -0.012123        -0.3299
 104   0.0000       0.003392         0.0923
 105   0.0000       0.017744         0.4828

MULLIKEN ATOMIC CHARGES
-----------------------
   0 C :   -0.344492
   1 C :    0.001387
   2 O :   -0.370766
   3 P :    0.612265
   4 S :   -0.332868
   5 O :   -0.366017
   6 C :   -0.001667
   7 C :   -0.309916
   8 S :   -0.067915
   9 C :   -0.370298
  10 S :   -0.099413
  11 P :    0.597984
  12 S :   -0.306045
  13 O :   -0.355728
  14 C :   -0.018680
  15 C :   -0.292479
  16 O :   -0.385747
  17 C :    0.001551
  18 C :   -0.322425
  19 H :    0.136221
  20 H :    0.111502
  21 H :    0.126582
  22 H :    0.111431
  23 H :    0.104861
  24 H :    0.112973
  25 H :    0.109334
  26 H :    0.122332
  27 H :    0.113314
  28 H :    0.119392
  29 H :    0.196574
  30 H :    0.196518
  31 H :    0.107765
  32 H :    0.109435
  33 H :    0.121257
  34 H :    0.107865
  35 H :    0.138187
  36 H :    0.105569
  37 H :    0.113933
  38 H :    0.115670
  39 H :    0.132172
  40 H :    0.118384
Sum of atomic charges:   -0.0000000

LOEWDIN ATOMIC CHARGES
----------------------
   0 C :   -0.372655
   1 C :   -0.118377
   2 O :   -0.243877
   3 P :    0.572153
   4 S :   -0.311652
   5 O :   -0.242749
   6 C :   -0.113930
   7 C :   -0.365138
   8 S :    0.098848
   9 C :   -0.490488
  10 S :    0.086484
  11 P :    0.568628
  12 S :   -0.306459
  13 O :   -0.235991
  14 C :   -0.115311
  15 C :   -0.355819
  16 O :   -0.249572
  17 C :   -0.114516
  18 C :   -0.371773
  19 H :    0.114214
  20 H :    0.130992
  21 H :    0.125475
  22 H :    0.109778
  23 H :    0.118727
  24 H :    0.112306
  25 H :    0.121197
  26 H :    0.122410
  27 H :    0.131006
  28 H :    0.127598
  29 H :    0.125982
  30 H :    0.127907
  31 H :    0.115806
  32 H :    0.103649
  33 H :    0.130275
  34 H :    0.128009
  35 H :    0.124267
  36 H :    0.119066
  37 H :    0.114458
  38 H :    0.132477
  39 H :    0.123262
  40 H :    0.123329

  Mayer bond orders larger than 0.100000
B(  0-C ,  1-C ) :   1.1624 B(  0-C , 19-H ) :   0.9262 B(  0-C , 20-H ) :   0.9365
B(  0-C , 21-H ) :   0.9364 B(  1-C ,  2-O ) :   0.9130 B(  1-C , 22-H ) :   0.9151
B(  1-C , 23-H ) :   0.9327 B(  2-O ,  3-P ) :   1.1024 B(  3-P ,  4-S ) :   1.5820
B(  3-P ,  5-O ) :   1.1401 B(  3-P ,  8-S ) :   0.9637 B(  4-S ,  8-S ) :   0.1165
B(  4-S , 29-H ) :   0.1073 B(  5-O ,  6-C ) :   0.9094 B(  6-C ,  7-C ) :   1.1628
B(  6-C , 24-H ) :   0.9202 B(  6-C , 25-H ) :   0.9353 B(  7-C , 26-H ) :   0.9383
B(  7-C , 27-H ) :   0.9380 B(  7-C , 28-H ) :   0.9456 B(  8-S ,  9-C ) :   1.0059
B(  9-C , 10-S ) :   1.0054 B(  9-C , 29-H ) :   0.8537 B(  9-C , 30-H ) :   0.8645
B( 10-S , 11-P ) :   0.9478 B( 10-S , 12-S ) :   0.1072 B( 11-P , 12-S ) :   1.6422
B( 11-P , 13-O ) :   1.1431 B( 11-P , 16-O ) :   1.0905 B( 13-O , 14-C ) :   0.8860
B( 14-C , 15-C ) :   1.1702 B( 14-C , 31-H ) :   0.9305 B( 14-C , 32-H ) :   0.9077
B( 15-C , 33-H ) :   0.9457 B( 15-C , 34-H ) :   0.9384 B( 15-C , 35-H ) :   0.9336
B( 16-O , 17-C ) :   0.9056 B( 17-C , 18-C ) :   1.1660 B( 17-C , 36-H ) :   0.9344
B( 17-C , 37-H ) :   0.9203 B( 18-C , 38-H ) :   0.9367 B( 18-C , 39-H ) :   0.9342
B( 18-C , 40-H ) :   0.9433

Dispersion correction           -0.063892989
FINAL SINGLE POINT ENERGY     -2929.523173889949

DIPOLE MOMENT
-------------

Method             : SCF
Type of density    : Electron Density
Multiplicity       :   1
Irrep              :   0
Energy             : -2929.6442037944375443 Eh
Relativity type    :
Basis              : AO
                                X                 Y                 Z
Electronic contribution:     -4.007601108      -2.305402184     -15.148396542
Nuclear contribution   :      4.207634962       2.512088232      16.757638044
                        -----------------------------------------
Total Dipole Moment    :      0.200033855       0.206686049       1.609241502
                        -----------------------------------------
Magnitude (a.u.)       :      1.634744897
Magnitude (Debye)      :      4.155191309

Rotational constants in cm-1:             0.014170             0.004114             0.003950
Rotational constants in MHz :           424.799648           123.325293           118.406934

                             ****ORCA TERMINATED NORMALLY****
TOTAL RUN TIME: 0 days 0 hours 0 minutes 20 seconds 719 msec
