                         Program Version 6.0.0  -   RELEASE  -
|  1> ! pbe def2-sv(p) def2/J RI DEFGRID1 loosescf d4 GCP(DFT/SV(P)) printgap
|  2> %output
|  3>     printlevel normal
|  4> end
|  5> * xyz 0 1
|  6> C 1.0238013006 -3.1930169641 1.0559633161
|  7> C 1.9205397569 -2.1676824689 1.7208333972
|  8> O 1.5308674653 -0.8329913901 1.3174042264
|  9> P 2.3803961498 0.015725903 0.2828053764
| 10> S 3.1695336271 -0.9612231329 -1.2287075221
| 11> O 3.4492139892 0.6842077279 1.252553189
| 12> C 4.644183107 1.3188385143 0.7659518386
| 13> C 4.3408991475 2.5958774952 0.0092636193
| 14> S 0.9864452846 1.5374912135 -0.1481131394
| 15> C 0.230895525 0.7112317682 -1.5776893757
| 16> S -0.7102232428 -0.7617733091 -1.1282102632
| 17> P -2.5270339282 0.1978139101 -0.5098859723
| 18> S -2.7405459962 2.0649715697 -1.0472585456
| 19> O -2.6588631748 -0.1670524049 1.0367742134
| 20> C -1.7301399874 0.2016524484 2.069503878
| 21> C -1.7769462242 1.6814955726 2.3922012203
| 22> O -3.6691526131 -0.6794652607 -1.1399509652
| 23> C -3.7598193094 -2.1194391166 -0.9961720241
| 24> C -4.7003611234 -2.4920193075 0.1314632155
| 25> H 1.2925804669 -4.1845283615 1.405384669
| 26> H -0.0166365556 -2.9943544469 1.2969360809
| 27> H 1.1435415424 -3.1496946571 -0.0246333452
| 28> H 2.9680458441 -2.3337178489 1.4544481594
| 29> H 1.8119452909 -2.1793626717 2.8063900633
| 30> H 5.2246443919 1.5124775562 1.668867957
| 31> H 5.1763069348 0.6087184985 0.1246250357
| 32> H 3.7185181421 3.2533507754 0.6111652112
| 33> H 5.2706347557 3.1004406925 -0.2332938612
| 34> H 3.8136668326 2.3650971536 -0.915777263
| 35> H 1.0142751687 0.3839793666 -2.2605602991
| 36> H -0.4330275973 1.4414962968 -2.0414571623
| 37> H -2.0467231499 -0.3970721169 2.9260890161
| 38> H -0.7218889895 -0.098453872 1.7684535998
| 39> H -1.4285322657 2.2698106726 1.5453920574
| 40> H -2.7943598841 1.9827094264 2.6281520079
| 41> H -1.1343783945 1.8807119211 3.243892619
| 42> H -4.1394589479 -2.4638114555 -1.959768064
| 43> H -2.7566805706 -2.5230532066 -0.8328532076
| 44> H -4.7944508318 -3.5727029462 0.1722702881
| 45> H -4.3182661281 -2.1268862469 1.0806041325
| 46> H -5.6787153392 -2.0526219108 -0.0424443543
| 47> *
| 48>
| 49>                          ****END OF INPUT****

CARTESIAN COORDINATES (ANGSTROEM)
---------------------------------
  C      1.023801   -3.193017    1.055963
  C      1.920540   -2.167682    1.720833
  O      1.530867   -0.832991    1.317404
  P      2.380396    0.015726    0.282805
  S      3.169534   -0.961223   -1.228708
  O      3.449214    0.684208    1.252553
  C      4.644183    1.318839    0.765952
  C      4.340899    2.595877    0.009264
  S      0.986445    1.537491   -0.148113
  C      0.230896    0.711232   -1.577689
  S     -0.710223   -0.761773   -1.128210
  P     -2.527034    0.197814   -0.509886
  S     -2.740546    2.064972   -1.047259
  O     -2.658863   -0.167052    1.036774
  C     -1.730140    0.201652    2.069504
  C     -1.776946    1.681496    2.392201
  O     -3.669153   -0.679465   -1.139951
  C     -3.759819   -2.119439   -0.996172
  C     -4.700361   -2.492019    0.131463
  H      1.292580   -4.184528    1.405385
  H     -0.016637   -2.994354    1.296936
  H      1.143542   -3.149695   -0.024633
  H      2.968046   -2.333718    1.454448
  H      1.811945   -2.179363    2.806390
  H      5.224644    1.512478    1.668868
  H      5.176307    0.608718    0.124625
  H      3.718518    3.253351    0.611165
  H      5.270635    3.100441   -0.233294
  H      3.813667    2.365097   -0.915777
  H      1.014275    0.383979   -2.260560
  H     -0.433028    1.441496   -2.041457
  H     -2.046723   -0.397072    2.926089
  H     -0.721889   -0.098454    1.768454
  H     -1.428532    2.269811    1.545392
  H     -2.794360    1.982709    2.628152
  H     -1.134378    1.880712    3.243893
  H     -4.139459   -2.463811   -1.959768
  H     -2.756681   -2.523053   -0.832853
  H     -4.794451   -3.572703    0.172270
  H     -4.318266   -2.126886    1.080604
  H     -5.678715   -2.052622   -0.042444

 Total Charge           Charge          ....    0
 Multiplicity           Mult            ....    1
 Number of Electrons    NEL             ....  202
 Basis Dimension        Dim             ....  334

ORBITAL ENERGIES
----------------

  NO   OCC          E(Eh)            E(eV)
   0   2.0000     -88.047782     -2395.9020
   1   2.0000     -88.041674     -2395.7357
   2   2.0000     -87.995085     -2394.4680
   3   2.0000     -87.985695     -2394.2125
   4   2.0000     -76.431837     -2079.8160
   5   2.0000     -76.426111     -2079.6602
   6   2.0000     -18.797298      -511.5005
   7   2.0000     -18.795754      -511.4585
   8   2.0000     -18.792238      -511.3628
   9   2.0000     -18.791147      -511.3331
  10   2.0000      -9.960543      -271.0402
  11   2.0000      -9.958626      -270.9880
  12   2.0000      -9.955803      -270.9112
  13   2.0000      -9.953989      -270.8618
  14   2.0000      -9.947602      -270.6880
  15   2.0000      -9.888509      -269.0800
  16   2.0000      -9.886930      -269.0370
  17   2.0000      -9.886417      -269.0231
  18   2.0000      -9.874175      -268.6900
  19   2.0000      -7.692695      -209.3289
  20   2.0000      -7.686338      -209.1559
  21   2.0000      -7.639944      -207.8934
  22   2.0000      -7.630920      -207.6479
  23   2.0000      -6.429537      -174.9566
  24   2.0000      -6.423505      -174.7924
  25   2.0000      -5.720487      -155.6624
  26   2.0000      -5.717360      -155.5773
  27   2.0000      -5.714185      -155.4909
  28   2.0000      -5.710862      -155.4004
  29   2.0000      -5.709589      -155.3658
  30   2.0000      -5.703389      -155.1971
  31   2.0000      -5.668749      -154.2545
  32   2.0000      -5.660705      -154.0356
  33   2.0000      -5.660125      -154.0198
  34   2.0000      -5.659978      -154.0158
  35   2.0000      -5.651517      -153.7856
  36   2.0000      -5.650907      -153.7690
  37   2.0000      -4.652019      -126.5879
  38   2.0000      -4.651254      -126.5670
  39   2.0000      -4.650099      -126.5356
  40   2.0000      -4.646215      -126.4299
  41   2.0000      -4.645392      -126.4075
  42   2.0000      -4.643758      -126.3631
  43   2.0000      -0.991938       -26.9920
  44   2.0000      -0.987559       -26.8728
  45   2.0000      -0.950050       -25.8522
  46   2.0000      -0.943668       -25.6785
  47   2.0000      -0.766303       -20.8522
  48   2.0000      -0.724299       -19.7092
  49   2.0000      -0.712793       -19.3961
  50   2.0000      -0.690110       -18.7788
  51   2.0000      -0.687316       -18.7028
  52   2.0000      -0.676488       -18.4082
  53   2.0000      -0.652614       -17.7585
  54   2.0000      -0.642085       -17.4720
  55   2.0000      -0.602660       -16.3992
  56   2.0000      -0.587551       -15.9881
  57   2.0000      -0.578713       -15.7476
  58   2.0000      -0.574909       -15.6441
  59   2.0000      -0.562624       -15.3098
  60   2.0000      -0.508528       -13.8378
  61   2.0000      -0.500287       -13.6135
  62   2.0000      -0.475635       -12.9427
  63   2.0000      -0.473836       -12.8937
  64   2.0000      -0.460834       -12.5399
  65   2.0000      -0.447602       -12.1799
  66   2.0000      -0.444883       -12.1059
  67   2.0000      -0.437821       -11.9137
  68   2.0000      -0.427922       -11.6444
  69   2.0000      -0.420347       -11.4382
  70   2.0000      -0.405626       -11.0376
  71   2.0000      -0.400270       -10.8919
  72   2.0000      -0.398711       -10.8495
  73   2.0000      -0.386690       -10.5224
  74   2.0000      -0.384950       -10.4750
  75   2.0000      -0.376755       -10.2520
  76   2.0000      -0.366217        -9.9653
  77   2.0000      -0.358711        -9.7610
  78   2.0000      -0.356804        -9.7091
  79   2.0000      -0.354062        -9.6345
  80   2.0000      -0.349585        -9.5127
  81   2.0000      -0.346202        -9.4206
  82   2.0000      -0.340773        -9.2729
  83   2.0000      -0.340218        -9.2578
  84   2.0000      -0.332431        -9.0459
  85   2.0000      -0.323223        -8.7954
  86   2.0000      -0.313490        -8.5305
  87   2.0000      -0.301502        -8.2043
  88   2.0000      -0.296712        -8.0740
  89   2.0000      -0.289496        -7.8776
  90   2.0000      -0.287115        -7.8128
  91   2.0000      -0.281458        -7.6589
  92   2.0000      -0.276862        -7.5338
  93   2.0000      -0.268434        -7.3045
  94   2.0000      -0.258793        -7.0421
  95   2.0000      -0.237263        -6.4563
  96   2.0000      -0.219885        -5.9834
  97   2.0000      -0.215073        -5.8524
  98   2.0000      -0.208848        -5.6830
  99   2.0000      -0.204345        -5.5605
 100   2.0000      -0.199278        -5.4226
 101   0.0000      -0.048771        -1.3271
 102   0.0000      -0.031102        -0.8463
 103   0.0000      -0.009518        -0.2590
 104   0.0000      -0.001268        -0.0345
 105   0.0000       0.006077         0.1654

MULLIKEN ATOMIC CHARGES
-----------------------
   0 C :   -0.289144
   1 C :   -0.001700
   2 O :   -0.360291
   3 P :    0.607924
   4 S :   -0.334268
   5 O :   -0.371000
   6 C :   -0.005743
   7 C :   -0.316315
   8 S :   -0.072528
   9 C :   -0.354619
  10 S :   -0.115630
  11 P :    0.606880
  12 S :   -0.306524
  13 O :   -0.379120
  14 C :   -0.048252
  15 C :   -0.302068
  16 O :   -0.354725
  17 C :   -0.019902
  18 C :   -0.288381
  19 H :    0.108578
  20 H :    0.113850
  21 H :    0.128773
  22 H :    0.105663
  23 H :    0.107392
  24 H :    0.106332
  25 H :    0.112444
  26 H :    0.119758
  27 H :    0.115055
  28 H :    0.126938
  29 H :    0.194034
  30 H :    0.195739
  31 H :    0.096656
  32 H :    0.142798
  33 H :    0.134593
  34 H :    0.113102
  35 H :    0.104221
  36 H :    0.114896
  37 H :    0.109211
  38 H :    0.109244
  39 H :    0.123772
  40 H :    0.122358
Sum of atomic charges:    0.0000000

LOEWDIN ATOMIC CHARGES
----------------------
   0 C :   -0.359420
   1 C :   -0.112029
   2 O :   -0.239563
   3 P :    0.570751
   4 S :   -0.322660
   5 O :   -0.245774
   6 C :   -0.119830
   7 C :   -0.368913
   8 S :    0.107685
   9 C :   -0.485078
  10 S :    0.069983
  11 P :    0.567865
  12 S :   -0.295373
  13 O :   -0.245889
  14 C :   -0.127344
  15 C :   -0.367613
  16 O :   -0.235079
  17 C :   -0.111396
  18 C :   -0.358932
  19 H :    0.128313
  20 H :    0.122189
  21 H :    0.125836
  22 H :    0.110381
  23 H :    0.118229
  24 H :    0.119309
  25 H :    0.110671
  26 H :    0.125458
  27 H :    0.132053
  28 H :    0.121349
  29 H :    0.130189
  30 H :    0.129103
  31 H :    0.114742
  32 H :    0.105984
  33 H :    0.116750
  34 H :    0.125220
  35 H :    0.127978
  36 H :    0.123791
  37 H :    0.104266
  38 H :    0.129123
  39 H :    0.127157
  40 H :    0.130522

  Mayer bond orders larger than 0.100000
B(  0-C ,  1-C ) :   1.1723 B(  0-C , 19-H ) :   0.9397 B(  0-C , 20-H ) :   0.9476
B(  0-C , 21-H ) :   0.9379 B(  1-C ,  2-O ) :   0.8827 B(  1-C , 22-H ) :   0.9116
B(  1-C , 23-H ) :   0.9342 B(  2-O ,  3-P ) :   1.1218 B(  3-P ,  4-S ) :   1.5868
B(  3-P ,  5-O ) :   1.1154 B(  3-P ,  8-S ) :   0.9666 B(  4-S ,  8-S ) :   0.1092
B(  5-O ,  6-C ) :   0.9080 B(  6-C ,  7-C ) :   1.1646 B(  6-C , 24-H ) :   0.9336
B(  6-C , 25-H ) :   0.9156 B(  7-C , 26-H ) :   0.9450 B(  7-C , 27-H ) :   0.9379
B(  7-C , 28-H ) :   0.9357 B(  8-S ,  9-C ) :   0.9982 B(  9-C , 10-S ) :   1.0188
B(  9-C , 29-H ) :   0.8765 B(  9-C , 30-H ) :   0.8649 B( 10-S , 11-P ) :   0.9347
B( 10-S , 12-S ) :   0.1122 B( 11-P , 12-S ) :   1.6520 B( 11-P , 13-O ) :   1.0806
B( 11-P , 16-O ) :   1.1452 B( 13-O , 14-C ) :   0.9076 B( 14-C , 15-C ) :   1.1674
B( 14-C , 31-H ) :   0.9341 B( 14-C , 32-H ) :   0.8939 B( 15-C , 33-H ) :   0.9285
B( 15-C , 34-H ) :   0.9453 B( 15-C , 35-H ) :   0.9380 B( 16-O , 17-C ) :   0.8941
B( 17-C , 18-C ) :   1.1648 B( 17-C , 36-H ) :   0.9356 B( 17-C , 37-H ) :   0.9155
B( 18-C , 38-H ) :   0.9394 B( 18-C , 39-H ) :   0.9413 B( 18-C , 40-H ) :   0.9465

Dispersion correction           -0.065775123
FINAL SINGLE POINT ENERGY     -2929.523820414967

DIPOLE MOMENT
-------------

Method             : SCF
Type of density    : Electron Density
Multiplicity       :   1
Irrep              :   0
Energy             : -2929.6433761450180100 Eh
Relativity type    :
Basis              : AO
                                X                 Y                 Z
Electronic contribution:     -0.569457810       7.889566223     -12.640884261
Nuclear contribution   :      1.189282068      -8.963803199      13.872464462
                        -----------------------------------------
Total Dipole Moment    :      0.619824258      -1.074236976       1.231580201
                        -----------------------------------------
Magnitude (a.u.)       :      1.747843524
Magnitude (Debye)      :      4.442665173

Rotational constants in cm-1:             0.012689             0.005011             0.004529
Rotational constants in MHz :           380.413481           150.230054           135.779949

                             ****ORCA TERMINATED NORMALLY****
TOTAL RUN TIME: 0 days 0 hours 0 minutes 21 seconds 502 msec
