                         Program Version 6.0.0  -   RELEASE  -
|  1> ! pbe def2-sv(p) def2/J RI DEFGRID1 loosescf d4 GCP(DFT/SV(P)) printgap
|  2> %output
|  3>     printlevel normal
|  4> end
|  5> * xyz 0 1
|  6> C 0.5976851377 1.7038353328 -0.0571838529
|  7> C 1.3982569501 0.4083232672 -0.273642469
|  8> H 1.5963282628 0.2805442938 -1.3511237146
|  9> C 0.5488111467 -0.7772153089 0.2041042666
| 10> H 0.3750289256 -0.6868205515 1.2815042915
| 11> C -0.8022443158 -0.7351282584 -0.5270655273
| 12> H -0.6217147368 -0.7835858755 -1.6158054033
| 13> C -1.4885832348 0.6111817938 -0.2423166788
| 14> H -2.4027183318 0.6828198279 -0.8462160154
| 15> O -0.6693210828 1.6655083789 -0.6978907181
| 16> O -1.7557795171 0.7060785265 1.1152974891
| 17> O -1.6442656991 -1.7861412301 -0.1422693987
| 18> O 1.1663938772 -2.0262991467 0.0263648238
| 19> O 2.6000768022 0.4157549558 0.4545941557
| 20> H 1.1074328142 2.5617653921 -0.4963057704
| 21> H 0.47256473 1.8562441332 1.0216036667
| 22> H -2.389569138 1.4187082923 1.2873023202
| 23> H -1.0855473791 -2.5396800846 0.1115219186
| 24> H 1.5584448208 -2.0801933102 -0.8576011367
| 25> H 3.1719176964 1.1313312366 0.141595993
| 26> *
| 27>
| 28>                          ****END OF INPUT****

CARTESIAN COORDINATES (ANGSTROEM)
---------------------------------
  C      0.597685    1.703835   -0.057184
  C      1.398257    0.408323   -0.273642
  H      1.596328    0.280544   -1.351124
  C      0.548811   -0.777215    0.204104
  H      0.375029   -0.686821    1.281504
  C     -0.802244   -0.735128   -0.527066
  H     -0.621715   -0.783586   -1.615805
  C     -1.488583    0.611182   -0.242317
  H     -2.402718    0.682820   -0.846216
  O     -0.669321    1.665508   -0.697891
  O     -1.755780    0.706079    1.115297
  O     -1.644266   -1.786141   -0.142269
  O      1.166394   -2.026299    0.026365
  O      2.600077    0.415755    0.454594
  H      1.107433    2.561765   -0.496306
  H      0.472565    1.856244    1.021604
  H     -2.389569    1.418708    1.287302
  H     -1.085547   -2.539680    0.111522
  H      1.558445   -2.080193   -0.857601
  H      3.171918    1.131331    0.141596

 Total Charge           Charge          ....    0
 Multiplicity           Mult            ....    1
 Number of Electrons    NEL             ....   80
 Basis Dimension        Dim             ....  160

ORBITAL ENERGIES
----------------

  NO   OCC          E(Eh)            E(eV)
   0   2.0000     -18.766009      -510.6491
   1   2.0000     -18.762809      -510.5620
   2   2.0000     -18.757977      -510.4305
   3   2.0000     -18.757623      -510.4209
   4   2.0000     -18.738847      -509.9100
   5   2.0000      -9.982424      -271.6356
   6   2.0000      -9.947543      -270.6864
   7   2.0000      -9.940035      -270.4821
   8   2.0000      -9.935602      -270.3615
   9   2.0000      -9.934929      -270.3432
  10   2.0000      -0.979423       -26.6515
  11   2.0000      -0.946185       -25.7470
  12   2.0000      -0.930843       -25.3295
  13   2.0000      -0.912784       -24.8381
  14   2.0000      -0.907720       -24.7003
  15   2.0000      -0.701090       -19.0776
  16   2.0000      -0.677633       -18.4393
  17   2.0000      -0.587266       -15.9803
  18   2.0000      -0.573074       -15.5941
  19   2.0000      -0.537163       -14.6170
  20   2.0000      -0.496537       -13.5115
  21   2.0000      -0.488692       -13.2980
  22   2.0000      -0.471732       -12.8365
  23   2.0000      -0.435383       -11.8474
  24   2.0000      -0.427975       -11.6458
  25   2.0000      -0.417840       -11.3700
  26   2.0000      -0.406977       -11.0744
  27   2.0000      -0.374775       -10.1981
  28   2.0000      -0.363572        -9.8933
  29   2.0000      -0.350224        -9.5301
  30   2.0000      -0.331407        -9.0180
  31   2.0000      -0.315107        -8.5745
  32   2.0000      -0.295881        -8.0513
  33   2.0000      -0.281537        -7.6610
  34   2.0000      -0.260658        -7.0929
  35   2.0000      -0.253082        -6.8867
  36   2.0000      -0.239356        -6.5132
  37   2.0000      -0.231398        -6.2967
  38   2.0000      -0.212987        -5.7957
  39   2.0000      -0.206974        -5.6321
  40   0.0000       0.010499         0.2857
  41   0.0000       0.024793         0.6746
  42   0.0000       0.031363         0.8534
  43   0.0000       0.046856         1.2750
  44   0.0000       0.075430         2.0526

MULLIKEN ATOMIC CHARGES
-----------------------
   0 C :    0.071584
   1 C :   -0.019661
   2 H :    0.042742
   3 C :    0.027124
   4 H :    0.090025
   5 C :    0.085570
   6 H :    0.044608
   7 C :    0.147584
   8 H :    0.071340
   9 O :   -0.317240
  10 O :   -0.385233
  11 O :   -0.415253
  12 O :   -0.410328
  13 O :   -0.399801
  14 H :    0.082894
  15 H :    0.071919
  16 H :    0.309566
  17 H :    0.302290
  18 H :    0.299033
  19 H :    0.301237
Sum of atomic charges:    0.0000000

LOEWDIN ATOMIC CHARGES
----------------------
   0 C :   -0.132084
   1 C :   -0.088010
   2 H :    0.092255
   3 C :   -0.078783
   4 H :    0.127353
   5 C :   -0.086889
   6 H :    0.095350
   7 C :   -0.001098
   8 H :    0.101889
   9 O :   -0.163463
  10 O :   -0.294444
  11 O :   -0.319979
  12 O :   -0.305943
  13 O :   -0.313767
  14 H :    0.110881
  15 H :    0.107116
  16 H :    0.293825
  17 H :    0.282079
  18 H :    0.286085
  19 H :    0.287627

  Mayer bond orders larger than 0.100000
B(  0-C ,  1-C ) :   1.0566 B(  0-C ,  9-O ) :   1.0082 B(  0-C , 14-H ) :   0.9261
B(  0-C , 15-H ) :   0.8856 B(  1-C ,  2-H ) :   0.8711 B(  1-C ,  3-C ) :   1.0253
B(  1-C , 13-O ) :   1.0904 B(  3-C ,  4-H ) :   0.8730 B(  3-C ,  5-C ) :   0.9911
B(  3-C , 12-O ) :   1.0460 B(  5-C ,  6-H ) :   0.8758 B(  5-C ,  7-C ) :   0.9758
B(  5-C , 11-O ) :   1.1145 B(  7-C ,  8-H ) :   0.9018 B(  7-C ,  9-O ) :   1.0447
B(  7-C , 10-O ) :   1.1313 B( 10-O , 16-H ) :   0.8416 B( 11-O , 17-H ) :   0.8277
B( 12-O , 18-H ) :   0.8475 B( 13-O , 19-H ) :   0.8487

Dispersion correction           -0.019165737
FINAL SINGLE POINT ENERGY      -571.413170353852

DIPOLE MOMENT
-------------

Method             : SCF
Type of density    : Electron Density
Multiplicity       :   1
Irrep              :   0
Energy             :  -571.5208630966942565 Eh
Relativity type    :
Basis              : AO
                                X                 Y                 Z
Electronic contribution:     -1.213989365      -0.955422082       0.619933304
Nuclear contribution   :      1.667489203       1.712109983      -1.230489344
                        -----------------------------------------
Total Dipole Moment    :      0.453499838       0.756687901      -0.610556040
                        -----------------------------------------
Magnitude (a.u.)       :      1.072854772
Magnitude (Debye)      :      2.726980113

Rotational constants in cm-1:             0.056148             0.045227             0.029154
Rotational constants in MHz :          1683.277297          1355.877612           874.004795

                             ****ORCA TERMINATED NORMALLY****
TOTAL RUN TIME: 0 days 0 hours 0 minutes 11 seconds 342 msec
