                         Program Version 6.0.0  -   RELEASE  -
|  1> ! pbe def2-sv(p) def2/J RI DEFGRID1 loosescf d4 GCP(DFT/SV(P)) printgap
|  2> %output
|  3>     printlevel normal
|  4> end
|  5> * xyz 0 1
|  6> C 4.6937070557 1.3687753543 0.0185950968
|  7> C 3.469827431 1.3614115388 -0.872531595
|  8> O 2.7978644241 0.0880044873 -0.8133682182
|  9> P 1.9278976835 -0.3454093048 0.437881927
| 10> S 1.2155440415 1.1528645407 1.4878561526
| 11> O 2.9427712155 -1.2799498594 1.2317483056
| 12> C 2.5639798732 -2.3558810991 2.1063482813
| 13> C 1.5836208669 -1.9222484766 3.1770125201
| 14> S 0.6397967217 -1.7709868367 -0.4871406253
| 15> C 0.2449405213 -0.8665883339 -2.0081695301
| 16> S -0.3028370392 0.837239951 -1.7370291689
| 17> P -2.1552788922 0.3388942263 -0.8720091046
| 18> S -3.2059202533 -1.0546146221 -1.7502069082
| 19> O -2.9801722856 1.6906112248 -0.8452445149
| 20> C -2.4501881268 3.0125906094 -0.579841605
| 21> C -2.0656427511 3.2067666319 0.8722266178
| 22> O -1.6746711547 0.0072725973 0.6154093541
| 23> C -2.5869021664 -0.5047504436 1.6091407255
| 24> C -2.531409087 -2.0183927864 1.6726996929
| 25> H 5.3625019763 0.556965857 -0.2540925382
| 26> H 5.211237144 2.3172796453 -0.083213614
| 27> H 4.3886821362 1.2373736412 1.0562737822
| 28> H 3.7283599248 1.4789304118 -1.9254735195
| 29> H 2.7652308589 2.1445630927 -0.5735890792
| 30> H 2.1387161633 -3.1577111401 1.4949622916
| 31> H 3.5109876272 -2.6832452324 2.5391780942
| 32> H 1.3687616723 -2.7592730565 3.8334744607
| 33> H 1.9943761403 -1.1008018331 3.759387698
| 34> H 0.6564285063 -1.5844384179 2.7141611966
| 35> H -0.5546744208 -1.4297354774 -2.4924386392
| 36> H 1.1302755518 -0.8121563245 -2.63676437
| 37> H -1.593419844 3.180126246 -1.2378445135
| 38> H -3.2716256429 3.6707548397 -0.8686087561
| 39> H -2.9008115259 2.9543234623 1.5207598181
| 40> H -1.210773955 2.5865157979 1.1353972566
| 41> H -1.7968280742 4.2469072862 1.0278491174
| 42> H -2.2476224781 -0.0518759992 2.5434296396
| 43> H -3.5992638106 -0.1592960717 1.3770858104
| 44> H -3.1578961675 -2.3640568244 2.488547198
| 45> H -2.8885609382 -2.4491040388 0.7398961537
| 46> H -1.5095084351 -2.3506467634 1.835551874
| 47> *
| 48>
| 49>                          ****END OF INPUT****

CARTESIAN COORDINATES (ANGSTROEM)
---------------------------------
  C      4.693707    1.368775    0.018595
  C      3.469827    1.361412   -0.872532
  O      2.797864    0.088004   -0.813368
  P      1.927898   -0.345409    0.437882
  S      1.215544    1.152865    1.487856
  O      2.942771   -1.279950    1.231748
  C      2.563980   -2.355881    2.106348
  C      1.583621   -1.922248    3.177013
  S      0.639797   -1.770987   -0.487141
  C      0.244941   -0.866588   -2.008170
  S     -0.302837    0.837240   -1.737029
  P     -2.155279    0.338894   -0.872009
  S     -3.205920   -1.054615   -1.750207
  O     -2.980172    1.690611   -0.845245
  C     -2.450188    3.012591   -0.579842
  C     -2.065643    3.206767    0.872227
  O     -1.674671    0.007273    0.615409
  C     -2.586902   -0.504750    1.609141
  C     -2.531409   -2.018393    1.672700
  H      5.362502    0.556966   -0.254093
  H      5.211237    2.317280   -0.083214
  H      4.388682    1.237374    1.056274
  H      3.728360    1.478930   -1.925474
  H      2.765231    2.144563   -0.573589
  H      2.138716   -3.157711    1.494962
  H      3.510988   -2.683245    2.539178
  H      1.368762   -2.759273    3.833474
  H      1.994376   -1.100802    3.759388
  H      0.656429   -1.584438    2.714161
  H     -0.554674   -1.429735   -2.492439
  H      1.130276   -0.812156   -2.636764
  H     -1.593420    3.180126   -1.237845
  H     -3.271626    3.670755   -0.868609
  H     -2.900812    2.954323    1.520760
  H     -1.210774    2.586516    1.135397
  H     -1.796828    4.246907    1.027849
  H     -2.247622   -0.051876    2.543430
  H     -3.599264   -0.159296    1.377086
  H     -3.157896   -2.364057    2.488547
  H     -2.888561   -2.449104    0.739896
  H     -1.509508   -2.350647    1.835552

 Total Charge           Charge          ....    0
 Multiplicity           Mult            ....    1
 Number of Electrons    NEL             ....  202
 Basis Dimension        Dim             ....  334

ORBITAL ENERGIES
----------------

  NO   OCC          E(Eh)            E(eV)
   0   2.0000     -88.044266     -2395.8063
   1   2.0000     -88.041181     -2395.7223
   2   2.0000     -87.984212     -2394.1721
   3   2.0000     -87.978768     -2394.0240
   4   2.0000     -76.428462     -2079.7242
   5   2.0000     -76.422206     -2079.5540
   6   2.0000     -18.794311      -511.4192
   7   2.0000     -18.791614      -511.3458
   8   2.0000     -18.790703      -511.3210
   9   2.0000     -18.782133      -511.0878
  10   2.0000      -9.960283      -271.0331
  11   2.0000      -9.959761      -271.0189
  12   2.0000      -9.958077      -270.9730
  13   2.0000      -9.952428      -270.8193
  14   2.0000      -9.947842      -270.6946
  15   2.0000      -9.887591      -269.0550
  16   2.0000      -9.883806      -268.9520
  17   2.0000      -9.883443      -268.9422
  18   2.0000      -9.874074      -268.6872
  19   2.0000      -7.689518      -209.2424
  20   2.0000      -7.686228      -209.1529
  21   2.0000      -7.628993      -207.5954
  22   2.0000      -7.624171      -207.4643
  23   2.0000      -6.425470      -174.8459
  24   2.0000      -6.420098      -174.6997
  25   2.0000      -5.717332      -155.5765
  26   2.0000      -5.714374      -155.4960
  27   2.0000      -5.714174      -155.4906
  28   2.0000      -5.710793      -155.3986
  29   2.0000      -5.706316      -155.2768
  30   2.0000      -5.702846      -155.1823
  31   2.0000      -5.657857      -153.9581
  32   2.0000      -5.653168      -153.8305
  33   2.0000      -5.649722      -153.7367
  34   2.0000      -5.649104      -153.7199
  35   2.0000      -5.645215      -153.6141
  36   2.0000      -5.643742      -153.5740
  37   2.0000      -4.648182      -126.4835
  38   2.0000      -4.647563      -126.4666
  39   2.0000      -4.645586      -126.4128
  40   2.0000      -4.643185      -126.3475
  41   2.0000      -4.641655      -126.3058
  42   2.0000      -4.640279      -126.2684
  43   2.0000      -0.988030       -26.8857
  44   2.0000      -0.979783       -26.6612
  45   2.0000      -0.948226       -25.8025
  46   2.0000      -0.939816       -25.5737
  47   2.0000      -0.766582       -20.8598
  48   2.0000      -0.720862       -19.6156
  49   2.0000      -0.708983       -19.2924
  50   2.0000      -0.690489       -18.7892
  51   2.0000      -0.686409       -18.6781
  52   2.0000      -0.671620       -18.2757
  53   2.0000      -0.652701       -17.7609
  54   2.0000      -0.637943       -17.3593
  55   2.0000      -0.596066       -16.2198
  56   2.0000      -0.585761       -15.9394
  57   2.0000      -0.579592       -15.7715
  58   2.0000      -0.575182       -15.6515
  59   2.0000      -0.560833       -15.2610
  60   2.0000      -0.501996       -13.6600
  61   2.0000      -0.494252       -13.4493
  62   2.0000      -0.475451       -12.9377
  63   2.0000      -0.474060       -12.8998
  64   2.0000      -0.462209       -12.5774
  65   2.0000      -0.445940       -12.1347
  66   2.0000      -0.440669       -11.9912
  67   2.0000      -0.434339       -11.8190
  68   2.0000      -0.424547       -11.5525
  69   2.0000      -0.418518       -11.3885
  70   2.0000      -0.402634       -10.9562
  71   2.0000      -0.395425       -10.7601
  72   2.0000      -0.392626       -10.6839
  73   2.0000      -0.391615       -10.6564
  74   2.0000      -0.387322       -10.5396
  75   2.0000      -0.373561       -10.1651
  76   2.0000      -0.360791        -9.8176
  77   2.0000      -0.357648        -9.7321
  78   2.0000      -0.350034        -9.5249
  79   2.0000      -0.349379        -9.5071
  80   2.0000      -0.346984        -9.4419
  81   2.0000      -0.345680        -9.4064
  82   2.0000      -0.342987        -9.3332
  83   2.0000      -0.339950        -9.2505
  84   2.0000      -0.333559        -9.0766
  85   2.0000      -0.319733        -8.7004
  86   2.0000      -0.309633        -8.4255
  87   2.0000      -0.303593        -8.2612
  88   2.0000      -0.298628        -8.1261
  89   2.0000      -0.290736        -7.9113
  90   2.0000      -0.278039        -7.5658
  91   2.0000      -0.275232        -7.4894
  92   2.0000      -0.273020        -7.4293
  93   2.0000      -0.265507        -7.2248
  94   2.0000      -0.258345        -7.0299
  95   2.0000      -0.234893        -6.3918
  96   2.0000      -0.217765        -5.9257
  97   2.0000      -0.205504        -5.5920
  98   2.0000      -0.198940        -5.4134
  99   2.0000      -0.191868        -5.2210
 100   2.0000      -0.188511        -5.1296
 101   0.0000      -0.052396        -1.4258
 102   0.0000      -0.025279        -0.6879
 103   0.0000      -0.020814        -0.5664
 104   0.0000       0.002392         0.0651
 105   0.0000       0.014119         0.3842

MULLIKEN ATOMIC CHARGES
-----------------------
   0 C :   -0.300294
   1 C :   -0.009861
   2 O :   -0.371610
   3 P :    0.618247
   4 S :   -0.315581
   5 O :   -0.371005
   6 C :   -0.014957
   7 C :   -0.337229
   8 S :   -0.107817
   9 C :   -0.327065
  10 S :   -0.109043
  11 P :    0.630900
  12 S :   -0.325481
  13 O :   -0.371446
  14 C :   -0.021854
  15 C :   -0.332960
  16 O :   -0.366143
  17 C :   -0.012351
  18 C :   -0.300494
  19 H :    0.115699
  20 H :    0.110907
  21 H :    0.124020
  22 H :    0.102150
  23 H :    0.112520
  24 H :    0.116556
  25 H :    0.111666
  26 H :    0.112831
  27 H :    0.126865
  28 H :    0.152171
  29 H :    0.191053
  30 H :    0.189554
  31 H :    0.118779
  32 H :    0.113343
  33 H :    0.114839
  34 H :    0.161535
  35 H :    0.111399
  36 H :    0.106207
  37 H :    0.102249
  38 H :    0.101935
  39 H :    0.127042
  40 H :    0.122726
Sum of atomic charges:   -0.0000000

LOEWDIN ATOMIC CHARGES
----------------------
   0 C :   -0.362871
   1 C :   -0.121751
   2 O :   -0.240658
   3 P :    0.574724
   4 S :   -0.304628
   5 O :   -0.246789
   6 C :   -0.115326
   7 C :   -0.371848
   8 S :    0.079353
   9 C :   -0.470731
  10 S :    0.086506
  11 P :    0.571126
  12 S :   -0.318831
  13 O :   -0.244145
  14 C :   -0.111948
  15 C :   -0.370797
  16 O :   -0.246341
  17 C :   -0.115089
  18 C :   -0.364864
  19 H :    0.126148
  20 H :    0.130049
  21 H :    0.124131
  22 H :    0.116664
  23 H :    0.108407
  24 H :    0.108423
  25 H :    0.122731
  26 H :    0.130116
  27 H :    0.130677
  28 H :    0.121659
  29 H :    0.131916
  30 H :    0.135147
  31 H :    0.108482
  32 H :    0.123063
  33 H :    0.125408
  34 H :    0.125634
  35 H :    0.131345
  36 H :    0.116883
  37 H :    0.108476
  38 H :    0.125803
  39 H :    0.124284
  40 H :    0.119461

  Mayer bond orders larger than 0.100000
B(  0-C ,  1-C ) :   1.1654 B(  0-C , 19-H ) :   0.9467 B(  0-C , 20-H ) :   0.9398
B(  0-C , 21-H ) :   0.9354 B(  1-C ,  2-O ) :   0.8999 B(  1-C , 22-H ) :   0.9331
B(  1-C , 23-H ) :   0.9095 B(  2-O ,  3-P ) :   1.1107 B(  3-P ,  4-S ) :   1.6134
B(  3-P ,  5-O ) :   1.1013 B(  3-P ,  8-S ) :   0.9439 B(  4-S ,  8-S ) :   0.1114
B(  5-O ,  6-C ) :   0.9223 B(  6-C ,  7-C ) :   1.1635 B(  6-C , 24-H ) :   0.9226
B(  6-C , 25-H ) :   0.9341 B(  7-C , 26-H ) :   0.9352 B(  7-C , 27-H ) :   0.9393
B(  7-C , 28-H ) :   0.9190 B(  8-S ,  9-C ) :   1.0074 B(  9-C , 10-S ) :   1.0181
B(  9-C , 29-H ) :   0.8759 B(  9-C , 30-H ) :   0.9032 B( 10-S , 11-P ) :   0.9499
B( 10-S , 12-S ) :   0.1021 B( 11-P , 12-S ) :   1.6332 B( 11-P , 13-O ) :   1.1241
B( 11-P , 16-O ) :   1.0991 B( 13-O , 14-C ) :   0.9055 B( 14-C , 15-C ) :   1.1628
B( 14-C , 31-H ) :   0.9195 B( 14-C , 32-H ) :   0.9357 B( 15-C , 33-H ) :   0.9444
B( 15-C , 34-H ) :   0.9225 B( 15-C , 35-H ) :   0.9365 B( 16-O , 17-C ) :   0.9009
B( 17-C , 18-C ) :   1.1732 B( 17-C , 36-H ) :   0.9299 B( 17-C , 37-H ) :   0.9169
B( 18-C , 38-H ) :   0.9388 B( 18-C , 39-H ) :   0.9285 B( 18-C , 40-H ) :   0.9396

Dispersion correction           -0.068801850
FINAL SINGLE POINT ENERGY     -2929.510154301804

DIPOLE MOMENT
-------------

Method             : SCF
Type of density    : Electron Density
Multiplicity       :   1
Irrep              :   0
Energy             : -2929.6269522073171174 Eh
Relativity type    :
Basis              : AO
                                X                 Y                 Z
Electronic contribution:     -6.275772854      -2.907729461     -16.628432567
Nuclear contribution   :      7.326450500       3.294268446      17.344062325
                        -----------------------------------------
Total Dipole Moment    :      1.050677646       0.386538985       0.715629758
                        -----------------------------------------
Magnitude (a.u.)       :      1.328706835
Magnitude (Debye)      :      3.377304376

Rotational constants in cm-1:             0.011274             0.006021             0.005445
Rotational constants in MHz :           337.993918           180.501539           163.251146

                             ****ORCA TERMINATED NORMALLY****
TOTAL RUN TIME: 0 days 0 hours 0 minutes 22 seconds 98 msec
