                         Program Version 6.0.0  -   RELEASE  -
|  1> ! pbe def2-sv(p) def2/J RI DEFGRID1 loosescf d4 GCP(DFT/SV(P)) printgap
|  2> %output
|  3>     printlevel normal
|  4> end
|  5> * xyz 0 1
|  6> C 4.386885183 -1.3233691197 -1.9776436365
|  7> C 4.3202525549 -0.8973982953 -0.5248861065
|  8> O 3.6119895599 0.3400214248 -0.3408205271
|  9> P 2.0468219025 0.5534621369 -0.5642275216
| 10> S 1.4269802958 0.6138081695 -2.4223101435
| 11> O 1.8474142187 1.9479428338 0.1344293563
| 12> C 2.528678741 2.4062560533 1.3282783515
| 13> C 2.2594996279 1.525401943 2.5296858673
| 14> S 1.18665479 -0.9949233231 0.6333895805
| 15> C 0.0903333061 -1.7738962164 -0.5913661876
| 16> S -1.5538359913 -2.1563552448 0.0630456537
| 17> P -2.3827120601 -0.2208045152 0.3749094903
| 18> S -1.2928059686 1.3287830892 -0.1683713376
| 19> O -2.8657655273 -0.2767240033 1.8811928313
| 20> C -1.9280592557 -0.3249502568 2.9762871919
| 21> C -1.6902021659 1.065162318 3.5347255317
| 22> O -3.8334593278 -0.2739214797 -0.2501702908
| 23> C -4.0961762219 0.135575225 -1.602302316
| 24> C -3.4206457546 -0.7672015019 -2.6160373101
| 25> H 3.3899960097 -1.5366317836 -2.3585729375
| 26> H 4.8190109186 -0.5309076214 -2.5835559943
| 27> H 4.9994539502 -2.2151993822 -2.061721006
| 28> H 5.3153105648 -0.6832614559 -0.1301028498
| 29> H 3.8391333499 -1.6672935654 0.0858573071
| 30> H 3.5968869716 2.4595891181 1.1090562542
| 31> H 2.1259211293 3.4107470751 1.4687214237
| 32> H 2.6853479116 0.5343952925 2.3799842655
| 33> H 2.7109442629 1.9763516333 3.4077906672
| 34> H 1.1890082447 1.4252614031 2.6890691966
| 35> H 0.5096459332 -2.7354944207 -0.8766467768
| 36> H 0.0212115653 -1.1021939689 -1.4522982258
| 37> H -2.3985948861 -0.9750767066 3.716091909
| 38> H -0.9894967128 -0.7803878568 2.6399849293
| 39> H -2.6293663692 1.4981127955 3.8671371529
| 40> H -1.002980218 1.004981562 4.3727077828
| 41> H -1.2690081517 1.7100937124 2.765523448
| 42> H -5.1829975103 0.0878149579 -1.682550002
| 43> H -3.7600937327 1.1703241902 -1.7266026475
| 44> H -3.763642662 -0.5101363078 -3.6132100985
| 45> H -2.3396208949 -0.6297606115 -2.5766284913
| 46> H -3.6543160892 -1.8088014146 -2.4099152343
| 47> *
| 48>
| 49>                          ****END OF INPUT****

CARTESIAN COORDINATES (ANGSTROEM)
---------------------------------
  C      4.386885   -1.323369   -1.977644
  C      4.320253   -0.897398   -0.524886
  O      3.611990    0.340021   -0.340821
  P      2.046822    0.553462   -0.564228
  S      1.426980    0.613808   -2.422310
  O      1.847414    1.947943    0.134429
  C      2.528679    2.406256    1.328278
  C      2.259500    1.525402    2.529686
  S      1.186655   -0.994923    0.633390
  C      0.090333   -1.773896   -0.591366
  S     -1.553836   -2.156355    0.063046
  P     -2.382712   -0.220805    0.374909
  S     -1.292806    1.328783   -0.168371
  O     -2.865766   -0.276724    1.881193
  C     -1.928059   -0.324950    2.976287
  C     -1.690202    1.065162    3.534726
  O     -3.833459   -0.273921   -0.250170
  C     -4.096176    0.135575   -1.602302
  C     -3.420646   -0.767202   -2.616037
  H      3.389996   -1.536632   -2.358573
  H      4.819011   -0.530908   -2.583556
  H      4.999454   -2.215199   -2.061721
  H      5.315311   -0.683261   -0.130103
  H      3.839133   -1.667294    0.085857
  H      3.596887    2.459589    1.109056
  H      2.125921    3.410747    1.468721
  H      2.685348    0.534395    2.379984
  H      2.710944    1.976352    3.407791
  H      1.189008    1.425261    2.689069
  H      0.509646   -2.735494   -0.876647
  H      0.021212   -1.102194   -1.452298
  H     -2.398595   -0.975077    3.716092
  H     -0.989497   -0.780388    2.639985
  H     -2.629366    1.498113    3.867137
  H     -1.002980    1.004982    4.372708
  H     -1.269008    1.710094    2.765523
  H     -5.182998    0.087815   -1.682550
  H     -3.760094    1.170324   -1.726603
  H     -3.763643   -0.510136   -3.613210
  H     -2.339621   -0.629761   -2.576628
  H     -3.654316   -1.808801   -2.409915

 Total Charge           Charge          ....    0
 Multiplicity           Mult            ....    1
 Number of Electrons    NEL             ....  202
 Basis Dimension        Dim             ....  334

ORBITAL ENERGIES
----------------

  NO   OCC          E(Eh)            E(eV)
   0   2.0000     -88.044326     -2395.8079
   1   2.0000     -88.044052     -2395.8005
   2   2.0000     -87.983196     -2394.1445
   3   2.0000     -87.980914     -2394.0824
   4   2.0000     -76.426493     -2079.6706
   5   2.0000     -76.422259     -2079.5554
   6   2.0000     -18.792471      -511.3691
   7   2.0000     -18.790543      -511.3167
   8   2.0000     -18.784373      -511.1488
   9   2.0000     -18.784235      -511.1450
  10   2.0000      -9.956944      -270.9422
  11   2.0000      -9.955559      -270.9045
  12   2.0000      -9.953942      -270.8605
  13   2.0000      -9.951207      -270.7861
  14   2.0000      -9.947873      -270.6954
  15   2.0000      -9.892486      -269.1882
  16   2.0000      -9.882060      -268.9045
  17   2.0000      -9.880758      -268.8691
  18   2.0000      -9.879998      -268.8484
  19   2.0000      -7.689010      -209.2286
  20   2.0000      -7.688278      -209.2087
  21   2.0000      -7.627564      -207.5566
  22   2.0000      -7.626112      -207.5170
  23   2.0000      -6.423179      -174.7836
  24   2.0000      -6.419531      -174.6843
  25   2.0000      -5.716951      -155.5661
  26   2.0000      -5.716130      -155.5438
  27   2.0000      -5.713241      -155.4652
  28   2.0000      -5.712856      -155.4547
  29   2.0000      -5.706221      -155.2742
  30   2.0000      -5.705400      -155.2518
  31   2.0000      -5.656485      -153.9208
  32   2.0000      -5.655255      -153.8873
  33   2.0000      -5.648106      -153.6928
  34   2.0000      -5.647931      -153.6880
  35   2.0000      -5.646606      -153.6520
  36   2.0000      -5.646104      -153.6383
  37   2.0000      -4.646067      -126.4259
  38   2.0000      -4.645005      -126.3970
  39   2.0000      -4.643423      -126.3540
  40   2.0000      -4.641783      -126.3093
  41   2.0000      -4.641629      -126.3052
  42   2.0000      -4.639939      -126.2591
  43   2.0000      -0.987751       -26.8781
  44   2.0000      -0.984656       -26.7939
  45   2.0000      -0.942297       -25.6412
  46   2.0000      -0.940410       -25.5899
  47   2.0000      -0.760180       -20.6855
  48   2.0000      -0.719375       -19.5752
  49   2.0000      -0.710203       -19.3256
  50   2.0000      -0.691685       -18.8217
  51   2.0000      -0.679751       -18.4970
  52   2.0000      -0.677665       -18.4402
  53   2.0000      -0.650616       -17.7041
  54   2.0000      -0.634084       -17.2543
  55   2.0000      -0.595818       -16.2130
  56   2.0000      -0.590390       -16.0653
  57   2.0000      -0.581381       -15.8202
  58   2.0000      -0.567615       -15.4456
  59   2.0000      -0.559955       -15.2371
  60   2.0000      -0.500918       -13.6307
  61   2.0000      -0.494312       -13.4509
  62   2.0000      -0.472880       -12.8677
  63   2.0000      -0.465230       -12.6595
  64   2.0000      -0.452249       -12.3063
  65   2.0000      -0.446933       -12.1617
  66   2.0000      -0.439936       -11.9713
  67   2.0000      -0.433486       -11.7958
  68   2.0000      -0.427573       -11.6349
  69   2.0000      -0.418643       -11.3919
  70   2.0000      -0.410285       -11.1644
  71   2.0000      -0.404996       -11.0205
  72   2.0000      -0.395852       -10.7717
  73   2.0000      -0.394769       -10.7422
  74   2.0000      -0.383308       -10.4304
  75   2.0000      -0.367064        -9.9883
  76   2.0000      -0.359910        -9.7936
  77   2.0000      -0.356624        -9.7042
  78   2.0000      -0.352802        -9.6002
  79   2.0000      -0.350934        -9.5494
  80   2.0000      -0.346887        -9.4393
  81   2.0000      -0.344418        -9.3721
  82   2.0000      -0.338929        -9.2227
  83   2.0000      -0.334354        -9.0982
  84   2.0000      -0.330528        -8.9941
  85   2.0000      -0.318435        -8.6650
  86   2.0000      -0.311393        -8.4734
  87   2.0000      -0.297331        -8.0908
  88   2.0000      -0.294932        -8.0255
  89   2.0000      -0.291803        -7.9404
  90   2.0000      -0.286241        -7.7890
  91   2.0000      -0.276859        -7.5337
  92   2.0000      -0.266578        -7.2540
  93   2.0000      -0.261700        -7.1212
  94   2.0000      -0.254575        -6.9273
  95   2.0000      -0.238729        -6.4962
  96   2.0000      -0.221669        -6.0319
  97   2.0000      -0.212115        -5.7719
  98   2.0000      -0.198019        -5.3884
  99   2.0000      -0.192724        -5.2443
 100   2.0000      -0.182682        -4.9710
 101   0.0000      -0.044364        -1.2072
 102   0.0000      -0.036068        -0.9815
 103   0.0000      -0.013075        -0.3558
 104   0.0000       0.007576         0.2061
 105   0.0000       0.009514         0.2589

MULLIKEN ATOMIC CHARGES
-----------------------
   0 C :   -0.301707
   1 C :   -0.008782
   2 O :   -0.383230
   3 P :    0.629199
   4 S :   -0.295869
   5 O :   -0.354032
   6 C :    0.010898
   7 C :   -0.355203
   8 S :   -0.134660
   9 C :   -0.339895
  10 S :   -0.112495
  11 P :    0.579674
  12 S :   -0.306999
  13 O :   -0.354295
  14 C :   -0.022830
  15 C :   -0.299382
  16 O :   -0.355466
  17 C :    0.003097
  18 C :   -0.333288
  19 H :    0.121176
  20 H :    0.121503
  21 H :    0.107307
  22 H :    0.103260
  23 H :    0.103430
  24 H :    0.110955
  25 H :    0.112969
  26 H :    0.124337
  27 H :    0.116283
  28 H :    0.146668
  29 H :    0.175613
  30 H :    0.221058
  31 H :    0.106239
  32 H :    0.109463
  33 H :    0.115643
  34 H :    0.105832
  35 H :    0.142274
  36 H :    0.105794
  37 H :    0.114625
  38 H :    0.113234
  39 H :    0.138918
  40 H :    0.118682
Sum of atomic charges:   -0.0000000

LOEWDIN ATOMIC CHARGES
----------------------
   0 C :   -0.367607
   1 C :   -0.120638
   2 O :   -0.249124
   3 P :    0.575074
   4 S :   -0.287760
   5 O :   -0.227127
   6 C :   -0.106325
   7 C :   -0.372762
   8 S :    0.068359
   9 C :   -0.483073
  10 S :    0.075159
  11 P :    0.560614
  12 S :   -0.298015
  13 O :   -0.237581
  14 C :   -0.118476
  15 C :   -0.364702
  16 O :   -0.234804
  17 C :   -0.116859
  18 C :   -0.371035
  19 H :    0.119239
  20 H :    0.129652
  21 H :    0.128065
  22 H :    0.117746
  23 H :    0.100819
  24 H :    0.114953
  25 H :    0.124660
  26 H :    0.115729
  27 H :    0.133388
  28 H :    0.131106
  29 H :    0.134021
  30 H :    0.121561
  31 H :    0.118400
  32 H :    0.098599
  33 H :    0.127404
  34 H :    0.126102
  35 H :    0.124244
  36 H :    0.119354
  37 H :    0.112457
  38 H :    0.131398
  39 H :    0.123763
  40 H :    0.124018

  Mayer bond orders larger than 0.100000
B(  0-C ,  1-C ) :   1.1650 B(  0-C , 19-H ) :   0.9324 B(  0-C , 20-H ) :   0.9462
B(  0-C , 21-H ) :   0.9368 B(  1-C ,  2-O ) :   0.9190 B(  1-C , 22-H ) :   0.9341
B(  1-C , 23-H ) :   0.9146 B(  2-O ,  3-P ) :   1.0643 B(  3-P ,  4-S ) :   1.6369
B(  3-P ,  5-O ) :   1.1394 B(  3-P ,  8-S ) :   0.9237 B(  4-S ,  8-S ) :   0.1196
B(  4-S , 30-H ) :   0.1133 B(  5-O ,  6-C ) :   0.9014 B(  6-C ,  7-C ) :   1.1699
B(  6-C , 24-H ) :   0.9279 B(  6-C , 25-H ) :   0.9323 B(  7-C , 26-H ) :   0.9329
B(  7-C , 27-H ) :   0.9341 B(  7-C , 28-H ) :   0.9290 B(  8-S ,  9-C ) :   0.9925
B(  9-C , 10-S ) :   1.0041 B(  9-C , 29-H ) :   0.9073 B(  9-C , 30-H ) :   0.8378
B( 10-S , 11-P ) :   0.9337 B( 10-S , 12-S ) :   0.1243 B( 11-P , 12-S ) :   1.6242
B( 11-P , 13-O ) :   1.1270 B( 11-P , 16-O ) :   1.1295 B( 13-O , 14-C ) :   0.9100
B( 14-C , 15-C ) :   1.1726 B( 14-C , 31-H ) :   0.9358 B( 14-C , 32-H ) :   0.9030
B( 15-C , 33-H ) :   0.9430 B( 15-C , 34-H ) :   0.9374 B( 15-C , 35-H ) :   0.9196
B( 16-O , 17-C ) :   0.9134 B( 17-C , 18-C ) :   1.1614 B( 17-C , 36-H ) :   0.9343
B( 17-C , 37-H ) :   0.9176 B( 18-C , 38-H ) :   0.9369 B( 18-C , 39-H ) :   0.9313
B( 18-C , 40-H ) :   0.9431

Dispersion correction           -0.067307487
FINAL SINGLE POINT ENERGY     -2929.515296975318

DIPOLE MOMENT
-------------

Method             : SCF
Type of density    : Electron Density
Multiplicity       :   1
Irrep              :   0
Energy             : -2929.6324424860017643 Eh
Relativity type    :
Basis              : AO
                                X                 Y                 Z
Electronic contribution:     -7.176897633      -0.504004098      -5.813472291
Nuclear contribution   :      7.992538185      -0.140325558       6.840549397
                        -----------------------------------------
Total Dipole Moment    :      0.815640552      -0.644329656       1.027077106
                        -----------------------------------------
Magnitude (a.u.)       :      1.461272595
Magnitude (Debye)      :      3.714259760

Rotational constants in cm-1:             0.011499             0.005709             0.004896
Rotational constants in MHz :           344.732979           171.161649           146.792360

                             ****ORCA TERMINATED NORMALLY****
TOTAL RUN TIME: 0 days 0 hours 0 minutes 21 seconds 213 msec
