                         Program Version 6.0.0  -   RELEASE  -
|  1> ! wb97x-v def2-tzvp def2/J RIJCOSX DEFGRID2 scfconv7 GCP(DFT/TZ) printgap
|  2> %output
|  3>     printlevel normal
|  4> end
|  5> * xyz 0 1
|  6> C -2.22605104688476 5.830853292209458e-07 2.1975444039510763e-05
|  7> C -1.5333697255293277 -1.2097158813476254 1.543874765605609e-05
|  8> C -0.14548530584492117 -1.219749425804723 -1.1541590348027778e-05
|  9> C 0.5470051172098209 2.2820945860370075e-06 -2.986293650691203e-05
| 10> C -0.1454865685078107 1.2197525426574303 -3.409854612894698e-05
| 11> C -1.5333703855059102 1.2097173912228723 -8.032277410739928e-06
| 12> C 1.9677862384836387 1.4064695778898007e-05 -4.147295764406734e-05
| 13> N 3.1286085393082157 -2.3908465052867928e-05 -6.542515507110668e-06
| 14> H -3.311187821638347 6.236417669859325e-07 4.383910565343389e-05
| 15> H -2.076329440467453 -2.148826813408825 3.246038717125674e-05
| 16> H 0.4069045010546318 -2.152790241483036 -1.3576545026483282e-05
| 17> H 0.40690291870489875 2.152793487181467 -5.4739470935206934e-05
| 18> H -2.0763299008031217 2.1488283327334887 -8.20229677792318e-06
| 19> *
| 20>
| 21>                          ****END OF INPUT****

CARTESIAN COORDINATES (ANGSTROEM)
---------------------------------
  C     -2.226051    0.000001    0.000022
  C     -1.533370   -1.209716    0.000015
  C     -0.145485   -1.219749   -0.000012
  C      0.547005    0.000002   -0.000030
  C     -0.145487    1.219753   -0.000034
  C     -1.533370    1.209717   -0.000008
  C      1.967786    0.000014   -0.000041
  N      3.128609   -0.000024   -0.000007
  H     -3.311188    0.000001    0.000044
  H     -2.076329   -2.148827    0.000032
  H      0.406905   -2.152790   -0.000014
  H      0.406903    2.152793   -0.000055
  H     -2.076330    2.148828   -0.000008

 Total Charge           Charge          ....    0
 Multiplicity           Mult            ....    1
 Number of Electrons    NEL             ....   54
 Basis Dimension        Dim             ....  278

ORBITAL ENERGIES
----------------

  NO   OCC          E(Eh)            E(eV)
   0   2.0000     -16.530697      -449.8231
   1   2.0000     -12.106907      -329.4457
   2   2.0000     -12.090229      -328.9919
   3   2.0000     -12.086864      -328.9003
   4   2.0000     -12.086383      -328.8872
   5   2.0000     -12.082519      -328.7821
   6   2.0000     -12.079264      -328.6935
   7   2.0000     -12.078438      -328.6710
   8   2.0000      -1.521127       -41.3920
   9   2.0000      -1.418947       -38.6115
  10   2.0000      -1.323888       -36.0248
  11   2.0000      -1.306405       -35.5491
  12   2.0000      -1.176780       -32.0218
  13   2.0000      -1.138610       -30.9832
  14   2.0000      -1.056703       -28.7544
  15   2.0000      -0.986055       -26.8319
  16   2.0000      -0.977007       -26.5857
  17   2.0000      -0.925480       -25.1836
  18   2.0000      -0.907025       -24.6814
  19   2.0000      -0.898880       -24.4598
  20   2.0000      -0.854933       -23.2639
  21   2.0000      -0.843226       -22.9453
  22   2.0000      -0.835452       -22.7338
  23   2.0000      -0.799810       -21.7639
  24   2.0000      -0.786165       -21.3926
  25   2.0000      -0.672223       -18.2921
  26   2.0000      -0.669068       -18.2063
  27   0.0000      -0.312591        -8.5060
  28   0.0000      -0.263130        -7.1601
  29   0.0000      -0.235503        -6.4084
  30   0.0000      -0.175161        -4.7664
  31   0.0000      -0.099896        -2.7183

MULLIKEN ATOMIC CHARGES
-----------------------
   0 C :   -0.112357
   1 C :   -0.097602
   2 C :   -0.222380
   3 C :    0.315772
   4 C :   -0.222439
   5 C :   -0.097531
   6 C :   -0.253879
   7 N :    0.002006
   8 H :    0.131256
   9 H :    0.131322
  10 H :    0.147265
  11 H :    0.147238
  12 H :    0.131330
Sum of atomic charges:    0.0000000

LOEWDIN ATOMIC CHARGES
----------------------
   0 C :   -0.117240
   1 C :   -0.126321
   2 C :   -0.073190
   3 C :   -0.147550
   4 C :   -0.073191
   5 C :   -0.126321
   6 C :   -0.150517
   7 N :    0.063698
   8 H :    0.146461
   9 H :    0.147160
  10 H :    0.154926
  11 H :    0.154926
  12 H :    0.147160

  Mayer bond orders larger than 0.100000
B(  0-C ,  1-C ) :   1.4151 B(  0-C ,  5-C ) :   1.4151 B(  0-C ,  8-H ) :   0.9676
B(  1-C ,  2-C ) :   1.4575 B(  1-C ,  9-H ) :   0.9704 B(  2-C ,  3-C ) :   1.3660
B(  2-C , 10-H ) :   0.9649 B(  3-C ,  4-C ) :   1.3660 B(  3-C ,  6-C ) :   0.8934
B(  4-C ,  5-C ) :   1.4574 B(  4-C , 11-H ) :   0.9650 B(  5-C , 12-H ) :   0.9704
B(  6-C ,  7-N ) :   3.1278

FINAL SINGLE POINT ENERGY      -324.503608223483

DIPOLE MOMENT
-------------

Method             : SCF
Type of density    : Electron Density
Multiplicity       :   1
Irrep              :   0
Energy             :  -324.5093064104830205 Eh
Relativity type    :
Basis              : AO
                                X                 Y                 Z
Electronic contribution:      4.376103978       0.000007615      -0.000058793
Nuclear contribution   :     -6.233421029       0.000008136       0.000051856
                        -----------------------------------------
Total Dipole Moment    :     -1.857317051       0.000015751      -0.000006937
                        -----------------------------------------
Magnitude (a.u.)       :      1.857317051
Magnitude (Debye)      :      4.720924766

Rotational constants in cm-1:             0.188257             0.052064             0.040784
Rotational constants in MHz :          5643.805761          1560.826601          1222.685867

                             ****ORCA TERMINATED NORMALLY****
TOTAL RUN TIME: 0 days 0 hours 1 minutes 57 seconds 565 msec
