                         Program Version 6.0.0  -   RELEASE  -
|  1> ! wb97x-v def2-tzvp def2/J RIJCOSX DEFGRID2 scfconv7 GCP(DFT/TZ) printgap
|  2> %output
|  3>     printlevel normal
|  4> end
|  5> %cpcm
|  6>     smd true
|  7>     smdsolvent "water"
|  8> end
|  9> * xyz 0 1
| 10> C -2.22605104688476 5.830853292209458e-07 2.1975444039510763e-05
| 11> C -1.5333697255293277 -1.2097158813476254 1.543874765605609e-05
| 12> C -0.14548530584492117 -1.219749425804723 -1.1541590348027778e-05
| 13> C 0.5470051172098209 2.2820945860370075e-06 -2.986293650691203e-05
| 14> C -0.1454865685078107 1.2197525426574303 -3.409854612894698e-05
| 15> C -1.5333703855059102 1.2097173912228723 -8.032277410739928e-06
| 16> C 1.9677862384836387 1.4064695778898007e-05 -4.147295764406734e-05
| 17> N 3.1286085393082157 -2.3908465052867928e-05 -6.542515507110668e-06
| 18> H -3.311187821638347 6.236417669859325e-07 4.383910565343389e-05
| 19> H -2.076329440467453 -2.148826813408825 3.246038717125674e-05
| 20> H 0.4069045010546318 -2.152790241483036 -1.3576545026483282e-05
| 21> H 0.40690291870489875 2.152793487181467 -5.4739470935206934e-05
| 22> H -2.0763299008031217 2.1488283327334887 -8.20229677792318e-06
| 23> *
| 24>
| 25>                          ****END OF INPUT****

CARTESIAN COORDINATES (ANGSTROEM)
---------------------------------
  C     -2.226051    0.000001    0.000022
  C     -1.533370   -1.209716    0.000015
  C     -0.145485   -1.219749   -0.000012
  C      0.547005    0.000002   -0.000030
  C     -0.145487    1.219753   -0.000034
  C     -1.533370    1.209717   -0.000008
  C      1.967786    0.000014   -0.000041
  N      3.128609   -0.000024   -0.000007
  H     -3.311188    0.000001    0.000044
  H     -2.076329   -2.148827    0.000032
  H      0.406905   -2.152790   -0.000014
  H      0.406903    2.152793   -0.000055
  H     -2.076330    2.148828   -0.000008

 Total Charge           Charge          ....    0
 Multiplicity           Mult            ....    1
 Number of Electrons    NEL             ....   54
 Basis Dimension        Dim             ....  278

ORBITAL ENERGIES
----------------

  NO   OCC          E(Eh)            E(eV)
   0   2.0000     -16.537289      -450.0025
   1   2.0000     -12.103367      -329.3493
   2   2.0000     -12.095147      -329.1257
   3   2.0000     -12.072465      -328.5085
   4   2.0000     -12.072060      -328.4975
   5   2.0000     -12.065381      -328.3157
   6   2.0000     -12.061156      -328.2007
   7   2.0000     -12.060454      -328.1816
   8   2.0000      -1.531525       -41.6749
   9   2.0000      -1.405804       -38.2539
  10   2.0000      -1.311536       -35.6887
  11   2.0000      -1.290686       -35.1213
  12   2.0000      -1.165586       -31.7172
  13   2.0000      -1.122633       -30.5484
  14   2.0000      -1.044945       -28.4344
  15   2.0000      -0.971053       -26.4237
  16   2.0000      -0.959634       -26.1130
  17   2.0000      -0.917560       -24.9681
  18   2.0000      -0.901389       -24.5280
  19   2.0000      -0.888626       -24.1807
  20   2.0000      -0.839347       -22.8398
  21   2.0000      -0.836835       -22.7714
  22   2.0000      -0.830058       -22.5870
  23   2.0000      -0.805263       -21.9123
  24   2.0000      -0.779652       -21.2154
  25   2.0000      -0.661448       -17.9989
  26   2.0000      -0.653855       -17.7923
  27   0.0000      -0.305449        -8.3117
  28   0.0000      -0.247422        -6.7327
  29   0.0000      -0.240719        -6.5503
  30   0.0000      -0.172156        -4.6846
  31   0.0000      -0.093757        -2.5512

MULLIKEN ATOMIC CHARGES
-----------------------
   0 C :   -0.134261
   1 C :   -0.133201
   2 C :   -0.247943
   3 C :    0.308101
   4 C :   -0.248011
   5 C :   -0.133127
   6 C :   -0.172022
   7 N :   -0.108588
   8 H :    0.171137
   9 H :    0.170053
  10 H :    0.178915
  11 H :    0.178887
  12 H :    0.170061
Sum of atomic charges:    0.0000000

LOEWDIN ATOMIC CHARGES
----------------------
   0 C :   -0.112304
   1 C :   -0.127583
   2 C :   -0.070789
   3 C :   -0.155761
   4 C :   -0.070789
   5 C :   -0.127583
   6 C :   -0.129877
   7 N :   -0.005793
   8 H :    0.157110
   9 H :    0.157325
  10 H :    0.164359
  11 H :    0.164360
  12 H :    0.157325

  Mayer bond orders larger than 0.100000
B(  0-C ,  1-C ) :   1.3911 B(  0-C ,  5-C ) :   1.3911 B(  0-C ,  8-H ) :   0.9684
B(  1-C ,  2-C ) :   1.4443 B(  1-C ,  9-H ) :   0.9728 B(  2-C ,  3-C ) :   1.3262
B(  2-C , 10-H ) :   0.9739 B(  3-C ,  4-C ) :   1.3261 B(  3-C ,  6-C ) :   0.9220
B(  4-C ,  5-C ) :   1.4443 B(  4-C , 11-H ) :   0.9740 B(  5-C , 12-H ) :   0.9727
B(  6-C ,  7-N ) :   3.1202

FINAL SINGLE POINT ENERGY      -324.509652375157

DIPOLE MOMENT
-------------

Method             : SCF
Type of density    : Electron Density
Multiplicity       :   1
Irrep              :   0
Energy             :  -324.5153505621570957 Eh
Relativity type    :
Basis              : AO
                                X                 Y                 Z
Electronic contribution:      3.760797953       0.000017248      -0.000063386
Nuclear contribution   :     -6.233421029       0.000008136       0.000051856
                        -----------------------------------------
Total Dipole Moment    :     -2.472623076       0.000025384      -0.000011530
                        -----------------------------------------
Magnitude (a.u.)       :      2.472623076
Magnitude (Debye)      :      6.284908390

Rotational constants in cm-1:             0.188257             0.052064             0.040784
Rotational constants in MHz :          5643.805761          1560.826601          1222.685867

                             ****ORCA TERMINATED NORMALLY****
TOTAL RUN TIME: 0 days 0 hours 1 minutes 58 seconds 412 msec
