                         Program Version 6.0.0  -   RELEASE  -
|  1> ! pbe def2-sv(p) def2/J RI DEFGRID1 loosescf d4 GCP(DFT/SV(P)) printgap
|  2> %output
|  3>     printlevel normal
|  4> end
|  5> * xyz 0 1
|  6> C 2.5043565253 -0.3587913236 -2.7942503312
|  7> C 2.7150089379 0.802565904 -1.8441112214
|  8> O 3.1223140561 0.332802939 -0.5438899238
|  9> P 2.1575835814 0.13792054 0.6968428906
| 10> S 1.1513943558 1.7025576111 1.3033071354
| 11> O 3.1539256658 -0.3093588254 1.8336544009
| 12> C 4.0617335789 -1.4334979261 1.7161264397
| 13> C 5.4319080228 -0.978703114 1.2576155869
| 14> S 1.025430688 -1.6125487895 0.2537250008
| 15> C -0.2999733757 -1.3692600661 1.4791754854
| 16> S -1.952183026 -1.6311493179 0.7905382241
| 17> P -2.2030612363 0.164882063 -0.2914864555
| 18> S -0.8646417941 0.7225597394 -1.6171270173
| 19> O -2.3948658808 1.1841785068 0.9076307734
| 20> C -2.2653629521 2.6075181606 0.7456404184
| 21> C -3.3940650031 3.1732115262 -0.0887246495
| 22> O -3.6864385783 0.0244668875 -0.8411435112
| 23> C -4.2117495454 -1.1053848364 -1.5634576042
| 24> C -3.3068396391 -1.5647720813 -2.6875421345
| 25> H 2.2920766023 0.0330187922 -3.7834758041
| 26> H 3.3941529405 -0.9804632629 -2.8319469537
| 27> H 1.6590173356 -0.9624156299 -2.4725967644
| 28> H 1.8042640778 1.4004682734 -1.7483938274
| 29> H 3.5359780257 1.4423908042 -2.1730134132
| 30> H 4.0999361682 -1.8539988204 2.7226115577
| 31> H 3.6321017342 -2.1634117002 1.0240556865
| 32> H 5.8189021944 -0.2226884076 1.9354150413
| 33> H 6.1034519791 -1.8315644123 1.2499719604
| 34> H 5.3759169408 -0.5560589413 0.2583245539
| 35> H -0.2246847779 -0.3525157359 1.8737861011
| 36> H -0.1893068914 -2.1122085147 2.2646151701
| 37> H -2.274027629 2.9899536084 1.7671497977
| 38> H -1.2920084244 2.822124934 0.2916645162
| 39> H -3.3405203898 2.767550945 -1.0986755631
| 40> H -4.3527461808 2.9045193974 0.3468967366
| 41> H -3.302573277 4.2537677174 -0.1336301266
| 42> H -4.3780725161 -1.9135431107 -0.845783436
| 43> H -5.1691107206 -0.7438775942 -1.9432983486
| 44> H -3.7921353392 -2.3659964837 -3.2354815644
| 45> H -3.0933036161 -0.7415775009 -3.3655574263
| 46> H -2.3640839327 -1.9325988969 -2.2831415694
| 47> *
| 48>
| 49>                          ****END OF INPUT****

CARTESIAN COORDINATES (ANGSTROEM)
---------------------------------
  C      2.504357   -0.358791   -2.794250
  C      2.715009    0.802566   -1.844111
  O      3.122314    0.332803   -0.543890
  P      2.157584    0.137921    0.696843
  S      1.151394    1.702558    1.303307
  O      3.153926   -0.309359    1.833654
  C      4.061734   -1.433498    1.716126
  C      5.431908   -0.978703    1.257616
  S      1.025431   -1.612549    0.253725
  C     -0.299973   -1.369260    1.479175
  S     -1.952183   -1.631149    0.790538
  P     -2.203061    0.164882   -0.291486
  S     -0.864642    0.722560   -1.617127
  O     -2.394866    1.184179    0.907631
  C     -2.265363    2.607518    0.745640
  C     -3.394065    3.173212   -0.088725
  O     -3.686439    0.024467   -0.841144
  C     -4.211750   -1.105385   -1.563458
  C     -3.306840   -1.564772   -2.687542
  H      2.292077    0.033019   -3.783476
  H      3.394153   -0.980463   -2.831947
  H      1.659017   -0.962416   -2.472597
  H      1.804264    1.400468   -1.748394
  H      3.535978    1.442391   -2.173013
  H      4.099936   -1.853999    2.722612
  H      3.632102   -2.163412    1.024056
  H      5.818902   -0.222688    1.935415
  H      6.103452   -1.831564    1.249972
  H      5.375917   -0.556059    0.258325
  H     -0.224685   -0.352516    1.873786
  H     -0.189307   -2.112209    2.264615
  H     -2.274028    2.989954    1.767150
  H     -1.292008    2.822125    0.291665
  H     -3.340520    2.767551   -1.098676
  H     -4.352746    2.904519    0.346897
  H     -3.302573    4.253768   -0.133630
  H     -4.378073   -1.913543   -0.845783
  H     -5.169111   -0.743878   -1.943298
  H     -3.792135   -2.365996   -3.235482
  H     -3.093304   -0.741578   -3.365557
  H     -2.364084   -1.932599   -2.283142

 Total Charge           Charge          ....    0
 Multiplicity           Mult            ....    1
 Number of Electrons    NEL             ....  202
 Basis Dimension        Dim             ....  334

ORBITAL ENERGIES
----------------

  NO   OCC          E(Eh)            E(eV)
   0   2.0000     -88.044918     -2395.8240
   1   2.0000     -88.039465     -2395.6756
   2   2.0000     -87.979921     -2394.0554
   3   2.0000     -87.979297     -2394.0384
   4   2.0000     -76.423836     -2079.5983
   5   2.0000     -76.422860     -2079.5717
   6   2.0000     -18.794585      -511.4266
   7   2.0000     -18.789522      -511.2889
   8   2.0000     -18.786382      -511.2034
   9   2.0000     -18.781634      -511.0743
  10   2.0000      -9.958203      -270.9765
  11   2.0000      -9.955874      -270.9131
  12   2.0000      -9.953529      -270.8493
  13   2.0000      -9.949573      -270.7416
  14   2.0000      -9.938793      -270.4483
  15   2.0000      -9.884543      -268.9721
  16   2.0000      -9.882837      -268.9257
  17   2.0000      -9.880315      -268.8570
  18   2.0000      -9.874897      -268.7096
  19   2.0000      -7.690350      -209.2651
  20   2.0000      -7.684260      -209.0994
  21   2.0000      -7.624726      -207.4793
  22   2.0000      -7.624464      -207.4722
  23   2.0000      -6.421010      -174.7246
  24   2.0000      -6.420492      -174.7105
  25   2.0000      -5.718142      -155.5986
  26   2.0000      -5.714834      -155.5085
  27   2.0000      -5.712066      -155.4332
  28   2.0000      -5.708874      -155.3464
  29   2.0000      -5.707364      -155.3053
  30   2.0000      -5.701233      -155.1384
  31   2.0000      -5.653587      -153.8419
  32   2.0000      -5.653474      -153.8388
  33   2.0000      -5.645468      -153.6210
  34   2.0000      -5.645229      -153.6145
  35   2.0000      -5.644817      -153.6033
  36   2.0000      -5.644311      -153.5895
  37   2.0000      -4.643555      -126.3576
  38   2.0000      -4.643357      -126.3522
  39   2.0000      -4.643047      -126.3437
  40   2.0000      -4.642276      -126.3227
  41   2.0000      -4.641331      -126.2971
  42   2.0000      -4.640636      -126.2781
  43   2.0000      -0.986465       -26.8431
  44   2.0000      -0.981765       -26.7152
  45   2.0000      -0.942968       -25.6595
  46   2.0000      -0.940436       -25.5906
  47   2.0000      -0.761626       -20.7249
  48   2.0000      -0.719433       -19.5768
  49   2.0000      -0.707425       -19.2500
  50   2.0000      -0.688532       -18.7359
  51   2.0000      -0.684897       -18.6370
  52   2.0000      -0.671018       -18.2593
  53   2.0000      -0.649938       -17.6857
  54   2.0000      -0.633498       -17.2384
  55   2.0000      -0.594302       -16.1718
  56   2.0000      -0.588103       -16.0031
  57   2.0000      -0.573252       -15.5990
  58   2.0000      -0.569543       -15.4980
  59   2.0000      -0.560360       -15.2482
  60   2.0000      -0.502000       -13.6601
  61   2.0000      -0.489302       -13.3146
  62   2.0000      -0.477789       -13.0013
  63   2.0000      -0.465217       -12.6592
  64   2.0000      -0.453252       -12.3336
  65   2.0000      -0.448168       -12.1953
  66   2.0000      -0.439694       -11.9647
  67   2.0000      -0.432421       -11.7668
  68   2.0000      -0.426203       -11.5976
  69   2.0000      -0.416277       -11.3275
  70   2.0000      -0.412129       -11.2146
  71   2.0000      -0.391802       -10.6615
  72   2.0000      -0.388269       -10.5653
  73   2.0000      -0.386738       -10.5237
  74   2.0000      -0.382992       -10.4217
  75   2.0000      -0.372376       -10.1329
  76   2.0000      -0.361496        -9.8368
  77   2.0000      -0.354820        -9.6552
  78   2.0000      -0.350549        -9.5389
  79   2.0000      -0.346493        -9.4285
  80   2.0000      -0.345068        -9.3898
  81   2.0000      -0.341574        -9.2947
  82   2.0000      -0.338944        -9.2231
  83   2.0000      -0.335284        -9.1235
  84   2.0000      -0.330074        -8.9818
  85   2.0000      -0.315926        -8.5968
  86   2.0000      -0.312624        -8.5069
  87   2.0000      -0.295186        -8.0324
  88   2.0000      -0.291598        -7.9348
  89   2.0000      -0.288418        -7.8483
  90   2.0000      -0.282077        -7.6757
  91   2.0000      -0.272499        -7.4151
  92   2.0000      -0.265835        -7.2337
  93   2.0000      -0.259761        -7.0685
  94   2.0000      -0.257614        -7.0100
  95   2.0000      -0.242799        -6.6069
  96   2.0000      -0.221532        -6.0282
  97   2.0000      -0.204671        -5.5694
  98   2.0000      -0.199633        -5.4323
  99   2.0000      -0.190797        -5.1918
 100   2.0000      -0.180384        -4.9085
 101   0.0000      -0.040429        -1.1001
 102   0.0000      -0.030423        -0.8278
 103   0.0000      -0.015490        -0.4215
 104   0.0000       0.002272         0.0618
 105   0.0000       0.018742         0.5100

MULLIKEN ATOMIC CHARGES
-----------------------
   0 C :   -0.308213
   1 C :   -0.012963
   2 O :   -0.380832
   3 P :    0.607866
   4 S :   -0.305299
   5 O :   -0.357019
   6 C :   -0.011836
   7 C :   -0.289676
   8 S :   -0.102164
   9 C :   -0.340171
  10 S :   -0.104209
  11 P :    0.622797
  12 S :   -0.330441
  13 O :   -0.363892
  14 C :   -0.016995
  15 C :   -0.300828
  16 O :   -0.375809
  17 C :   -0.011397
  18 C :   -0.314480
  19 H :    0.112194
  20 H :    0.107609
  21 H :    0.140158
  22 H :    0.129265
  23 H :    0.105359
  24 H :    0.106844
  25 H :    0.098209
  26 H :    0.119681
  27 H :    0.107688
  28 H :    0.122067
  29 H :    0.197676
  30 H :    0.182524
  31 H :    0.103333
  32 H :    0.130329
  33 H :    0.120416
  34 H :    0.111839
  35 H :    0.109027
  36 H :    0.114878
  37 H :    0.110544
  38 H :    0.110752
  39 H :    0.127751
  40 H :    0.127417
Sum of atomic charges:    0.0000000

LOEWDIN ATOMIC CHARGES
----------------------
   0 C :   -0.364868
   1 C :   -0.115141
   2 O :   -0.239599
   3 P :    0.570374
   4 S :   -0.297532
   5 O :   -0.240415
   6 C :   -0.117035
   7 C :   -0.360085
   8 S :    0.068692
   9 C :   -0.477257
  10 S :    0.081241
  11 P :    0.574353
  12 S :   -0.312064
  13 O :   -0.237908
  14 C :   -0.122556
  15 C :   -0.364937
  16 O :   -0.245311
  17 C :   -0.112768
  18 C :   -0.372489
  19 H :    0.132284
  20 H :    0.121647
  21 H :    0.122332
  22 H :    0.110774
  23 H :    0.118656
  24 H :    0.119803
  25 H :    0.100868
  26 H :    0.128785
  27 H :    0.128398
  28 H :    0.125557
  29 H :    0.124831
  30 H :    0.136681
  31 H :    0.118558
  32 H :    0.109035
  33 H :    0.121526
  34 H :    0.123991
  35 H :    0.129115
  36 H :    0.110187
  37 H :    0.122257
  38 H :    0.129605
  39 H :    0.129471
  40 H :    0.120947

  Mayer bond orders larger than 0.100000
B(  0-C ,  1-C ) :   1.1727 B(  0-C , 19-H ) :   0.9398 B(  0-C , 20-H ) :   0.9477
B(  0-C , 21-H ) :   0.9307 B(  1-C ,  2-O ) :   0.8889 B(  1-C , 22-H ) :   0.9030
B(  1-C , 23-H ) :   0.9340 B(  2-O ,  3-P ) :   1.1049 B(  3-P ,  4-S ) :   1.6399
B(  3-P ,  5-O ) :   1.1294 B(  3-P ,  8-S ) :   0.9483 B(  4-S ,  8-S ) :   0.1141
B(  4-S , 29-H ) :   0.1076 B(  5-O ,  6-C ) :   0.9004 B(  6-C ,  7-C ) :   1.1632
B(  6-C , 24-H ) :   0.9368 B(  6-C , 25-H ) :   0.9098 B(  7-C , 26-H ) :   0.9470
B(  7-C , 27-H ) :   0.9397 B(  7-C , 28-H ) :   0.9415 B(  8-S ,  9-C ) :   0.9878
B(  9-C , 10-S ) :   1.0078 B(  9-C , 29-H ) :   0.8495 B(  9-C , 30-H ) :   0.9116
B( 10-S , 11-P ) :   0.9492 B( 10-S , 12-S ) :   0.1179 B( 11-P , 12-S ) :   1.6224
B( 11-P , 13-O ) :   1.1287 B( 11-P , 16-O ) :   1.1015 B( 13-O , 14-C ) :   0.8999
B( 14-C , 15-C ) :   1.1615 B( 14-C , 31-H ) :   0.9352 B( 14-C , 32-H ) :   0.9067
B( 15-C , 33-H ) :   0.9353 B( 15-C , 34-H ) :   0.9457 B( 15-C , 35-H ) :   0.9398
B( 16-O , 17-C ) :   0.9158 B( 17-C , 18-C ) :   1.1646 B( 17-C , 36-H ) :   0.9290
B( 17-C , 37-H ) :   0.9342 B( 18-C , 38-H ) :   0.9337 B( 18-C , 39-H ) :   0.9404
B( 18-C , 40-H ) :   0.9318

Dispersion correction           -0.066609407
FINAL SINGLE POINT ENERGY     -2929.513467930203

DIPOLE MOMENT
-------------

Method             : SCF
Type of density    : Electron Density
Multiplicity       :   1
Irrep              :   0
Energy             : -2929.6319470098051170 Eh
Relativity type    :
Basis              : AO
                                X                 Y                 Z
Electronic contribution:     -3.702745925      -0.599547360      11.371190357
Nuclear contribution   :      3.761469597      -0.340371926     -11.790651241
                        -----------------------------------------
Total Dipole Moment    :      0.058723672      -0.939919287      -0.419460884
                        -----------------------------------------
Magnitude (a.u.)       :      1.030943339
Magnitude (Debye)      :      2.620449717

Rotational constants in cm-1:             0.012980             0.004979             0.004802
Rotational constants in MHz :           389.128933           149.276712           143.972066

                             ****ORCA TERMINATED NORMALLY****
TOTAL RUN TIME: 0 days 0 hours 0 minutes 21 seconds 125 msec
