                         Program Version 6.0.0  -   RELEASE  -
|  1> ! pbe def2-sv(p) def2/J RI DEFGRID1 loosescf d4 GCP(DFT/SV(P)) printgap
|  2> %output
|  3>     printlevel normal
|  4> end
|  5> * xyz 0 1
|  6> C 2.1804868737 -0.1816015808 -3.0769480841
|  7> C 2.9697954114 0.5150263475 -1.9867444798
|  8> O 2.1119435018 0.8600556527 -0.8644387179
|  9> P 2.0765450351 0.0700099986 0.4996277808
| 10> S 0.8545945053 0.9692228148 1.7430342147
| 11> O 3.6220096781 0.0352255353 0.8701008163
| 12> C 4.2376641205 -0.8649309268 1.8099914858
| 13> C 3.5967587588 -0.8098424273 3.1806663667
| 14> S 1.6578162685 -1.9756974688 0.0873851353
| 15> C -0.1431384487 -1.8790008562 0.1097442178
| 16> S -0.7950241204 -0.7408811281 -1.1503752228
| 17> P -2.1848194748 0.3886736094 0.001342298
| 18> S -2.5584414674 -0.3360227425 1.7822813879
| 19> O -3.4143873848 0.5292759383 -1.0032821298
| 20> C -4.0632016655 -0.5535455853 -1.6940728593
| 21> C -4.7326373463 -1.5340216987 -0.753393975
| 22> O -1.7348233289 1.8945122872 0.1044989584
| 23> C -1.7473930928 2.871793178 -0.9628716679
| 24> C -0.8157915715 2.503963326 -2.0985461285
| 25> H 1.3417495716 0.4342040028 -3.3880148166
| 26> H 2.8348233347 -0.3518594361 -3.9258930594
| 27> H 1.7965761099 -1.1365011014 -2.7269517003
| 28> H 3.362072271 1.4733607966 -2.3305886825
| 29> H 3.7902230543 -0.1084520875 -1.6274996399
| 30> H 4.185046956 -1.8768574518 1.3988865246
| 31> H 5.2756832728 -0.5290772786 1.8423119554
| 32> H 3.5968550399 0.2096967574 3.5594052517
| 33> H 2.564055719 -1.152815084 3.1287703122
| 34> H 4.1473716833 -1.4483694491 3.8638541146
| 35> H -0.493413301 -1.5375079708 1.0885406958
| 36> H -0.4981285149 -2.8840185906 -0.1051922712
| 37> H -4.7955498972 -0.0477807518 -2.3261731213
| 38> H -3.3207727816 -1.0592360145 -2.3180565649
| 39> H -3.9896878175 -2.0361827728 -0.1365107498
| 40> H -5.4238730268 -1.0144232259 -0.0943915397
| 41> H -5.2746256871 -2.2740094498 -1.3332790583
| 42> H -2.776028431 2.9807430708 -1.3124525221
| 43> H -1.4248230938 3.785587638 -0.4606155182
| 44> H -0.7693046635 3.3303249701 -2.8010231224
| 45> H 0.1813114889 2.3052947018 -1.7104130646
| 46> H -1.178763805 1.6163356934 -2.6148912995
| 47> *
| 48>
| 49>                          ****END OF INPUT****

CARTESIAN COORDINATES (ANGSTROEM)
---------------------------------
  C      2.180487   -0.181602   -3.076948
  C      2.969795    0.515026   -1.986744
  O      2.111944    0.860056   -0.864439
  P      2.076545    0.070010    0.499628
  S      0.854595    0.969223    1.743034
  O      3.622010    0.035226    0.870101
  C      4.237664   -0.864931    1.809991
  C      3.596759   -0.809842    3.180666
  S      1.657816   -1.975697    0.087385
  C     -0.143138   -1.879001    0.109744
  S     -0.795024   -0.740881   -1.150375
  P     -2.184819    0.388674    0.001342
  S     -2.558441   -0.336023    1.782281
  O     -3.414387    0.529276   -1.003282
  C     -4.063202   -0.553546   -1.694073
  C     -4.732637   -1.534022   -0.753394
  O     -1.734823    1.894512    0.104499
  C     -1.747393    2.871793   -0.962872
  C     -0.815792    2.503963   -2.098546
  H      1.341750    0.434204   -3.388015
  H      2.834823   -0.351859   -3.925893
  H      1.796576   -1.136501   -2.726952
  H      3.362072    1.473361   -2.330589
  H      3.790223   -0.108452   -1.627500
  H      4.185047   -1.876857    1.398887
  H      5.275683   -0.529077    1.842312
  H      3.596855    0.209697    3.559405
  H      2.564056   -1.152815    3.128770
  H      4.147372   -1.448369    3.863854
  H     -0.493413   -1.537508    1.088541
  H     -0.498129   -2.884019   -0.105192
  H     -4.795550   -0.047781   -2.326173
  H     -3.320773   -1.059236   -2.318057
  H     -3.989688   -2.036183   -0.136511
  H     -5.423873   -1.014423   -0.094392
  H     -5.274626   -2.274009   -1.333279
  H     -2.776028    2.980743   -1.312453
  H     -1.424823    3.785588   -0.460616
  H     -0.769305    3.330325   -2.801023
  H      0.181311    2.305295   -1.710413
  H     -1.178764    1.616336   -2.614891

 Total Charge           Charge          ....    0
 Multiplicity           Mult            ....    1
 Number of Electrons    NEL             ....  202
 Basis Dimension        Dim             ....  334

ORBITAL ENERGIES
----------------

  NO   OCC          E(Eh)            E(eV)
   0   2.0000     -88.046599     -2395.8698
   1   2.0000     -88.041315     -2395.7260
   2   2.0000     -87.975248     -2393.9282
   3   2.0000     -87.974536     -2393.9088
   4   2.0000     -76.422847     -2079.5714
   5   2.0000     -76.420953     -2079.5199
   6   2.0000     -18.792327      -511.3652
   7   2.0000     -18.789313      -511.2832
   8   2.0000     -18.788520      -511.2616
   9   2.0000     -18.780663      -511.0478
  10   2.0000      -9.958412      -270.9822
  11   2.0000      -9.956207      -270.9222
  12   2.0000      -9.953230      -270.8412
  13   2.0000      -9.952878      -270.8316
  14   2.0000      -9.948387      -270.7094
  15   2.0000      -9.886050      -269.0131
  16   2.0000      -9.882018      -268.9034
  17   2.0000      -9.880962      -268.8746
  18   2.0000      -9.879303      -268.8295
  19   2.0000      -7.691452      -209.2950
  20   2.0000      -7.685308      -209.1279
  21   2.0000      -7.620067      -207.3526
  22   2.0000      -7.619806      -207.3455
  23   2.0000      -6.419853      -174.6931
  24   2.0000      -6.417678      -174.6339
  25   2.0000      -5.719201      -155.6274
  26   2.0000      -5.715757      -155.5337
  27   2.0000      -5.713150      -155.4627
  28   2.0000      -5.709733      -155.3697
  29   2.0000      -5.708810      -155.3446
  30   2.0000      -5.702520      -155.1735
  31   2.0000      -5.649304      -153.7254
  32   2.0000      -5.648952      -153.7158
  33   2.0000      -5.640485      -153.4854
  34   2.0000      -5.640284      -153.4799
  35   2.0000      -5.640162      -153.4766
  36   2.0000      -5.639816      -153.4672
  37   2.0000      -4.642682      -126.3338
  38   2.0000      -4.642006      -126.3154
  39   2.0000      -4.640556      -126.2760
  40   2.0000      -4.639759      -126.2543
  41   2.0000      -4.639558      -126.2488
  42   2.0000      -4.637885      -126.2033
  43   2.0000      -0.986810       -26.8525
  44   2.0000      -0.981596       -26.7106
  45   2.0000      -0.942530       -25.6475
  46   2.0000      -0.935675       -25.4610
  47   2.0000      -0.761989       -20.7348
  48   2.0000      -0.717907       -19.5352
  49   2.0000      -0.709811       -19.3149
  50   2.0000      -0.689431       -18.7604
  51   2.0000      -0.686074       -18.6690
  52   2.0000      -0.677128       -18.4256
  53   2.0000      -0.647098       -17.6084
  54   2.0000      -0.630847       -17.1662
  55   2.0000      -0.588300       -16.0084
  56   2.0000      -0.584317       -15.9001
  57   2.0000      -0.576935       -15.6992
  58   2.0000      -0.575460       -15.6591
  59   2.0000      -0.563926       -15.3452
  60   2.0000      -0.503804       -13.7092
  61   2.0000      -0.493849       -13.4383
  62   2.0000      -0.471244       -12.8232
  63   2.0000      -0.466505       -12.6943
  64   2.0000      -0.448203       -12.1962
  65   2.0000      -0.447296       -12.1715
  66   2.0000      -0.440995       -12.0001
  67   2.0000      -0.434193       -11.8150
  68   2.0000      -0.428802       -11.6683
  69   2.0000      -0.422344       -11.4926
  70   2.0000      -0.409911       -11.1543
  71   2.0000      -0.402594       -10.9551
  72   2.0000      -0.396364       -10.7856
  73   2.0000      -0.390589       -10.6285
  74   2.0000      -0.383963       -10.4482
  75   2.0000      -0.359335        -9.7780
  76   2.0000      -0.354208        -9.6385
  77   2.0000      -0.351712        -9.5706
  78   2.0000      -0.350285        -9.5318
  79   2.0000      -0.347401        -9.4533
  80   2.0000      -0.345504        -9.4016
  81   2.0000      -0.343663        -9.3515
  82   2.0000      -0.339573        -9.2403
  83   2.0000      -0.335692        -9.1347
  84   2.0000      -0.332198        -9.0396
  85   2.0000      -0.318388        -8.6638
  86   2.0000      -0.311342        -8.4721
  87   2.0000      -0.296179        -8.0594
  88   2.0000      -0.294234        -8.0065
  89   2.0000      -0.292141        -7.9496
  90   2.0000      -0.282402        -7.6845
  91   2.0000      -0.277638        -7.5549
  92   2.0000      -0.269152        -7.3240
  93   2.0000      -0.260977        -7.1015
  94   2.0000      -0.253778        -6.9056
  95   2.0000      -0.233101        -6.3430
  96   2.0000      -0.222544        -6.0557
  97   2.0000      -0.205344        -5.5877
  98   2.0000      -0.191065        -5.1991
  99   2.0000      -0.187372        -5.0987
 100   2.0000      -0.178410        -4.8548
 101   0.0000      -0.042919        -1.1679
 102   0.0000      -0.033278        -0.9055
 103   0.0000      -0.007840        -0.2133
 104   0.0000       0.009142         0.2488
 105   0.0000       0.015703         0.4273

MULLIKEN ATOMIC CHARGES
-----------------------
   0 C :   -0.293884
   1 C :   -0.008309
   2 O :   -0.350732
   3 P :    0.587393
   4 S :   -0.275398
   5 O :   -0.378935
   6 C :   -0.012522
   7 C :   -0.307830
   8 S :   -0.135896
   9 C :   -0.323664
  10 S :   -0.146160
  11 P :    0.633486
  12 S :   -0.297594
  13 O :   -0.386315
  14 C :   -0.006433
  15 C :   -0.303175
  16 O :   -0.346619
  17 C :    0.015782
  18 C :   -0.360336
  19 H :    0.125308
  20 H :    0.107362
  21 H :    0.120774
  22 H :    0.109700
  23 H :    0.101467
  24 H :    0.111611
  25 H :    0.108329
  26 H :    0.127659
  27 H :    0.129871
  28 H :    0.110020
  29 H :    0.210757
  30 H :    0.175452
  31 H :    0.103183
  32 H :    0.105157
  33 H :    0.120665
  34 H :    0.123033
  35 H :    0.106396
  36 H :    0.105562
  37 H :    0.110787
  38 H :    0.109254
  39 H :    0.155938
  40 H :    0.118854
Sum of atomic charges:   -0.0000000

LOEWDIN ATOMIC CHARGES
----------------------
   0 C :   -0.363787
   1 C :   -0.111569
   2 O :   -0.232451
   3 P :    0.555365
   4 S :   -0.283076
   5 O :   -0.246851
   6 C :   -0.115725
   7 C :   -0.368789
   8 S :    0.061734
   9 C :   -0.479454
  10 S :    0.071890
  11 P :    0.572221
  12 S :   -0.292972
  13 O :   -0.248877
  14 C :   -0.119090
  15 C :   -0.367916
  16 O :   -0.224345
  17 C :   -0.106749
  18 C :   -0.376614
  19 H :    0.127033
  20 H :    0.128391
  21 H :    0.115015
  22 H :    0.121159
  23 H :    0.108117
  24 H :    0.106443
  25 H :    0.120782
  26 H :    0.131343
  27 H :    0.123152
  28 H :    0.129460
  29 H :    0.125561
  30 H :    0.133559
  31 H :    0.117805
  32 H :    0.102125
  33 H :    0.119486
  34 H :    0.129893
  35 H :    0.127612
  36 H :    0.111801
  37 H :    0.123966
  38 H :    0.129274
  39 H :    0.132861
  40 H :    0.112219

  Mayer bond orders larger than 0.100000
B(  0-C ,  1-C ) :   1.1681 B(  0-C , 19-H ) :   0.9438 B(  0-C , 20-H ) :   0.9382
B(  0-C , 21-H ) :   0.9308 B(  1-C ,  2-O ) :   0.8881 B(  1-C , 22-H ) :   0.9358
B(  1-C , 23-H ) :   0.9182 B(  2-O ,  3-P ) :   1.1149 B(  3-P ,  4-S ) :   1.6815
B(  3-P ,  5-O ) :   1.0831 B(  3-P ,  8-S ) :   0.9219 B(  4-S ,  8-S ) :   0.1088
B(  5-O ,  6-C ) :   0.9131 B(  6-C ,  7-C ) :   1.1671 B(  6-C , 24-H ) :   0.9258
B(  6-C , 25-H ) :   0.9333 B(  7-C , 26-H ) :   0.9431 B(  7-C , 27-H ) :   0.9321
B(  7-C , 28-H ) :   0.9350 B(  8-S ,  9-C ) :   1.0055 B(  9-C , 10-S ) :   0.9992
B(  9-C , 29-H ) :   0.8409 B(  9-C , 30-H ) :   0.9097 B( 10-S , 11-P ) :   0.9282
B( 10-S , 12-S ) :   0.1176 B( 11-P , 12-S ) :   1.6396 B( 11-P , 13-O ) :   1.0646
B( 11-P , 16-O ) :   1.1419 B( 12-S , 29-H ) :   0.1066 B( 13-O , 14-C ) :   0.9188
B( 14-C , 15-C ) :   1.1654 B( 14-C , 31-H ) :   0.9339 B( 14-C , 32-H ) :   0.9186
B( 15-C , 33-H ) :   0.9326 B( 15-C , 34-H ) :   0.9456 B( 15-C , 35-H ) :   0.9361
B( 16-O , 17-C ) :   0.9039 B( 17-C , 18-C ) :   1.1689 B( 17-C , 36-H ) :   0.9276
B( 17-C , 37-H ) :   0.9319 B( 18-C , 38-H ) :   0.9353 B( 18-C , 39-H ) :   0.9242
B( 18-C , 40-H ) :   0.9352

Dispersion correction           -0.068504814
FINAL SINGLE POINT ENERGY     -2929.510719797264

DIPOLE MOMENT
-------------

Method             : SCF
Type of density    : Electron Density
Multiplicity       :   1
Irrep              :   0
Energy             : -2929.6283239037484236 Eh
Relativity type    :
Basis              : AO
                                X                 Y                 Z
Electronic contribution:     -2.186279593       1.019960116      12.086470896
Nuclear contribution   :      3.066976156      -1.540206525     -13.976293042
                        -----------------------------------------
Total Dipole Moment    :      0.880696563      -0.520246409      -1.889822146
                        -----------------------------------------
Magnitude (a.u.)       :      2.148885876
Magnitude (Debye)      :      5.462033821

Rotational constants in cm-1:             0.012447             0.005507             0.005087
Rotational constants in MHz :           373.140602           165.102212           152.507574

                             ****ORCA TERMINATED NORMALLY****
TOTAL RUN TIME: 0 days 0 hours 0 minutes 21 seconds 732 msec
