                         Program Version 6.0.0  -   RELEASE  -
|  1> ! pbe def2-sv(p) def2/J RI DEFGRID1 loosescf d4 GCP(DFT/SV(P)) printgap
|  2> %output
|  3>     printlevel normal
|  4> end
|  5> * xyz 0 1
|  6> C 2.6781709991 -0.2780318465 -2.8594478984
|  7> C 2.5994082233 0.8535669335 -1.8526304319
|  8> O 3.1066504429 0.4350791844 -0.5728331854
|  9> P 2.1846379475 0.0092021992 0.6577172272
| 10> S 0.8078247867 1.3177696983 1.1275582027
| 11> O 3.2454650964 -0.1611652781 1.7991870565
| 12> C 4.4004863522 -1.0375712107 1.6732160712
| 13> C 4.9574215129 -1.2622724467 3.0626413028
| 14> S 1.5592394071 -1.9968989548 0.281433345
| 15> C -0.0510074358 -1.7581869258 -0.5078911394
| 16> S -1.417894308 -1.411761635 0.6600338977
| 17> P -2.2305676917 0.3207952509 -0.2416476856
| 18> S -1.2984071275 1.0281741203 -1.8200129951
| 19> O -2.4013341825 1.3130089828 0.9767300275
| 20> C -2.3204781106 2.7415943047 0.8397595622
| 21> C -3.5625412775 3.2962667536 0.1745409764
| 22> O -3.7622684087 -0.0633358636 -0.4559271879
| 23> C -4.2504116684 -1.2467600671 -1.111475612
| 24> C -3.7870804848 -1.3602937602 -2.5498872494
| 25> H 3.7065919072 -0.6113397996 -2.9633275636
| 26> H 2.0679889992 -1.120804818 -2.5448433131
| 27> H 2.3144481728 0.0802840839 -3.8170868626
| 28> H 1.574269866 1.2219905355 -1.7380914726
| 29> H 3.2399481997 1.6866248899 -2.1484473585
| 30> H 4.0765226478 -1.97525364 1.2145369374
| 31> H 5.1220909912 -0.542209008 1.0216057127
| 32> H 5.2340007346 -0.3124287587 3.5113616811
| 33> H 4.2122030489 -1.7413900912 3.691287441
| 34> H 5.8340251344 -1.8983349668 2.9956617886
| 35> H -0.2630748415 -2.7074725166 -0.9934585532
| 36> H -0.0092428964 -0.9379265517 -1.2306880628
| 37> H -2.2046795828 3.0994660217 1.8636162931
| 38> H -1.4189360528 2.9909900404 0.2699616028
| 39> H -3.4988756322 4.379008937 0.1355057266
| 40> H -3.6399876296 2.9056448238 -0.8397713627
| 41> H -4.4472745399 3.0009550324 0.7320318611
| 42> H -3.9316958968 -2.1169749193 -0.5298156162
| 43> H -5.3349905336 -1.1407702861 -1.0500216485
| 44> H -2.706391168 -1.4847844574 -2.5913981726
| 45> H -4.2621817706 -2.2196202471 -3.0118929583
| 46> H -4.0493729061 -0.462602057 -3.1043185409
| 47> *
| 48>
| 49>                          ****END OF INPUT****

CARTESIAN COORDINATES (ANGSTROEM)
---------------------------------
  C      2.678171   -0.278032   -2.859448
  C      2.599408    0.853567   -1.852630
  O      3.106650    0.435079   -0.572833
  P      2.184638    0.009202    0.657717
  S      0.807825    1.317770    1.127558
  O      3.245465   -0.161165    1.799187
  C      4.400486   -1.037571    1.673216
  C      4.957422   -1.262272    3.062641
  S      1.559239   -1.996899    0.281433
  C     -0.051007   -1.758187   -0.507891
  S     -1.417894   -1.411762    0.660034
  P     -2.230568    0.320795   -0.241648
  S     -1.298407    1.028174   -1.820013
  O     -2.401334    1.313009    0.976730
  C     -2.320478    2.741594    0.839760
  C     -3.562541    3.296267    0.174541
  O     -3.762268   -0.063336   -0.455927
  C     -4.250412   -1.246760   -1.111476
  C     -3.787080   -1.360294   -2.549887
  H      3.706592   -0.611340   -2.963328
  H      2.067989   -1.120805   -2.544843
  H      2.314448    0.080284   -3.817087
  H      1.574270    1.221991   -1.738091
  H      3.239948    1.686625   -2.148447
  H      4.076523   -1.975254    1.214537
  H      5.122091   -0.542209    1.021606
  H      5.234001   -0.312429    3.511362
  H      4.212203   -1.741390    3.691287
  H      5.834025   -1.898335    2.995662
  H     -0.263075   -2.707473   -0.993459
  H     -0.009243   -0.937927   -1.230688
  H     -2.204680    3.099466    1.863616
  H     -1.418936    2.990990    0.269962
  H     -3.498876    4.379009    0.135506
  H     -3.639988    2.905645   -0.839771
  H     -4.447275    3.000955    0.732032
  H     -3.931696   -2.116975   -0.529816
  H     -5.334991   -1.140770   -1.050022
  H     -2.706391   -1.484784   -2.591398
  H     -4.262182   -2.219620   -3.011893
  H     -4.049373   -0.462602   -3.104319

 Total Charge           Charge          ....    0
 Multiplicity           Mult            ....    1
 Number of Electrons    NEL             ....  202
 Basis Dimension        Dim             ....  334

ORBITAL ENERGIES
----------------

  NO   OCC          E(Eh)            E(eV)
   0   2.0000     -88.042766     -2395.7655
   1   2.0000     -88.040724     -2395.7099
   2   2.0000     -87.988001     -2394.2752
   3   2.0000     -87.977103     -2393.9787
   4   2.0000     -76.425380     -2079.6403
   5   2.0000     -76.421368     -2079.5311
   6   2.0000     -18.791577      -511.3448
   7   2.0000     -18.785490      -511.1792
   8   2.0000     -18.783967      -511.1377
   9   2.0000     -18.782533      -511.0987
  10   2.0000      -9.959063      -270.9999
  11   2.0000      -9.958356      -270.9807
  12   2.0000      -9.952722      -270.8273
  13   2.0000      -9.946368      -270.6544
  14   2.0000      -9.942972      -270.5620
  15   2.0000      -9.890250      -269.1274
  16   2.0000      -9.883480      -268.9432
  17   2.0000      -9.883442      -268.9421
  18   2.0000      -9.876333      -268.7487
  19   2.0000      -7.687766      -209.1948
  20   2.0000      -7.685761      -209.1402
  21   2.0000      -7.632688      -207.6960
  22   2.0000      -7.622017      -207.4056
  23   2.0000      -6.422354      -174.7611
  24   2.0000      -6.418889      -174.6668
  25   2.0000      -5.715633      -155.5303
  26   2.0000      -5.713555      -155.4737
  27   2.0000      -5.712112      -155.4345
  28   2.0000      -5.710439      -155.3889
  29   2.0000      -5.704920      -155.2388
  30   2.0000      -5.702651      -155.1770
  31   2.0000      -5.661430      -154.0553
  32   2.0000      -5.653810      -153.8480
  33   2.0000      -5.652475      -153.8117
  34   2.0000      -5.651079      -153.7737
  35   2.0000      -5.642734      -153.5466
  36   2.0000      -5.641952      -153.5253
  37   2.0000      -4.644608      -126.3862
  38   2.0000      -4.644195      -126.3750
  39   2.0000      -4.643145      -126.3464
  40   2.0000      -4.641662      -126.3060
  41   2.0000      -4.640718      -126.2804
  42   2.0000      -4.639113      -126.2367
  43   2.0000      -0.985363       -26.8131
  44   2.0000      -0.981082       -26.6966
  45   2.0000      -0.940042       -25.5798
  46   2.0000      -0.938210       -25.5300
  47   2.0000      -0.759389       -20.6640
  48   2.0000      -0.720229       -19.5984
  49   2.0000      -0.710141       -19.3239
  50   2.0000      -0.688274       -18.7289
  51   2.0000      -0.683245       -18.5920
  52   2.0000      -0.673559       -18.3285
  53   2.0000      -0.650036       -17.6884
  54   2.0000      -0.634409       -17.2631
  55   2.0000      -0.597109       -16.2482
  56   2.0000      -0.582936       -15.8625
  57   2.0000      -0.573699       -15.6111
  58   2.0000      -0.569562       -15.4986
  59   2.0000      -0.561329       -15.2745
  60   2.0000      -0.507099       -13.7989
  61   2.0000      -0.490927       -13.3588
  62   2.0000      -0.478199       -13.0125
  63   2.0000      -0.465237       -12.6598
  64   2.0000      -0.457679       -12.4541
  65   2.0000      -0.448356       -12.2004
  66   2.0000      -0.436651       -11.8819
  67   2.0000      -0.430828       -11.7234
  68   2.0000      -0.427635       -11.6366
  69   2.0000      -0.413404       -11.2493
  70   2.0000      -0.406485       -11.0610
  71   2.0000      -0.401691       -10.9306
  72   2.0000      -0.393641       -10.7115
  73   2.0000      -0.384149       -10.4532
  74   2.0000      -0.379388       -10.3237
  75   2.0000      -0.370959       -10.0943
  76   2.0000      -0.364077        -9.9070
  77   2.0000      -0.358467        -9.7544
  78   2.0000      -0.349868        -9.5204
  79   2.0000      -0.346275        -9.4226
  80   2.0000      -0.344549        -9.3757
  81   2.0000      -0.340507        -9.2657
  82   2.0000      -0.338569        -9.2129
  83   2.0000      -0.334452        -9.1009
  84   2.0000      -0.332632        -9.0514
  85   2.0000      -0.317804        -8.6479
  86   2.0000      -0.310655        -8.4533
  87   2.0000      -0.301080        -8.1928
  88   2.0000      -0.293386        -7.9834
  89   2.0000      -0.289936        -7.8896
  90   2.0000      -0.280843        -7.6421
  91   2.0000      -0.272705        -7.4207
  92   2.0000      -0.270872        -7.3708
  93   2.0000      -0.260032        -7.0758
  94   2.0000      -0.253697        -6.9034
  95   2.0000      -0.232492        -6.3264
  96   2.0000      -0.220307        -5.9949
  97   2.0000      -0.214840        -5.8461
  98   2.0000      -0.203935        -5.5494
  99   2.0000      -0.187451        -5.1008
 100   2.0000      -0.183850        -5.0028
 101   0.0000      -0.042207        -1.1485
 102   0.0000      -0.032505        -0.8845
 103   0.0000      -0.018319        -0.4985
 104   0.0000       0.007118         0.1937
 105   0.0000       0.020216         0.5501

MULLIKEN ATOMIC CHARGES
-----------------------
   0 C :   -0.295422
   1 C :   -0.024983
   2 O :   -0.386000
   3 P :    0.607051
   4 S :   -0.301228
   5 O :   -0.358207
   6 C :   -0.024290
   7 C :   -0.277813
   8 S :   -0.133216
   9 C :   -0.361048
  10 S :   -0.071439
  11 P :    0.628427
  12 S :   -0.327751
  13 O :   -0.360228
  14 C :   -0.014608
  15 C :   -0.295937
  16 O :   -0.369185
  17 C :   -0.005804
  18 C :   -0.306807
  19 H :    0.109624
  20 H :    0.118599
  21 H :    0.112280
  22 H :    0.128664
  23 H :    0.104248
  24 H :    0.113543
  25 H :    0.112221
  26 H :    0.125086
  27 H :    0.123450
  28 H :    0.111304
  29 H :    0.179980
  30 H :    0.201204
  31 H :    0.107948
  32 H :    0.123989
  33 H :    0.109138
  34 H :    0.121305
  35 H :    0.114173
  36 H :    0.105821
  37 H :    0.106727
  38 H :    0.117388
  39 H :    0.108557
  40 H :    0.123238
Sum of atomic charges:   -0.0000000

LOEWDIN ATOMIC CHARGES
----------------------
   0 C :   -0.359398
   1 C :   -0.121775
   2 O :   -0.253801
   3 P :    0.558704
   4 S :   -0.296488
   5 O :   -0.235308
   6 C :   -0.113075
   7 C :   -0.349737
   8 S :    0.057361
   9 C :   -0.482130
  10 S :    0.091660
  11 P :    0.580694
  12 S :   -0.301560
  13 O :   -0.231110
  14 C :   -0.119618
  15 C :   -0.363193
  16 O :   -0.246044
  17 C :   -0.118778
  18 C :   -0.368148
  19 H :    0.123937
  20 H :    0.118168
  21 H :    0.131214
  22 H :    0.106645
  23 H :    0.118741
  24 H :    0.105913
  25 H :    0.117258
  26 H :    0.131692
  27 H :    0.131051
  28 H :    0.130620
  29 H :    0.134244
  30 H :    0.117154
  31 H :    0.120612
  32 H :    0.109053
  33 H :    0.129302
  34 H :    0.121812
  35 H :    0.125471
  36 H :    0.104281
  37 H :    0.120127
  38 H :    0.117058
  39 H :    0.128234
  40 H :    0.129156

  Mayer bond orders larger than 0.100000
B(  0-C ,  1-C ) :   1.1656 B(  0-C , 19-H ) :   0.9472 B(  0-C , 20-H ) :   0.9377
B(  0-C , 21-H ) :   0.9408 B(  1-C ,  2-O ) :   0.9083 B(  1-C , 22-H ) :   0.8970
B(  1-C , 23-H ) :   0.9348 B(  2-O ,  3-P ) :   1.0719 B(  3-P ,  4-S ) :   1.6895
B(  3-P ,  5-O ) :   1.1486 B(  3-P ,  8-S ) :   0.9359 B(  4-S ,  8-S ) :   0.1139
B(  5-O ,  6-C ) :   0.8901 B(  6-C ,  7-C ) :   1.1630 B(  6-C , 24-H ) :   0.9168
B(  6-C , 25-H ) :   0.9285 B(  7-C , 26-H ) :   0.9493 B(  7-C , 27-H ) :   0.9496
B(  7-C , 28-H ) :   0.9405 B(  8-S ,  9-C ) :   1.0012 B(  9-C , 10-S ) :   1.0014
B(  9-C , 29-H ) :   0.9089 B(  9-C , 30-H ) :   0.8400 B( 10-S , 11-P ) :   0.9561
B( 10-S , 12-S ) :   0.1177 B( 11-P , 12-S ) :   1.5622 B( 11-P , 13-O ) :   1.1477
B( 11-P , 16-O ) :   1.1050 B( 12-S , 30-H ) :   0.1231 B( 13-O , 14-C ) :   0.8988
B( 14-C , 15-C ) :   1.1620 B( 14-C , 31-H ) :   0.9343 B( 14-C , 32-H ) :   0.9109
B( 15-C , 33-H ) :   0.9400 B( 15-C , 34-H ) :   0.9370 B( 15-C , 35-H ) :   0.9463
B( 16-O , 17-C ) :   0.9230 B( 17-C , 18-C ) :   1.1621 B( 17-C , 36-H ) :   0.9192
B( 17-C , 37-H ) :   0.9343 B( 18-C , 38-H ) :   0.9363 B( 18-C , 39-H ) :   0.9362
B( 18-C , 40-H ) :   0.9444

Dispersion correction           -0.065599538
FINAL SINGLE POINT ENERGY     -2929.512968087152

DIPOLE MOMENT
-------------

Method             : SCF
Type of density    : Electron Density
Multiplicity       :   1
Irrep              :   0
Energy             : -2929.6313167324501592 Eh
Relativity type    :
Basis              : AO
                                X                 Y                 Z
Electronic contribution:     -1.240415248      -0.699951762      10.103999463
Nuclear contribution   :      1.569449692      -0.154228152     -10.792686196
                        -----------------------------------------
Total Dipole Moment    :      0.329034444      -0.854179914      -0.688686733
                        -----------------------------------------
Magnitude (a.u.)       :      1.145502687
Magnitude (Debye)      :      2.911636439

Rotational constants in cm-1:             0.012776             0.004777             0.004576
Rotational constants in MHz :           383.027647           143.210287           137.174758

                             ****ORCA TERMINATED NORMALLY****
TOTAL RUN TIME: 0 days 0 hours 0 minutes 20 seconds 809 msec
