                         Program Version 6.0.0  -   RELEASE  -
|  1> ! pbe def2-sv(p) def2/J RI DEFGRID1 loosescf d4 GCP(DFT/SV(P)) printgap
|  2> %output
|  3>     printlevel normal
|  4> end
|  5> * xyz 0 1
|  6> C 3.6125030677 -1.8616666018 -2.3519471527
|  7> C 4.0168728176 -0.4137593028 -2.1605925773
|  8> O 3.5971498391 0.1147711566 -0.8922551128
|  9> P 2.0673982215 0.3257949769 -0.47878832
| 10> S 0.9381252956 0.9949513356 -1.9240473412
| 11> O 2.2369444356 1.3343160031 0.7124140218
| 12> C 3.0151657938 1.0369670885 1.9004672227
| 13> C 2.5565228648 1.9766272726 2.9948864288
| 14> S 1.5086989101 -1.5414234621 0.4000689818
| 15> C 0.1365807067 -2.0169960975 -0.6940686637
| 16> S -1.4610603245 -2.194364084 0.153092098
| 17> P -2.0006694932 -0.1819650215 0.3968549407
| 18> S -0.8212753574 1.0202217901 1.4127901357
| 19> O -3.459050066 -0.282532154 1.0203352145
| 20> C -3.7057060144 -0.3819709913 2.4371609673
| 21> C -5.0063571439 0.3326218431 2.7458645124
| 22> O -2.3067569857 0.2100364269 -1.1016106132
| 23> C -2.6231427485 1.5671320816 -1.4847564997
| 24> C -2.5503737371 1.6481464398 -2.9942624148
| 25> H 2.5321832721 -1.934426169 -2.4665188993
| 26> H 4.0860440704 -2.247377397 -3.249059669
| 27> H 3.9205997436 -2.4569456349 -1.4961668124
| 28> H 3.5928350438 0.2126955023 -2.9516697606
| 29> H 5.1016636675 -0.2991928508 -2.1395626768
| 30> H 2.8443854164 -0.0079864204 2.1761086064
| 31> H 4.068397495 1.1806750975 1.6510179364
| 32> H 3.1031159909 1.7592427461 3.9065002003
| 33> H 2.7319992854 3.0072239072 2.7005748185
| 34> H 1.4910725593 1.8435112748 3.1685130863
| 35> H 0.357136564 -3.0044317279 -1.0909736555
| 36> H 0.0408578782 -1.2718493311 -1.4887495538
| 37> H -3.763939741 -1.4437227338 2.6871854321
| 38> H -2.8646640442 0.0723243225 2.9721458449
| 39> H -5.8128473481 -0.0962914507 2.158186994
| 40> H -5.2304647313 0.2211373825 3.8016026686
| 41> H -4.9194128691 1.3895952205 2.508599413
| 42> H -3.6246235641 1.7974281681 -1.1137441501
| 43> H -1.8989300593 2.2398820223 -1.0124613517
| 44> H -2.8369730304 2.6454694173 -3.3108685137
| 45> H -1.5342987268 1.4455602242 -3.3248723285
| 46> H -3.2212797277 0.9176420607 -3.4362076772
| 47> *
| 48>
| 49>                          ****END OF INPUT****

CARTESIAN COORDINATES (ANGSTROEM)
---------------------------------
  C      3.612503   -1.861667   -2.351947
  C      4.016873   -0.413759   -2.160593
  O      3.597150    0.114771   -0.892255
  P      2.067398    0.325795   -0.478788
  S      0.938125    0.994951   -1.924047
  O      2.236944    1.334316    0.712414
  C      3.015166    1.036967    1.900467
  C      2.556523    1.976627    2.994886
  S      1.508699   -1.541423    0.400069
  C      0.136581   -2.016996   -0.694069
  S     -1.461060   -2.194364    0.153092
  P     -2.000669   -0.181965    0.396855
  S     -0.821275    1.020222    1.412790
  O     -3.459050   -0.282532    1.020335
  C     -3.705706   -0.381971    2.437161
  C     -5.006357    0.332622    2.745865
  O     -2.306757    0.210036   -1.101611
  C     -2.623143    1.567132   -1.484756
  C     -2.550374    1.648146   -2.994262
  H      2.532183   -1.934426   -2.466519
  H      4.086044   -2.247377   -3.249060
  H      3.920600   -2.456946   -1.496167
  H      3.592835    0.212696   -2.951670
  H      5.101664   -0.299193   -2.139563
  H      2.844385   -0.007986    2.176109
  H      4.068397    1.180675    1.651018
  H      3.103116    1.759243    3.906500
  H      2.731999    3.007224    2.700575
  H      1.491073    1.843511    3.168513
  H      0.357137   -3.004432   -1.090974
  H      0.040858   -1.271849   -1.488750
  H     -3.763940   -1.443723    2.687185
  H     -2.864664    0.072324    2.972146
  H     -5.812847   -0.096291    2.158187
  H     -5.230465    0.221137    3.801603
  H     -4.919413    1.389595    2.508599
  H     -3.624624    1.797428   -1.113744
  H     -1.898930    2.239882   -1.012461
  H     -2.836973    2.645469   -3.310869
  H     -1.534299    1.445560   -3.324872
  H     -3.221280    0.917642   -3.436208

 Total Charge           Charge          ....    0
 Multiplicity           Mult            ....    1
 Number of Electrons    NEL             ....  202
 Basis Dimension        Dim             ....  334

ORBITAL ENERGIES
----------------

  NO   OCC          E(Eh)            E(eV)
   0   2.0000     -88.038174     -2395.6405
   1   2.0000     -88.038102     -2395.6385
   2   2.0000     -87.986127     -2394.2242
   3   2.0000     -87.976537     -2393.9633
   4   2.0000     -76.423273     -2079.5830
   5   2.0000     -76.418161     -2079.4439
   6   2.0000     -18.786529      -511.2074
   7   2.0000     -18.785727      -511.1856
   8   2.0000     -18.783657      -511.1293
   9   2.0000     -18.782668      -511.1024
  10   2.0000      -9.954948      -270.8879
  11   2.0000      -9.953559      -270.8501
  12   2.0000      -9.950321      -270.7620
  13   2.0000      -9.947978      -270.6982
  14   2.0000      -9.942022      -270.5362
  15   2.0000      -9.884972      -268.9838
  16   2.0000      -9.884948      -268.9831
  17   2.0000      -9.881866      -268.8993
  18   2.0000      -9.876629      -268.7567
  19   2.0000      -7.684113      -209.0953
  20   2.0000      -7.682939      -209.0634
  21   2.0000      -7.631139      -207.6538
  22   2.0000      -7.621226      -207.3841
  23   2.0000      -6.420563      -174.7124
  24   2.0000      -6.416088      -174.5906
  25   2.0000      -5.711981      -155.4309
  26   2.0000      -5.710845      -155.4000
  27   2.0000      -5.708596      -155.3388
  28   2.0000      -5.707539      -155.3100
  29   2.0000      -5.700967      -155.1312
  30   2.0000      -5.699835      -155.1004
  31   2.0000      -5.659933      -154.0146
  32   2.0000      -5.651984      -153.7983
  33   2.0000      -5.651102      -153.7743
  34   2.0000      -5.650003      -153.7444
  35   2.0000      -5.641737      -153.5195
  36   2.0000      -5.641663      -153.5174
  37   2.0000      -4.643238      -126.3489
  38   2.0000      -4.642162      -126.3196
  39   2.0000      -4.641154      -126.2922
  40   2.0000      -4.638675      -126.2248
  41   2.0000      -4.637858      -126.2025
  42   2.0000      -4.636445      -126.1641
  43   2.0000      -0.982848       -26.7446
  44   2.0000      -0.979842       -26.6628
  45   2.0000      -0.938330       -25.5333
  46   2.0000      -0.937904       -25.5217
  47   2.0000      -0.758446       -20.6384
  48   2.0000      -0.719139       -19.5688
  49   2.0000      -0.708331       -19.2747
  50   2.0000      -0.686211       -18.6728
  51   2.0000      -0.683719       -18.6049
  52   2.0000      -0.671487       -18.2721
  53   2.0000      -0.646765       -17.5994
  54   2.0000      -0.630982       -17.1699
  55   2.0000      -0.592733       -16.1291
  56   2.0000      -0.582714       -15.8565
  57   2.0000      -0.568731       -15.4760
  58   2.0000      -0.564811       -15.3693
  59   2.0000      -0.556236       -15.1360
  60   2.0000      -0.504843       -13.7375
  61   2.0000      -0.500083       -13.6080
  62   2.0000      -0.476095       -12.9552
  63   2.0000      -0.469728       -12.7819
  64   2.0000      -0.451681       -12.2909
  65   2.0000      -0.441536       -12.0148
  66   2.0000      -0.436037       -11.8652
  67   2.0000      -0.432992       -11.7823
  68   2.0000      -0.427802       -11.6411
  69   2.0000      -0.418743       -11.3946
  70   2.0000      -0.403695       -10.9851
  71   2.0000      -0.390908       -10.6371
  72   2.0000      -0.388515       -10.5720
  73   2.0000      -0.384270       -10.4565
  74   2.0000      -0.376179       -10.2363
  75   2.0000      -0.364296        -9.9130
  76   2.0000      -0.360590        -9.8121
  77   2.0000      -0.353199        -9.6110
  78   2.0000      -0.352226        -9.5846
  79   2.0000      -0.349393        -9.5075
  80   2.0000      -0.344963        -9.3869
  81   2.0000      -0.339568        -9.2401
  82   2.0000      -0.336572        -9.1586
  83   2.0000      -0.332723        -9.0539
  84   2.0000      -0.324923        -8.8416
  85   2.0000      -0.312306        -8.4983
  86   2.0000      -0.310316        -8.4441
  87   2.0000      -0.296638        -8.0719
  88   2.0000      -0.294209        -8.0058
  89   2.0000      -0.292278        -7.9533
  90   2.0000      -0.283796        -7.7225
  91   2.0000      -0.267555        -7.2805
  92   2.0000      -0.264694        -7.2027
  93   2.0000      -0.258782        -7.0418
  94   2.0000      -0.254350        -6.9212
  95   2.0000      -0.236251        -6.4287
  96   2.0000      -0.218604        -5.9485
  97   2.0000      -0.206601        -5.6219
  98   2.0000      -0.202510        -5.5106
  99   2.0000      -0.188746        -5.1360
 100   2.0000      -0.185799        -5.0558
 101   0.0000      -0.036944        -1.0053
 102   0.0000      -0.030603        -0.8327
 103   0.0000      -0.010458        -0.2846
 104   0.0000       0.004348         0.1183
 105   0.0000       0.018835         0.5125

MULLIKEN ATOMIC CHARGES
-----------------------
   0 C :   -0.320862
   1 C :    0.005206
   2 O :   -0.386648
   3 P :    0.619964
   4 S :   -0.312330
   5 O :   -0.350905
   6 C :   -0.016540
   7 C :   -0.285996
   8 S :   -0.104475
   9 C :   -0.363414
  10 S :   -0.086008
  11 P :    0.622947
  12 S :   -0.331626
  13 O :   -0.383973
  14 C :   -0.006919
  15 C :   -0.284395
  16 O :   -0.368707
  17 C :   -0.003989
  18 C :   -0.287034
  19 H :    0.121869
  20 H :    0.111788
  21 H :    0.119863
  22 H :    0.108902
  23 H :    0.102608
  24 H :    0.111095
  25 H :    0.107998
  26 H :    0.107518
  27 H :    0.119346
  28 H :    0.137057
  29 H :    0.184071
  30 H :    0.202351
  31 H :    0.100582
  32 H :    0.103212
  33 H :    0.116134
  34 H :    0.110493
  35 H :    0.117376
  36 H :    0.097620
  37 H :    0.115731
  38 H :    0.107017
  39 H :    0.131387
  40 H :    0.111683
Sum of atomic charges:    0.0000000

LOEWDIN ATOMIC CHARGES
----------------------
   0 C :   -0.370242
   1 C :   -0.116300
   2 O :   -0.256627
   3 P :    0.576226
   4 S :   -0.290922
   5 O :   -0.227299
   6 C :   -0.110970
   7 C :   -0.351563
   8 S :    0.067184
   9 C :   -0.481557
  10 S :    0.079231
  11 P :    0.561799
  12 S :   -0.316643
  13 O :   -0.251678
  14 C :   -0.121030
  15 C :   -0.351930
  16 O :   -0.239752
  17 C :   -0.116781
  18 C :   -0.352496
  19 H :    0.119214
  20 H :    0.130025
  21 H :    0.124512
  22 H :    0.110359
  23 H :    0.117898
  24 H :    0.106241
  25 H :    0.114720
  26 H :    0.128885
  27 H :    0.129165
  28 H :    0.130694
  29 H :    0.136106
  30 H :    0.123220
  31 H :    0.111595
  32 H :    0.105135
  33 H :    0.126218
  34 H :    0.130117
  35 H :    0.127410
  36 H :    0.109307
  37 H :    0.111920
  38 H :    0.129149
  39 H :    0.124437
  40 H :    0.125024

  Mayer bond orders larger than 0.100000
B(  0-C ,  1-C ) :   1.1633 B(  0-C , 19-H ) :   0.9382 B(  0-C , 20-H ) :   0.9370
B(  0-C , 21-H ) :   0.9414 B(  1-C ,  2-O ) :   0.9236 B(  1-C , 22-H ) :   0.9184
B(  1-C , 23-H ) :   0.9348 B(  2-O ,  3-P ) :   1.0684 B(  3-P ,  4-S ) :   1.6102
B(  3-P ,  5-O ) :   1.1504 B(  3-P ,  8-S ) :   0.9473 B(  4-S ,  8-S ) :   0.1139
B(  4-S , 30-H ) :   0.1078 B(  5-O ,  6-C ) :   0.8905 B(  6-C ,  7-C ) :   1.1645
B(  6-C , 24-H ) :   0.9141 B(  6-C , 25-H ) :   0.9296 B(  7-C , 26-H ) :   0.9402
B(  7-C , 27-H ) :   0.9498 B(  7-C , 28-H ) :   0.9430 B(  8-S ,  9-C ) :   1.0050
B(  9-C , 10-S ) :   0.9977 B(  9-C , 29-H ) :   0.9083 B(  9-C , 30-H ) :   0.8462
B( 10-S , 11-P ) :   0.9766 B( 10-S , 12-S ) :   0.1163 B( 11-P , 12-S ) :   1.6359
B( 11-P , 13-O ) :   1.0979 B( 11-P , 16-O ) :   1.1332 B( 13-O , 14-C ) :   0.9083
B( 14-C , 15-C ) :   1.1622 B( 14-C , 31-H ) :   0.9328 B( 14-C , 32-H ) :   0.8995
B( 15-C , 33-H ) :   0.9510 B( 15-C , 34-H ) :   0.9419 B( 15-C , 35-H ) :   0.9507
B( 16-O , 17-C ) :   0.8904 B( 17-C , 18-C ) :   1.1652 B( 17-C , 36-H ) :   0.9304
B( 17-C , 37-H ) :   0.9101 B( 18-C , 38-H ) :   0.9411 B( 18-C , 39-H ) :   0.9446
B( 18-C , 40-H ) :   0.9490

Dispersion correction           -0.065392787
FINAL SINGLE POINT ENERGY     -2929.517810838733

DIPOLE MOMENT
-------------

Method             : SCF
Type of density    : Electron Density
Multiplicity       :   1
Irrep              :   0
Energy             : -2929.6360350717968686 Eh
Relativity type    :
Basis              : AO
                                X                 Y                 Z
Electronic contribution:      2.067122978      -6.011698620      -0.476552700
Nuclear contribution   :     -1.786928177       5.542720925       0.677545426
                        -----------------------------------------
Total Dipole Moment    :      0.280194801      -0.468977696       0.200992726
                        -----------------------------------------
Magnitude (a.u.)       :      0.582105902
Magnitude (Debye)      :      1.479595618

Rotational constants in cm-1:             0.011268             0.005349             0.004893
Rotational constants in MHz :           337.813704           160.365224           146.697281

                             ****ORCA TERMINATED NORMALLY****
TOTAL RUN TIME: 0 days 0 hours 0 minutes 20 seconds 902 msec
