                         Program Version 6.0.1  -  RELEASE   -
|  1> ! pbe def2-sv(p) def2/J RI DEFGRID1 loosescf d4 GCP(DFT/SV(P)) printgap
|  2> %output
|  3>     printlevel normal
|  4> end
|  5> * xyz 0 1
|  6> C 5.9224811007 -1.6700339837 -0.5769297551
|  7> C 4.8165023153 -0.8263536219 -1.1803971022
|  8> O 3.5516505851 -1.3563852633 -0.7371153587
|  9> C 2.4658510515 -0.990158985 -1.3828828328
| 10> O 2.4527609372 -0.2395422216 -2.3334875949
| 11> C 1.224425167 -1.642369053 -0.7992956033
| 12> C 0.1728017716 -0.5691798297 -0.5406014256
| 13> H 0.0192588178 0.0247774144 -1.450490399
| 14> C 0.5760543573 0.3883994487 0.5647416217
| 15> O -0.198221586 0.7516337374 1.4263526949
| 16> O 1.8199163063 0.7717213097 0.4557435726
| 17> C 2.3506076154 1.6816677976 1.4458717032
| 18> C 2.92588904 0.9087561818 2.6208137923
| 19> S -1.4211712665 -1.3172712586 -0.0731826066
| 20> P -2.5485247785 0.4666705169 0.1831093326
| 21> S -1.9422212632 2.0547717858 -0.7904335879
| 22> O -3.9933170077 -0.0397070623 -0.3102455419
| 23> C -4.251213248 -0.3386789849 -1.6844141296
| 24> O -2.8850777672 0.7102376245 1.7048035699
| 25> C -3.40567408 -0.3302164309 2.5561153712
| 26> H 5.8605273852 -1.6482942033 0.5067999988
| 27> H 5.8330617187 -2.6991042925 -0.9117904963
| 28> H 6.8839044825 -1.2754387195 -0.8881518955
| 29> H 4.8359758948 -0.8452650542 -2.2743304587
| 30> H 4.8771370232 0.2160420507 -0.8534225075
| 31> H 1.4840658471 -2.173090008 0.115344452
| 32> H 0.8289349734 -2.3509115535 -1.5290561374
| 33> H 3.1205404062 2.2402190521 0.9132300399
| 34> H 1.5489507744 2.3531905044 1.7651597907
| 35> H 3.6621580613 0.1906425603 2.2699905279
| 36> H 3.3990745912 1.6035977421 3.3065091927
| 37> H 2.133781379 0.3792010777 3.1450418292
| 38> H -5.3311801769 -0.429054289 -1.7673296721
| 39> H -3.7639728874 -1.2745972628 -1.9578486931
| 40> H -3.8871674511 0.4713809082 -2.3188318599
| 41> H -4.394302067 -0.6291135525 2.2124313909
| 42> H -3.4542206578 0.1159318117 3.5459439872
| 43> H -2.7304953501 -1.1859781967 2.5521283415
| 44> *
| 45>
| 46>                          ****END OF INPUT****

CARTESIAN COORDINATES (ANGSTROEM)
---------------------------------
  C      5.922481   -1.670034   -0.576930
  C      4.816502   -0.826354   -1.180397
  O      3.551651   -1.356385   -0.737115
  C      2.465851   -0.990159   -1.382883
  O      2.452761   -0.239542   -2.333488
  C      1.224425   -1.642369   -0.799296
  C      0.172802   -0.569180   -0.540601
  H      0.019259    0.024777   -1.450490
  C      0.576054    0.388399    0.564742
  O     -0.198222    0.751634    1.426353
  O      1.819916    0.771721    0.455744
  C      2.350608    1.681668    1.445872
  C      2.925889    0.908756    2.620814
  S     -1.421171   -1.317271   -0.073183
  P     -2.548525    0.466671    0.183109
  S     -1.942221    2.054772   -0.790434
  O     -3.993317   -0.039707   -0.310246
  C     -4.251213   -0.338679   -1.684414
  O     -2.885078    0.710238    1.704804
  C     -3.405674   -0.330216    2.556115
  H      5.860527   -1.648294    0.506800
  H      5.833062   -2.699104   -0.911790
  H      6.883904   -1.275439   -0.888152
  H      4.835976   -0.845265   -2.274330
  H      4.877137    0.216042   -0.853423
  H      1.484066   -2.173090    0.115344
  H      0.828935   -2.350912   -1.529056
  H      3.120540    2.240219    0.913230
  H      1.548951    2.353191    1.765160
  H      3.662158    0.190643    2.269991
  H      3.399075    1.603598    3.306509
  H      2.133781    0.379201    3.145042
  H     -5.331180   -0.429054   -1.767330
  H     -3.763973   -1.274597   -1.957849
  H     -3.887167    0.471381   -2.318832
  H     -4.394302   -0.629114    2.212431
  H     -3.454221    0.115932    3.545944
  H     -2.730495   -1.185978    2.552128

 Total Charge           Charge          ....    0
 Multiplicity           Mult            ....    1
 Number of Electrons    NEL             ....  174
 Basis Dimension        Dim             ....  316

ORBITAL ENERGIES
----------------

  NO   OCC          E(Eh)            E(eV)
   0   2.0000     -88.036377     -2395.5916
   1   2.0000     -87.971097     -2393.8152
   2   2.0000     -76.417068     -2079.4141
   3   2.0000     -18.819481      -512.1041
   4   2.0000     -18.807202      -511.7700
   5   2.0000     -18.781237      -511.0634
   6   2.0000     -18.779399      -511.0134
   7   2.0000     -18.746127      -510.1080
   8   2.0000     -18.740554      -509.9564
   9   2.0000     -10.020856      -272.6814
  10   2.0000     -10.014351      -272.5043
  11   2.0000      -9.956968      -270.9429
  12   2.0000      -9.954046      -270.8634
  13   2.0000      -9.946257      -270.6514
  14   2.0000      -9.942190      -270.5407
  15   2.0000      -9.934650      -270.3356
  16   2.0000      -9.917968      -269.8816
  17   2.0000      -9.895855      -269.2799
  18   2.0000      -9.895664      -269.2747
  19   2.0000      -7.681262      -209.0178
  20   2.0000      -7.616338      -207.2511
  21   2.0000      -6.413399      -174.5175
  22   2.0000      -5.708989      -155.3495
  23   2.0000      -5.705903      -155.2655
  24   2.0000      -5.698305      -155.0588
  25   2.0000      -5.645599      -153.6246
  26   2.0000      -5.636913      -153.3882
  27   2.0000      -5.636171      -153.3680
  28   2.0000      -4.636127      -126.1554
  29   2.0000      -4.635462      -126.1373
  30   2.0000      -4.633689      -126.0891
  31   2.0000      -1.027512       -27.9600
  32   2.0000      -1.014578       -27.6081
  33   2.0000      -0.975820       -26.5534
  34   2.0000      -0.931220       -25.3398
  35   2.0000      -0.927308       -25.2333
  36   2.0000      -0.918033       -24.9809
  37   2.0000      -0.766865       -20.8674
  38   2.0000      -0.718231       -19.5440
  39   2.0000      -0.713460       -19.4142
  40   2.0000      -0.690557       -18.7910
  41   2.0000      -0.659470       -17.9451
  42   2.0000      -0.627415       -17.0728
  43   2.0000      -0.624586       -16.9958
  44   2.0000      -0.611126       -16.6296
  45   2.0000      -0.594931       -16.1889
  46   2.0000      -0.565718       -15.3940
  47   2.0000      -0.518242       -14.1021
  48   2.0000      -0.510293       -13.8858
  49   2.0000      -0.502515       -13.6741
  50   2.0000      -0.473915       -12.8959
  51   2.0000      -0.471370       -12.8266
  52   2.0000      -0.465042       -12.6544
  53   2.0000      -0.453638       -12.3441
  54   2.0000      -0.439766       -11.9667
  55   2.0000      -0.431847       -11.7512
  56   2.0000      -0.426018       -11.5925
  57   2.0000      -0.421572       -11.4716
  58   2.0000      -0.413314       -11.2468
  59   2.0000      -0.406908       -11.0725
  60   2.0000      -0.406110       -11.0508
  61   2.0000      -0.396693       -10.7946
  62   2.0000      -0.390972       -10.6389
  63   2.0000      -0.388571       -10.5736
  64   2.0000      -0.371838       -10.1182
  65   2.0000      -0.367444        -9.9987
  66   2.0000      -0.365977        -9.9587
  67   2.0000      -0.360025        -9.7968
  68   2.0000      -0.351699        -9.5702
  69   2.0000      -0.345898        -9.4124
  70   2.0000      -0.339147        -9.2287
  71   2.0000      -0.333588        -9.0774
  72   2.0000      -0.322915        -8.7870
  73   2.0000      -0.314654        -8.5622
  74   2.0000      -0.305676        -8.3179
  75   2.0000      -0.301661        -8.2086
  76   2.0000      -0.291637        -7.9359
  77   2.0000      -0.287897        -7.8341
  78   2.0000      -0.274537        -7.4705
  79   2.0000      -0.264148        -7.1878
  80   2.0000      -0.261599        -7.1185
  81   2.0000      -0.251011        -6.8303
  82   2.0000      -0.235253        -6.4016
  83   2.0000      -0.226314        -6.1583
  84   2.0000      -0.218904        -5.9567
  85   2.0000      -0.192352        -5.2342
  86   2.0000      -0.185925        -5.0593
  87   0.0000      -0.042102        -1.1457
  88   0.0000      -0.031441        -0.8555
  89   0.0000      -0.018869        -0.5134
  90   0.0000       0.013259         0.3608
  91   0.0000       0.015464         0.4208

MULLIKEN ATOMIC CHARGES
-----------------------
   0 C :   -0.277881
   1 C :   -0.031555
   2 O :   -0.233236
   3 C :    0.114083
   4 O :   -0.202202
   5 C :   -0.057283
   6 C :   -0.323829
   7 H :    0.173479
   8 C :    0.215054
   9 O :   -0.182294
  10 O :   -0.223162
  11 C :   -0.009514
  12 C :   -0.311099
  13 S :   -0.108143
  14 P :    0.623964
  15 S :   -0.325698
  16 O :   -0.395786
  17 C :   -0.098681
  18 O :   -0.352297
  19 C :   -0.102130
  20 H :    0.115593
  21 H :    0.117053
  22 H :    0.113842
  23 H :    0.113799
  24 H :    0.105235
  25 H :    0.103099
  26 H :    0.127030
  27 H :    0.111364
  28 H :    0.124894
  29 H :    0.116955
  30 H :    0.118164
  31 H :    0.127747
  32 H :    0.120547
  33 H :    0.109285
  34 H :    0.115914
  35 H :    0.121821
  36 H :    0.129877
  37 H :    0.115990
Sum of atomic charges:   -0.0000000

LOEWDIN ATOMIC CHARGES
----------------------
   0 C :   -0.350538
   1 C :   -0.107206
   2 O :   -0.059521
   3 C :    0.024918
   4 O :   -0.164459
   5 C :   -0.245350
   6 C :   -0.271127
   7 H :    0.151060
   8 C :    0.019297
   9 O :   -0.155667
  10 O :   -0.032576
  11 C :   -0.104750
  12 C :   -0.355556
  13 S :    0.087737
  14 P :    0.585871
  15 S :   -0.321376
  16 O :   -0.267404
  17 C :   -0.219717
  18 O :   -0.230579
  19 C :   -0.207930
  20 H :    0.125372
  21 H :    0.127868
  22 H :    0.131769
  23 H :    0.120096
  24 H :    0.115382
  25 H :    0.132978
  26 H :    0.148660
  27 H :    0.120863
  28 H :    0.128818
  29 H :    0.123982
  30 H :    0.133330
  31 H :    0.131416
  32 H :    0.119965
  33 H :    0.105058
  34 H :    0.109968
  35 H :    0.114530
  36 H :    0.125743
  37 H :    0.109076

  Mayer bond orders larger than 0.100000
B(  0-C ,  1-C ) :   1.1542 B(  0-C , 20-H ) :   0.9491 B(  0-C , 21-H ) :   0.9506
B(  0-C , 22-H ) :   0.9437 B(  1-C ,  2-O ) :   0.9046 B(  1-C , 23-H ) :   0.9239
B(  1-C , 24-H ) :   0.9324 B(  2-O ,  3-C ) :   1.2300 B(  3-C ,  4-O ) :   2.0547
B(  3-C ,  5-C ) :   1.0127 B(  5-C ,  6-C ) :   1.0504 B(  5-C , 25-H ) :   0.9041
B(  5-C , 26-H ) :   0.8811 B(  6-C ,  7-H ) :   0.8363 B(  6-C ,  8-C ) :   0.8925
B(  6-C , 13-S ) :   1.0320 B(  8-C ,  9-O ) :   2.0115 B(  8-C , 10-O ) :   1.2612
B( 10-O , 11-C ) :   0.8970 B( 11-C , 12-C ) :   1.1746 B( 11-C , 27-H ) :   0.9348
B( 11-C , 28-H ) :   0.9130 B( 12-C , 29-H ) :   0.9465 B( 12-C , 30-H ) :   0.9433
B( 12-C , 31-H ) :   0.9454 B( 13-S , 14-P ) :   0.9353 B( 13-S , 15-S ) :   0.1125
B( 14-P , 15-S ) :   1.6278 B( 14-P , 16-O ) :   1.0507 B( 14-P , 18-O ) :   1.1344
B( 16-O , 17-C ) :   0.9393 B( 17-C , 32-H ) :   0.9589 B( 17-C , 33-H ) :   0.9461
B( 17-C , 34-H ) :   0.9334 B( 18-O , 19-C ) :   0.9225 B( 19-C , 35-H ) :   0.9470
B( 19-C , 36-H ) :   0.9602 B( 19-C , 37-H ) :   0.9396

Dispersion correction           -0.050480017
FINAL SINGLE POINT ENERGY     -1979.014754204753

DIPOLE MOMENT
-------------

Method             : SCF
Type of density    : Electron Density
Multiplicity       :   1
Irrep              :   0
Energy             : -1979.1461279221684890 Eh
Relativity type    :
Basis              : AO
                                X                 Y                 Z
Electronic contribution:    -20.768354169       5.589626609      -5.002591985
Nuclear contribution   :     22.017766840      -6.917732428       5.851221454
                        -----------------------------------------
Total Dipole Moment    :      1.249412671      -1.328105819       0.848629469
                        -----------------------------------------
Magnitude (a.u.)       :      2.011235706
Magnitude (Debye)      :      5.112154895

Rotational constants in cm-1:             0.018150             0.005383             0.004913
Rotational constants in MHz :           544.117273           161.373025           147.278269

                             ****ORCA TERMINATED NORMALLY****
TOTAL RUN TIME: 0 days 0 hours 0 minutes 37 seconds 331 msec
