                         Program Version 6.0.0  -   RELEASE  -
|  1> ! r2scan-3c def2/J RI DEFGRID2 scfconv6 printgap
|  2> %output
|  3>     printlevel normal
|  4> end
|  5> * xyz 0 1
|  6> C 4.1810715635 2.4831710328 0.566603752
|  7> C 4.2577252461 1.5328297653 -0.6116794519
|  8> O 3.5943456913 0.2866302466 -0.3271052504
|  9> P 2.0034025385 0.1630380259 -0.3013651353
| 10> S 1.0347293108 1.4351532778 -1.4240502156
| 11> O 1.5646094527 0.2781258351 1.2222837753
| 12> C 2.2783492749 -0.3944126034 2.2900476362
| 13> C 1.4784337247 -1.5651394385 2.8246309099
| 14> S 1.9407932343 -1.8799501847 -0.8337841563
| 15> C 0.1746052917 -2.013227866 -1.2109253801
| 16> S -0.896999861 -1.9285590652 0.2638746443
| 17> P -1.9823456315 -0.1838420864 -0.1439943978
| 18> S -2.2785584139 0.2563020428 -2.0379196414
| 19> O -1.2716304829 0.8855473925 0.7756675891
| 20> C -1.6605114632 2.2776649486 0.7313645642
| 21> C -0.7237947279 3.0429729946 1.6403250408
| 22> O -3.3351018282 -0.4043317789 0.6659996012
| 23> C -4.4170024234 -1.2039288485 0.1481506999
| 24> C -5.7009163314 -0.7453265489 0.8100749407
| 25> H 3.1394458114 2.7329911855 0.7674604
| 26> H 4.6142365104 2.0262381688 1.4524794184
| 27> H 4.7218878377 3.394098871 0.3302478497
| 28> H 5.2849733243 1.242003425 -0.8349377479
| 29> H 3.796514533 1.9796709005 -1.4980329503
| 30> H 3.2535110293 -0.7190587805 1.9174397476
| 31> H 2.410835699 0.3724119013 3.0555686742
| 32> H 1.4027462012 -2.3562466157 2.0825959656
| 33> H 1.9737898137 -1.9543257182 3.7085001871
| 34> H 0.4746491422 -1.2422186287 3.088025624
| 35> H 0.0412664567 -2.9937932853 -1.6603956591
| 36> H -0.125556861 -1.2213532991 -1.9029105433
| 37> H -1.5825673231 2.621723291 -0.3059457413
| 38> H -2.699823166 2.3548100983 1.0603570843
| 39> H 0.2979778758 2.924784282 1.288784405
| 40> H -0.9901377309 4.0946487034 1.6236260519
| 41> H -0.7951702599 2.6615662675 2.6544060774
| 42> H -4.4565699512 -1.0743132895 -0.9387992623
| 43> H -4.2004613625 -2.2499356682 0.3786004515
| 44> H -5.6125256952 -0.8328648672 1.8890439068
| 45> H -5.9056840615 0.2908064003 0.5550893896
| 46> H -6.5200413636 -1.3666472703 0.4635118877
| 47> *
| 48>
| 49>                          ****END OF INPUT****

CARTESIAN COORDINATES (ANGSTROEM)
---------------------------------
  C      4.181072    2.483171    0.566604
  C      4.257725    1.532830   -0.611679
  O      3.594346    0.286630   -0.327105
  P      2.003403    0.163038   -0.301365
  S      1.034729    1.435153   -1.424050
  O      1.564609    0.278126    1.222284
  C      2.278349   -0.394413    2.290048
  C      1.478434   -1.565139    2.824631
  S      1.940793   -1.879950   -0.833784
  C      0.174605   -2.013228   -1.210925
  S     -0.897000   -1.928559    0.263875
  P     -1.982346   -0.183842   -0.143994
  S     -2.278558    0.256302   -2.037920
  O     -1.271630    0.885547    0.775668
  C     -1.660511    2.277665    0.731365
  C     -0.723795    3.042973    1.640325
  O     -3.335102   -0.404332    0.666000
  C     -4.417002   -1.203929    0.148151
  C     -5.700916   -0.745327    0.810075
  H      3.139446    2.732991    0.767460
  H      4.614237    2.026238    1.452479
  H      4.721888    3.394099    0.330248
  H      5.284973    1.242003   -0.834938
  H      3.796515    1.979671   -1.498033
  H      3.253511   -0.719059    1.917440
  H      2.410836    0.372412    3.055569
  H      1.402746   -2.356247    2.082596
  H      1.973790   -1.954326    3.708500
  H      0.474649   -1.242219    3.088026
  H      0.041266   -2.993793   -1.660396
  H     -0.125557   -1.221353   -1.902911
  H     -1.582567    2.621723   -0.305946
  H     -2.699823    2.354810    1.060357
  H      0.297978    2.924784    1.288784
  H     -0.990138    4.094649    1.623626
  H     -0.795170    2.661566    2.654406
  H     -4.456570   -1.074313   -0.938799
  H     -4.200461   -2.249936    0.378600
  H     -5.612526   -0.832865    1.889044
  H     -5.905684    0.290806    0.555089
  H     -6.520041   -1.366647    0.463512

 Total Charge           Charge          ....    0
 Multiplicity           Mult            ....    1
 Number of Electrons    NEL             ....  202
 Basis Dimension        Dim             ....  539

ORBITAL ENERGIES
----------------

  NO   OCC          E(Eh)            E(eV)
   0   2.0000     -88.575562     -2410.2636
   1   2.0000     -88.573826     -2410.2163
   2   2.0000     -88.516377     -2408.6531
   3   2.0000     -88.510472     -2408.4924
   4   2.0000     -76.911661     -2092.8727
   5   2.0000     -76.906389     -2092.7292
   6   2.0000     -18.989896      -516.7413
   7   2.0000     -18.987926      -516.6877
   8   2.0000     -18.984899      -516.6054
   9   2.0000     -18.979767      -516.4657
  10   2.0000     -10.106009      -274.9985
  11   2.0000     -10.100961      -274.8611
  12   2.0000     -10.098889      -274.8047
  13   2.0000     -10.091833      -274.6127
  14   2.0000     -10.087930      -274.5065
  15   2.0000     -10.032906      -273.0092
  16   2.0000     -10.029190      -272.9081
  17   2.0000     -10.026691      -272.8401
  18   2.0000     -10.021333      -272.6943
  19   2.0000      -7.870047      -214.1549
  20   2.0000      -7.868559      -214.1144
  21   2.0000      -7.811189      -212.5533
  22   2.0000      -7.805203      -212.3904
  23   2.0000      -6.590026      -179.3237
  24   2.0000      -6.584987      -179.1866
  25   2.0000      -5.816940      -158.2870
  26   2.0000      -5.815367      -158.2442
  27   2.0000      -5.813830      -158.2024
  28   2.0000      -5.812341      -158.1618
  29   2.0000      -5.807163      -158.0209
  30   2.0000      -5.805714      -157.9815
  31   2.0000      -5.759000      -156.7104
  32   2.0000      -5.752856      -156.5432
  33   2.0000      -5.751601      -156.5090
  34   2.0000      -5.750882      -156.4895
  35   2.0000      -5.745691      -156.3482
  36   2.0000      -5.744991      -156.3291
  37   2.0000      -4.735943      -128.8716
  38   2.0000      -4.734726      -128.8384
  39   2.0000      -4.733599      -128.8078
  40   2.0000      -4.730436      -128.7217
  41   2.0000      -4.729858      -128.7060
  42   2.0000      -4.728787      -128.6768
  43   2.0000      -1.046274       -28.4706
  44   2.0000      -1.042105       -28.3571
  45   2.0000      -1.007306       -27.4102
  46   2.0000      -1.000899       -27.2358
  47   2.0000      -0.799231       -21.7482
  48   2.0000      -0.757903       -20.6236
  49   2.0000      -0.747100       -20.3296
  50   2.0000      -0.735386       -20.0109
  51   2.0000      -0.726664       -19.7735
  52   2.0000      -0.708004       -19.2658
  53   2.0000      -0.682920       -18.5832
  54   2.0000      -0.660137       -17.9632
  55   2.0000      -0.627730       -17.0814
  56   2.0000      -0.614495       -16.7213
  57   2.0000      -0.607110       -16.5203
  58   2.0000      -0.596291       -16.2259
  59   2.0000      -0.586332       -15.9549
  60   2.0000      -0.527952       -14.3663
  61   2.0000      -0.522961       -14.2305
  62   2.0000      -0.497372       -13.5342
  63   2.0000      -0.492754       -13.4085
  64   2.0000      -0.468752       -12.7554
  65   2.0000      -0.462572       -12.5872
  66   2.0000      -0.453324       -12.3356
  67   2.0000      -0.448310       -12.1991
  68   2.0000      -0.447075       -12.1655
  69   2.0000      -0.432856       -11.7786
  70   2.0000      -0.421387       -11.4665
  71   2.0000      -0.409927       -11.1547
  72   2.0000      -0.406592       -11.0639
  73   2.0000      -0.395106       -10.7514
  74   2.0000      -0.392221       -10.6729
  75   2.0000      -0.386689       -10.5223
  76   2.0000      -0.377055       -10.2602
  77   2.0000      -0.371992       -10.1224
  78   2.0000      -0.368221       -10.0198
  79   2.0000      -0.362374        -9.8607
  80   2.0000      -0.361318        -9.8320
  81   2.0000      -0.358951        -9.7676
  82   2.0000      -0.350495        -9.5374
  83   2.0000      -0.348887        -9.4937
  84   2.0000      -0.342117        -9.3095
  85   2.0000      -0.331735        -9.0270
  86   2.0000      -0.322372        -8.7722
  87   2.0000      -0.321270        -8.7422
  88   2.0000      -0.309658        -8.4262
  89   2.0000      -0.300768        -8.1843
  90   2.0000      -0.294774        -8.0212
  91   2.0000      -0.283379        -7.7111
  92   2.0000      -0.282300        -7.6818
  93   2.0000      -0.275696        -7.5021
  94   2.0000      -0.271389        -7.3849
  95   2.0000      -0.244972        -6.6660
  96   2.0000      -0.233850        -6.3634
  97   2.0000      -0.227232        -6.1833
  98   2.0000      -0.214583        -5.8391
  99   2.0000      -0.204533        -5.5656
 100   2.0000      -0.195746        -5.3265
 101   0.0000      -0.043200        -1.1755
 102   0.0000      -0.030759        -0.8370
 103   0.0000      -0.004299        -0.1170
 104   0.0000       0.012860         0.3499
 105   0.0000       0.018613         0.5065

MULLIKEN ATOMIC CHARGES
-----------------------
   0 C :   -0.444927
   1 C :   -0.159921
   2 O :   -0.331777
   3 P :    0.658299
   4 S :   -0.406154
   5 O :   -0.244436
   6 C :   -0.130526
   7 C :   -0.455083
   8 S :   -0.138023
   9 C :   -0.230867
  10 S :   -0.136244
  11 P :    0.667132
  12 S :   -0.474606
  13 O :   -0.257494
  14 C :   -0.123490
  15 C :   -0.465748
  16 O :   -0.296789
  17 C :   -0.146978
  18 C :   -0.449605
  19 H :    0.173235
  20 H :    0.148268
  21 H :    0.150960
  22 H :    0.150073
  23 H :    0.179025
  24 H :    0.165228
  25 H :    0.152666
  26 H :    0.166312
  27 H :    0.142188
  28 H :    0.164773
  29 H :    0.196691
  30 H :    0.218138
  31 H :    0.176149
  32 H :    0.147348
  33 H :    0.171223
  34 H :    0.142871
  35 H :    0.146456
  36 H :    0.172398
  37 H :    0.148330
  38 H :    0.152315
  39 H :    0.156660
  40 H :    0.145931
Sum of atomic charges:   -0.0000000

LOEWDIN ATOMIC CHARGES
----------------------
   0 C :   -0.399163
   1 C :    0.020846
   2 O :   -0.695437
   3 P :    0.380574
   4 S :   -0.057626
   5 O :   -0.663572
   6 C :    0.021564
   7 C :   -0.405338
   8 S :    0.156178
   9 C :   -0.410309
  10 S :    0.171387
  11 P :    0.363407
  12 S :   -0.134928
  13 O :   -0.670122
  14 C :    0.018352
  15 C :   -0.391009
  16 O :   -0.670336
  17 C :    0.017000
  18 C :   -0.387875
  19 H :    0.165062
  20 H :    0.156177
  21 H :    0.160955
  22 H :    0.179169
  23 H :    0.182004
  24 H :    0.179582
  25 H :    0.179089
  26 H :    0.162619
  27 H :    0.156274
  28 H :    0.164406
  29 H :    0.181635
  30 H :    0.202416
  31 H :    0.183578
  32 H :    0.170973
  33 H :    0.166843
  34 H :    0.157809
  35 H :    0.157393
  36 H :    0.181781
  37 H :    0.170425
  38 H :    0.158822
  39 H :    0.160060
  40 H :    0.159335

  Mayer bond orders larger than 0.100000
B(  0-C ,  1-C ) :   0.9107 B(  0-C , 19-H ) :   0.9653 B(  0-C , 20-H ) :   0.9692
B(  0-C , 21-H ) :   0.9615 B(  1-C ,  2-O ) :   0.8154 B(  1-C , 22-H ) :   0.9624
B(  1-C , 23-H ) :   0.9671 B(  2-O ,  3-P ) :   1.0823 B(  3-P ,  4-S ) :   1.8539
B(  3-P ,  5-O ) :   1.0420 B(  3-P ,  8-S ) :   1.0510 B(  5-O ,  6-C ) :   0.7287
B(  6-C ,  7-C ) :   0.9491 B(  6-C , 24-H ) :   0.9714 B(  6-C , 25-H ) :   0.9589
B(  7-C , 26-H ) :   0.9632 B(  7-C , 27-H ) :   0.9618 B(  7-C , 28-H ) :   0.9690
B(  8-S ,  9-C ) :   0.9151 B(  9-C , 10-S ) :   0.8978 B(  9-C , 29-H ) :   0.9125
B(  9-C , 30-H ) :   0.9055 B( 10-S , 11-P ) :   1.1059 B( 11-P , 12-S ) :   1.7446
B( 11-P , 13-O ) :   1.2111 B( 11-P , 16-O ) :   1.0763 B( 13-O , 14-C ) :   0.7565
B( 14-C , 15-C ) :   0.9362 B( 14-C , 31-H ) :   0.9509 B( 14-C , 32-H ) :   0.9437
B( 15-C , 33-H ) :   0.9703 B( 15-C , 34-H ) :   0.9670 B( 15-C , 35-H ) :   0.9721
B( 16-O , 17-C ) :   0.7821 B( 17-C , 18-C ) :   0.9542 B( 17-C , 36-H ) :   0.9492
B( 17-C , 37-H ) :   0.9467 B( 18-C , 38-H ) :   0.9724 B( 18-C , 39-H ) :   0.9727
B( 18-C , 40-H ) :   0.9655

Dispersion correction           -0.022238846
FINAL SINGLE POINT ENERGY     -2932.459126269733

DIPOLE MOMENT
-------------

Method             : SCF
Type of density    : Electron Density
Multiplicity       :   1
Irrep              :   0
Energy             : -2932.4835481938098383 Eh
Relativity type    :
Basis              : AO
                                X                 Y                 Z
Electronic contribution:      1.879313168     -10.242554586     -16.970933219
Nuclear contribution   :     -1.390247006      10.119724423      18.538429040
                        -----------------------------------------
Total Dipole Moment    :      0.489066162      -0.122830163       1.567495821
                        -----------------------------------------
Magnitude (a.u.)       :      1.646607455
Magnitude (Debye)      :      4.185343535

Rotational constants in cm-1:             0.012630             0.005413             0.005096
Rotational constants in MHz :           378.634314           162.281147           152.762665

                             ****ORCA TERMINATED NORMALLY****
TOTAL RUN TIME: 0 days 0 hours 1 minutes 26 seconds 334 msec
