                         Program Version 6.0.0  -   RELEASE  -
|  1> ! r2scan-3c def2/J RI DEFGRID2 scfconv6 printgap
|  2> %output
|  3>     printlevel normal
|  4> end
|  5> %cpcm
|  6>     smd true
|  7>     smdsolvent "water"
|  8> end
|  9> * xyz 0 1
| 10> C 4.1810715635 2.4831710328 0.566603752
| 11> C 4.2577252461 1.5328297653 -0.6116794519
| 12> O 3.5943456913 0.2866302466 -0.3271052504
| 13> P 2.0034025385 0.1630380259 -0.3013651353
| 14> S 1.0347293108 1.4351532778 -1.4240502156
| 15> O 1.5646094527 0.2781258351 1.2222837753
| 16> C 2.2783492749 -0.3944126034 2.2900476362
| 17> C 1.4784337247 -1.5651394385 2.8246309099
| 18> S 1.9407932343 -1.8799501847 -0.8337841563
| 19> C 0.1746052917 -2.013227866 -1.2109253801
| 20> S -0.896999861 -1.9285590652 0.2638746443
| 21> P -1.9823456315 -0.1838420864 -0.1439943978
| 22> S -2.2785584139 0.2563020428 -2.0379196414
| 23> O -1.2716304829 0.8855473925 0.7756675891
| 24> C -1.6605114632 2.2776649486 0.7313645642
| 25> C -0.7237947279 3.0429729946 1.6403250408
| 26> O -3.3351018282 -0.4043317789 0.6659996012
| 27> C -4.4170024234 -1.2039288485 0.1481506999
| 28> C -5.7009163314 -0.7453265489 0.8100749407
| 29> H 3.1394458114 2.7329911855 0.7674604
| 30> H 4.6142365104 2.0262381688 1.4524794184
| 31> H 4.7218878377 3.394098871 0.3302478497
| 32> H 5.2849733243 1.242003425 -0.8349377479
| 33> H 3.796514533 1.9796709005 -1.4980329503
| 34> H 3.2535110293 -0.7190587805 1.9174397476
| 35> H 2.410835699 0.3724119013 3.0555686742
| 36> H 1.4027462012 -2.3562466157 2.0825959656
| 37> H 1.9737898137 -1.9543257182 3.7085001871
| 38> H 0.4746491422 -1.2422186287 3.088025624
| 39> H 0.0412664567 -2.9937932853 -1.6603956591
| 40> H -0.125556861 -1.2213532991 -1.9029105433
| 41> H -1.5825673231 2.621723291 -0.3059457413
| 42> H -2.699823166 2.3548100983 1.0603570843
| 43> H 0.2979778758 2.924784282 1.288784405
| 44> H -0.9901377309 4.0946487034 1.6236260519
| 45> H -0.7951702599 2.6615662675 2.6544060774
| 46> H -4.4565699512 -1.0743132895 -0.9387992623
| 47> H -4.2004613625 -2.2499356682 0.3786004515
| 48> H -5.6125256952 -0.8328648672 1.8890439068
| 49> H -5.9056840615 0.2908064003 0.5550893896
| 50> H -6.5200413636 -1.3666472703 0.4635118877
| 51> *
| 52>
| 53>                          ****END OF INPUT****

CARTESIAN COORDINATES (ANGSTROEM)
---------------------------------
  C      4.181072    2.483171    0.566604
  C      4.257725    1.532830   -0.611679
  O      3.594346    0.286630   -0.327105
  P      2.003403    0.163038   -0.301365
  S      1.034729    1.435153   -1.424050
  O      1.564609    0.278126    1.222284
  C      2.278349   -0.394413    2.290048
  C      1.478434   -1.565139    2.824631
  S      1.940793   -1.879950   -0.833784
  C      0.174605   -2.013228   -1.210925
  S     -0.897000   -1.928559    0.263875
  P     -1.982346   -0.183842   -0.143994
  S     -2.278558    0.256302   -2.037920
  O     -1.271630    0.885547    0.775668
  C     -1.660511    2.277665    0.731365
  C     -0.723795    3.042973    1.640325
  O     -3.335102   -0.404332    0.666000
  C     -4.417002   -1.203929    0.148151
  C     -5.700916   -0.745327    0.810075
  H      3.139446    2.732991    0.767460
  H      4.614237    2.026238    1.452479
  H      4.721888    3.394099    0.330248
  H      5.284973    1.242003   -0.834938
  H      3.796515    1.979671   -1.498033
  H      3.253511   -0.719059    1.917440
  H      2.410836    0.372412    3.055569
  H      1.402746   -2.356247    2.082596
  H      1.973790   -1.954326    3.708500
  H      0.474649   -1.242219    3.088026
  H      0.041266   -2.993793   -1.660396
  H     -0.125557   -1.221353   -1.902911
  H     -1.582567    2.621723   -0.305946
  H     -2.699823    2.354810    1.060357
  H      0.297978    2.924784    1.288784
  H     -0.990138    4.094649    1.623626
  H     -0.795170    2.661566    2.654406
  H     -4.456570   -1.074313   -0.938799
  H     -4.200461   -2.249936    0.378600
  H     -5.612526   -0.832865    1.889044
  H     -5.905684    0.290806    0.555089
  H     -6.520041   -1.366647    0.463512

 Total Charge           Charge          ....    0
 Multiplicity           Mult            ....    1
 Number of Electrons    NEL             ....  202
 Basis Dimension        Dim             ....  539

ORBITAL ENERGIES
----------------

  NO   OCC          E(Eh)            E(eV)
   0   2.0000     -88.580201     -2410.3898
   1   2.0000     -88.579906     -2410.3818
   2   2.0000     -88.524897     -2408.8849
   3   2.0000     -88.523076     -2408.8354
   4   2.0000     -76.917146     -2093.0219
   5   2.0000     -76.916392     -2093.0014
   6   2.0000     -18.991857      -516.7947
   7   2.0000     -18.990885      -516.7683
   8   2.0000     -18.990875      -516.7680
   9   2.0000     -18.989499      -516.7305
  10   2.0000     -10.106613      -275.0149
  11   2.0000     -10.090032      -274.5637
  12   2.0000     -10.088639      -274.5258
  13   2.0000     -10.087596      -274.4975
  14   2.0000     -10.087258      -274.4882
  15   2.0000     -10.018800      -272.6254
  16   2.0000     -10.018521      -272.6178
  17   2.0000     -10.017421      -272.5879
  18   2.0000     -10.016330      -272.5582
  19   2.0000      -7.874667      -214.2806
  20   2.0000      -7.874538      -214.2771
  21   2.0000      -7.820043      -212.7942
  22   2.0000      -7.818154      -212.7428
  23   2.0000      -6.595512      -179.4730
  24   2.0000      -6.595030      -179.4599
  25   2.0000      -5.821529      -158.4119
  26   2.0000      -5.821361      -158.4073
  27   2.0000      -5.818439      -158.3278
  28   2.0000      -5.818316      -158.3244
  29   2.0000      -5.811839      -158.1482
  30   2.0000      -5.811701      -158.1444
  31   2.0000      -5.767765      -156.9489
  32   2.0000      -5.765717      -156.8931
  33   2.0000      -5.760373      -156.7477
  34   2.0000      -5.759840      -156.7332
  35   2.0000      -5.758659      -156.7011
  36   2.0000      -5.757950      -156.6818
  37   2.0000      -4.741369      -129.0192
  38   2.0000      -4.740440      -128.9939
  39   2.0000      -4.740202      -128.9875
  40   2.0000      -4.739891      -128.9790
  41   2.0000      -4.739196      -128.9601
  42   2.0000      -4.738915      -128.9524
  43   2.0000      -1.050449       -28.5842
  44   2.0000      -1.047404       -28.5013
  45   2.0000      -1.009154       -27.4605
  46   2.0000      -1.007723       -27.4215
  47   2.0000      -0.802547       -21.8384
  48   2.0000      -0.757596       -20.6152
  49   2.0000      -0.743561       -20.2333
  50   2.0000      -0.725907       -19.7529
  51   2.0000      -0.722996       -19.6737
  52   2.0000      -0.708481       -19.2788
  53   2.0000      -0.687707       -18.7134
  54   2.0000      -0.669429       -18.2161
  55   2.0000      -0.627322       -17.0703
  56   2.0000      -0.612174       -16.6581
  57   2.0000      -0.601009       -16.3543
  58   2.0000      -0.593808       -16.1583
  59   2.0000      -0.585931       -15.9440
  60   2.0000      -0.529324       -14.4036
  61   2.0000      -0.519535       -14.1373
  62   2.0000      -0.496551       -13.5118
  63   2.0000      -0.492481       -13.4011
  64   2.0000      -0.468008       -12.7351
  65   2.0000      -0.462564       -12.5870
  66   2.0000      -0.451713       -12.2917
  67   2.0000      -0.449121       -12.2212
  68   2.0000      -0.441430       -12.0119
  69   2.0000      -0.432909       -11.7800
  70   2.0000      -0.417126       -11.3506
  71   2.0000      -0.411951       -11.2098
  72   2.0000      -0.405538       -11.0353
  73   2.0000      -0.394453       -10.7336
  74   2.0000      -0.389307       -10.5936
  75   2.0000      -0.384207       -10.4548
  76   2.0000      -0.378265       -10.2931
  77   2.0000      -0.366548        -9.9743
  78   2.0000      -0.361005        -9.8234
  79   2.0000      -0.357185        -9.7195
  80   2.0000      -0.354290        -9.6407
  81   2.0000      -0.352215        -9.5843
  82   2.0000      -0.345761        -9.4086
  83   2.0000      -0.345330        -9.3969
  84   2.0000      -0.341826        -9.3016
  85   2.0000      -0.328068        -8.9272
  86   2.0000      -0.324241        -8.8231
  87   2.0000      -0.315520        -8.5857
  88   2.0000      -0.310173        -8.4402
  89   2.0000      -0.305649        -8.3171
  90   2.0000      -0.292475        -7.9586
  91   2.0000      -0.285284        -7.7630
  92   2.0000      -0.282691        -7.6924
  93   2.0000      -0.278544        -7.5796
  94   2.0000      -0.275292        -7.4911
  95   2.0000      -0.249739        -6.7958
  96   2.0000      -0.242681        -6.6037
  97   2.0000      -0.236575        -6.4375
  98   2.0000      -0.225700        -6.1416
  99   2.0000      -0.214879        -5.8471
 100   2.0000      -0.207287        -5.6406
 101   0.0000      -0.048705        -1.3253
 102   0.0000      -0.038225        -1.0402
 103   0.0000      -0.008703        -0.2368
 104   0.0000       0.008179         0.2225
 105   0.0000       0.014002         0.3810

MULLIKEN ATOMIC CHARGES
-----------------------
   0 C :   -0.476968
   1 C :   -0.155487
   2 O :   -0.350402
   3 P :    0.670563
   4 S :   -0.456705
   5 O :   -0.274917
   6 C :   -0.120053
   7 C :   -0.492697
   8 S :   -0.147909
   9 C :   -0.231375
  10 S :   -0.130216
  11 P :    0.696879
  12 S :   -0.533229
  13 O :   -0.286107
  14 C :   -0.118941
  15 C :   -0.510491
  16 O :   -0.322968
  17 C :   -0.141908
  18 C :   -0.487834
  19 H :    0.170720
  20 H :    0.167452
  21 H :    0.172968
  22 H :    0.174452
  23 H :    0.177523
  24 H :    0.181125
  25 H :    0.180049
  26 H :    0.166357
  27 H :    0.167934
  28 H :    0.168338
  29 H :    0.238516
  30 H :    0.212228
  31 H :    0.174437
  32 H :    0.171119
  33 H :    0.169634
  34 H :    0.169794
  35 H :    0.166848
  36 H :    0.171117
  37 H :    0.169960
  38 H :    0.165169
  39 H :    0.165912
  40 H :    0.169113
Sum of atomic charges:   -0.0000000

LOEWDIN ATOMIC CHARGES
----------------------
   0 C :   -0.401044
   1 C :    0.025025
   2 O :   -0.703206
   3 P :    0.381850
   4 S :   -0.092153
   5 O :   -0.681019
   6 C :    0.029465
   7 C :   -0.407454
   8 S :    0.154374
   9 C :   -0.404612
  10 S :    0.178170
  11 P :    0.367120
  12 S :   -0.173830
  13 O :   -0.688849
  14 C :    0.020719
  15 C :   -0.394575
  16 O :   -0.682547
  17 C :    0.021399
  18 C :   -0.391138
  19 H :    0.162647
  20 H :    0.163085
  21 H :    0.168747
  22 H :    0.189449
  23 H :    0.181102
  24 H :    0.186487
  25 H :    0.190763
  26 H :    0.160376
  27 H :    0.166212
  28 H :    0.163364
  29 H :    0.198391
  30 H :    0.199602
  31 H :    0.182848
  32 H :    0.180224
  33 H :    0.163865
  34 H :    0.168271
  35 H :    0.163085
  36 H :    0.181442
  37 H :    0.179103
  38 H :    0.162787
  39 H :    0.161988
  40 H :    0.168469

  Mayer bond orders larger than 0.100000
B(  0-C ,  1-C ) :   0.9083 B(  0-C , 19-H ) :   0.9638 B(  0-C , 20-H ) :   0.9654
B(  0-C , 21-H ) :   0.9566 B(  1-C ,  2-O ) :   0.8016 B(  1-C , 22-H ) :   0.9526
B(  1-C , 23-H ) :   0.9638 B(  2-O ,  3-P ) :   1.0936 B(  3-P ,  4-S ) :   1.8246
B(  3-P ,  5-O ) :   1.0438 B(  3-P ,  8-S ) :   1.0681 B(  5-O ,  6-C ) :   0.7188
B(  6-C ,  7-C ) :   0.9343 B(  6-C , 24-H ) :   0.9631 B(  6-C , 25-H ) :   0.9493
B(  7-C , 26-H ) :   0.9632 B(  7-C , 27-H ) :   0.9570 B(  7-C , 28-H ) :   0.9686
B(  8-S ,  9-C ) :   0.9108 B(  9-C , 10-S ) :   0.8943 B(  9-C , 29-H ) :   0.8960
B(  9-C , 30-H ) :   0.9099 B( 10-S , 11-P ) :   1.1342 B( 11-P , 12-S ) :   1.6925
B( 11-P , 13-O ) :   1.2099 B( 11-P , 16-O ) :   1.0834 B( 13-O , 14-C ) :   0.7497
B( 14-C , 15-C ) :   0.9266 B( 14-C , 31-H ) :   0.9476 B( 14-C , 32-H ) :   0.9349
B( 15-C , 33-H ) :   0.9701 B( 15-C , 34-H ) :   0.9605 B( 15-C , 35-H ) :   0.9692
B( 16-O , 17-C ) :   0.7739 B( 17-C , 18-C ) :   0.9519 B( 17-C , 36-H ) :   0.9472
B( 17-C , 37-H ) :   0.9378 B( 18-C , 38-H ) :   0.9692 B( 18-C , 39-H ) :   0.9698
B( 18-C , 40-H ) :   0.9593

Dispersion correction           -0.022238846
FINAL SINGLE POINT ENERGY     -2932.469097712102

DIPOLE MOMENT
-------------

Method             : SCF
Type of density    : Electron Density
Multiplicity       :   1
Irrep              :   0
Energy             : -2932.4935196361784620 Eh
Relativity type    :
Basis              : AO
                                X                 Y                 Z
Electronic contribution:      2.094161850     -10.485991296     -16.400351349
Nuclear contribution   :     -1.390247006      10.119724423      18.538429040
                        -----------------------------------------
Total Dipole Moment    :      0.703914845      -0.366266873       2.138077690
                        -----------------------------------------
Magnitude (a.u.)       :      2.280575309
Magnitude (Debye)      :      5.796761760

Rotational constants in cm-1:             0.012630             0.005413             0.005096
Rotational constants in MHz :           378.634314           162.281147           152.762665

                             ****ORCA TERMINATED NORMALLY****
TOTAL RUN TIME: 0 days 0 hours 1 minutes 53 seconds 3 msec
