                         Program Version 6.0.0  -   RELEASE  -
|  1> ! pbe def2-sv(p) def2/J RI DEFGRID1 loosescf d4 GCP(DFT/SV(P)) printgap
|  2> %output
|  3>     printlevel normal
|  4> end
|  5> * xyz 0 1
|  6> C 1.6209181831 -1.2659382575 -2.5624504562
|  7> C 2.8834783357 -0.4509301964 -2.382552856
|  8> O 2.867620267 0.3484131531 -1.1735655546
|  9> P 2.8106722112 -0.2016600162 0.3048992879
| 10> S 3.6287015084 1.0618056217 1.5566232806
| 11> O 3.4962177554 -1.6269159182 0.1857130648
| 12> C 4.0334964494 -2.3188329496 1.3298641943
| 13> C 2.9541263555 -2.7306453284 2.3090326798
| 14> S 0.7547751235 -0.6031160276 0.7097883294
| 15> C 0.3094184853 1.1492571459 0.9256268702
| 16> S -1.3788599589 1.3200058031 1.5317711705
| 17> P -2.3132470763 0.5098935293 -0.1852433013
| 18> S -1.4922484379 0.9717757106 -1.9090501784
| 19> O -3.8281830107 0.9524435647 -0.0253665975
| 20> C -4.2593884029 2.2992594778 -0.307610306
| 21> C -5.7724217156 2.2936772695 -0.388283381
| 22> O -2.38219486 -1.0206750882 0.1872801061
| 23> C -2.4365252216 -2.0635988196 -0.8096940923
| 24> C -3.7773270215 -2.083302528 -1.5121363811
| 25> H 0.7463628409 -0.6181571839 -2.5492604437
| 26> H 1.6644355465 -1.7763197783 -3.5194580988
| 27> H 1.5308326839 -2.0042223734 -1.7679916314
| 28> H 2.9932265628 0.2955988142 -3.1706243894
| 29> H 3.7637903283 -1.0954278535 -2.3506217726
| 30> H 4.5362222972 -3.1837016411 0.8946925363
| 31> H 4.7644252351 -1.6655199001 1.8156528616
| 32> H 3.3916629832 -3.3518839547 3.083894808
| 33> H 2.5151249422 -1.848039853 2.771987455
| 34> H 2.16997726 -3.2855889125 1.8001791965
| 35> H 0.3978511482 1.6570740303 -0.0372148948
| 36> H 0.9709074482 1.5972896762 1.667321831
| 37> H -3.9040376194 2.9492734762 0.4968525462
| 38> H -3.8070308186 2.6202304963 -1.2522514231
| 39> H -6.1228246408 3.3037541348 -0.5733205598
| 40> H -6.1029358314 1.6456881696 -1.1949425034
| 41> H -6.1897447933 1.9326875501 0.5470820776
| 42> H -1.6236496998 -1.9044036735 -1.5250445255
| 43> H -2.2565666835 -2.9758886595 -0.2405341548
| 44> H -3.9102581932 -1.1595771132 -2.0745277356
| 45> H -3.8150886953 -2.9238164347 -2.1978333542
| 46> H -4.580369188 -2.1695432787 -0.785198573
| 47> *
| 48>
| 49>                          ****END OF INPUT****

CARTESIAN COORDINATES (ANGSTROEM)
---------------------------------
  C      1.620918   -1.265938   -2.562450
  C      2.883478   -0.450930   -2.382553
  O      2.867620    0.348413   -1.173566
  P      2.810672   -0.201660    0.304899
  S      3.628702    1.061806    1.556623
  O      3.496218   -1.626916    0.185713
  C      4.033496   -2.318833    1.329864
  C      2.954126   -2.730645    2.309033
  S      0.754775   -0.603116    0.709788
  C      0.309418    1.149257    0.925627
  S     -1.378860    1.320006    1.531771
  P     -2.313247    0.509894   -0.185243
  S     -1.492248    0.971776   -1.909050
  O     -3.828183    0.952444   -0.025367
  C     -4.259388    2.299259   -0.307610
  C     -5.772422    2.293677   -0.388283
  O     -2.382195   -1.020675    0.187280
  C     -2.436525   -2.063599   -0.809694
  C     -3.777327   -2.083303   -1.512136
  H      0.746363   -0.618157   -2.549260
  H      1.664436   -1.776320   -3.519458
  H      1.530833   -2.004222   -1.767992
  H      2.993227    0.295599   -3.170624
  H      3.763790   -1.095428   -2.350622
  H      4.536222   -3.183702    0.894693
  H      4.764425   -1.665520    1.815653
  H      3.391663   -3.351884    3.083895
  H      2.515125   -1.848040    2.771987
  H      2.169977   -3.285589    1.800179
  H      0.397851    1.657074   -0.037215
  H      0.970907    1.597290    1.667322
  H     -3.904038    2.949273    0.496853
  H     -3.807031    2.620230   -1.252251
  H     -6.122825    3.303754   -0.573321
  H     -6.102936    1.645688   -1.194943
  H     -6.189745    1.932688    0.547082
  H     -1.623650   -1.904404   -1.525045
  H     -2.256567   -2.975889   -0.240534
  H     -3.910258   -1.159577   -2.074528
  H     -3.815089   -2.923816   -2.197833
  H     -4.580369   -2.169543   -0.785199

 Total Charge           Charge          ....    0
 Multiplicity           Mult            ....    1
 Number of Electrons    NEL             ....  202
 Basis Dimension        Dim             ....  334

ORBITAL ENERGIES
----------------

  NO   OCC          E(Eh)            E(eV)
   0   2.0000     -88.046468     -2395.8662
   1   2.0000     -88.036043     -2395.5825
   2   2.0000     -87.992345     -2394.3934
   3   2.0000     -87.980738     -2394.0776
   4   2.0000     -76.429823     -2079.7612
   5   2.0000     -76.424861     -2079.6262
   6   2.0000     -18.798967      -511.5459
   7   2.0000     -18.797455      -511.5047
   8   2.0000     -18.794849      -511.4339
   9   2.0000     -18.787556      -511.2354
  10   2.0000      -9.957065      -270.9455
  11   2.0000      -9.956616      -270.9333
  12   2.0000      -9.955174      -270.8941
  13   2.0000      -9.952216      -270.8136
  14   2.0000      -9.948710      -270.7182
  15   2.0000      -9.891802      -269.1696
  16   2.0000      -9.887126      -269.0424
  17   2.0000      -9.885759      -269.0052
  18   2.0000      -9.878957      -268.8201
  19   2.0000      -7.691898      -209.3072
  20   2.0000      -7.680695      -209.0023
  21   2.0000      -7.636901      -207.8106
  22   2.0000      -7.626115      -207.5171
  23   2.0000      -6.427618      -174.9044
  24   2.0000      -6.422165      -174.7560
  25   2.0000      -5.719684      -155.6405
  26   2.0000      -5.716609      -155.5568
  27   2.0000      -5.708742      -155.3428
  28   2.0000      -5.708512      -155.3365
  29   2.0000      -5.705568      -155.2564
  30   2.0000      -5.697477      -155.0362
  31   2.0000      -5.665568      -154.1679
  32   2.0000      -5.657597      -153.9510
  33   2.0000      -5.657267      -153.9421
  34   2.0000      -5.655059      -153.8820
  35   2.0000      -5.646869      -153.6591
  36   2.0000      -5.646067      -153.6373
  37   2.0000      -4.649980      -126.5324
  38   2.0000      -4.649403      -126.5167
  39   2.0000      -4.648181      -126.4834
  40   2.0000      -4.645431      -126.4086
  41   2.0000      -4.643628      -126.3595
  42   2.0000      -4.642297      -126.3233
  43   2.0000      -0.992184       -26.9987
  44   2.0000      -0.989037       -26.9131
  45   2.0000      -0.951200       -25.8835
  46   2.0000      -0.944339       -25.6968
  47   2.0000      -0.763504       -20.7760
  48   2.0000      -0.723524       -19.6881
  49   2.0000      -0.710662       -19.3381
  50   2.0000      -0.692487       -18.8435
  51   2.0000      -0.690843       -18.7988
  52   2.0000      -0.676219       -18.4008
  53   2.0000      -0.651952       -17.7405
  54   2.0000      -0.633686       -17.2435
  55   2.0000      -0.602339       -16.3905
  56   2.0000      -0.595095       -16.1934
  57   2.0000      -0.577015       -15.7014
  58   2.0000      -0.569446       -15.4954
  59   2.0000      -0.556901       -15.1540
  60   2.0000      -0.506367       -13.7789
  61   2.0000      -0.495758       -13.4903
  62   2.0000      -0.481632       -13.1059
  63   2.0000      -0.469482       -12.7753
  64   2.0000      -0.452592       -12.3157
  65   2.0000      -0.451465       -12.2850
  66   2.0000      -0.442778       -12.0486
  67   2.0000      -0.437769       -11.9123
  68   2.0000      -0.430926       -11.7261
  69   2.0000      -0.424461       -11.5502
  70   2.0000      -0.408633       -11.1195
  71   2.0000      -0.399633       -10.8746
  72   2.0000      -0.397470       -10.8157
  73   2.0000      -0.389161       -10.5896
  74   2.0000      -0.378339       -10.2951
  75   2.0000      -0.374715       -10.1965
  76   2.0000      -0.369498       -10.0546
  77   2.0000      -0.360502        -9.8098
  78   2.0000      -0.355353        -9.6697
  79   2.0000      -0.351482        -9.5643
  80   2.0000      -0.347393        -9.4530
  81   2.0000      -0.345460        -9.4004
  82   2.0000      -0.340309        -9.2603
  83   2.0000      -0.338641        -9.2149
  84   2.0000      -0.334874        -9.1124
  85   2.0000      -0.319460        -8.6929
  86   2.0000      -0.316944        -8.6245
  87   2.0000      -0.304938        -8.2978
  88   2.0000      -0.296346        -8.0640
  89   2.0000      -0.293616        -7.9897
  90   2.0000      -0.288997        -7.8640
  91   2.0000      -0.280417        -7.6305
  92   2.0000      -0.272254        -7.4084
  93   2.0000      -0.266165        -7.2427
  94   2.0000      -0.255768        -6.9598
  95   2.0000      -0.230103        -6.2614
  96   2.0000      -0.221365        -6.0236
  97   2.0000      -0.210792        -5.7359
  98   2.0000      -0.207339        -5.6420
  99   2.0000      -0.204157        -5.5554
 100   2.0000      -0.190892        -5.1944
 101   0.0000      -0.043748        -1.1905
 102   0.0000      -0.030238        -0.8228
 103   0.0000      -0.009091        -0.2474
 104   0.0000       0.008704         0.2368
 105   0.0000       0.016055         0.4369

MULLIKEN ATOMIC CHARGES
-----------------------
   0 C :   -0.350445
   1 C :    0.014580
   2 O :   -0.366611
   3 P :    0.618103
   4 S :   -0.325293
   5 O :   -0.384183
   6 C :   -0.001589
   7 C :   -0.321382
   8 S :   -0.103249
   9 C :   -0.360880
  10 S :   -0.071704
  11 P :    0.605957
  12 S :   -0.329022
  13 O :   -0.373321
  14 C :   -0.014365
  15 C :   -0.280533
  16 O :   -0.356441
  17 C :   -0.010079
  18 C :   -0.305624
  19 H :    0.155630
  20 H :    0.106661
  21 H :    0.116902
  22 H :    0.109878
  23 H :    0.104983
  24 H :    0.105165
  25 H :    0.115853
  26 H :    0.115556
  27 H :    0.135669
  28 H :    0.116302
  29 H :    0.195208
  30 H :    0.188706
  31 H :    0.105951
  32 H :    0.107996
  33 H :    0.114267
  34 H :    0.119310
  35 H :    0.118873
  36 H :    0.122231
  37 H :    0.107308
  38 H :    0.122431
  39 H :    0.112682
  40 H :    0.118521
Sum of atomic charges:   -0.0000000

LOEWDIN ATOMIC CHARGES
----------------------
   0 C :   -0.378166
   1 C :   -0.105377
   2 O :   -0.241483
   3 P :    0.576753
   4 S :   -0.318299
   5 O :   -0.245143
   6 C :   -0.115563
   7 C :   -0.371310
   8 S :    0.068077
   9 C :   -0.483472
  10 S :    0.094230
  11 P :    0.568206
  12 S :   -0.310818
  13 O :   -0.245616
  14 C :   -0.119417
  15 C :   -0.350054
  16 O :   -0.234283
  17 C :   -0.115527
  18 C :   -0.363972
  19 H :    0.122820
  20 H :    0.128505
  21 H :    0.114473
  22 H :    0.122898
  23 H :    0.112426
  24 H :    0.118631
  25 H :    0.114756
  26 H :    0.132685
  27 H :    0.124738
  28 H :    0.123295
  29 H :    0.123292
  30 H :    0.129242
  31 H :    0.110955
  32 H :    0.109718
  33 H :    0.132044
  34 H :    0.128165
  35 H :    0.128150
  36 H :    0.113529
  37 H :    0.120391
  38 H :    0.122446
  39 H :    0.130799
  40 H :    0.127275

  Mayer bond orders larger than 0.100000
B(  0-C ,  1-C ) :   1.1714 B(  0-C , 19-H ) :   0.9182 B(  0-C , 20-H ) :   0.9342
B(  0-C , 21-H ) :   0.9396 B(  1-C ,  2-O ) :   0.8971 B(  1-C , 22-H ) :   0.9340
B(  1-C , 23-H ) :   0.9289 B(  2-O ,  3-P ) :   1.1319 B(  3-P ,  4-S ) :   1.6294
B(  3-P ,  5-O ) :   1.0822 B(  3-P ,  8-S ) :   0.9485 B(  4-S ,  8-S ) :   0.1107
B(  5-O ,  6-C ) :   0.8998 B(  6-C ,  7-C ) :   1.1667 B(  6-C , 24-H ) :   0.9340
B(  6-C , 25-H ) :   0.9177 B(  7-C , 26-H ) :   0.9368 B(  7-C , 27-H ) :   0.9317
B(  7-C , 28-H ) :   0.9447 B(  8-S ,  9-C ) :   0.9774 B(  9-C , 10-S ) :   1.0150
B(  9-C , 29-H ) :   0.8730 B(  9-C , 30-H ) :   0.8763 B( 10-S , 11-P ) :   0.9619
B( 10-S , 12-S ) :   0.1126 B( 11-P , 12-S ) :   1.5914 B( 11-P , 13-O ) :   1.1153
B( 11-P , 16-O ) :   1.1381 B( 13-O , 14-C ) :   0.9016 B( 14-C , 15-C ) :   1.1609
B( 14-C , 31-H ) :   0.9282 B( 14-C , 32-H ) :   0.9122 B( 15-C , 33-H ) :   0.9416
B( 15-C , 34-H ) :   0.9515 B( 15-C , 35-H ) :   0.9502 B( 16-O , 17-C ) :   0.8964
B( 17-C , 18-C ) :   1.1643 B( 17-C , 36-H ) :   0.9151 B( 17-C , 37-H ) :   0.9344
B( 18-C , 38-H ) :   0.9358 B( 18-C , 39-H ) :   0.9394 B( 18-C , 40-H ) :   0.9460

Dispersion correction           -0.063353319
FINAL SINGLE POINT ENERGY     -2929.519214612734

DIPOLE MOMENT
-------------

Method             : SCF
Type of density    : Electron Density
Multiplicity       :   1
Irrep              :   0
Energy             : -2929.6401275961902684 Eh
Relativity type    :
Basis              : AO
                                X                 Y                 Z
Electronic contribution:     11.630314083      12.212835380       9.138136327
Nuclear contribution   :    -12.558058977     -13.472314297      -9.706745199
                        -----------------------------------------
Total Dipole Moment    :     -0.927744894      -1.259478917      -0.568608873
                        -----------------------------------------
Magnitude (a.u.)       :      1.664425961
Magnitude (Debye)      :      4.230634579

Rotational constants in cm-1:             0.013616             0.004282             0.004071
Rotational constants in MHz :           408.183812           128.372408           122.049518

                             ****ORCA TERMINATED NORMALLY****
TOTAL RUN TIME: 0 days 0 hours 0 minutes 20 seconds 854 msec
