                         Program Version 6.0.0  -   RELEASE  -
|  1> ! pbe def2-sv(p) def2/J RI DEFGRID1 loosescf d4 GCP(DFT/SV(P)) printgap
|  2> %output
|  3>     printlevel normal
|  4> end
|  5> * xyz 0 1
|  6> C 4.2986413559 -2.2142693313 1.0019148295
|  7> C 4.6389188062 -0.7846784984 0.633210266
|  8> O 3.5067029184 0.092858878 0.7654405151
|  9> P 2.2397280254 -0.0004116564 -0.1876651036
| 10> S 2.6351914501 -0.3729419536 -2.0752273231
| 11> O 1.5164473882 1.3804800621 0.1257179833
| 12> C 1.7168605101 2.549697588 -0.6916398974
| 13> C 3.1134587224 3.1116043241 -0.530769518
| 14> S 0.9319293425 -1.3140702609 0.8139989751
| 15> C -0.2073164739 -1.5909897009 -0.5735837132
| 16> S -0.941923903 -0.0681465037 -1.2411019341
| 17> P -2.5365386025 0.1319156928 0.1597146593
| 18> S -3.6076968125 1.7568276714 -0.0440611414
| 19> O -1.8675927745 -0.0940287835 1.5771603576
| 20> C -1.2315097602 0.9828010338 2.293011319
| 21> C -0.8978931962 0.4684360479 3.6779826695
| 22> O -3.3056865387 -1.2533631821 0.1110278437
| 23> C -4.4607743781 -1.4368008672 -0.7277801601
| 24> C -4.0915263463 -1.498770626 -2.1967252917
| 25> H 5.2061608503 -2.8094547068 1.0074587956
| 26> H 3.8354193306 -2.2512318279 1.9846673904
| 27> H 3.6069538018 -2.6325027603 0.2718603562
| 28> H 4.9998111931 -0.7298595917 -0.3988661328
| 29> H 5.3804474202 -0.358485606 1.3101506308
| 30> H 1.520729599 2.2794261184 -1.7347141187
| 31> H 0.9529342823 3.2489965837 -0.3474017147
| 32> H 3.3270314933 3.2906868262 0.5197588842
| 33> H 3.8431524023 2.4047916509 -0.9242388329
| 34> H 3.1918717817 4.0435514563 -1.0817212864
| 35> H -0.9926538615 -2.2468280158 -0.2048208222
| 36> H 0.3398995694 -2.0417896409 -1.4000200201
| 37> H -0.3261395967 1.2836536754 1.756193236
| 38> H -1.921091481 1.8327382382 2.3269799312
| 39> H -1.8044203492 0.1475712241 4.1825756038
| 40> H -0.2179722006 -0.3758304344 3.600651027
| 41> H -0.4270588527 1.2616952621 4.2490049836
| 42> H -4.8921379805 -2.3760797826 -0.3789077412
| 43> H -5.1597359424 -0.6150639313 -0.5427863864
| 44> H -3.3562801059 -2.2792975496 -2.3747568947
| 45> H -4.9821302605 -1.7056787637 -2.7814029684
| 46> H -3.6752595884 -0.5433212483 -2.5153540299
| 47> *
| 48>
| 49>                          ****END OF INPUT****

CARTESIAN COORDINATES (ANGSTROEM)
---------------------------------
  C      4.298641   -2.214269    1.001915
  C      4.638919   -0.784678    0.633210
  O      3.506703    0.092859    0.765441
  P      2.239728   -0.000412   -0.187665
  S      2.635191   -0.372942   -2.075227
  O      1.516447    1.380480    0.125718
  C      1.716861    2.549698   -0.691640
  C      3.113459    3.111604   -0.530770
  S      0.931929   -1.314070    0.813999
  C     -0.207316   -1.590990   -0.573584
  S     -0.941924   -0.068147   -1.241102
  P     -2.536539    0.131916    0.159715
  S     -3.607697    1.756828   -0.044061
  O     -1.867593   -0.094029    1.577160
  C     -1.231510    0.982801    2.293011
  C     -0.897893    0.468436    3.677983
  O     -3.305687   -1.253363    0.111028
  C     -4.460774   -1.436801   -0.727780
  C     -4.091526   -1.498771   -2.196725
  H      5.206161   -2.809455    1.007459
  H      3.835419   -2.251232    1.984667
  H      3.606954   -2.632503    0.271860
  H      4.999811   -0.729860   -0.398866
  H      5.380447   -0.358486    1.310151
  H      1.520730    2.279426   -1.734714
  H      0.952934    3.248997   -0.347402
  H      3.327031    3.290687    0.519759
  H      3.843152    2.404792   -0.924239
  H      3.191872    4.043551   -1.081721
  H     -0.992654   -2.246828   -0.204821
  H      0.339900   -2.041790   -1.400020
  H     -0.326140    1.283654    1.756193
  H     -1.921091    1.832738    2.326980
  H     -1.804420    0.147571    4.182576
  H     -0.217972   -0.375830    3.600651
  H     -0.427059    1.261695    4.249005
  H     -4.892138   -2.376080   -0.378908
  H     -5.159736   -0.615064   -0.542786
  H     -3.356280   -2.279298   -2.374757
  H     -4.982130   -1.705679   -2.781403
  H     -3.675260   -0.543321   -2.515354

 Total Charge           Charge          ....    0
 Multiplicity           Mult            ....    1
 Number of Electrons    NEL             ....  202
 Basis Dimension        Dim             ....  334

ORBITAL ENERGIES
----------------

  NO   OCC          E(Eh)            E(eV)
   0   2.0000     -88.047331     -2395.8897
   1   2.0000     -88.041742     -2395.7376
   2   2.0000     -87.995759     -2394.4863
   3   2.0000     -87.986445     -2394.2329
   4   2.0000     -76.432459     -2079.8330
   5   2.0000     -76.424113     -2079.6058
   6   2.0000     -18.800118      -511.5772
   7   2.0000     -18.794027      -511.4115
   8   2.0000     -18.792689      -511.3751
   9   2.0000     -18.787304      -511.2285
  10   2.0000      -9.959661      -271.0162
  11   2.0000      -9.958060      -270.9726
  12   2.0000      -9.953128      -270.8384
  13   2.0000      -9.951161      -270.7849
  14   2.0000      -9.943129      -270.5663
  15   2.0000      -9.889042      -269.0945
  16   2.0000      -9.885007      -268.9847
  17   2.0000      -9.884189      -268.9625
  18   2.0000      -9.880096      -268.8511
  19   2.0000      -7.692260      -209.3170
  20   2.0000      -7.686322      -209.1555
  21   2.0000      -7.640596      -207.9112
  22   2.0000      -7.631674      -207.6684
  23   2.0000      -6.429876      -174.9658
  24   2.0000      -6.421806      -174.7462
  25   2.0000      -5.720110      -155.6521
  26   2.0000      -5.716859      -155.5636
  27   2.0000      -5.714472      -155.4987
  28   2.0000      -5.710657      -155.3949
  29   2.0000      -5.709125      -155.3532
  30   2.0000      -5.703287      -155.1943
  31   2.0000      -5.669373      -154.2715
  32   2.0000      -5.661223      -154.0497
  33   2.0000      -5.660954      -154.0424
  34   2.0000      -5.660624      -154.0334
  35   2.0000      -5.652225      -153.8049
  36   2.0000      -5.651895      -153.7959
  37   2.0000      -4.652256      -126.5943
  38   2.0000      -4.651649      -126.5778
  39   2.0000      -4.650525      -126.5472
  40   2.0000      -4.644125      -126.3731
  41   2.0000      -4.643997      -126.3696
  42   2.0000      -4.642066      -126.3170
  43   2.0000      -0.992066       -26.9955
  44   2.0000      -0.988038       -26.8859
  45   2.0000      -0.950747       -25.8711
  46   2.0000      -0.943922       -25.6854
  47   2.0000      -0.765918       -20.8417
  48   2.0000      -0.722748       -19.6670
  49   2.0000      -0.710312       -19.3286
  50   2.0000      -0.690283       -18.7836
  51   2.0000      -0.682781       -18.5794
  52   2.0000      -0.676048       -18.3962
  53   2.0000      -0.656373       -17.8608
  54   2.0000      -0.640599       -17.4316
  55   2.0000      -0.605319       -16.4716
  56   2.0000      -0.595170       -16.1954
  57   2.0000      -0.575517       -15.6606
  58   2.0000      -0.565706       -15.3937
  59   2.0000      -0.558471       -15.1968
  60   2.0000      -0.502338       -13.6693
  61   2.0000      -0.495960       -13.4958
  62   2.0000      -0.477646       -12.9974
  63   2.0000      -0.470177       -12.7942
  64   2.0000      -0.462296       -12.5797
  65   2.0000      -0.444563       -12.0972
  66   2.0000      -0.443290       -12.0625
  67   2.0000      -0.438315       -11.9272
  68   2.0000      -0.426397       -11.6028
  69   2.0000      -0.421275       -11.4635
  70   2.0000      -0.410889       -11.1808
  71   2.0000      -0.396558       -10.7909
  72   2.0000      -0.395284       -10.7562
  73   2.0000      -0.391565       -10.6550
  74   2.0000      -0.380897       -10.3647
  75   2.0000      -0.376722       -10.2511
  76   2.0000      -0.368137       -10.0175
  77   2.0000      -0.361808        -9.8453
  78   2.0000      -0.355141        -9.6639
  79   2.0000      -0.351304        -9.5595
  80   2.0000      -0.349879        -9.5207
  81   2.0000      -0.345745        -9.4082
  82   2.0000      -0.344639        -9.3781
  83   2.0000      -0.338533        -9.2120
  84   2.0000      -0.333222        -9.0674
  85   2.0000      -0.318533        -8.6677
  86   2.0000      -0.315674        -8.5899
  87   2.0000      -0.302154        -8.2220
  88   2.0000      -0.300680        -8.1819
  89   2.0000      -0.289428        -7.8757
  90   2.0000      -0.287227        -7.8158
  91   2.0000      -0.276702        -7.5295
  92   2.0000      -0.270727        -7.3669
  93   2.0000      -0.267193        -7.2707
  94   2.0000      -0.256222        -6.9722
  95   2.0000      -0.234140        -6.3713
  96   2.0000      -0.219993        -5.9863
  97   2.0000      -0.213944        -5.8217
  98   2.0000      -0.209725        -5.7069
  99   2.0000      -0.205087        -5.5807
 100   2.0000      -0.203992        -5.5509
 101   0.0000      -0.045527        -1.2388
 102   0.0000      -0.023477        -0.6388
 103   0.0000      -0.012040        -0.3276
 104   0.0000       0.002239         0.0609
 105   0.0000       0.006661         0.1812

MULLIKEN ATOMIC CHARGES
-----------------------
   0 C :   -0.316403
   1 C :   -0.005751
   2 O :   -0.368904
   3 P :    0.608633
   4 S :   -0.328918
   5 O :   -0.357844
   6 C :   -0.002937
   7 C :   -0.305796
   8 S :   -0.073703
   9 C :   -0.356319
  10 S :   -0.068699
  11 P :    0.578673
  12 S :   -0.323381
  13 O :   -0.368627
  14 C :   -0.027021
  15 C :   -0.279746
  16 O :   -0.367106
  17 C :   -0.004243
  18 C :   -0.311201
  19 H :    0.115456
  20 H :    0.119302
  21 H :    0.127013
  22 H :    0.112728
  23 H :    0.107885
  24 H :    0.116225
  25 H :    0.109650
  26 H :    0.115774
  27 H :    0.120502
  28 H :    0.114270
  29 H :    0.189189
  30 H :    0.192620
  31 H :    0.121639
  32 H :    0.105459
  33 H :    0.114199
  34 H :    0.114033
  35 H :    0.107289
  36 H :    0.106596
  37 H :    0.114594
  38 H :    0.112664
  39 H :    0.113192
  40 H :    0.129012
Sum of atomic charges:    0.0000000

LOEWDIN ATOMIC CHARGES
----------------------
   0 C :   -0.369411
   1 C :   -0.118707
   2 O :   -0.242211
   3 P :    0.571194
   4 S :   -0.320460
   5 O :   -0.236447
   6 C :   -0.118204
   7 C :   -0.364307
   8 S :    0.105356
   9 C :   -0.479071
  10 S :    0.088301
  11 P :    0.564883
  12 S :   -0.322232
  13 O :   -0.240189
  14 C :   -0.129842
  15 C :   -0.350801
  16 O :   -0.240295
  17 C :   -0.118402
  18 C :   -0.366974
  19 H :    0.132251
  20 H :    0.124921
  21 H :    0.121247
  22 H :    0.111391
  23 H :    0.120012
  24 H :    0.111749
  25 H :    0.120249
  26 H :    0.125941
  27 H :    0.121444
  28 H :    0.131429
  29 H :    0.134426
  30 H :    0.133465
  31 H :    0.107833
  32 H :    0.107598
  33 H :    0.125854
  34 H :    0.121378
  35 H :    0.128859
  36 H :    0.118930
  37 H :    0.112009
  38 H :    0.123117
  39 H :    0.131058
  40 H :    0.122655

  Mayer bond orders larger than 0.100000
B(  0-C ,  1-C ) :   1.1663 B(  0-C , 19-H ) :   0.9376 B(  0-C , 20-H ) :   0.9444
B(  0-C , 21-H ) :   0.9356 B(  1-C ,  2-O ) :   0.9058 B(  1-C , 22-H ) :   0.9167
B(  1-C , 23-H ) :   0.9338 B(  2-O ,  3-P ) :   1.1154 B(  3-P ,  4-S ) :   1.5896
B(  3-P ,  5-O ) :   1.1087 B(  3-P ,  8-S ) :   0.9706 B(  4-S ,  8-S ) :   0.1094
B(  5-O ,  6-C ) :   0.8985 B(  6-C ,  7-C ) :   1.1635 B(  6-C , 24-H ) :   0.9172
B(  6-C , 25-H ) :   0.9332 B(  7-C , 26-H ) :   0.9460 B(  7-C , 27-H ) :   0.9372
B(  7-C , 28-H ) :   0.9396 B(  8-S ,  9-C ) :   0.9901 B(  9-C , 10-S ) :   0.9892
B(  9-C , 29-H ) :   0.8919 B(  9-C , 30-H ) :   0.8899 B( 10-S , 11-P ) :   0.9661
B( 11-P , 12-S ) :   1.6519 B( 11-P , 13-O ) :   1.1176 B( 11-P , 16-O ) :   1.0925
B( 13-O , 14-C ) :   0.8911 B( 14-C , 15-C ) :   1.1644 B( 14-C , 31-H ) :   0.9023
B( 14-C , 32-H ) :   0.9160 B( 15-C , 33-H ) :   0.9503 B( 15-C , 34-H ) :   0.9482
B( 15-C , 35-H ) :   0.9426 B( 16-O , 17-C ) :   0.9080 B( 17-C , 18-C ) :   1.1630
B( 17-C , 36-H ) :   0.9346 B( 17-C , 37-H ) :   0.9150 B( 18-C , 38-H ) :   0.9470
B( 18-C , 39-H ) :   0.9385 B( 18-C , 40-H ) :   0.9359

Dispersion correction           -0.065756190
FINAL SINGLE POINT ENERGY     -2929.527162904455

DIPOLE MOMENT
-------------

Method             : SCF
Type of density    : Electron Density
Multiplicity       :   1
Irrep              :   0
Energy             : -2929.6468624644239753 Eh
Relativity type    :
Basis              : AO
                                X                 Y                 Z
Electronic contribution:     -7.420560309       0.638066003      -5.715787016
Nuclear contribution   :      8.218531198      -1.215513289       6.257808978
                        -----------------------------------------
Total Dipole Moment    :      0.797970889      -0.577447286       0.542021963
                        -----------------------------------------
Magnitude (a.u.)       :      1.124273417
Magnitude (Debye)      :      2.857675923

Rotational constants in cm-1:             0.012532             0.004803             0.004703
Rotational constants in MHz :           375.709433           143.980280           141.005744

                             ****ORCA TERMINATED NORMALLY****
TOTAL RUN TIME: 0 days 0 hours 0 minutes 21 seconds 524 msec
