                         Program Version 6.0.0  -   RELEASE  -
|  1> ! pbe def2-sv(p) def2/J RI DEFGRID1 loosescf d4 GCP(DFT/SV(P)) printgap
|  2> %output
|  3>     printlevel normal
|  4> end
|  5> * xyz 0 1
|  6> C 4.7969841708 -1.5134616438 -0.1406357402
|  7> C 4.555818243 -0.1864740949 -0.8335383514
|  8> O 3.5483878143 0.5870981172 -0.1550304577
|  9> P 2.0203449916 0.589158565 -0.6002615606
| 10> S 1.7555581792 0.7264263375 -2.5364193699
| 11> O 1.4711467539 1.8224845893 0.2125514147
| 12> C 1.9920546159 2.2933289591 1.4798452769
| 13> C 1.7692335765 1.2950333176 2.5954031567
| 14> S 1.2442983906 -1.2025362962 0.2561282033
| 15> C 0.0952780981 -1.7457637003 -1.0447529884
| 16> S -1.5884301547 -2.0048454521 -0.4427921297
| 17> P -1.991521713 -0.0172318234 0.200203227
| 18> S -1.4361242979 1.4298723492 -0.9969402765
| 19> O -1.3240246347 0.0936850493 1.6254563496
| 20> C -1.6252865284 -0.8289151305 2.707958141
| 21> C -2.5683536118 -0.1832795658 3.7013841873
| 22> O -3.5404242875 -0.056148503 0.5547719601
| 23> C -4.5694178566 0.2066726491 -0.414867281
| 24> C -4.623695877 -0.8484355107 -1.5004517009
| 25> H 5.0543259167 -1.3479118629 0.9017275653
| 26> H 3.9101657953 -2.1399655048 -0.1876980608
| 27> H 5.6180624894 -2.0223775835 -0.6351035421
| 28> H 4.249611782 -0.3252763329 -1.8757254978
| 29> H 5.4478787275 0.44211432 -0.800767629
| 30> H 3.0530208368 2.5160192708 1.3519908691
| 31> H 1.4333829799 3.2159173992 1.6462859083
| 32> H 2.3302700233 0.3821002439 2.4014086873
| 33> H 2.1033877662 1.7283696778 3.5328368305
| 34> H 0.7121479256 1.0524660595 2.6652003159
| 35> H 0.4285474415 -2.7108884541 -1.4177954278
| 36> H 0.1007519979 -0.9947296483 -1.8401977416
| 37> H -2.0565354125 -1.7407506154 2.2868719471
| 38> H -0.6570853674 -1.0572757378 3.1584594853
| 39> H -3.5204495016 0.0373093807 3.2260311171
| 40> H -2.7300377817 -0.8659513747 4.5295786982
| 41> H -2.1420034434 0.7426716006 4.0776030369
| 42> H -5.4856224101 0.2219423753 0.1772457345
| 43> H -4.3887578316 1.1951863174 -0.8482906039
| 44> H -4.6761121713 -1.841897191 -1.0621741474
| 45> H -5.4987522928 -0.6794533565 -2.1198033833
| 46> H -3.7343125645 -0.7855707298 -2.1258836458
| 47> *
| 48>
| 49>                          ****END OF INPUT****

CARTESIAN COORDINATES (ANGSTROEM)
---------------------------------
  C      4.796984   -1.513462   -0.140636
  C      4.555818   -0.186474   -0.833538
  O      3.548388    0.587098   -0.155030
  P      2.020345    0.589159   -0.600262
  S      1.755558    0.726426   -2.536419
  O      1.471147    1.822485    0.212551
  C      1.992055    2.293329    1.479845
  C      1.769234    1.295033    2.595403
  S      1.244298   -1.202536    0.256128
  C      0.095278   -1.745764   -1.044753
  S     -1.588430   -2.004845   -0.442792
  P     -1.991522   -0.017232    0.200203
  S     -1.436124    1.429872   -0.996940
  O     -1.324025    0.093685    1.625456
  C     -1.625287   -0.828915    2.707958
  C     -2.568354   -0.183280    3.701384
  O     -3.540424   -0.056149    0.554772
  C     -4.569418    0.206673   -0.414867
  C     -4.623696   -0.848436   -1.500452
  H      5.054326   -1.347912    0.901728
  H      3.910166   -2.139966   -0.187698
  H      5.618062   -2.022378   -0.635104
  H      4.249612   -0.325276   -1.875725
  H      5.447879    0.442114   -0.800768
  H      3.053021    2.516019    1.351991
  H      1.433383    3.215917    1.646286
  H      2.330270    0.382100    2.401409
  H      2.103388    1.728370    3.532837
  H      0.712148    1.052466    2.665200
  H      0.428547   -2.710888   -1.417795
  H      0.100752   -0.994730   -1.840198
  H     -2.056535   -1.740751    2.286872
  H     -0.657085   -1.057276    3.158459
  H     -3.520450    0.037309    3.226031
  H     -2.730038   -0.865951    4.529579
  H     -2.142003    0.742672    4.077603
  H     -5.485622    0.221942    0.177246
  H     -4.388758    1.195186   -0.848291
  H     -4.676112   -1.841897   -1.062174
  H     -5.498752   -0.679453   -2.119803
  H     -3.734313   -0.785571   -2.125884

 Total Charge           Charge          ....    0
 Multiplicity           Mult            ....    1
 Number of Electrons    NEL             ....  202
 Basis Dimension        Dim             ....  334

ORBITAL ENERGIES
----------------

  NO   OCC          E(Eh)            E(eV)
   0   2.0000     -88.041306     -2395.7257
   1   2.0000     -88.038877     -2395.6596
   2   2.0000     -87.978397     -2394.0139
   3   2.0000     -87.976856     -2393.9720
   4   2.0000     -76.422302     -2079.5566
   5   2.0000     -76.421196     -2079.5265
   6   2.0000     -18.792940      -511.3819
   7   2.0000     -18.790367      -511.3119
   8   2.0000     -18.789624      -511.2917
   9   2.0000     -18.782142      -511.0881
  10   2.0000      -9.954956      -270.8881
  11   2.0000      -9.952828      -270.8302
  12   2.0000      -9.950440      -270.7652
  13   2.0000      -9.950174      -270.7580
  14   2.0000      -9.949635      -270.7433
  15   2.0000      -9.887718      -269.0585
  16   2.0000      -9.883804      -268.9520
  17   2.0000      -9.883416      -268.9414
  18   2.0000      -9.883038      -268.9311
  19   2.0000      -7.686345      -209.1561
  20   2.0000      -7.683244      -209.0717
  21   2.0000      -7.623296      -207.4404
  22   2.0000      -7.622074      -207.4072
  23   2.0000      -6.419716      -174.6893
  24   2.0000      -6.418394      -174.6534
  25   2.0000      -5.714171      -155.4905
  26   2.0000      -5.711065      -155.4060
  27   2.0000      -5.710725      -155.3967
  28   2.0000      -5.707767      -155.3162
  29   2.0000      -5.703510      -155.2004
  30   2.0000      -5.700314      -155.1134
  31   2.0000      -5.652382      -153.8091
  32   2.0000      -5.651141      -153.7754
  33   2.0000      -5.643766      -153.5747
  34   2.0000      -5.643467      -153.5665
  35   2.0000      -5.642521      -153.5408
  36   2.0000      -5.642195      -153.5319
  37   2.0000      -4.642633      -126.3325
  38   2.0000      -4.641498      -126.3016
  39   2.0000      -4.641406      -126.2991
  40   2.0000      -4.639895      -126.2579
  41   2.0000      -4.639830      -126.2562
  42   2.0000      -4.638747      -126.2267
  43   2.0000      -0.987298       -26.8658
  44   2.0000      -0.983260       -26.7559
  45   2.0000      -0.944211       -25.6933
  46   2.0000      -0.937315       -25.5056
  47   2.0000      -0.759009       -20.6537
  48   2.0000      -0.717017       -19.5110
  49   2.0000      -0.708668       -19.2838
  50   2.0000      -0.690100       -18.7786
  51   2.0000      -0.687701       -18.7133
  52   2.0000      -0.675445       -18.3798
  53   2.0000      -0.646969       -17.6049
  54   2.0000      -0.628554       -17.1038
  55   2.0000      -0.595881       -16.2147
  56   2.0000      -0.588728       -16.0201
  57   2.0000      -0.574618       -15.6362
  58   2.0000      -0.573061       -15.5938
  59   2.0000      -0.558202       -15.1894
  60   2.0000      -0.500316       -13.6143
  61   2.0000      -0.494417       -13.4538
  62   2.0000      -0.473804       -12.8929
  63   2.0000      -0.469486       -12.7754
  64   2.0000      -0.449524       -12.2322
  65   2.0000      -0.447858       -12.1868
  66   2.0000      -0.440272       -11.9804
  67   2.0000      -0.435388       -11.8475
  68   2.0000      -0.428492       -11.6598
  69   2.0000      -0.421888       -11.4801
  70   2.0000      -0.410189       -11.1618
  71   2.0000      -0.393836       -10.7168
  72   2.0000      -0.390599       -10.6287
  73   2.0000      -0.383921       -10.4470
  74   2.0000      -0.377976       -10.2853
  75   2.0000      -0.368827       -10.0363
  76   2.0000      -0.363213        -9.8835
  77   2.0000      -0.357849        -9.7376
  78   2.0000      -0.355479        -9.6731
  79   2.0000      -0.351672        -9.5695
  80   2.0000      -0.349097        -9.4994
  81   2.0000      -0.343890        -9.3577
  82   2.0000      -0.340560        -9.2671
  83   2.0000      -0.335170        -9.1204
  84   2.0000      -0.330833        -9.0024
  85   2.0000      -0.316855        -8.6221
  86   2.0000      -0.311726        -8.4825
  87   2.0000      -0.297878        -8.1057
  88   2.0000      -0.291676        -7.9369
  89   2.0000      -0.291253        -7.9254
  90   2.0000      -0.287815        -7.8318
  91   2.0000      -0.272893        -7.4258
  92   2.0000      -0.266601        -7.2546
  93   2.0000      -0.261072        -7.1041
  94   2.0000      -0.253514        -6.8985
  95   2.0000      -0.231299        -6.2940
  96   2.0000      -0.220090        -5.9890
  97   2.0000      -0.208992        -5.6870
  98   2.0000      -0.196677        -5.3519
  99   2.0000      -0.187284        -5.0962
 100   2.0000      -0.181346        -4.9347
 101   0.0000      -0.038209        -1.0397
 102   0.0000      -0.032024        -0.8714
 103   0.0000      -0.006750        -0.1837
 104   0.0000       0.011180         0.3042
 105   0.0000       0.017126         0.4660

MULLIKEN ATOMIC CHARGES
-----------------------
   0 C :   -0.300660
   1 C :   -0.003214
   2 O :   -0.388962
   3 P :    0.629441
   4 S :   -0.296363
   5 O :   -0.348770
   6 C :    0.011183
   7 C :   -0.355879
   8 S :   -0.131560
   9 C :   -0.340111
  10 S :   -0.106535
  11 P :    0.578162
  12 S :   -0.275300
  13 O :   -0.353629
  14 C :   -0.009615
  15 C :   -0.283982
  16 O :   -0.382189
  17 C :    0.001943
  18 C :   -0.322275
  19 H :    0.110778
  20 H :    0.122599
  21 H :    0.109317
  22 H :    0.103842
  23 H :    0.104509
  24 H :    0.107836
  25 H :    0.111252
  26 H :    0.118498
  27 H :    0.109082
  28 H :    0.156906
  29 H :    0.176696
  30 H :    0.207629
  31 H :    0.104775
  32 H :    0.108831
  33 H :    0.120231
  34 H :    0.109054
  35 H :    0.115963
  36 H :    0.102969
  37 H :    0.112812
  38 H :    0.116282
  39 H :    0.114588
  40 H :    0.133869
Sum of atomic charges:   -0.0000000

LOEWDIN ATOMIC CHARGES
----------------------
   0 C :   -0.365897
   1 C :   -0.119174
   2 O :   -0.249909
   3 P :    0.575044
   4 S :   -0.295262
   5 O :   -0.227388
   6 C :   -0.105579
   7 C :   -0.373686
   8 S :    0.066562
   9 C :   -0.482910
  10 S :    0.071694
  11 P :    0.558591
  12 S :   -0.284493
  13 O :   -0.233852
  14 C :   -0.118344
  15 C :   -0.357096
  16 O :   -0.249985
  17 C :   -0.116962
  18 C :   -0.372014
  19 H :    0.123376
  20 H :    0.117844
  21 H :    0.129521
  22 H :    0.106866
  23 H :    0.118164
  24 H :    0.112568
  25 H :    0.123944
  26 H :    0.115031
  27 H :    0.129418
  28 H :    0.131982
  29 H :    0.135179
  30 H :    0.125517
  31 H :    0.103763
  32 H :    0.115669
  33 H :    0.127072
  34 H :    0.129248
  35 H :    0.126450
  36 H :    0.117444
  37 H :    0.113422
  38 H :    0.122374
  39 H :    0.131908
  40 H :    0.123900

  Mayer bond orders larger than 0.100000
B(  0-C ,  1-C ) :   1.1665 B(  0-C , 19-H ) :   0.9484 B(  0-C , 20-H ) :   0.9339
B(  0-C , 21-H ) :   0.9399 B(  1-C ,  2-O ) :   0.9079 B(  1-C , 22-H ) :   0.9024
B(  1-C , 23-H ) :   0.9356 B(  2-O ,  3-P ) :   1.0656 B(  3-P ,  4-S ) :   1.6382
B(  3-P ,  5-O ) :   1.1404 B(  3-P ,  8-S ) :   0.9332 B(  4-S ,  8-S ) :   0.1196
B(  4-S , 30-H ) :   0.1058 B(  5-O ,  6-C ) :   0.9032 B(  6-C ,  7-C ) :   1.1708
B(  6-C , 24-H ) :   0.9265 B(  6-C , 25-H ) :   0.9315 B(  7-C , 26-H ) :   0.9369
B(  7-C , 27-H ) :   0.9351 B(  7-C , 28-H ) :   0.9233 B(  8-S ,  9-C ) :   1.0002
B(  9-C , 10-S ) :   0.9954 B(  9-C , 29-H ) :   0.9113 B(  9-C , 30-H ) :   0.8424
B( 10-S , 11-P ) :   0.9439 B( 10-S , 12-S ) :   0.1081 B( 11-P , 12-S ) :   1.6781
B( 11-P , 13-O ) :   1.1187 B( 11-P , 16-O ) :   1.0748 B( 13-O , 14-C ) :   0.8738
B( 14-C , 15-C ) :   1.1690 B( 14-C , 31-H ) :   0.9105 B( 14-C , 32-H ) :   0.9289
B( 15-C , 33-H ) :   0.9421 B( 15-C , 34-H ) :   0.9403 B( 15-C , 35-H ) :   0.9497
B( 16-O , 17-C ) :   0.9065 B( 17-C , 18-C ) :   1.1667 B( 17-C , 36-H ) :   0.9341
B( 17-C , 37-H ) :   0.9171 B( 18-C , 38-H ) :   0.9434 B( 18-C , 39-H ) :   0.9371
B( 18-C , 40-H ) :   0.9339

Dispersion correction           -0.067683654
FINAL SINGLE POINT ENERGY     -2929.513462109036

DIPOLE MOMENT
-------------

Method             : SCF
Type of density    : Electron Density
Multiplicity       :   1
Irrep              :   0
Energy             : -2929.6323238155546278 Eh
Relativity type    :
Basis              : AO
                                X                 Y                 Z
Electronic contribution:      0.389451113       4.214957355     -14.885362457
Nuclear contribution   :     -0.443150957      -5.114525221      16.486416822
                        -----------------------------------------
Total Dipole Moment    :     -0.053699844      -0.899567866       1.601054365
                        -----------------------------------------
Magnitude (a.u.)       :      1.837248241
Magnitude (Debye)      :      4.669913904

Rotational constants in cm-1:             0.012631             0.005450             0.004982
Rotational constants in MHz :           378.671885           163.383613           149.358031

                             ****ORCA TERMINATED NORMALLY****
TOTAL RUN TIME: 0 days 0 hours 0 minutes 21 seconds 961 msec
