                         Program Version 6.0.0  -   RELEASE  -
|  1> ! pbe def2-sv(p) def2/J RI DEFGRID1 loosescf d4 GCP(DFT/SV(P)) printgap
|  2> %output
|  3>     printlevel normal
|  4> end
|  5> * xyz 0 1
|  6> C 0.6248112572 1.6897033031 -0.0696782408
|  7> C 1.4192661436 0.388063901 -0.2650201952
|  8> H 1.650928115 0.2371391338 -1.3280193782
|  9> C 0.5632765873 -0.7984269319 0.1937050909
| 10> H 0.432981988 -0.7276982643 1.2849560004
| 11> C -0.8130820049 -0.7517823021 -0.4927354579
| 12> H -0.6714819008 -0.9199474404 -1.5656180204
| 13> C -1.4721228426 0.6227103924 -0.2864422677
| 14> H -2.3636164314 0.7001031376 -0.9255406963
| 15> O -0.6357623917 1.6622269538 -0.7213987628
| 16> O -1.8052144216 0.7260289666 1.0632798571
| 17> O -1.6413129268 -1.7873487474 -0.0338282579
| 18> O 1.2325952872 -1.9908810971 -0.1381963694
| 19> O 2.5913405228 0.4077887436 0.5129822137
| 20> H 1.149515105 2.5391454328 -0.5063796366
| 21> H 0.4942306663 1.8502298821 1.0076285367
| 22> H -2.3423230381 1.5171696054 1.2198420946
| 23> H -1.9651893496 -1.550818179 0.8504502136
| 24> H 0.6195420781 -2.7301271713 -0.0028526455
| 25> H 3.2575166883 0.9684235459 0.0917023386
| 26> *
| 27>
| 28>                          ****END OF INPUT****

CARTESIAN COORDINATES (ANGSTROEM)
---------------------------------
  C      0.624811    1.689703   -0.069678
  C      1.419266    0.388064   -0.265020
  H      1.650928    0.237139   -1.328019
  C      0.563277   -0.798427    0.193705
  H      0.432982   -0.727698    1.284956
  C     -0.813082   -0.751782   -0.492735
  H     -0.671482   -0.919947   -1.565618
  C     -1.472123    0.622710   -0.286442
  H     -2.363616    0.700103   -0.925541
  O     -0.635762    1.662227   -0.721399
  O     -1.805214    0.726029    1.063280
  O     -1.641313   -1.787349   -0.033828
  O      1.232595   -1.990881   -0.138196
  O      2.591341    0.407789    0.512982
  H      1.149515    2.539145   -0.506380
  H      0.494231    1.850230    1.007629
  H     -2.342323    1.517170    1.219842
  H     -1.965189   -1.550818    0.850450
  H      0.619542   -2.730127   -0.002853
  H      3.257517    0.968424    0.091702

 Total Charge           Charge          ....    0
 Multiplicity           Mult            ....    1
 Number of Electrons    NEL             ....   80
 Basis Dimension        Dim             ....  160

ORBITAL ENERGIES
----------------

  NO   OCC          E(Eh)            E(eV)
   0   2.0000     -18.779570      -511.0181
   1   2.0000     -18.770528      -510.7720
   2   2.0000     -18.755551      -510.3645
   3   2.0000     -18.748825      -510.1815
   4   2.0000     -18.736245      -509.8392
   5   2.0000      -9.989409      -271.8256
   6   2.0000      -9.940162      -270.4855
   7   2.0000      -9.939207      -270.4596
   8   2.0000      -9.932843      -270.2864
   9   2.0000      -9.932097      -270.2661
  10   2.0000      -0.988706       -26.9041
  11   2.0000      -0.938083       -25.5265
  12   2.0000      -0.931811       -25.3559
  13   2.0000      -0.917793       -24.9744
  14   2.0000      -0.905666       -24.6444
  15   2.0000      -0.696480       -18.9522
  16   2.0000      -0.679824       -18.4990
  17   2.0000      -0.586852       -15.9691
  18   2.0000      -0.574200       -15.6248
  19   2.0000      -0.537413       -14.6238
  20   2.0000      -0.487236       -13.2584
  21   2.0000      -0.483272       -13.1505
  22   2.0000      -0.478438       -13.0190
  23   2.0000      -0.452974       -12.3261
  24   2.0000      -0.433954       -11.8085
  25   2.0000      -0.408226       -11.1084
  26   2.0000      -0.398165       -10.8346
  27   2.0000      -0.371667       -10.1136
  28   2.0000      -0.359831        -9.7915
  29   2.0000      -0.349171        -9.5014
  30   2.0000      -0.340327        -9.2608
  31   2.0000      -0.313489        -8.5305
  32   2.0000      -0.294771        -8.0211
  33   2.0000      -0.279287        -7.5998
  34   2.0000      -0.265809        -7.2330
  35   2.0000      -0.261733        -7.1221
  36   2.0000      -0.246798        -6.7157
  37   2.0000      -0.229980        -6.2581
  38   2.0000      -0.216477        -5.8906
  39   2.0000      -0.196711        -5.3528
  40   0.0000       0.011343         0.3087
  41   0.0000       0.024436         0.6649
  42   0.0000       0.039057         1.0628
  43   0.0000       0.062033         1.6880
  44   0.0000       0.072990         1.9862

MULLIKEN ATOMIC CHARGES
-----------------------
   0 C :    0.073404
   1 C :   -0.001542
   2 H :    0.061357
   3 C :    0.067605
   4 H :    0.056687
   5 C :    0.044392
   6 H :    0.077906
   7 C :    0.149568
   8 H :    0.071333
   9 O :   -0.311562
  10 O :   -0.411773
  11 O :   -0.429032
  12 O :   -0.411189
  13 O :   -0.402947
  14 H :    0.084040
  15 H :    0.066308
  16 H :    0.313694
  17 H :    0.302832
  18 H :    0.298418
  19 H :    0.300501
Sum of atomic charges:   -0.0000000

LOEWDIN ATOMIC CHARGES
----------------------
   0 C :   -0.132637
   1 C :   -0.076042
   2 H :    0.104783
   3 C :   -0.070639
   4 H :    0.104599
   5 C :   -0.090491
   6 H :    0.121791
   7 C :   -0.012288
   8 H :    0.100183
   9 O :   -0.156314
  10 O :   -0.309574
  11 O :   -0.314148
  12 O :   -0.320434
  13 O :   -0.312361
  14 H :    0.112357
  15 H :    0.103796
  16 H :    0.295393
  17 H :    0.282004
  18 H :    0.281625
  19 H :    0.288398

  Mayer bond orders larger than 0.100000
B(  0-C ,  1-C ) :   1.0462 B(  0-C ,  9-O ) :   0.9908 B(  0-C , 14-H ) :   0.9288
B(  0-C , 15-H ) :   0.8891 B(  1-C ,  2-H ) :   0.8816 B(  1-C ,  3-C ) :   1.0165
B(  1-C , 13-O ) :   1.0872 B(  3-C ,  4-H ) :   0.8801 B(  3-C ,  5-C ) :   0.9869
B(  3-C , 12-O ) :   1.0993 B(  5-C ,  6-H ) :   0.8767 B(  5-C ,  7-C ) :   0.9894
B(  5-C , 11-O ) :   1.0392 B(  7-C ,  8-H ) :   0.9038 B(  7-C ,  9-O ) :   1.0701
B(  7-C , 10-O ) :   1.0769 B( 10-O , 16-H ) :   0.8377 B( 11-O , 17-H ) :   0.8350
B( 12-O , 18-H ) :   0.8358 B( 13-O , 19-H ) :   0.8503

Dispersion correction           -0.019103564
FINAL SINGLE POINT ENERGY      -571.418721772548

DIPOLE MOMENT
-------------

Method             : SCF
Type of density    : Electron Density
Multiplicity       :   1
Irrep              :   0
Energy             :  -571.5268656608349147 Eh
Relativity type    :
Basis              : AO
                                X                 Y                 Z
Electronic contribution:     -0.778661697      -0.869925656       0.012141741
Nuclear contribution   :      0.242070684       1.752605126       0.128483712
                        -----------------------------------------
Total Dipole Moment    :     -0.536591013       0.882679470       0.140625453
                        -----------------------------------------
Magnitude (a.u.)       :      1.042510662
Magnitude (Debye)      :      2.649851516

Rotational constants in cm-1:             0.056835             0.044630             0.028998
Rotational constants in MHz :          1703.868920          1337.971837           869.342082

                             ****ORCA TERMINATED NORMALLY****
TOTAL RUN TIME: 0 days 0 hours 0 minutes 11 seconds 236 msec
