                         Program Version 6.0.0  -   RELEASE  -
|  1> ! pbe def2-sv(p) def2/J RI DEFGRID1 loosescf d4 GCP(DFT/SV(P)) printgap
|  2> %output
|  3>     printlevel normal
|  4> end
|  5> * xyz 0 1
|  6> C 3.0478837098 2.2078888836 -0.1277109172
|  7> C 2.2798965536 1.9448665364 1.1504234599
|  8> O 1.3543789603 0.8343549444 1.0329416265
|  9> P 1.7356829245 -0.6761188116 0.7901834048
| 10> S 0.3164353315 -1.8887779085 1.3892547677
| 11> O 3.1204149825 -0.802533099 1.5553963338
| 12> C 3.6769862127 -2.066657733 1.9595724184
| 13> C 4.0731811302 -2.9278383468 0.7783942739
| 14> S 2.248455734 -0.8911329852 -1.2659452854
| 15> C 0.5765033848 -0.8545566646 -1.9344381007
| 16> S -0.2018425829 0.7927066984 -1.8125756061
| 17> P -1.927702913 0.3150541877 -0.707701581
| 18> S -2.6272105865 -1.502969655 -0.83115847
| 19> O -2.9876734426 1.3590580081 -1.2628635512
| 20> C -2.7189681419 2.7833656177 -1.2914601032
| 21> C -4.0470740524 3.5028080762 -1.4050110868
| 22> O -1.5119689272 0.8358970292 0.7481192097
| 23> C -2.2101728261 0.4032120691 1.9283477763
| 24> C -3.6016638902 0.996093744 2.0061789107
| 25> H 2.3634997872 2.3103619215 -0.9672045658
| 26> H 3.6121569936 3.1282604122 -0.0132373269
| 27> H 3.7381348454 1.3926864941 -0.3326372837
| 28> H 1.6255835022 2.7809255254 1.4025669776
| 29> H 2.9569881168 1.7357026604 1.9805030982
| 30> H 4.5424095949 -1.7853389501 2.5614225645
| 31> H 2.940865434 -2.5837461847 2.5826319988
| 32> H 4.7063084514 -2.3682127057 0.0947463087
| 33> H 4.6105665923 -3.7998523675 1.1371061593
| 34> H 3.1848681385 -3.258813499 0.2428461481
| 35> H -0.056490666 -1.5771876772 -1.411307143
| 36> H 0.6646152794 -1.1044230348 -2.9886227373
| 37> H -2.185394179 3.0598009331 -0.378084383
| 38> H -2.0797297958 2.9832652158 -2.1552314536
| 39> H -3.8686587436 4.5715396067 -1.4646006863
| 40> H -4.5690984224 3.1735900464 -2.2986533976
| 41> H -4.6688157864 3.2881564346 -0.5402227467
| 42> H -2.2514717159 -0.6912694872 1.9270229746
| 43> H -1.5722267551 0.7360008472 2.7489590136
| 44> H -3.5535255038 2.082001087 1.9859632057
| 45> H -4.1961789361 0.6468276322 1.1618705034
| 46> H -4.07569827 0.6734560123 2.9278731402
| 47> *
| 48>
| 49>                          ****END OF INPUT****

CARTESIAN COORDINATES (ANGSTROEM)
---------------------------------
  C      3.047884    2.207889   -0.127711
  C      2.279897    1.944867    1.150423
  O      1.354379    0.834355    1.032942
  P      1.735683   -0.676119    0.790183
  S      0.316435   -1.888778    1.389255
  O      3.120415   -0.802533    1.555396
  C      3.676986   -2.066658    1.959572
  C      4.073181   -2.927838    0.778394
  S      2.248456   -0.891133   -1.265945
  C      0.576503   -0.854557   -1.934438
  S     -0.201843    0.792707   -1.812576
  P     -1.927703    0.315054   -0.707702
  S     -2.627211   -1.502970   -0.831158
  O     -2.987673    1.359058   -1.262864
  C     -2.718968    2.783366   -1.291460
  C     -4.047074    3.502808   -1.405011
  O     -1.511969    0.835897    0.748119
  C     -2.210173    0.403212    1.928348
  C     -3.601664    0.996094    2.006179
  H      2.363500    2.310362   -0.967205
  H      3.612157    3.128260   -0.013237
  H      3.738135    1.392686   -0.332637
  H      1.625584    2.780926    1.402567
  H      2.956988    1.735703    1.980503
  H      4.542410   -1.785339    2.561423
  H      2.940865   -2.583746    2.582632
  H      4.706308   -2.368213    0.094746
  H      4.610567   -3.799852    1.137106
  H      3.184868   -3.258813    0.242846
  H     -0.056491   -1.577188   -1.411307
  H      0.664615   -1.104423   -2.988623
  H     -2.185394    3.059801   -0.378084
  H     -2.079730    2.983265   -2.155231
  H     -3.868659    4.571540   -1.464601
  H     -4.569098    3.173590   -2.298653
  H     -4.668816    3.288156   -0.540223
  H     -2.251472   -0.691269    1.927023
  H     -1.572227    0.736001    2.748959
  H     -3.553526    2.082001    1.985963
  H     -4.196179    0.646828    1.161871
  H     -4.075698    0.673456    2.927873

 Total Charge           Charge          ....    0
 Multiplicity           Mult            ....    1
 Number of Electrons    NEL             ....  202
 Basis Dimension        Dim             ....  334

ORBITAL ENERGIES
----------------

  NO   OCC          E(Eh)            E(eV)
   0   2.0000     -88.041469     -2395.7302
   1   2.0000     -88.037219     -2395.6145
   2   2.0000     -87.980223     -2394.0636
   3   2.0000     -87.977075     -2393.9779
   4   2.0000     -76.425128     -2079.6335
   5   2.0000     -76.416645     -2079.4026
   6   2.0000     -18.797836      -511.5151
   7   2.0000     -18.787940      -511.2458
   8   2.0000     -18.786727      -511.2128
   9   2.0000     -18.777876      -510.9720
  10   2.0000      -9.956292      -270.9245
  11   2.0000      -9.955856      -270.9126
  12   2.0000      -9.955505      -270.9031
  13   2.0000      -9.952516      -270.8217
  14   2.0000      -9.937094      -270.4021
  15   2.0000      -9.890224      -269.1267
  16   2.0000      -9.886145      -269.0157
  17   2.0000      -9.885633      -269.0017
  18   2.0000      -9.878370      -268.8041
  19   2.0000      -7.686471      -209.1595
  20   2.0000      -7.682569      -209.0533
  21   2.0000      -7.625086      -207.4891
  22   2.0000      -7.622339      -207.4144
  23   2.0000      -6.422351      -174.7611
  24   2.0000      -6.414734      -174.5538
  25   2.0000      -5.714318      -155.4945
  26   2.0000      -5.710974      -155.4035
  27   2.0000      -5.710416      -155.3883
  28   2.0000      -5.707216      -155.3012
  29   2.0000      -5.703481      -155.1996
  30   2.0000      -5.699331      -155.0867
  31   2.0000      -5.654074      -153.8552
  32   2.0000      -5.651470      -153.7843
  33   2.0000      -5.645747      -153.6286
  34   2.0000      -5.645128      -153.6117
  35   2.0000      -5.643190      -153.5590
  36   2.0000      -5.642003      -153.5267
  37   2.0000      -4.645498      -126.4104
  38   2.0000      -4.643909      -126.3672
  39   2.0000      -4.642506      -126.3290
  40   2.0000      -4.637509      -126.1930
  41   2.0000      -4.636100      -126.1547
  42   2.0000      -4.635371      -126.1349
  43   2.0000      -0.988957       -26.9109
  44   2.0000      -0.977271       -26.5929
  45   2.0000      -0.944148       -25.6916
  46   2.0000      -0.934441       -25.4274
  47   2.0000      -0.760385       -20.6911
  48   2.0000      -0.719702       -19.5841
  49   2.0000      -0.709549       -19.3078
  50   2.0000      -0.691986       -18.8299
  51   2.0000      -0.686279       -18.6746
  52   2.0000      -0.672161       -18.2904
  53   2.0000      -0.647905       -17.6304
  54   2.0000      -0.630940       -17.1688
  55   2.0000      -0.597719       -16.2648
  56   2.0000      -0.581910       -15.8346
  57   2.0000      -0.579592       -15.7715
  58   2.0000      -0.570092       -15.5130
  59   2.0000      -0.556470       -15.1423
  60   2.0000      -0.501011       -13.6332
  61   2.0000      -0.496411       -13.5080
  62   2.0000      -0.471706       -12.8358
  63   2.0000      -0.469121       -12.7654
  64   2.0000      -0.452004       -12.2997
  65   2.0000      -0.445715       -12.1285
  66   2.0000      -0.443605       -12.0711
  67   2.0000      -0.434976       -11.8363
  68   2.0000      -0.427763       -11.6400
  69   2.0000      -0.416029       -11.3207
  70   2.0000      -0.405336       -11.0297
  71   2.0000      -0.398639       -10.8475
  72   2.0000      -0.391182       -10.6446
  73   2.0000      -0.387356       -10.5405
  74   2.0000      -0.378102       -10.2887
  75   2.0000      -0.367352        -9.9962
  76   2.0000      -0.359860        -9.7923
  77   2.0000      -0.358244        -9.7483
  78   2.0000      -0.355703        -9.6792
  79   2.0000      -0.351428        -9.5628
  80   2.0000      -0.345092        -9.3904
  81   2.0000      -0.341075        -9.2811
  82   2.0000      -0.339717        -9.2442
  83   2.0000      -0.335298        -9.1239
  84   2.0000      -0.331347        -9.0164
  85   2.0000      -0.320166        -8.7122
  86   2.0000      -0.311692        -8.4816
  87   2.0000      -0.306503        -8.3404
  88   2.0000      -0.296703        -8.0737
  89   2.0000      -0.294808        -8.0221
  90   2.0000      -0.272519        -7.4156
  91   2.0000      -0.270804        -7.3690
  92   2.0000      -0.263704        -7.1758
  93   2.0000      -0.259059        -7.0494
  94   2.0000      -0.255856        -6.9622
  95   2.0000      -0.230529        -6.2730
  96   2.0000      -0.215165        -5.8549
  97   2.0000      -0.211586        -5.7575
  98   2.0000      -0.199165        -5.4195
  99   2.0000      -0.189619        -5.1598
 100   2.0000      -0.183327        -4.9886
 101   0.0000      -0.040331        -1.0975
 102   0.0000      -0.028861        -0.7853
 103   0.0000      -0.008684        -0.2363
 104   0.0000       0.009434         0.2567
 105   0.0000       0.023182         0.6308

MULLIKEN ATOMIC CHARGES
-----------------------
   0 C :   -0.319925
   1 C :    0.008238
   2 O :   -0.347810
   3 P :    0.609145
   4 S :   -0.303720
   5 O :   -0.386060
   6 C :    0.001237
   7 C :   -0.323634
   8 S :   -0.106670
   9 C :   -0.346373
  10 S :   -0.117654
  11 P :    0.613853
  12 S :   -0.298268
  13 O :   -0.374887
  14 C :   -0.036754
  15 C :   -0.276164
  16 O :   -0.371930
  17 C :   -0.006444
  18 C :   -0.314946
  19 H :    0.128152
  20 H :    0.109779
  21 H :    0.121390
  22 H :    0.105344
  23 H :    0.107717
  24 H :    0.103964
  25 H :    0.113561
  26 H :    0.117052
  27 H :    0.115903
  28 H :    0.134855
  29 H :    0.209635
  30 H :    0.184567
  31 H :    0.106960
  32 H :    0.112710
  33 H :    0.109356
  34 H :    0.124093
  35 H :    0.120706
  36 H :    0.125303
  37 H :    0.098652
  38 H :    0.107099
  39 H :    0.130625
  40 H :    0.111344
Sum of atomic charges:   -0.0000000

LOEWDIN ATOMIC CHARGES
----------------------
   0 C :   -0.371622
   1 C :   -0.106799
   2 O :   -0.230315
   3 P :    0.568987
   4 S :   -0.294322
   5 O :   -0.248251
   6 C :   -0.116243
   7 C :   -0.372156
   8 S :    0.080533
   9 C :   -0.477222
  10 S :    0.068453
  11 P :    0.567862
  12 S :   -0.297335
  13 O :   -0.248717
  14 C :   -0.123705
  15 C :   -0.348914
  16 O :   -0.244269
  17 C :   -0.124027
  18 C :   -0.367939
  19 H :    0.123063
  20 H :    0.129208
  21 H :    0.117247
  22 H :    0.120466
  23 H :    0.113293
  24 H :    0.118102
  25 H :    0.113758
  26 H :    0.122985
  27 H :    0.132835
  28 H :    0.124214
  29 H :    0.126582
  30 H :    0.138436
  31 H :    0.107419
  32 H :    0.110526
  33 H :    0.129693
  34 H :    0.131555
  35 H :    0.127932
  36 H :    0.109308
  37 H :    0.115871
  38 H :    0.118351
  39 H :    0.124647
  40 H :    0.130509

  Mayer bond orders larger than 0.100000
B(  0-C ,  1-C ) :   1.1708 B(  0-C , 19-H ) :   0.9375 B(  0-C , 20-H ) :   0.9351
B(  0-C , 21-H ) :   0.9397 B(  1-C ,  2-O ) :   0.9006 B(  1-C , 22-H ) :   0.9341
B(  1-C , 23-H ) :   0.9277 B(  2-O ,  3-P ) :   1.1410 B(  3-P ,  4-S ) :   1.6448
B(  3-P ,  5-O ) :   1.0760 B(  3-P ,  8-S ) :   0.9362 B(  4-S ,  8-S ) :   0.1061
B(  5-O ,  6-C ) :   0.9034 B(  6-C ,  7-C ) :   1.1670 B(  6-C , 24-H ) :   0.9342
B(  6-C , 25-H ) :   0.9169 B(  7-C , 26-H ) :   0.9439 B(  7-C , 27-H ) :   0.9367
B(  7-C , 28-H ) :   0.9330 B(  8-S ,  9-C ) :   1.0089 B(  9-C , 10-S ) :   0.9984
B(  9-C , 29-H ) :   0.8453 B(  9-C , 30-H ) :   0.9119 B( 10-S , 11-P ) :   0.9665
B( 10-S , 12-S ) :   0.1082 B( 11-P , 12-S ) :   1.6457 B( 11-P , 13-O ) :   1.0987
B( 11-P , 16-O ) :   1.0912 B( 13-O , 14-C ) :   0.9048 B( 14-C , 15-C ) :   1.1683
B( 14-C , 31-H ) :   0.9142 B( 14-C , 32-H ) :   0.9227 B( 15-C , 33-H ) :   0.9407
B( 15-C , 34-H ) :   0.9486 B( 15-C , 35-H ) :   0.9502 B( 16-O , 17-C ) :   0.9072
B( 17-C , 18-C ) :   1.1535 B( 17-C , 36-H ) :   0.9098 B( 17-C , 37-H ) :   0.9353
B( 18-C , 38-H ) :   0.9439 B( 18-C , 39-H ) :   0.9342 B( 18-C , 40-H ) :   0.9395

Dispersion correction           -0.067885452
FINAL SINGLE POINT ENERGY     -2929.513496016093

DIPOLE MOMENT
-------------

Method             : SCF
Type of density    : Electron Density
Multiplicity       :   1
Irrep              :   0
Energy             : -2929.6321099413194133 Eh
Relativity type    :
Basis              : AO
                                X                 Y                 Z
Electronic contribution:     -0.687122118     -13.290871667      -7.249011708
Nuclear contribution   :      1.932018857      14.898587288       7.726461497
                        -----------------------------------------
Total Dipole Moment    :      1.244896740       1.607715621       0.477449790
                        -----------------------------------------
Magnitude (a.u.)       :      2.088654043
Magnitude (Debye)      :      5.308936669

Rotational constants in cm-1:             0.012962             0.005311             0.005036
Rotational constants in MHz :           388.597971           159.215149           150.974973

                             ****ORCA TERMINATED NORMALLY****
TOTAL RUN TIME: 0 days 0 hours 0 minutes 21 seconds 652 msec
