                         Program Version 6.0.0  -   RELEASE  -
|  1> ! pbe def2-sv(p) def2/J RI DEFGRID1 loosescf d4 GCP(DFT/SV(P)) printgap
|  2> %output
|  3>     printlevel normal
|  4> end
|  5> * xyz 0 1
|  6> C 3.0690510826 -1.8439711409 -2.0069595204
|  7> C 1.6486613279 -1.3242036663 -1.9880435029
|  8> O 1.2427476656 -0.9365296712 -0.6597359194
|  9> P 1.9083934842 0.2871329779 0.0894800507
| 10> S 2.6915816002 1.7464899749 -0.9530812632
| 11> O 2.9573685174 -0.4983402694 1.0017163721
| 12> C 3.9346017733 0.193115134 1.7997462553
| 13> C 5.0382616553 -0.7883022001 2.1404582596
| 14> S 0.4070409531 0.8301159107 1.4771105194
| 15> C -0.2072877675 -0.8299989619 1.868356688
| 16> S -1.4322927857 -1.4910242125 0.6768531678
| 17> P -2.0668220239 0.2287676654 -0.4076645735
| 18> S -0.9178656396 1.0851466547 -1.7491364326
| 19> O -2.5803664984 1.2613592229 0.6630441287
| 20> C -3.5299910542 0.9389758634 1.7147336409
| 21> C -3.145490684 1.7241224598 2.9521179542
| 22> O -3.429521182 -0.3241180832 -1.0214337892
| 23> C -3.5075838963 -0.9833470553 -2.2967694796
| 24> C -2.7856794258 -2.3149561436 -2.2943563872
| 25> H 3.3080773252 -2.1967592026 -3.0051594701
| 26> H 3.7557165555 -1.040954226 -1.7408348318
| 27> H 3.1799253017 -2.6575072005 -1.2949535056
| 28> H 0.9285101087 -2.0970365632 -2.2624788351
| 29> H 1.5301388009 -0.460824514 -2.6509647419
| 30> H 4.3144752859 1.0440019184 1.2237929401
| 31> H 3.4395348 0.5683618208 2.7002057302
| 32> H 4.6277653756 -1.6385823054 2.6767853749
| 33> H 5.5174178569 -1.1416558868 1.2319684065
| 34> H 5.7750071591 -0.2911838733 2.7626688861
| 35> H -0.6851223297 -0.7586959334 2.8426714591
| 36> H 0.6246314656 -1.5316085607 1.8872195867
| 37> H -4.5178868268 1.2223671612 1.3477312722
| 38> H -3.5091108998 -0.1395756388 1.8941361995
| 39> H -3.8286311678 1.4771528839 3.7582541914
| 40> H -2.1274090892 1.4850659624 3.2500952784
| 41> H -3.1982368688 2.7895220538 2.7476673196
| 42> H -4.5791122131 -1.1028067307 -2.4622083373
| 43> H -3.084364719 -0.3168098656 -3.0550668282
| 44> H -1.7169579991 -2.1496930515 -2.1613698805
| 45> H -3.1473478325 -2.9421164343 -1.4834671152
| 46> H -2.9494651607 -2.8154409654 -3.2431619778
| 47> *
| 48>
| 49>                          ****END OF INPUT****

CARTESIAN COORDINATES (ANGSTROEM)
---------------------------------
  C      3.069051   -1.843971   -2.006960
  C      1.648661   -1.324204   -1.988044
  O      1.242748   -0.936530   -0.659736
  P      1.908393    0.287133    0.089480
  S      2.691582    1.746490   -0.953081
  O      2.957369   -0.498340    1.001716
  C      3.934602    0.193115    1.799746
  C      5.038262   -0.788302    2.140458
  S      0.407041    0.830116    1.477111
  C     -0.207288   -0.829999    1.868357
  S     -1.432293   -1.491024    0.676853
  P     -2.066822    0.228768   -0.407665
  S     -0.917866    1.085147   -1.749136
  O     -2.580366    1.261359    0.663044
  C     -3.529991    0.938976    1.714734
  C     -3.145491    1.724122    2.952118
  O     -3.429521   -0.324118   -1.021434
  C     -3.507584   -0.983347   -2.296769
  C     -2.785679   -2.314956   -2.294356
  H      3.308077   -2.196759   -3.005159
  H      3.755717   -1.040954   -1.740835
  H      3.179925   -2.657507   -1.294954
  H      0.928510   -2.097037   -2.262479
  H      1.530139   -0.460825   -2.650965
  H      4.314475    1.044002    1.223793
  H      3.439535    0.568362    2.700206
  H      4.627765   -1.638582    2.676785
  H      5.517418   -1.141656    1.231968
  H      5.775007   -0.291184    2.762669
  H     -0.685122   -0.758696    2.842671
  H      0.624631   -1.531609    1.887220
  H     -4.517887    1.222367    1.347731
  H     -3.509111   -0.139576    1.894136
  H     -3.828631    1.477153    3.758254
  H     -2.127409    1.485066    3.250095
  H     -3.198237    2.789522    2.747667
  H     -4.579112   -1.102807   -2.462208
  H     -3.084365   -0.316810   -3.055067
  H     -1.716958   -2.149693   -2.161370
  H     -3.147348   -2.942116   -1.483467
  H     -2.949465   -2.815441   -3.243162

 Total Charge           Charge          ....    0
 Multiplicity           Mult            ....    1
 Number of Electrons    NEL             ....  202
 Basis Dimension        Dim             ....  334

ORBITAL ENERGIES
----------------

  NO   OCC          E(Eh)            E(eV)
   0   2.0000     -88.044467     -2395.8117
   1   2.0000     -88.039114     -2395.6661
   2   2.0000     -87.982362     -2394.1218
   3   2.0000     -87.974946     -2393.9200
   4   2.0000     -76.422528     -2079.5627
   5   2.0000     -76.422072     -2079.5503
   6   2.0000     -18.788968      -511.2738
   7   2.0000     -18.786926      -511.2182
   8   2.0000     -18.786498      -511.2066
   9   2.0000     -18.786001      -511.1931
  10   2.0000      -9.962002      -271.0798
  11   2.0000      -9.955449      -270.9015
  12   2.0000      -9.949837      -270.7488
  13   2.0000      -9.948399      -270.7097
  14   2.0000      -9.945991      -270.6442
  15   2.0000      -9.891274      -269.1553
  16   2.0000      -9.887101      -269.0417
  17   2.0000      -9.885119      -268.9878
  18   2.0000      -9.878844      -268.8170
  19   2.0000      -7.689119      -209.2316
  20   2.0000      -7.683734      -209.0850
  21   2.0000      -7.627454      -207.5536
  22   2.0000      -7.619850      -207.3467
  23   2.0000      -6.419910      -174.6946
  24   2.0000      -6.418930      -174.6680
  25   2.0000      -5.717365      -155.5774
  26   2.0000      -5.713426      -155.4702
  27   2.0000      -5.711829      -155.4268
  28   2.0000      -5.708108      -155.3255
  29   2.0000      -5.705878      -155.2648
  30   2.0000      -5.700707      -155.1241
  31   2.0000      -5.656530      -153.9220
  32   2.0000      -5.649075      -153.7191
  33   2.0000      -5.648154      -153.6941
  34   2.0000      -5.647403      -153.6737
  35   2.0000      -5.640234      -153.4786
  36   2.0000      -5.639938      -153.4705
  37   2.0000      -4.642219      -126.3212
  38   2.0000      -4.642087      -126.3176
  39   2.0000      -4.641896      -126.3124
  40   2.0000      -4.640790      -126.2823
  41   2.0000      -4.640429      -126.2725
  42   2.0000      -4.638888      -126.2306
  43   2.0000      -0.983729       -26.7686
  44   2.0000      -0.982822       -26.7440
  45   2.0000      -0.941022       -25.6065
  46   2.0000      -0.940288       -25.5865
  47   2.0000      -0.762288       -20.7429
  48   2.0000      -0.718658       -19.5557
  49   2.0000      -0.709676       -19.3113
  50   2.0000      -0.688837       -18.7442
  51   2.0000      -0.684251       -18.6194
  52   2.0000      -0.671651       -18.2766
  53   2.0000      -0.650221       -17.6934
  54   2.0000      -0.634195       -17.2573
  55   2.0000      -0.594223       -16.1696
  56   2.0000      -0.587391       -15.9837
  57   2.0000      -0.573762       -15.6129
  58   2.0000      -0.566828       -15.4242
  59   2.0000      -0.560185       -15.2434
  60   2.0000      -0.505216       -13.7476
  61   2.0000      -0.499953       -13.6044
  62   2.0000      -0.472409       -12.8549
  63   2.0000      -0.470830       -12.8119
  64   2.0000      -0.459245       -12.4967
  65   2.0000      -0.442541       -12.0421
  66   2.0000      -0.436248       -11.8709
  67   2.0000      -0.431763       -11.7489
  68   2.0000      -0.427522       -11.6335
  69   2.0000      -0.419799       -11.4233
  70   2.0000      -0.413452       -11.2506
  71   2.0000      -0.397099       -10.8056
  72   2.0000      -0.392223       -10.6729
  73   2.0000      -0.380772       -10.3613
  74   2.0000      -0.375775       -10.2254
  75   2.0000      -0.370076       -10.0703
  76   2.0000      -0.361954        -9.8493
  77   2.0000      -0.361111        -9.8263
  78   2.0000      -0.356661        -9.7052
  79   2.0000      -0.354980        -9.6595
  80   2.0000      -0.347162        -9.4467
  81   2.0000      -0.345241        -9.3945
  82   2.0000      -0.341630        -9.2962
  83   2.0000      -0.337635        -9.1875
  84   2.0000      -0.327594        -8.9143
  85   2.0000      -0.318147        -8.6572
  86   2.0000      -0.312825        -8.5124
  87   2.0000      -0.301650        -8.2083
  88   2.0000      -0.295665        -8.0455
  89   2.0000      -0.288994        -7.8639
  90   2.0000      -0.285524        -7.7695
  91   2.0000      -0.270031        -7.3479
  92   2.0000      -0.266618        -7.2550
  93   2.0000      -0.257331        -7.0023
  94   2.0000      -0.255827        -6.9614
  95   2.0000      -0.229215        -6.2373
  96   2.0000      -0.221463        -6.0263
  97   2.0000      -0.204594        -5.5673
  98   2.0000      -0.197438        -5.3726
  99   2.0000      -0.189697        -5.1619
 100   2.0000      -0.182731        -4.9724
 101   0.0000      -0.050927        -1.3858
 102   0.0000      -0.028683        -0.7805
 103   0.0000      -0.014454        -0.3933
 104   0.0000      -0.000315        -0.0086
 105   0.0000       0.022530         0.6131

MULLIKEN ATOMIC CHARGES
-----------------------
   0 C :   -0.300331
   1 C :   -0.017845
   2 O :   -0.371868
   3 P :    0.622136
   4 S :   -0.301714
   5 O :   -0.381297
   6 C :   -0.009932
   7 C :   -0.279576
   8 S :   -0.084448
   9 C :   -0.315959
  10 S :   -0.122637
  11 P :    0.597064
  12 S :   -0.295335
  13 O :   -0.357233
  14 C :   -0.015055
  15 C :   -0.285811
  16 O :   -0.383601
  17 C :    0.004839
  18 C :   -0.345133
  19 H :    0.109861
  20 H :    0.123601
  21 H :    0.110596
  22 H :    0.114728
  23 H :    0.121589
  24 H :    0.105210
  25 H :    0.093398
  26 H :    0.111305
  27 H :    0.119100
  28 H :    0.111135
  29 H :    0.178251
  30 H :    0.185592
  31 H :    0.110888
  32 H :    0.102497
  33 H :    0.111041
  34 H :    0.114828
  35 H :    0.126120
  36 H :    0.102984
  37 H :    0.110678
  38 H :    0.146631
  39 H :    0.119719
  40 H :    0.113982
Sum of atomic charges:    0.0000000

LOEWDIN ATOMIC CHARGES
----------------------
   0 C :   -0.367255
   1 C :   -0.116666
   2 O :   -0.236166
   3 P :    0.573689
   4 S :   -0.303755
   5 O :   -0.255411
   6 C :   -0.124831
   7 C :   -0.350397
   8 S :    0.103468
   9 C :   -0.470762
  10 S :    0.062560
  11 P :    0.557818
  12 S :   -0.293713
  13 O :   -0.236321
  14 C :   -0.116740
  15 C :   -0.351424
  16 O :   -0.254014
  17 C :   -0.118238
  18 C :   -0.374357
  19 H :    0.129887
  20 H :    0.120981
  21 H :    0.123632
  22 H :    0.116600
  23 H :    0.113228
  24 H :    0.106772
  25 H :    0.105758
  26 H :    0.124222
  27 H :    0.127739
  28 H :    0.130214
  29 H :    0.130500
  30 H :    0.133159
  31 H :    0.119326
  32 H :    0.101943
  33 H :    0.129730
  34 H :    0.120763
  35 H :    0.132340
  36 H :    0.117841
  37 H :    0.111169
  38 H :    0.121578
  39 H :    0.123566
  40 H :    0.131567

  Mayer bond orders larger than 0.100000
B(  0-C ,  1-C ) :   1.1625 B(  0-C , 19-H ) :   0.9384 B(  0-C , 20-H ) :   0.9307
B(  0-C , 21-H ) :   0.9447 B(  1-C ,  2-O ) :   0.8951 B(  1-C , 22-H ) :   0.9267
B(  1-C , 23-H ) :   0.9166 B(  2-O ,  3-P ) :   1.1203 B(  3-P ,  4-S ) :   1.6514
B(  3-P ,  5-O ) :   1.0646 B(  3-P ,  8-S ) :   0.9492 B(  5-O ,  6-C ) :   0.9112
B(  6-C ,  7-C ) :   1.1595 B(  6-C , 24-H ) :   0.9066 B(  6-C , 25-H ) :   0.9266
B(  7-C , 26-H ) :   0.9513 B(  7-C , 27-H ) :   0.9517 B(  7-C , 28-H ) :   0.9425
B(  8-S ,  9-C ) :   1.0157 B(  9-C , 10-S ) :   0.9625 B(  9-C , 29-H ) :   0.9094
B(  9-C , 30-H ) :   0.9006 B( 10-S , 11-P ) :   0.9632 B( 10-S , 12-S ) :   0.1146
B( 11-P , 12-S ) :   1.6314 B( 11-P , 13-O ) :   1.1208 B( 11-P , 16-O ) :   1.0735
B( 13-O , 14-C ) :   0.8964 B( 14-C , 15-C ) :   1.1593 B( 14-C , 31-H ) :   0.9312
B( 14-C , 32-H ) :   0.9074 B( 15-C , 33-H ) :   0.9413 B( 15-C , 34-H ) :   0.9458
B( 15-C , 35-H ) :   0.9481 B( 16-O , 17-C ) :   0.9121 B( 17-C , 18-C ) :   1.1648
B( 17-C , 36-H ) :   0.9334 B( 17-C , 37-H ) :   0.9142 B( 18-C , 38-H ) :   0.9263
B( 18-C , 39-H ) :   0.9410 B( 18-C , 40-H ) :   0.9369

Dispersion correction           -0.067934024
FINAL SINGLE POINT ENERGY     -2929.509186514058

DIPOLE MOMENT
-------------

Method             : SCF
Type of density    : Electron Density
Multiplicity       :   1
Irrep              :   0
Energy             : -2929.6263286079006321 Eh
Relativity type    :
Basis              : AO
                                X                 Y                 Z
Electronic contribution:     -4.048772112      12.748103780      -3.811335103
Nuclear contribution   :      3.524502552     -14.317393809       4.956571771
                        -----------------------------------------
Total Dipole Moment    :     -0.524269560      -1.569290029       1.145236668
                        -----------------------------------------
Magnitude (a.u.)       :      2.012236764
Magnitude (Debye)      :      5.114699381

Rotational constants in cm-1:             0.011853             0.005744             0.004924
Rotational constants in MHz :           355.342713           172.204399           147.616159

                             ****ORCA TERMINATED NORMALLY****
TOTAL RUN TIME: 0 days 0 hours 0 minutes 21 seconds 470 msec
