                         Program Version 6.0.0  -   RELEASE  -
|  1> ! pbe def2-sv(p) def2/J RI DEFGRID1 loosescf d4 GCP(DFT/SV(P)) printgap
|  2> %output
|  3>     printlevel normal
|  4> end
|  5> * xyz 0 1
|  6> C 1.3873551622 -1.9683614284 1.8146850741
|  7> C 2.8769569534 -1.7191253184 1.7028756429
|  8> O 3.1763171136 -0.441962855 1.115960335
|  9> P 2.8148252492 -0.0674574911 -0.3897658267
| 10> S 3.0044149107 -1.5094914952 -1.6991809958
| 11> O 3.8268087341 1.1092862743 -0.6773840634
| 12> C 4.3050556161 2.0680005533 0.2967442029
| 13> C 3.18584597 2.8788236766 0.9140846353
| 14> S 0.8893816602 0.8755737046 -0.3349111573
| 15> C 0.0077664435 -0.0927838012 -1.5792123707
| 16> S -1.0856356229 -1.3556947204 -0.8708353207
| 17> P -2.4077629217 -0.0101116154 0.0830611824
| 18> S -2.78417214 1.6405757543 -0.9194264401
| 19> O -1.681337001 0.0979404467 1.4860977062
| 20> C -2.3039601907 0.5652870337 2.7030862483
| 21> C -2.685061515 2.0296952656 2.6318463897
| 22> O -3.6996589243 -0.8559770286 0.4609488227
| 23> C -4.8264573551 -0.9720730739 -0.4243187155
| 24> C -4.5025667083 -1.8083901478 -1.6450944805
| 25> H 1.2137899731 -2.8633708246 2.4032432384
| 26> H 0.8920678794 -1.1239224125 2.2885817478
| 27> H 0.9582179734 -2.1167996023 0.8245287973
| 28> H 3.3501658002 -2.4984708751 1.097917726
| 29> H 3.3519297983 -1.6689166966 2.6840520871
| 30> H 4.8620926197 1.5253816243 1.0629784242
| 31> H 4.9834245859 2.694631934 -0.2841625196
| 32> H 2.6063171291 3.3797646537 0.1426602655
| 33> H 2.5210082313 2.229741186 1.4818011414
| 34> H 3.6113328847 3.6216177323 1.5817539712
| 35> H 0.7290780066 -0.619925333 -2.2064958605
| 36> H -0.5935889683 0.6067294884 -2.1586310196
| 37> H -3.1762990832 -0.0596631204 2.9065910677
| 38> H -1.538919263 0.3917645894 3.4618942423
| 39> H -1.8232497959 2.6292325851 2.348115385
| 40> H -3.468048042 2.1824634547 1.8910121364
| 41> H -3.0474366066 2.3552464831 3.6019086799
| 42> H -5.5976035904 -1.4376630621 0.1908239732
| 43> H -5.1397198399 0.0344336304 -0.7202124583
| 44> H -4.0854381771 -2.7670326713 -1.3472513486
| 45> H -5.407530925 -1.9705022252 -2.2216868641
| 46> H -3.7754017735 -1.2898793728 -2.2687045788
| 47> *
| 48>
| 49>                          ****END OF INPUT****

CARTESIAN COORDINATES (ANGSTROEM)
---------------------------------
  C      1.387355   -1.968361    1.814685
  C      2.876957   -1.719125    1.702876
  O      3.176317   -0.441963    1.115960
  P      2.814825   -0.067457   -0.389766
  S      3.004415   -1.509491   -1.699181
  O      3.826809    1.109286   -0.677384
  C      4.305056    2.068001    0.296744
  C      3.185846    2.878824    0.914085
  S      0.889382    0.875574   -0.334911
  C      0.007766   -0.092784   -1.579212
  S     -1.085636   -1.355695   -0.870835
  P     -2.407763   -0.010112    0.083061
  S     -2.784172    1.640576   -0.919426
  O     -1.681337    0.097940    1.486098
  C     -2.303960    0.565287    2.703086
  C     -2.685062    2.029695    2.631846
  O     -3.699659   -0.855977    0.460949
  C     -4.826457   -0.972073   -0.424319
  C     -4.502567   -1.808390   -1.645094
  H      1.213790   -2.863371    2.403243
  H      0.892068   -1.123922    2.288582
  H      0.958218   -2.116800    0.824529
  H      3.350166   -2.498471    1.097918
  H      3.351930   -1.668917    2.684052
  H      4.862093    1.525382    1.062978
  H      4.983425    2.694632   -0.284163
  H      2.606317    3.379765    0.142660
  H      2.521008    2.229741    1.481801
  H      3.611333    3.621618    1.581754
  H      0.729078   -0.619925   -2.206496
  H     -0.593589    0.606729   -2.158631
  H     -3.176299   -0.059663    2.906591
  H     -1.538919    0.391765    3.461894
  H     -1.823250    2.629233    2.348115
  H     -3.468048    2.182463    1.891012
  H     -3.047437    2.355246    3.601909
  H     -5.597604   -1.437663    0.190824
  H     -5.139720    0.034434   -0.720212
  H     -4.085438   -2.767033   -1.347251
  H     -5.407531   -1.970502   -2.221687
  H     -3.775402   -1.289879   -2.268705

 Total Charge           Charge          ....    0
 Multiplicity           Mult            ....    1
 Number of Electrons    NEL             ....  202
 Basis Dimension        Dim             ....  334

ORBITAL ENERGIES
----------------

  NO   OCC          E(Eh)            E(eV)
   0   2.0000     -88.040956     -2395.7162
   1   2.0000     -88.036872     -2395.6051
   2   2.0000     -87.989856     -2394.3257
   3   2.0000     -87.985799     -2394.2153
   4   2.0000     -76.429221     -2079.7448
   5   2.0000     -76.425213     -2079.6358
   6   2.0000     -18.799014      -511.5472
   7   2.0000     -18.793042      -511.3847
   8   2.0000     -18.791314      -511.3377
   9   2.0000     -18.788604      -511.2639
  10   2.0000      -9.957492      -270.9571
  11   2.0000      -9.956751      -270.9370
  12   2.0000      -9.955644      -270.9068
  13   2.0000      -9.951497      -270.7940
  14   2.0000      -9.946708      -270.6637
  15   2.0000      -9.889695      -269.1123
  16   2.0000      -9.885676      -269.0029
  17   2.0000      -9.884290      -268.9652
  18   2.0000      -9.876702      -268.7587
  19   2.0000      -7.685798      -209.1412
  20   2.0000      -7.681448      -209.0228
  21   2.0000      -7.634751      -207.7521
  22   2.0000      -7.630953      -207.6488
  23   2.0000      -6.426635      -174.8776
  24   2.0000      -6.422628      -174.7686
  25   2.0000      -5.713609      -155.4752
  26   2.0000      -5.710436      -155.3889
  27   2.0000      -5.709398      -155.3606
  28   2.0000      -5.705986      -155.2678
  29   2.0000      -5.702707      -155.1785
  30   2.0000      -5.698413      -155.0617
  31   2.0000      -5.663574      -154.1137
  32   2.0000      -5.659879      -154.0131
  33   2.0000      -5.655428      -153.8920
  34   2.0000      -5.654995      -153.8802
  35   2.0000      -5.651500      -153.7851
  36   2.0000      -5.651137      -153.7753
  37   2.0000      -4.649561      -126.5210
  38   2.0000      -4.648152      -126.4827
  39   2.0000      -4.647020      -126.4518
  40   2.0000      -4.645583      -126.4127
  41   2.0000      -4.643982      -126.3692
  42   2.0000      -4.643152      -126.3466
  43   2.0000      -0.991285       -26.9742
  44   2.0000      -0.986882       -26.8544
  45   2.0000      -0.947706       -25.7884
  46   2.0000      -0.942557       -25.6483
  47   2.0000      -0.760364       -20.6906
  48   2.0000      -0.721561       -19.6347
  49   2.0000      -0.709641       -19.3103
  50   2.0000      -0.690602       -18.7922
  51   2.0000      -0.688990       -18.7484
  52   2.0000      -0.675717       -18.3872
  53   2.0000      -0.652324       -17.7506
  54   2.0000      -0.636229       -17.3127
  55   2.0000      -0.600902       -16.3514
  56   2.0000      -0.593196       -16.1417
  57   2.0000      -0.580594       -15.7988
  58   2.0000      -0.578909       -15.7529
  59   2.0000      -0.553100       -15.0506
  60   2.0000      -0.499804       -13.6004
  61   2.0000      -0.494464       -13.4550
  62   2.0000      -0.473546       -12.8858
  63   2.0000      -0.468618       -12.7517
  64   2.0000      -0.459956       -12.5160
  65   2.0000      -0.449209       -12.2236
  66   2.0000      -0.442320       -12.0361
  67   2.0000      -0.434326       -11.8186
  68   2.0000      -0.426514       -11.6060
  69   2.0000      -0.420710       -11.4481
  70   2.0000      -0.412335       -11.2202
  71   2.0000      -0.409244       -11.1361
  72   2.0000      -0.399998       -10.8845
  73   2.0000      -0.381938       -10.3931
  74   2.0000      -0.375506       -10.2180
  75   2.0000      -0.369719       -10.0606
  76   2.0000      -0.368351       -10.0233
  77   2.0000      -0.357559        -9.7297
  78   2.0000      -0.355605        -9.6765
  79   2.0000      -0.350946        -9.5497
  80   2.0000      -0.348375        -9.4798
  81   2.0000      -0.345255        -9.3949
  82   2.0000      -0.339261        -9.2317
  83   2.0000      -0.338972        -9.2239
  84   2.0000      -0.336458        -9.1555
  85   2.0000      -0.322792        -8.7836
  86   2.0000      -0.306519        -8.3408
  87   2.0000      -0.298478        -8.1220
  88   2.0000      -0.296276        -8.0621
  89   2.0000      -0.294413        -8.0114
  90   2.0000      -0.289756        -7.8847
  91   2.0000      -0.278370        -7.5748
  92   2.0000      -0.272171        -7.4061
  93   2.0000      -0.264226        -7.1900
  94   2.0000      -0.256640        -6.9835
  95   2.0000      -0.228183        -6.2092
  96   2.0000      -0.216313        -5.8862
  97   2.0000      -0.212926        -5.7940
  98   2.0000      -0.203422        -5.5354
  99   2.0000      -0.201736        -5.4895
 100   2.0000      -0.197946        -5.3864
 101   0.0000      -0.044453        -1.2096
 102   0.0000      -0.026630        -0.7247
 103   0.0000      -0.008876        -0.2415
 104   0.0000       0.000825         0.0225
 105   0.0000       0.011164         0.3038

MULLIKEN ATOMIC CHARGES
-----------------------
   0 C :   -0.334533
   1 C :    0.004422
   2 O :   -0.388440
   3 P :    0.613685
   4 S :   -0.313129
   5 O :   -0.363629
   6 C :    0.010433
   7 C :   -0.336371
   8 S :   -0.095729
   9 C :   -0.356232
  10 S :   -0.076975
  11 P :    0.621115
  12 S :   -0.330739
  13 O :   -0.359463
  14 C :   -0.004373
  15 C :   -0.312217
  16 O :   -0.379268
  17 C :   -0.005964
  18 C :   -0.315916
  19 H :    0.107552
  20 H :    0.123190
  21 H :    0.138993
  22 H :    0.111714
  23 H :    0.099638
  24 H :    0.108343
  25 H :    0.111683
  26 H :    0.133856
  27 H :    0.128710
  28 H :    0.116381
  29 H :    0.192267
  30 H :    0.195837
  31 H :    0.108432
  32 H :    0.106779
  33 H :    0.123316
  34 H :    0.128551
  35 H :    0.108713
  36 H :    0.104595
  37 H :    0.112257
  38 H :    0.118934
  39 H :    0.114550
  40 H :    0.129034
Sum of atomic charges:    0.0000000

LOEWDIN ATOMIC CHARGES
----------------------
   0 C :   -0.374896
   1 C :   -0.115737
   2 O :   -0.249889
   3 P :    0.573667
   4 S :   -0.304621
   5 O :   -0.241408
   6 C :   -0.107821
   7 C :   -0.372445
   8 S :    0.084227
   9 C :   -0.488340
  10 S :    0.104494
  11 P :    0.570511
  12 S :   -0.316177
  13 O :   -0.240167
  14 C :   -0.109643
  15 C :   -0.367471
  16 O :   -0.244619
  17 C :   -0.120364
  18 C :   -0.368851
  19 H :    0.129298
  20 H :    0.123854
  21 H :    0.113723
  22 H :    0.112482
  23 H :    0.116040
  24 H :    0.114168
  25 H :    0.123347
  26 H :    0.129939
  27 H :    0.117663
  28 H :    0.132930
  29 H :    0.127091
  30 H :    0.129160
  31 H :    0.112592
  32 H :    0.118559
  33 H :    0.129978
  34 H :    0.121827
  35 H :    0.128490
  36 H :    0.118113
  37 H :    0.110511
  38 H :    0.125478
  39 H :    0.132002
  40 H :    0.122305

  Mayer bond orders larger than 0.100000
B(  0-C ,  1-C ) :   1.1607 B(  0-C , 19-H ) :   0.9366 B(  0-C , 20-H ) :   0.9405
B(  0-C , 21-H ) :   0.9225 B(  1-C ,  2-O ) :   0.9072 B(  1-C , 22-H ) :   0.9198
B(  1-C , 23-H ) :   0.9340 B(  2-O ,  3-P ) :   1.0692 B(  3-P ,  4-S ) :   1.6277
B(  3-P ,  5-O ) :   1.1358 B(  3-P ,  8-S ) :   0.9471 B(  4-S ,  8-S ) :   0.1154
B(  4-S , 29-H ) :   0.1095 B(  5-O ,  6-C ) :   0.9036 B(  6-C ,  7-C ) :   1.1693
B(  6-C , 24-H ) :   0.9278 B(  6-C , 25-H ) :   0.9337 B(  7-C , 26-H ) :   0.9404
B(  7-C , 27-H ) :   0.9332 B(  7-C , 28-H ) :   0.9354 B(  8-S ,  9-C ) :   1.0204
B(  9-C , 10-S ) :   0.9998 B(  9-C , 29-H ) :   0.8542 B(  9-C , 30-H ) :   0.8782
B( 10-S , 11-P ) :   0.9618 B( 10-S , 12-S ) :   0.1150 B( 11-P , 12-S ) :   1.6036
B( 11-P , 13-O ) :   1.1225 B( 11-P , 16-O ) :   1.0943 B( 13-O , 14-C ) :   0.9111
B( 14-C , 15-C ) :   1.1654 B( 14-C , 31-H ) :   0.9294 B( 14-C , 32-H ) :   0.9337
B( 15-C , 33-H ) :   0.9458 B( 15-C , 34-H ) :   0.9356 B( 15-C , 35-H ) :   0.9364
B( 16-O , 17-C ) :   0.9062 B( 17-C , 18-C ) :   1.1662 B( 17-C , 36-H ) :   0.9329
B( 17-C , 37-H ) :   0.9138 B( 18-C , 38-H ) :   0.9453 B( 18-C , 39-H ) :   0.9379
B( 18-C , 40-H ) :   0.9346

Dispersion correction           -0.064682245
FINAL SINGLE POINT ENERGY     -2929.517286152394

DIPOLE MOMENT
-------------

Method             : SCF
Type of density    : Electron Density
Multiplicity       :   1
Irrep              :   0
Energy             : -2929.6379081141708411 Eh
Relativity type    :
Basis              : AO
                                X                 Y                 Z
Electronic contribution:      7.794189097      -2.993339498     -14.378423029
Nuclear contribution   :     -8.384090571       3.112924070      16.144511509
                        -----------------------------------------
Total Dipole Moment    :     -0.589901474       0.119584572       1.766088480
                        -----------------------------------------
Magnitude (a.u.)       :      1.865838347
Magnitude (Debye)      :      4.742584178

Rotational constants in cm-1:             0.012614             0.004677             0.004309
Rotational constants in MHz :           378.172734           140.216156           129.168712

                             ****ORCA TERMINATED NORMALLY****
TOTAL RUN TIME: 0 days 0 hours 0 minutes 21 seconds 235 msec
