                         Program Version 6.0.0  -   RELEASE  -
|  1> ! pbe def2-sv(p) def2/J RI DEFGRID1 loosescf d4 GCP(DFT/SV(P)) printgap
|  2> %output
|  3>     printlevel normal
|  4> end
|  5> * xyz 0 1
|  6> C 1.9096396509 -1.3031666669 -2.9336471892
|  7> C 2.3844309583 0.0748658729 -2.5268954159
|  8> O 1.8822837818 0.456069323 -1.2309140829
|  9> P 2.389512144 -0.2363648371 0.1013926392
| 10> S 4.2722685031 -0.7709660561 0.1465315375
| 11> O 1.3588318357 -1.4451869288 0.2663093375
| 12> C 1.6236758384 -2.5358186498 1.1653070746
| 13> C 1.5029554116 -2.1142755033 2.6159267262
| 14> S 1.8101469441 1.252875883 1.4818116762
| 15> C 0.1290281111 1.6288960627 0.9106908348
| 16> S -1.0668027849 0.3081693411 1.2860844162
| 17> P -2.2399378538 0.5418515096 -0.4754223344
| 18> S -1.2913279048 0.7127962389 -2.1757570208
| 19> O -3.1302985841 1.8203086904 -0.2150055674
| 20> C -4.0738724866 1.9433259973 0.882187894
| 21> C -3.5268144449 2.861974783 1.9570081362
| 22> O -3.3005022155 -0.6390921765 -0.3739104568
| 23> C -3.0653577216 -1.9392481659 -0.9445292974
| 24> C -1.9159300418 -2.659781536 -0.2712835008
| 25> H 0.8235226313 -1.342126375 -2.8987692987
| 26> H 2.2442224188 -1.5125019986 -3.944591141
| 27> H 2.3203373825 -2.0527595754 -2.2590304791
| 28> H 1.9922084722 0.8451217848 -3.1927376146
| 29> H 3.4778304354 0.1196489989 -2.497929832
| 30> H 0.8793349619 -3.2875589072 0.900025435
| 31> H 2.6298050078 -2.9148455441 0.9578729928
| 32> H 0.5346097488 -1.6536303893 2.7975101879
| 33> H 1.615007264 -2.9856242526 3.2527800753
| 34> H 2.2850519646 -1.3954324219 2.8597927909
| 35> H 0.1396325226 1.792605709 -0.1676301404
| 36> H -0.1510387148 2.5321455163 1.4476258471
| 37> H -4.9698487551 2.3635147265 0.4226719683
| 38> H -4.2946061123 0.9504986165 1.2771427931
| 39> H -2.6808437741 2.4043155495 2.4636007834
| 40> H -3.212406767 3.8042722252 1.516115354
| 41> H -4.3083666514 3.0546190981 2.6852649779
| 42> H -4.0120583134 -2.4614198994 -0.7980825114
| 43> H -2.8704436022 -1.8156650111 -2.0143775947
| 44> H -1.8458702641 -3.6685350929 -0.6661098512
| 45> H -0.9823898482 -2.135452553 -0.4724201361
| 46> H -2.0733655689 -2.7004366684 0.8038827128
| 47> *
| 48>
| 49>                          ****END OF INPUT****

CARTESIAN COORDINATES (ANGSTROEM)
---------------------------------
  C      1.909640   -1.303167   -2.933647
  C      2.384431    0.074866   -2.526895
  O      1.882284    0.456069   -1.230914
  P      2.389512   -0.236365    0.101393
  S      4.272269   -0.770966    0.146532
  O      1.358832   -1.445187    0.266309
  C      1.623676   -2.535819    1.165307
  C      1.502955   -2.114276    2.615927
  S      1.810147    1.252876    1.481812
  C      0.129028    1.628896    0.910691
  S     -1.066803    0.308169    1.286084
  P     -2.239938    0.541852   -0.475422
  S     -1.291328    0.712796   -2.175757
  O     -3.130299    1.820309   -0.215006
  C     -4.073872    1.943326    0.882188
  C     -3.526814    2.861975    1.957008
  O     -3.300502   -0.639092   -0.373910
  C     -3.065358   -1.939248   -0.944529
  C     -1.915930   -2.659782   -0.271284
  H      0.823523   -1.342126   -2.898769
  H      2.244222   -1.512502   -3.944591
  H      2.320337   -2.052760   -2.259030
  H      1.992208    0.845122   -3.192738
  H      3.477830    0.119649   -2.497930
  H      0.879335   -3.287559    0.900025
  H      2.629805   -2.914846    0.957873
  H      0.534610   -1.653630    2.797510
  H      1.615007   -2.985624    3.252780
  H      2.285052   -1.395432    2.859793
  H      0.139633    1.792606   -0.167630
  H     -0.151039    2.532146    1.447626
  H     -4.969849    2.363515    0.422672
  H     -4.294606    0.950499    1.277143
  H     -2.680844    2.404316    2.463601
  H     -3.212407    3.804272    1.516115
  H     -4.308367    3.054619    2.685265
  H     -4.012058   -2.461420   -0.798083
  H     -2.870444   -1.815665   -2.014378
  H     -1.845870   -3.668535   -0.666110
  H     -0.982390   -2.135453   -0.472420
  H     -2.073366   -2.700437    0.803883

 Total Charge           Charge          ....    0
 Multiplicity           Mult            ....    1
 Number of Electrons    NEL             ....  202
 Basis Dimension        Dim             ....  334

ORBITAL ENERGIES
----------------

  NO   OCC          E(Eh)            E(eV)
   0   2.0000     -88.046046     -2395.8547
   1   2.0000     -88.044916     -2395.8240
   2   2.0000     -87.990401     -2394.3405
   3   2.0000     -87.986894     -2394.2451
   4   2.0000     -76.431292     -2079.8012
   5   2.0000     -76.424140     -2079.6066
   6   2.0000     -18.801562      -511.6165
   7   2.0000     -18.794249      -511.4175
   8   2.0000     -18.788909      -511.2722
   9   2.0000     -18.785953      -511.1918
  10   2.0000      -9.961136      -271.0563
  11   2.0000      -9.959795      -271.0198
  12   2.0000      -9.957897      -270.9682
  13   2.0000      -9.949553      -270.7411
  14   2.0000      -9.945226      -270.6234
  15   2.0000      -9.892377      -269.1853
  16   2.0000      -9.889100      -269.0961
  17   2.0000      -9.881409      -268.8868
  18   2.0000      -9.875282      -268.7201
  19   2.0000      -7.690621      -209.2724
  20   2.0000      -7.690223      -209.2616
  21   2.0000      -7.635533      -207.7734
  22   2.0000      -7.632004      -207.6774
  23   2.0000      -6.428754      -174.9353
  24   2.0000      -6.422016      -174.7519
  25   2.0000      -5.718558      -155.6099
  26   2.0000      -5.718484      -155.6079
  27   2.0000      -5.715319      -155.5217
  28   2.0000      -5.714459      -155.4983
  29   2.0000      -5.707458      -155.3078
  30   2.0000      -5.706988      -155.2950
  31   2.0000      -5.664514      -154.1393
  32   2.0000      -5.660926      -154.0416
  33   2.0000      -5.656261      -153.9147
  34   2.0000      -5.655449      -153.8926
  35   2.0000      -5.652754      -153.8193
  36   2.0000      -5.652060      -153.8004
  37   2.0000      -4.651778      -126.5813
  38   2.0000      -4.650365      -126.5429
  39   2.0000      -4.648974      -126.5050
  40   2.0000      -4.644325      -126.3785
  41   2.0000      -4.643962      -126.3686
  42   2.0000      -4.642523      -126.3295
  43   2.0000      -0.993306       -27.0292
  44   2.0000      -0.982778       -26.7427
  45   2.0000      -0.949981       -25.8503
  46   2.0000      -0.942412       -25.6443
  47   2.0000      -0.763777       -20.7834
  48   2.0000      -0.724623       -19.7180
  49   2.0000      -0.709410       -19.3040
  50   2.0000      -0.695352       -18.9215
  51   2.0000      -0.684255       -18.6195
  52   2.0000      -0.676344       -18.4042
  53   2.0000      -0.655096       -17.8261
  54   2.0000      -0.639800       -17.4098
  55   2.0000      -0.600344       -16.3362
  56   2.0000      -0.594267       -16.1708
  57   2.0000      -0.582021       -15.8376
  58   2.0000      -0.567466       -15.4415
  59   2.0000      -0.561404       -15.2766
  60   2.0000      -0.507857       -13.8195
  61   2.0000      -0.489464       -13.3190
  62   2.0000      -0.478091       -13.0095
  63   2.0000      -0.469229       -12.7684
  64   2.0000      -0.456248       -12.4151
  65   2.0000      -0.450015       -12.2455
  66   2.0000      -0.448801       -12.2125
  67   2.0000      -0.438517       -11.9327
  68   2.0000      -0.434548       -11.8246
  69   2.0000      -0.418271       -11.3817
  70   2.0000      -0.410833       -11.1793
  71   2.0000      -0.401899       -10.9362
  72   2.0000      -0.394261       -10.7284
  73   2.0000      -0.387296       -10.5389
  74   2.0000      -0.384460       -10.4617
  75   2.0000      -0.374517       -10.1911
  76   2.0000      -0.366562        -9.9747
  77   2.0000      -0.362930        -9.8758
  78   2.0000      -0.356163        -9.6917
  79   2.0000      -0.353055        -9.6071
  80   2.0000      -0.349459        -9.5093
  81   2.0000      -0.345787        -9.4093
  82   2.0000      -0.341154        -9.2833
  83   2.0000      -0.335878        -9.1397
  84   2.0000      -0.327569        -8.9136
  85   2.0000      -0.320479        -8.7207
  86   2.0000      -0.317578        -8.6417
  87   2.0000      -0.306922        -8.3518
  88   2.0000      -0.298802        -8.1308
  89   2.0000      -0.293209        -7.9786
  90   2.0000      -0.282343        -7.6829
  91   2.0000      -0.274891        -7.4802
  92   2.0000      -0.269708        -7.3391
  93   2.0000      -0.266710        -7.2575
  94   2.0000      -0.264432        -7.1956
  95   2.0000      -0.228102        -6.2070
  96   2.0000      -0.221939        -6.0393
  97   2.0000      -0.212474        -5.7817
  98   2.0000      -0.209224        -5.6933
  99   2.0000      -0.202581        -5.5125
 100   2.0000      -0.199431        -5.4268
 101   0.0000      -0.043387        -1.1806
 102   0.0000      -0.030250        -0.8231
 103   0.0000      -0.023601        -0.6422
 104   0.0000       0.001918         0.0522
 105   0.0000       0.012563         0.3419

MULLIKEN ATOMIC CHARGES
-----------------------
   0 C :   -0.320189
   1 C :    0.003983
   2 O :   -0.371256
   3 P :    0.624045
   4 S :   -0.322990
   5 O :   -0.367614
   6 C :   -0.011786
   7 C :   -0.319033
   8 S :   -0.078441
   9 C :   -0.356735
  10 S :   -0.105259
  11 P :    0.594113
  12 S :   -0.297045
  13 O :   -0.362886
  14 C :   -0.009917
  15 C :   -0.300213
  16 O :   -0.382532
  17 C :    0.014316
  18 C :   -0.380997
  19 H :    0.132240
  20 H :    0.107709
  21 H :    0.116141
  22 H :    0.107219
  23 H :    0.110711
  24 H :    0.107424
  25 H :    0.112562
  26 H :    0.124571
  27 H :    0.110288
  28 H :    0.124189
  29 H :    0.209165
  30 H :    0.182025
  31 H :    0.113127
  32 H :    0.108529
  33 H :    0.123586
  34 H :    0.120898
  35 H :    0.111915
  36 H :    0.105352
  37 H :    0.112560
  38 H :    0.115985
  39 H :    0.177404
  40 H :    0.116839
Sum of atomic charges:    0.0000000

LOEWDIN ATOMIC CHARGES
----------------------
   0 C :   -0.368607
   1 C :   -0.114666
   2 O :   -0.236005
   3 P :    0.571291
   4 S :   -0.318701
   5 O :   -0.240467
   6 C :   -0.122563
   7 C :   -0.370298
   8 S :    0.096350
   9 C :   -0.478050
  10 S :    0.075237
  11 P :    0.571699
  12 S :   -0.293729
  13 O :   -0.244250
  14 C :   -0.111735
  15 C :   -0.362523
  16 O :   -0.247189
  17 C :   -0.113675
  18 C :   -0.380333
  19 H :    0.123366
  20 H :    0.128887
  21 H :    0.119898
  22 H :    0.120026
  23 H :    0.110160
  24 H :    0.115568
  25 H :    0.108892
  26 H :    0.118428
  27 H :    0.129621
  28 H :    0.120741
  29 H :    0.128941
  30 H :    0.133356
  31 H :    0.123210
  32 H :    0.111192
  33 H :    0.119460
  34 H :    0.128788
  35 H :    0.131234
  36 H :    0.119034
  37 H :    0.113523
  38 H :    0.132069
  39 H :    0.129194
  40 H :    0.122625

  Mayer bond orders larger than 0.100000
B(  0-C ,  1-C ) :   1.1677 B(  0-C , 19-H ) :   0.9360 B(  0-C , 20-H ) :   0.9379
B(  0-C , 21-H ) :   0.9375 B(  1-C ,  2-O ) :   0.8983 B(  1-C , 22-H ) :   0.9314
B(  1-C , 23-H ) :   0.9191 B(  2-O ,  3-P ) :   1.1208 B(  3-P ,  4-S ) :   1.6399
B(  3-P ,  5-O ) :   1.0735 B(  3-P ,  8-S ) :   0.9621 B(  5-O ,  6-C ) :   0.9061
B(  6-C ,  7-C ) :   1.1658 B(  6-C , 24-H ) :   0.9271 B(  6-C , 25-H ) :   0.9129
B(  7-C , 26-H ) :   0.9397 B(  7-C , 27-H ) :   0.9383 B(  7-C , 28-H ) :   0.9358
B(  8-S ,  9-C ) :   1.0057 B(  9-C , 10-S ) :   0.9795 B(  9-C , 29-H ) :   0.8562
B(  9-C , 30-H ) :   0.9073 B( 10-S , 11-P ) :   0.9516 B( 10-S , 12-S ) :   0.1114
B( 11-P , 12-S ) :   1.6372 B( 11-P , 13-O ) :   1.1278 B( 11-P , 16-O ) :   1.0917
B( 13-O , 14-C ) :   0.8918 B( 14-C , 15-C ) :   1.1644 B( 14-C , 31-H ) :   0.9350
B( 14-C , 32-H ) :   0.9183 B( 15-C , 33-H ) :   0.9336 B( 15-C , 34-H ) :   0.9461
B( 15-C , 35-H ) :   0.9388 B( 16-O , 17-C ) :   0.9029 B( 17-C , 18-C ) :   1.1632
B( 17-C , 36-H ) :   0.9329 B( 17-C , 37-H ) :   0.9188 B( 18-C , 38-H ) :   0.9358
B( 18-C , 39-H ) :   0.9128 B( 18-C , 40-H ) :   0.9423

Dispersion correction           -0.067111382
FINAL SINGLE POINT ENERGY     -2929.518329099187

DIPOLE MOMENT
-------------

Method             : SCF
Type of density    : Electron Density
Multiplicity       :   1
Irrep              :   0
Energy             : -2929.6387554061475385 Eh
Relativity type    :
Basis              : AO
                                X                 Y                 Z
Electronic contribution:     10.189349684      11.025526934      -2.053030162
Nuclear contribution   :    -11.978009200     -11.627258096       2.609537576
                        -----------------------------------------
Total Dipole Moment    :     -1.788659516      -0.601731162       0.556507414
                        -----------------------------------------
Magnitude (a.u.)       :      1.967506990
Magnitude (Debye)      :      5.001005333

Rotational constants in cm-1:             0.011814             0.005456             0.005115
Rotational constants in MHz :           354.180220           163.557224           153.337330

                             ****ORCA TERMINATED NORMALLY****
TOTAL RUN TIME: 0 days 0 hours 0 minutes 22 seconds 69 msec
