                         Program Version 6.0.0  -   RELEASE  -
|  1> ! pbe def2-sv(p) def2/J RI DEFGRID1 loosescf d4 GCP(DFT/SV(P)) printgap
|  2> %output
|  3>     printlevel normal
|  4> end
|  5> * xyz 0 1
|  6> C 3.0779920478 -1.4474357388 -2.447136547
|  7> C 2.1508106998 -0.2534125666 -2.5073130725
|  8> O 2.2998142592 0.6268497393 -1.3705669639
|  9> P 2.1570774517 0.2345885203 0.1463342252
| 10> S 1.732444471 1.7559711035 1.3042967059
| 11> O 3.6074681208 -0.3718062377 0.4269798888
| 12> C 4.1739687117 -0.4953963155 1.7393762931
| 13> C 3.4190277659 -1.4818759852 2.6082461232
| 14> S 0.8463160341 -1.4430415194 0.2428828338
| 15> C -0.2782149523 -0.8913827854 1.5645047668
| 16> S -2.0400943384 -1.0680988482 1.1731260687
| 17> P -2.3661396334 0.3408735396 -0.3843456623
| 18> S -0.8213289683 1.2312041076 -1.2216507906
| 19> O -3.490129001 1.3082261459 0.1756551781
| 20> C -3.204213304 2.5407954932 0.8546835185
| 21> C -2.4421335874 2.3320695498 2.1489012133
| 22> O -3.3158213297 -0.4340660954 -1.3841261576
| 23> C -2.8087908036 -1.2232212958 -2.4759804434
| 24> C -2.175686257 -2.5191548847 -2.0079341408
| 25> H 4.107401797 -1.1165334803 -2.337349375
| 26> H 2.8190115289 -2.0826523588 -1.6014590937
| 27> H 2.9769812761 -2.0202398788 -3.3636757295
| 28> H 1.1034118952 -0.5636323335 -2.5584955066
| 29> H 2.3761867028 0.3968831855 -3.3538959762
| 30> H 5.1959628185 -0.826676893 1.5493478641
| 31> H 4.1859994937 0.494930383 2.2060790838
| 32> H 3.2934389786 -2.4276545121 2.0873776893
| 33> H 3.9747100117 -1.6469101956 3.5257343617
| 34> H 2.4397075005 -1.0775400119 2.8598291303
| 35> H -0.0348911585 0.1486952073 1.7992219154
| 36> H -0.1313417422 -1.5348423212 2.4286064557
| 37> H -2.6385179566 3.1900360985 0.1784209608
| 38> H -4.1911005948 2.9690509545 1.0364377932
| 39> H -2.9246998583 1.5686238691 2.7543425908
| 40> H -1.4157782273 2.0305897527 1.9372209404
| 41> H -2.412076344 3.2650028172 2.7029668738
| 42> H -3.6900118034 -1.4089193248 -3.0918932536
| 43> H -2.0892483946 -0.6164335608 -3.0362757089
| 44> H -2.8612431977 -3.0582722844 -1.3594193659
| 45> H -1.939738673 -3.1323755311 -2.8717460827
| 46> H -1.2569777661 -2.3204287321 -1.4571956371
| 47> *
| 48>
| 49>                          ****END OF INPUT****

CARTESIAN COORDINATES (ANGSTROEM)
---------------------------------
  C      3.077992   -1.447436   -2.447137
  C      2.150811   -0.253413   -2.507313
  O      2.299814    0.626850   -1.370567
  P      2.157077    0.234589    0.146334
  S      1.732444    1.755971    1.304297
  O      3.607468   -0.371806    0.426980
  C      4.173969   -0.495396    1.739376
  C      3.419028   -1.481876    2.608246
  S      0.846316   -1.443042    0.242883
  C     -0.278215   -0.891383    1.564505
  S     -2.040094   -1.068099    1.173126
  P     -2.366140    0.340874   -0.384346
  S     -0.821329    1.231204   -1.221651
  O     -3.490129    1.308226    0.175655
  C     -3.204213    2.540795    0.854684
  C     -2.442134    2.332070    2.148901
  O     -3.315821   -0.434066   -1.384126
  C     -2.808791   -1.223221   -2.475980
  C     -2.175686   -2.519155   -2.007934
  H      4.107402   -1.116533   -2.337349
  H      2.819012   -2.082652   -1.601459
  H      2.976981   -2.020240   -3.363676
  H      1.103412   -0.563632   -2.558496
  H      2.376187    0.396883   -3.353896
  H      5.195963   -0.826677    1.549348
  H      4.185999    0.494930    2.206079
  H      3.293439   -2.427655    2.087378
  H      3.974710   -1.646910    3.525734
  H      2.439708   -1.077540    2.859829
  H     -0.034891    0.148695    1.799222
  H     -0.131342   -1.534842    2.428606
  H     -2.638518    3.190036    0.178421
  H     -4.191101    2.969051    1.036438
  H     -2.924700    1.568624    2.754343
  H     -1.415778    2.030590    1.937221
  H     -2.412076    3.265003    2.702967
  H     -3.690012   -1.408919   -3.091893
  H     -2.089248   -0.616434   -3.036276
  H     -2.861243   -3.058272   -1.359419
  H     -1.939739   -3.132376   -2.871746
  H     -1.256978   -2.320429   -1.457196

 Total Charge           Charge          ....    0
 Multiplicity           Mult            ....    1
 Number of Electrons    NEL             ....  202
 Basis Dimension        Dim             ....  334

ORBITAL ENERGIES
----------------

  NO   OCC          E(Eh)            E(eV)
   0   2.0000     -88.045386     -2395.8367
   1   2.0000     -88.045157     -2395.8305
   2   2.0000     -87.987281     -2394.2557
   3   2.0000     -87.984818     -2394.1886
   4   2.0000     -76.426297     -2079.6653
   5   2.0000     -76.424412     -2079.6140
   6   2.0000     -18.790485      -511.3151
   7   2.0000     -18.785361      -511.1757
   8   2.0000     -18.785182      -511.1708
   9   2.0000     -18.783224      -511.1175
  10   2.0000      -9.958441      -270.9830
  11   2.0000      -9.954242      -270.8687
  12   2.0000      -9.951057      -270.7820
  13   2.0000      -9.950306      -270.7616
  14   2.0000      -9.948632      -270.7160
  15   2.0000      -9.888939      -269.0917
  16   2.0000      -9.885851      -269.0077
  17   2.0000      -9.882172      -268.9076
  18   2.0000      -9.879450      -268.8335
  19   2.0000      -7.690135      -209.2592
  20   2.0000      -7.689424      -209.2399
  21   2.0000      -7.631599      -207.6664
  22   2.0000      -7.629878      -207.6195
  23   2.0000      -6.423206      -174.7843
  24   2.0000      -6.421718      -174.7438
  25   2.0000      -5.718066      -155.5965
  26   2.0000      -5.717293      -155.5754
  27   2.0000      -5.714485      -155.4990
  28   2.0000      -5.714062      -155.4875
  29   2.0000      -5.707197      -155.3007
  30   2.0000      -5.706411      -155.2793
  31   2.0000      -5.660518      -154.0305
  32   2.0000      -5.658816      -153.9842
  33   2.0000      -5.652160      -153.8031
  34   2.0000      -5.651954      -153.7975
  35   2.0000      -5.650749      -153.7647
  36   2.0000      -5.649714      -153.7365
  37   2.0000      -4.645850      -126.4200
  38   2.0000      -4.644942      -126.3953
  39   2.0000      -4.643917      -126.3674
  40   2.0000      -4.643733      -126.3624
  41   2.0000      -4.643732      -126.3624
  42   2.0000      -4.642256      -126.3222
  43   2.0000      -0.984382       -26.7864
  44   2.0000      -0.984000       -26.7760
  45   2.0000      -0.941286       -25.6137
  46   2.0000      -0.940238       -25.5852
  47   2.0000      -0.761453       -20.7202
  48   2.0000      -0.718842       -19.5607
  49   2.0000      -0.710427       -19.3317
  50   2.0000      -0.689303       -18.7569
  51   2.0000      -0.680138       -18.5075
  52   2.0000      -0.679541       -18.4913
  53   2.0000      -0.652265       -17.7490
  54   2.0000      -0.636034       -17.3074
  55   2.0000      -0.603025       -16.4091
  56   2.0000      -0.595293       -16.1988
  57   2.0000      -0.574438       -15.6312
  58   2.0000      -0.567759       -15.4495
  59   2.0000      -0.563651       -15.3377
  60   2.0000      -0.494263       -13.4496
  61   2.0000      -0.490168       -13.3382
  62   2.0000      -0.469289       -12.7700
  63   2.0000      -0.462137       -12.5754
  64   2.0000      -0.454168       -12.3585
  65   2.0000      -0.450845       -12.2681
  66   2.0000      -0.440143       -11.9769
  67   2.0000      -0.436871       -11.8879
  68   2.0000      -0.427244       -11.6259
  69   2.0000      -0.418112       -11.3774
  70   2.0000      -0.414582       -11.2814
  71   2.0000      -0.398768       -10.8510
  72   2.0000      -0.396061       -10.7774
  73   2.0000      -0.390523       -10.6267
  74   2.0000      -0.380429       -10.3520
  75   2.0000      -0.374593       -10.1932
  76   2.0000      -0.367691       -10.0054
  77   2.0000      -0.357665        -9.7326
  78   2.0000      -0.353694        -9.6245
  79   2.0000      -0.349826        -9.5192
  80   2.0000      -0.346639        -9.4325
  81   2.0000      -0.346017        -9.4156
  82   2.0000      -0.342593        -9.3224
  83   2.0000      -0.336912        -9.1678
  84   2.0000      -0.332854        -9.0574
  85   2.0000      -0.311508        -8.4766
  86   2.0000      -0.309800        -8.4301
  87   2.0000      -0.297211        -8.0875
  88   2.0000      -0.292639        -7.9631
  89   2.0000      -0.289787        -7.8855
  90   2.0000      -0.284714        -7.7475
  91   2.0000      -0.273113        -7.4318
  92   2.0000      -0.266062        -7.2399
  93   2.0000      -0.260513        -7.0889
  94   2.0000      -0.258248        -7.0273
  95   2.0000      -0.235174        -6.3994
  96   2.0000      -0.219377        -5.9696
  97   2.0000      -0.215216        -5.8563
  98   2.0000      -0.204390        -5.5617
  99   2.0000      -0.195713        -5.3256
 100   2.0000      -0.187878        -5.1124
 101   0.0000      -0.046826        -1.2742
 102   0.0000      -0.036611        -0.9962
 103   0.0000      -0.018579        -0.5056
 104   0.0000      -0.000815        -0.0222
 105   0.0000       0.014398         0.3918

MULLIKEN ATOMIC CHARGES
-----------------------
   0 C :   -0.313825
   1 C :   -0.011967
   2 O :   -0.355154
   3 P :    0.610105
   4 S :   -0.300996
   5 O :   -0.373179
   6 C :    0.003082
   7 C :   -0.320830
   8 S :   -0.120353
   9 C :   -0.349475
  10 S :   -0.106002
  11 P :    0.594626
  12 S :   -0.313201
  13 O :   -0.358523
  14 C :    0.008605
  15 C :   -0.348004
  16 O :   -0.357307
  17 C :   -0.000344
  18 C :   -0.332412
  19 H :    0.124513
  20 H :    0.125171
  21 H :    0.113981
  22 H :    0.122330
  23 H :    0.111933
  24 H :    0.103051
  25 H :    0.111433
  26 H :    0.118988
  27 H :    0.112414
  28 H :    0.118860
  29 H :    0.215703
  30 H :    0.183931
  31 H :    0.114140
  32 H :    0.105506
  33 H :    0.119096
  34 H :    0.147098
  35 H :    0.113080
  36 H :    0.106451
  37 H :    0.107947
  38 H :    0.118141
  39 H :    0.107694
  40 H :    0.143690
Sum of atomic charges:   -0.0000000

LOEWDIN ATOMIC CHARGES
----------------------
   0 C :   -0.366864
   1 C :   -0.116459
   2 O :   -0.226434
   3 P :    0.578885
   4 S :   -0.296281
   5 O :   -0.248976
   6 C :   -0.118338
   7 C :   -0.370636
   8 S :    0.076097
   9 C :   -0.479755
  10 S :    0.083081
  11 P :    0.564001
  12 S :   -0.296141
  13 O :   -0.237915
  14 C :   -0.113618
  15 C :   -0.374455
  16 O :   -0.237429
  17 C :   -0.115926
  18 C :   -0.374039
  19 H :    0.130246
  20 H :    0.115733
  21 H :    0.131916
  22 H :    0.106793
  23 H :    0.124402
  24 H :    0.118013
  25 H :    0.110932
  26 H :    0.123714
  27 H :    0.130328
  28 H :    0.118192
  29 H :    0.121233
  30 H :    0.135630
  31 H :    0.113632
  32 H :    0.119449
  33 H :    0.123447
  34 H :    0.122382
  35 H :    0.132150
  36 H :    0.119556
  37 H :    0.107115
  38 H :    0.125849
  39 H :    0.128512
  40 H :    0.111977

  Mayer bond orders larger than 0.100000
B(  0-C ,  1-C ) :   1.1646 B(  0-C , 19-H ) :   0.9419 B(  0-C , 20-H ) :   0.9367
B(  0-C , 21-H ) :   0.9358 B(  1-C ,  2-O ) :   0.8989 B(  1-C , 22-H ) :   0.9128
B(  1-C , 23-H ) :   0.9338 B(  2-O ,  3-P ) :   1.1501 B(  3-P ,  4-S ) :   1.6040
B(  3-P ,  5-O ) :   1.0796 B(  3-P ,  8-S ) :   0.9348 B(  4-S ,  8-S ) :   0.1123
B(  4-S , 29-H ) :   0.1112 B(  5-O ,  6-C ) :   0.9211 B(  6-C ,  7-C ) :   1.1624
B(  6-C , 24-H ) :   0.9342 B(  6-C , 25-H ) :   0.9162 B(  7-C , 26-H ) :   0.9425
B(  7-C , 27-H ) :   0.9375 B(  7-C , 28-H ) :   0.9363 B(  8-S ,  9-C ) :   1.0029
B(  9-C , 10-S ) :   1.0041 B(  9-C , 29-H ) :   0.8377 B(  9-C , 30-H ) :   0.9014
B( 10-S , 11-P ) :   0.9400 B( 10-S , 12-S ) :   0.1231 B( 11-P , 12-S ) :   1.6151
B( 11-P , 13-O ) :   1.1258 B( 11-P , 16-O ) :   1.1268 B( 13-O , 14-C ) :   0.9170
B( 14-C , 15-C ) :   1.1603 B( 14-C , 31-H ) :   0.9213 B( 14-C , 32-H ) :   0.9350
B( 15-C , 33-H ) :   0.9422 B( 15-C , 34-H ) :   0.9215 B( 15-C , 35-H ) :   0.9354
B( 16-O , 17-C ) :   0.9163 B( 17-C , 18-C ) :   1.1655 B( 17-C , 36-H ) :   0.9344
B( 17-C , 37-H ) :   0.9141 B( 18-C , 38-H ) :   0.9427 B( 18-C , 39-H ) :   0.9377
B( 18-C , 40-H ) :   0.9253

Dispersion correction           -0.068630254
FINAL SINGLE POINT ENERGY     -2929.514798815041

DIPOLE MOMENT
-------------

Method             : SCF
Type of density    : Electron Density
Multiplicity       :   1
Irrep              :   0
Energy             : -2929.6312154313113751 Eh
Relativity type    :
Basis              : AO
                                X                 Y                 Z
Electronic contribution:     -6.360505328       8.507785746      -0.201194526
Nuclear contribution   :      6.643034943      -9.676515521       0.169476720
                        -----------------------------------------
Total Dipole Moment    :      0.282529615      -1.168729775      -0.031717806
                        -----------------------------------------
Magnitude (a.u.)       :      1.202812658
Magnitude (Debye)      :      3.057306808

Rotational constants in cm-1:             0.011506             0.005834             0.005111
Rotational constants in MHz :           344.948328           174.887090           153.216894

                             ****ORCA TERMINATED NORMALLY****
TOTAL RUN TIME: 0 days 0 hours 0 minutes 21 seconds 691 msec
