                         Program Version 6.0.0  -   RELEASE  -
|  1> ! r2scan-3c def2/J RI DEFGRID2 scfconv6 printgap
|  2> %output
|  3>     printlevel normal
|  4> end
|  5> * xyz 0 1
|  6> C 2.9851015294 -1.8376990933 -0.2774930565
|  7> C 1.6792875323 -1.1639112712 -0.0846677508
|  8> C 1.5065318103 0.180288874 -0.0371358862
|  9> C 0.208415662 0.789988275 0.1553867881
| 10> O 0.0756220554 1.9787208803 0.411623267
| 11> N -0.8773206857 -0.0818625262 0.02317856
| 12> C -0.7114454168 -1.4335132591 0.2559971447
| 13> O -1.5946080554 -2.2012438395 0.5913732834
| 14> N 0.5629937199 -1.9215240623 0.0889939276
| 15> C -2.2537240995 0.4864157024 -0.1456582099
| 16> C -2.1948031106 1.6921763736 -1.0917565931
| 17> C -3.1848758392 -0.5327223504 -0.8108187465
| 18> C -2.7856485201 0.8878671534 1.2289188947
| 19> Cl 2.8447801986 1.2727810429 -0.136880415
| 20> H 3.7099900106 -1.4411811208 0.4292664393
| 21> H 3.3616810973 -1.6180584204 -1.2744133879
| 22> H 2.8955977063 -2.9110842349 -0.153065074
| 23> H 0.6520962373 -2.9267892554 0.2017897185
| 24> H -3.2084666371 2.0115445024 -1.3117629978
| 25> H -1.662238479 2.5296198133 -0.654368316
| 26> H -1.7055170803 1.4157989378 -2.023203717
| 27> H -4.1070454964 -0.02775176 -1.0811973807
| 28> H -3.426311618 -1.3579143349 -0.1506307049
| 29> H -2.7295774472 -0.9308209423 -1.7146006495
| 30> H -3.7819262644 1.3070637599 1.1302560734
| 31> H -2.8314886737 0.0158318124 1.8775663564
| 32> H -2.1328178319 1.632639744 1.6783476179
| 33> *
| 34>
| 35>                          ****END OF INPUT****

CARTESIAN COORDINATES (ANGSTROEM)
---------------------------------
  C      2.985102   -1.837699   -0.277493
  C      1.679288   -1.163911   -0.084668
  C      1.506532    0.180289   -0.037136
  C      0.208416    0.789988    0.155387
  O      0.075622    1.978721    0.411623
  N     -0.877321   -0.081863    0.023179
  C     -0.711445   -1.433513    0.255997
  O     -1.594608   -2.201244    0.591373
  N      0.562994   -1.921524    0.088994
  C     -2.253724    0.486416   -0.145658
  C     -2.194803    1.692176   -1.091757
  C     -3.184876   -0.532722   -0.810819
  C     -2.785649    0.887867    1.228919
  Cl     2.844780    1.272781   -0.136880
  H      3.709990   -1.441181    0.429266
  H      3.361681   -1.618058   -1.274413
  H      2.895598   -2.911084   -0.153065
  H      0.652096   -2.926789    0.201790
  H     -3.208467    2.011545   -1.311763
  H     -1.662238    2.529620   -0.654368
  H     -1.705517    1.415799   -2.023204
  H     -4.107045   -0.027752   -1.081197
  H     -3.426312   -1.357914   -0.150631
  H     -2.729577   -0.930821   -1.714601
  H     -3.781926    1.307064    1.130256
  H     -2.831489    0.015832    1.877566
  H     -2.132818    1.632640    1.678348

 Total Charge           Charge          ....    0
 Multiplicity           Mult            ....    1
 Number of Electrons    NEL             ....  114
 Basis Dimension        Dim             ....  359

ORBITAL ENERGIES
----------------

  NO   OCC          E(Eh)            E(eV)
   0   2.0000    -101.225996     -2754.4994
   1   2.0000     -18.932315      -515.1745
   2   2.0000     -18.927155      -515.0341
   3   2.0000     -14.237032      -387.4093
   4   2.0000     -14.225502      -387.0956
   5   2.0000     -10.182240      -277.0728
   6   2.0000     -10.150489      -276.2089
   7   2.0000     -10.125181      -275.5202
   8   2.0000     -10.099670      -274.8260
   9   2.0000     -10.095340      -274.7082
  10   2.0000     -10.068654      -273.9820
  11   2.0000     -10.016758      -272.5698
  12   2.0000     -10.016328      -272.5581
  13   2.0000     -10.014655      -272.5126
  14   2.0000      -9.381277      -255.2775
  15   2.0000      -7.127939      -193.9611
  16   2.0000      -7.117444      -193.6755
  17   2.0000      -7.116843      -193.6591
  18   2.0000      -1.052443       -28.6384
  19   2.0000      -1.013145       -27.5691
  20   2.0000      -0.956609       -26.0307
  21   2.0000      -0.916719       -24.9452
  22   2.0000      -0.847821       -23.0704
  23   2.0000      -0.782703       -21.2984
  24   2.0000      -0.764898       -20.8139
  25   2.0000      -0.706382       -19.2216
  26   2.0000      -0.660614       -17.9762
  27   2.0000      -0.659244       -17.9389
  28   2.0000      -0.635125       -17.2826
  29   2.0000      -0.624807       -17.0019
  30   2.0000      -0.566627       -15.4187
  31   2.0000      -0.547690       -14.9034
  32   2.0000      -0.514641       -14.0041
  33   2.0000      -0.472173       -12.8485
  34   2.0000      -0.451345       -12.2817
  35   2.0000      -0.436811       -11.8862
  36   2.0000      -0.429295       -11.6817
  37   2.0000      -0.423168       -11.5150
  38   2.0000      -0.417577       -11.3628
  39   2.0000      -0.407200       -11.0805
  40   2.0000      -0.403371       -10.9763
  41   2.0000      -0.398498       -10.8437
  42   2.0000      -0.395621       -10.7654
  43   2.0000      -0.378992       -10.3129
  44   2.0000      -0.364895        -9.9293
  45   2.0000      -0.357711        -9.7338
  46   2.0000      -0.350696        -9.5429
  47   2.0000      -0.334371        -9.0987
  48   2.0000      -0.330237        -8.9862
  49   2.0000      -0.311581        -8.4785
  50   2.0000      -0.307966        -8.3802
  51   2.0000      -0.305077        -8.3016
  52   2.0000      -0.290649        -7.9090
  53   2.0000      -0.260671        -7.0932
  54   2.0000      -0.248231        -6.7547
  55   2.0000      -0.230915        -6.2835
  56   2.0000      -0.214680        -5.8417
  57   0.0000      -0.074409        -2.0248
  58   0.0000      -0.023472        -0.6387
  59   0.0000       0.002614         0.0711
  60   0.0000       0.041909         1.1404
  61   0.0000       0.055790         1.5181

MULLIKEN ATOMIC CHARGES
-----------------------
   0 C :   -0.567837
   1 C :    0.127296
   2 C :   -0.023886
   3 C :    0.156329
   4 O :   -0.419429
   5 N :    0.191654
   6 C :    0.187121
   7 O :   -0.437863
   8 N :   -0.020835
   9 C :    0.106939
  10 C :   -0.508324
  11 C :   -0.472222
  12 C :   -0.567443
  13 Cl:   -0.095115
  14 H :    0.187327
  15 H :    0.189770
  16 H :    0.145993
  17 H :    0.274159
  18 H :    0.156280
  19 H :    0.204338
  20 H :    0.160912
  21 H :    0.154381
  22 H :    0.197347
  23 H :    0.158553
  24 H :    0.156168
  25 H :    0.172544
  26 H :    0.185844
Sum of atomic charges:    0.0000000

LOEWDIN ATOMIC CHARGES
----------------------
   0 C :   -0.348043
   1 C :    0.153578
   2 C :   -0.132455
   3 C :    0.362368
   4 O :   -0.480567
   5 N :   -0.616888
   6 C :    0.462341
   7 O :   -0.425292
   8 N :   -0.521874
   9 C :    0.059133
  10 C :   -0.354476
  11 C :   -0.354179
  12 C :   -0.355861
  13 Cl:    0.186496
  14 H :    0.183963
  15 H :    0.184565
  16 H :    0.163976
  17 H :    0.298127
  18 H :    0.159232
  19 H :    0.193450
  20 H :    0.164611
  21 H :    0.158901
  22 H :    0.189594
  23 H :    0.164823
  24 H :    0.160663
  25 H :    0.168302
  26 H :    0.175509

  Mayer bond orders larger than 0.100000
B(  0-C ,  1-C ) :   0.8730 B(  0-C , 14-H ) :   0.9524 B(  0-C , 15-H ) :   0.9458
B(  0-C , 16-H ) :   0.9935 B(  1-C ,  2-C ) :   1.4714 B(  1-C ,  8-N ) :   1.1504
B(  2-C ,  3-C ) :   0.9709 B(  2-C , 13-Cl) :   1.1260 B(  3-C ,  4-O ) :   1.9030
B(  3-C ,  5-N ) :   1.0676 B(  5-N ,  6-C ) :   1.1326 B(  5-N ,  9-C ) :   0.8354
B(  6-C ,  7-O ) :   1.8985 B(  6-C ,  8-N ) :   1.0315 B(  8-N , 17-H ) :   0.9029
B(  9-C , 10-C ) :   0.9078 B(  9-C , 11-C ) :   0.8967 B(  9-C , 12-C ) :   0.9347
B( 10-C , 18-H ) :   0.9702 B( 10-C , 19-H ) :   0.9525 B( 10-C , 20-H ) :   0.9774
B( 11-C , 21-H ) :   0.9670 B( 11-C , 22-H ) :   0.9578 B( 11-C , 23-H ) :   0.9784
B( 12-C , 24-H ) :   0.9753 B( 12-C , 25-H ) :   0.9636 B( 12-C , 26-H ) :   0.9650

Dispersion correction           -0.011586072
FINAL SINGLE POINT ENERGY     -1070.814902073981

DIPOLE MOMENT
-------------

Method             : SCF
Type of density    : Electron Density
Multiplicity       :   1
Irrep              :   0
Energy             : -1070.8258512587801761 Eh
Relativity type    :
Basis              : AO
                                X                 Y                 Z
Electronic contribution:     18.541888204       2.563051949       2.157431036
Nuclear contribution   :    -17.883202561      -3.881460950      -2.658493376
                        -----------------------------------------
Total Dipole Moment    :      0.658685643      -1.318409001      -0.501062340
                        -----------------------------------------
Magnitude (a.u.)       :      1.556641429
Magnitude (Debye)      :      3.956668072

Rotational constants in cm-1:             0.033580             0.016267             0.012068
Rotational constants in MHz :          1006.709628           487.677437           361.794634

                             ****ORCA TERMINATED NORMALLY****
TOTAL RUN TIME: 0 days 0 hours 1 minutes 4 seconds 600 msec
