                         Program Version 6.0.0  -   RELEASE  -
|  1> ! r2scan-3c def2/J RI DEFGRID2 scfconv6 printgap
|  2> %output
|  3>     printlevel normal
|  4> end
|  5> %cpcm
|  6>     smd true
|  7>     smdsolvent "water"
|  8> end
|  9> * xyz 0 1
| 10> C 2.9851015294 -1.8376990933 -0.2774930565
| 11> C 1.6792875323 -1.1639112712 -0.0846677508
| 12> C 1.5065318103 0.180288874 -0.0371358862
| 13> C 0.208415662 0.789988275 0.1553867881
| 14> O 0.0756220554 1.9787208803 0.411623267
| 15> N -0.8773206857 -0.0818625262 0.02317856
| 16> C -0.7114454168 -1.4335132591 0.2559971447
| 17> O -1.5946080554 -2.2012438395 0.5913732834
| 18> N 0.5629937199 -1.9215240623 0.0889939276
| 19> C -2.2537240995 0.4864157024 -0.1456582099
| 20> C -2.1948031106 1.6921763736 -1.0917565931
| 21> C -3.1848758392 -0.5327223504 -0.8108187465
| 22> C -2.7856485201 0.8878671534 1.2289188947
| 23> Cl 2.8447801986 1.2727810429 -0.136880415
| 24> H 3.7099900106 -1.4411811208 0.4292664393
| 25> H 3.3616810973 -1.6180584204 -1.2744133879
| 26> H 2.8955977063 -2.9110842349 -0.153065074
| 27> H 0.6520962373 -2.9267892554 0.2017897185
| 28> H -3.2084666371 2.0115445024 -1.3117629978
| 29> H -1.662238479 2.5296198133 -0.654368316
| 30> H -1.7055170803 1.4157989378 -2.023203717
| 31> H -4.1070454964 -0.02775176 -1.0811973807
| 32> H -3.426311618 -1.3579143349 -0.1506307049
| 33> H -2.7295774472 -0.9308209423 -1.7146006495
| 34> H -3.7819262644 1.3070637599 1.1302560734
| 35> H -2.8314886737 0.0158318124 1.8775663564
| 36> H -2.1328178319 1.632639744 1.6783476179
| 37> *
| 38>
| 39>                          ****END OF INPUT****

CARTESIAN COORDINATES (ANGSTROEM)
---------------------------------
  C      2.985102   -1.837699   -0.277493
  C      1.679288   -1.163911   -0.084668
  C      1.506532    0.180289   -0.037136
  C      0.208416    0.789988    0.155387
  O      0.075622    1.978721    0.411623
  N     -0.877321   -0.081863    0.023179
  C     -0.711445   -1.433513    0.255997
  O     -1.594608   -2.201244    0.591373
  N      0.562994   -1.921524    0.088994
  C     -2.253724    0.486416   -0.145658
  C     -2.194803    1.692176   -1.091757
  C     -3.184876   -0.532722   -0.810819
  C     -2.785649    0.887867    1.228919
  Cl     2.844780    1.272781   -0.136880
  H      3.709990   -1.441181    0.429266
  H      3.361681   -1.618058   -1.274413
  H      2.895598   -2.911084   -0.153065
  H      0.652096   -2.926789    0.201790
  H     -3.208467    2.011545   -1.311763
  H     -1.662238    2.529620   -0.654368
  H     -1.705517    1.415799   -2.023204
  H     -4.107045   -0.027752   -1.081197
  H     -3.426312   -1.357914   -0.150631
  H     -2.729577   -0.930821   -1.714601
  H     -3.781926    1.307064    1.130256
  H     -2.831489    0.015832    1.877566
  H     -2.132818    1.632640    1.678348

 Total Charge           Charge          ....    0
 Multiplicity           Mult            ....    1
 Number of Electrons    NEL             ....  114
 Basis Dimension        Dim             ....  359

ORBITAL ENERGIES
----------------

  NO   OCC          E(Eh)            E(eV)
   0   2.0000    -101.227974     -2754.5532
   1   2.0000     -18.937883      -515.3260
   2   2.0000     -18.936360      -515.2845
   3   2.0000     -14.226583      -387.1250
   4   2.0000     -14.225554      -387.0970
   5   2.0000     -10.184036      -277.1217
   6   2.0000     -10.156464      -276.3714
   7   2.0000     -10.117586      -275.3135
   8   2.0000     -10.094630      -274.6888
   9   2.0000     -10.093077      -274.6466
  10   2.0000     -10.039974      -273.2016
  11   2.0000     -10.014434      -272.5066
  12   2.0000     -10.011747      -272.4335
  13   2.0000     -10.011159      -272.4175
  14   2.0000      -9.383472      -255.3373
  15   2.0000      -7.129962      -194.0161
  16   2.0000      -7.119666      -193.7360
  17   2.0000      -7.119140      -193.7216
  18   2.0000      -1.054266       -28.6880
  19   2.0000      -1.022395       -27.8208
  20   2.0000      -0.951793       -25.8996
  21   2.0000      -0.915706       -24.9176
  22   2.0000      -0.847141       -23.0519
  23   2.0000      -0.778288       -21.1783
  24   2.0000      -0.753264       -20.4974
  25   2.0000      -0.695514       -18.9259
  26   2.0000      -0.657848       -17.9009
  27   2.0000      -0.656871       -17.8744
  28   2.0000      -0.628525       -17.1030
  29   2.0000      -0.616852       -16.7854
  30   2.0000      -0.562189       -15.2979
  31   2.0000      -0.543929       -14.8011
  32   2.0000      -0.504036       -13.7155
  33   2.0000      -0.468117       -12.7381
  34   2.0000      -0.444711       -12.1012
  35   2.0000      -0.440422       -11.9845
  36   2.0000      -0.426242       -11.5986
  37   2.0000      -0.418925       -11.3995
  38   2.0000      -0.415376       -11.3030
  39   2.0000      -0.400144       -10.8885
  40   2.0000      -0.398908       -10.8548
  41   2.0000      -0.393483       -10.7072
  42   2.0000      -0.386542       -10.5184
  43   2.0000      -0.372461       -10.1352
  44   2.0000      -0.359359        -9.7786
  45   2.0000      -0.353691        -9.6244
  46   2.0000      -0.345418        -9.3993
  47   2.0000      -0.332292        -9.0421
  48   2.0000      -0.326610        -8.8875
  49   2.0000      -0.311298        -8.4709
  50   2.0000      -0.307359        -8.3637
  51   2.0000      -0.305283        -8.3072
  52   2.0000      -0.293753        -7.9934
  53   2.0000      -0.265716        -7.2305
  54   2.0000      -0.253658        -6.9024
  55   2.0000      -0.241251        -6.5648
  56   2.0000      -0.212586        -5.7848
  57   0.0000      -0.069916        -1.9025
  58   0.0000      -0.025026        -0.6810
  59   0.0000       0.005779         0.1573
  60   0.0000       0.057457         1.5635
  61   0.0000       0.058702         1.5974

MULLIKEN ATOMIC CHARGES
-----------------------
   0 C :   -0.612962
   1 C :    0.184449
   2 C :   -0.038807
   3 C :    0.162450
   4 O :   -0.499036
   5 N :    0.204871
   6 C :    0.219432
   7 O :   -0.509829
   8 N :   -0.033966
   9 C :    0.138661
  10 C :   -0.552183
  11 C :   -0.519803
  12 C :   -0.586401
  13 Cl:   -0.128686
  14 H :    0.197699
  15 H :    0.209646
  16 H :    0.190788
  17 H :    0.334934
  18 H :    0.180815
  19 H :    0.189312
  20 H :    0.184578
  21 H :    0.178210
  22 H :    0.186463
  23 H :    0.183738
  24 H :    0.180710
  25 H :    0.176583
  26 H :    0.178331
Sum of atomic charges:    0.0000000

LOEWDIN ATOMIC CHARGES
----------------------
   0 C :   -0.344369
   1 C :    0.182018
   2 C :   -0.143093
   3 C :    0.364366
   4 O :   -0.549729
   5 N :   -0.606172
   6 C :    0.470108
   7 O :   -0.476116
   8 N :   -0.483407
   9 C :    0.061789
  10 C :   -0.359071
  11 C :   -0.358102
  12 C :   -0.359593
  13 Cl:    0.165537
  14 H :    0.188271
  15 H :    0.192529
  16 H :    0.182342
  17 H :    0.317165
  18 H :    0.167475
  19 H :    0.186165
  20 H :    0.171033
  21 H :    0.167011
  22 H :    0.183844
  23 H :    0.171441
  24 H :    0.168433
  25 H :    0.168650
  26 H :    0.171476

  Mayer bond orders larger than 0.100000
B(  0-C ,  1-C ) :   0.8440 B(  0-C , 14-H ) :   0.9497 B(  0-C , 15-H ) :   0.9367
B(  0-C , 16-H ) :   0.9832 B(  1-C ,  2-C ) :   1.4415 B(  1-C ,  8-N ) :   1.1639
B(  2-C ,  3-C ) :   0.9888 B(  2-C , 13-Cl) :   1.0572 B(  3-C ,  4-O ) :   1.8561
B(  3-C ,  5-N ) :   1.0860 B(  5-N ,  6-C ) :   1.1425 B(  5-N ,  9-C ) :   0.8285
B(  6-C ,  7-O ) :   1.8394 B(  6-C ,  8-N ) :   1.0529 B(  8-N , 17-H ) :   0.8783
B(  9-C , 10-C ) :   0.8882 B(  9-C , 11-C ) :   0.8770 B(  9-C , 12-C ) :   0.9369
B( 10-C , 18-H ) :   0.9652 B( 10-C , 19-H ) :   0.9559 B( 10-C , 20-H ) :   0.9773
B( 11-C , 21-H ) :   0.9622 B( 11-C , 22-H ) :   0.9595 B( 11-C , 23-H ) :   0.9791
B( 12-C , 24-H ) :   0.9722 B( 12-C , 25-H ) :   0.9602 B( 12-C , 26-H ) :   0.9640

Dispersion correction           -0.011586072
FINAL SINGLE POINT ENERGY     -1070.830887788401

DIPOLE MOMENT
-------------

Method             : SCF
Type of density    : Electron Density
Multiplicity       :   1
Irrep              :   0
Energy             : -1070.8418369732009978 Eh
Relativity type    :
Basis              : AO
                                X                 Y                 Z
Electronic contribution:     18.812214902       1.779092768       1.859481462
Nuclear contribution   :    -17.883202561      -3.881460950      -2.658493376
                        -----------------------------------------
Total Dipole Moment    :      0.929012341      -2.102368182      -0.799011914
                        -----------------------------------------
Magnitude (a.u.)       :      2.433400079
Magnitude (Debye)      :      6.185211453

Rotational constants in cm-1:             0.033580             0.016267             0.012068
Rotational constants in MHz :          1006.709628           487.677437           361.794634

                             ****ORCA TERMINATED NORMALLY****
TOTAL RUN TIME: 0 days 0 hours 1 minutes 28 seconds 677 msec
