                         Program Version 6.0.0  -   RELEASE  -
|  1> ! pbe def2-sv(p) def2/J RI DEFGRID1 loosescf d4 GCP(DFT/SV(P)) printgap
|  2> %output
|  3>     printlevel normal
|  4> end
|  5> * xyz 0 1
|  6> C 2.3488767314 0.24365973 -2.9050015859
|  7> C 1.9119456799 -0.9450210749 -2.0734552825
|  8> O 2.6401985201 -1.0236459275 -0.835792968
|  9> P 2.2847463354 -0.2126875583 0.4835060001
| 10> S 2.3994527402 1.7388079658 0.4787762911
| 11> O 3.3265513917 -0.7924190074 1.512002548
| 12> C 3.5138557242 -2.207737695 1.7599178854
| 13> C 4.6851680039 -2.7425248679 0.9616345462
| 14> S 0.4017607824 -1.0609345393 1.0542491685
| 15> C -0.2802614192 0.3801560177 1.9273851094
| 16> S -2.0834515911 0.4698043675 1.8035324372
| 17> P -2.2527656786 0.5027698837 -0.2952377559
| 18> S -0.859620482 1.388067456 -1.3645523414
| 19> O -3.719856206 1.0566898522 -0.5689530078
| 20> C -4.0021513431 2.4540338508 -0.7534933809
| 21> C -3.7724928503 3.2538444256 0.5126949189
| 22> O -2.4540684707 -1.042660369 -0.555339727
| 23> C -2.3260327815 -1.655392387 -1.858803185
| 24> C -1.7068375365 -3.0267554136 -1.6777564584
| 25> H 2.0629906177 1.1720268352 -2.4135909514
| 26> H 3.4270513954 0.2340736345 -3.038770816
| 27> H 1.8619748036 0.2013346735 -3.8739446954
| 28> H 2.1382229203 -1.8874390779 -2.5758390434
| 29> H 0.8414662162 -0.8889317784 -1.8589473039
| 30> H 3.7024194671 -2.2728128725 2.8329585358
| 31> H 2.588111722 -2.7358618595 1.5141450499
| 32> H 4.4874217088 -2.6569610298 -0.1032354668
| 33> H 5.5825936704 -2.1768109785 1.1963355461
| 34> H 4.8416320257 -3.7860822779 1.2162802767
| 35> H 0.1724125869 1.2789797935 1.4968110901
| 36> H -0.0582629691 0.3007565337 2.9889543932
| 37> H -3.3712213258 2.829435392 -1.5657687081
| 38> H -5.0494197517 2.4715486452 -1.0579361587
| 39> H -4.1113160949 4.2737298611 0.3612636985
| 40> H -4.3154884105 2.810353901 1.3436195059
| 41> H -2.7104458413 3.2692275811 0.7565101197
| 42> H -3.3278793866 -1.7205189051 -2.2885378994
| 43> H -1.7048967655 -1.0111218721 -2.4915515395
| 44> H -0.7275680107 -2.938155641 -1.2139199986
| 45> H -2.3382613883 -3.6343954267 -1.0366235889
| 46> H -1.6072127564 -3.5043316272 -2.646895489
| 47> *
| 48>
| 49>                          ****END OF INPUT****

CARTESIAN COORDINATES (ANGSTROEM)
---------------------------------
  C      2.348877    0.243660   -2.905002
  C      1.911946   -0.945021   -2.073455
  O      2.640199   -1.023646   -0.835793
  P      2.284746   -0.212688    0.483506
  S      2.399453    1.738808    0.478776
  O      3.326551   -0.792419    1.512003
  C      3.513856   -2.207738    1.759918
  C      4.685168   -2.742525    0.961635
  S      0.401761   -1.060935    1.054249
  C     -0.280261    0.380156    1.927385
  S     -2.083452    0.469804    1.803532
  P     -2.252766    0.502770   -0.295238
  S     -0.859620    1.388067   -1.364552
  O     -3.719856    1.056690   -0.568953
  C     -4.002151    2.454034   -0.753493
  C     -3.772493    3.253844    0.512695
  O     -2.454068   -1.042660   -0.555340
  C     -2.326033   -1.655392   -1.858803
  C     -1.706838   -3.026755   -1.677756
  H      2.062991    1.172027   -2.413591
  H      3.427051    0.234074   -3.038771
  H      1.861975    0.201335   -3.873945
  H      2.138223   -1.887439   -2.575839
  H      0.841466   -0.888932   -1.858947
  H      3.702419   -2.272813    2.832959
  H      2.588112   -2.735862    1.514145
  H      4.487422   -2.656961   -0.103235
  H      5.582594   -2.176811    1.196336
  H      4.841632   -3.786082    1.216280
  H      0.172413    1.278980    1.496811
  H     -0.058263    0.300757    2.988954
  H     -3.371221    2.829435   -1.565769
  H     -5.049420    2.471549   -1.057936
  H     -4.111316    4.273730    0.361264
  H     -4.315488    2.810354    1.343620
  H     -2.710446    3.269228    0.756510
  H     -3.327879   -1.720519   -2.288538
  H     -1.704897   -1.011122   -2.491552
  H     -0.727568   -2.938156   -1.213920
  H     -2.338261   -3.634395   -1.036624
  H     -1.607213   -3.504332   -2.646895

 Total Charge           Charge          ....    0
 Multiplicity           Mult            ....    1
 Number of Electrons    NEL             ....  202
 Basis Dimension        Dim             ....  334

ORBITAL ENERGIES
----------------

  NO   OCC          E(Eh)            E(eV)
   0   2.0000     -88.046286     -2395.8613
   1   2.0000     -88.040688     -2395.7089
   2   2.0000     -87.986978     -2394.2474
   3   2.0000     -87.981064     -2394.0865
   4   2.0000     -76.426722     -2079.6768
   5   2.0000     -76.423534     -2079.5901
   6   2.0000     -18.794867      -511.4343
   7   2.0000     -18.791440      -511.3411
   8   2.0000     -18.788914      -511.2724
   9   2.0000     -18.788169      -511.2521
  10   2.0000      -9.954908      -270.8868
  11   2.0000      -9.953487      -270.8481
  12   2.0000      -9.952735      -270.8277
  13   2.0000      -9.951520      -270.7946
  14   2.0000      -9.950823      -270.7757
  15   2.0000      -9.887961      -269.0651
  16   2.0000      -9.885435      -268.9963
  17   2.0000      -9.883400      -268.9410
  18   2.0000      -9.875148      -268.7164
  19   2.0000      -7.691758      -209.3034
  20   2.0000      -7.685010      -209.1197
  21   2.0000      -7.631683      -207.6686
  22   2.0000      -7.626334      -207.5231
  23   2.0000      -6.424194      -174.8112
  24   2.0000      -6.420974      -174.7236
  25   2.0000      -5.719751      -155.6423
  26   2.0000      -5.716241      -155.5468
  27   2.0000      -5.712816      -155.4536
  28   2.0000      -5.709606      -155.3663
  29   2.0000      -5.708567      -155.3380
  30   2.0000      -5.702089      -155.1617
  31   2.0000      -5.660440      -154.0284
  32   2.0000      -5.655376      -153.8906
  33   2.0000      -5.652470      -153.8115
  34   2.0000      -5.651853      -153.7947
  35   2.0000      -5.646899      -153.6599
  36   2.0000      -5.646344      -153.6448
  37   2.0000      -4.646636      -126.4414
  38   2.0000      -4.645975      -126.4234
  39   2.0000      -4.644747      -126.3900
  40   2.0000      -4.643790      -126.3639
  41   2.0000      -4.642791      -126.3368
  42   2.0000      -4.641184      -126.2930
  43   2.0000      -0.987464       -26.8703
  44   2.0000      -0.985755       -26.8238
  45   2.0000      -0.944340       -25.6968
  46   2.0000      -0.943775       -25.6814
  47   2.0000      -0.763173       -20.7670
  48   2.0000      -0.721859       -19.6428
  49   2.0000      -0.710565       -19.3355
  50   2.0000      -0.687624       -18.7112
  51   2.0000      -0.686922       -18.6921
  52   2.0000      -0.674187       -18.3456
  53   2.0000      -0.650312       -17.6959
  54   2.0000      -0.635866       -17.3028
  55   2.0000      -0.598824       -16.2948
  56   2.0000      -0.585746       -15.9390
  57   2.0000      -0.573630       -15.6093
  58   2.0000      -0.571975       -15.5642
  59   2.0000      -0.559109       -15.2141
  60   2.0000      -0.505691       -13.7606
  61   2.0000      -0.500638       -13.6231
  62   2.0000      -0.477276       -12.9873
  63   2.0000      -0.472170       -12.8484
  64   2.0000      -0.447960       -12.1896
  65   2.0000      -0.444396       -12.0926
  66   2.0000      -0.441633       -12.0174
  67   2.0000      -0.435134       -11.8406
  68   2.0000      -0.428192       -11.6517
  69   2.0000      -0.421962       -11.4822
  70   2.0000      -0.411539       -11.1986
  71   2.0000      -0.398151       -10.8342
  72   2.0000      -0.391259       -10.6467
  73   2.0000      -0.387182       -10.5358
  74   2.0000      -0.382820       -10.4171
  75   2.0000      -0.370876       -10.0920
  76   2.0000      -0.358444        -9.7538
  77   2.0000      -0.357272        -9.7219
  78   2.0000      -0.355897        -9.6844
  79   2.0000      -0.352065        -9.5802
  80   2.0000      -0.347939        -9.4679
  81   2.0000      -0.342537        -9.3209
  82   2.0000      -0.340043        -9.2530
  83   2.0000      -0.338130        -9.2010
  84   2.0000      -0.329858        -8.9759
  85   2.0000      -0.317580        -8.6418
  86   2.0000      -0.313455        -8.5295
  87   2.0000      -0.296519        -8.0687
  88   2.0000      -0.293101        -7.9757
  89   2.0000      -0.288841        -7.8598
  90   2.0000      -0.285828        -7.7778
  91   2.0000      -0.276381        -7.5207
  92   2.0000      -0.273896        -7.4531
  93   2.0000      -0.264031        -7.1846
  94   2.0000      -0.259517        -7.0618
  95   2.0000      -0.235163        -6.3991
  96   2.0000      -0.223533        -6.0826
  97   2.0000      -0.211094        -5.7442
  98   2.0000      -0.200332        -5.4513
  99   2.0000      -0.196540        -5.3481
 100   2.0000      -0.189552        -5.1580
 101   0.0000      -0.045377        -1.2348
 102   0.0000      -0.031961        -0.8697
 103   0.0000      -0.011051        -0.3007
 104   0.0000       0.007719         0.2100
 105   0.0000       0.017837         0.4854

MULLIKEN ATOMIC CHARGES
-----------------------
   0 C :   -0.295071
   1 C :   -0.041255
   2 O :   -0.381224
   3 P :    0.607714
   4 S :   -0.289917
   5 O :   -0.355187
   6 C :   -0.009900
   7 C :   -0.288657
   8 S :   -0.125580
   9 C :   -0.345606
  10 S :   -0.082486
  11 P :    0.608652
  12 S :   -0.324130
  13 O :   -0.373419
  14 C :   -0.002189
  15 C :   -0.320084
  16 O :   -0.364756
  17 C :   -0.007486
  18 C :   -0.291970
  19 H :    0.142652
  20 H :    0.111622
  21 H :    0.105021
  22 H :    0.099023
  23 H :    0.134007
  24 H :    0.108722
  25 H :    0.098590
  26 H :    0.121551
  27 H :    0.120352
  28 H :    0.107856
  29 H :    0.207877
  30 H :    0.181694
  31 H :    0.111270
  32 H :    0.104461
  33 H :    0.114132
  34 H :    0.118132
  35 H :    0.131115
  36 H :    0.105436
  37 H :    0.106059
  38 H :    0.127592
  39 H :    0.117738
  40 H :    0.107651
Sum of atomic charges:    0.0000000

LOEWDIN ATOMIC CHARGES
----------------------
   0 C :   -0.363036
   1 C :   -0.121915
   2 O :   -0.242003
   3 P :    0.566130
   4 S :   -0.282182
   5 O :   -0.238580
   6 C :   -0.114912
   7 C :   -0.359169
   8 S :    0.058445
   9 C :   -0.479738
  10 S :    0.097744
  11 P :    0.565973
  12 S :   -0.305918
  13 O :   -0.247950
  14 C :   -0.119553
  15 C :   -0.369528
  16 O :   -0.242667
  17 C :   -0.115125
  18 C :   -0.353786
  19 H :    0.126240
  20 H :    0.125022
  21 H :    0.128537
  22 H :    0.114214
  23 H :    0.103882
  24 H :    0.120772
  25 H :    0.101702
  26 H :    0.126106
  27 H :    0.129184
  28 H :    0.128333
  29 H :    0.122694
  30 H :    0.135256
  31 H :    0.110485
  32 H :    0.118442
  33 H :    0.131542
  34 H :    0.124134
  35 H :    0.122723
  36 H :    0.115311
  37 H :    0.103496
  38 H :    0.122978
  39 H :    0.128377
  40 H :    0.128341

  Mayer bond orders larger than 0.100000
B(  0-C ,  1-C ) :   1.1734 B(  0-C , 19-H ) :   0.9292 B(  0-C , 20-H ) :   0.9465
B(  0-C , 21-H ) :   0.9384 B(  1-C ,  2-O ) :   0.9021 B(  1-C , 22-H ) :   0.9348
B(  1-C , 23-H ) :   0.8962 B(  2-O ,  3-P ) :   1.0862 B(  3-P ,  4-S ) :   1.6632
B(  3-P ,  5-O ) :   1.1347 B(  3-P ,  8-S ) :   0.9368 B(  4-S ,  8-S ) :   0.1198
B(  4-S , 29-H ) :   0.1064 B(  5-O ,  6-C ) :   0.8976 B(  6-C ,  7-C ) :   1.1634
B(  6-C , 24-H ) :   0.9365 B(  6-C , 25-H ) :   0.9134 B(  7-C , 26-H ) :   0.9424
B(  7-C , 27-H ) :   0.9469 B(  7-C , 28-H ) :   0.9401 B(  8-S ,  9-C ) :   0.9911
B(  9-C , 10-S ) :   1.0031 B(  9-C , 29-H ) :   0.8469 B(  9-C , 30-H ) :   0.9105
B( 10-S , 11-P ) :   0.9619 B( 10-S , 12-S ) :   0.1129 B( 11-P , 12-S ) :   1.6005
B( 11-P , 13-O ) :   1.1115 B( 11-P , 16-O ) :   1.1292 B( 13-O , 14-C ) :   0.9098
B( 14-C , 15-C ) :   1.1643 B( 14-C , 31-H ) :   0.9156 B( 14-C , 32-H ) :   0.9338
B( 15-C , 33-H ) :   0.9380 B( 15-C , 34-H ) :   0.9447 B( 15-C , 35-H ) :   0.9356
B( 16-O , 17-C ) :   0.8998 B( 17-C , 18-C ) :   1.1646 B( 17-C , 36-H ) :   0.9327
B( 17-C , 37-H ) :   0.9006 B( 18-C , 38-H ) :   0.9449 B( 18-C , 39-H ) :   0.9485
B( 18-C , 40-H ) :   0.9415

Dispersion correction           -0.065590630
FINAL SINGLE POINT ENERGY     -2929.519484052826

DIPOLE MOMENT
-------------

Method             : SCF
Type of density    : Electron Density
Multiplicity       :   1
Irrep              :   0
Energy             : -2929.6379592991488607 Eh
Relativity type    :
Basis              : AO
                                X                 Y                 Z
Electronic contribution:     -2.831942415       8.792970750      11.529664355
Nuclear contribution   :      2.209369079     -10.089958485     -11.920324510
                        -----------------------------------------
Total Dipole Moment    :     -0.622573335      -1.296987734      -0.390660155
                        -----------------------------------------
Magnitude (a.u.)       :      1.490768291
Magnitude (Debye)      :      3.789231861

Rotational constants in cm-1:             0.012296             0.005045             0.004832
Rotational constants in MHz :           368.636648           151.232950           144.862043

                             ****ORCA TERMINATED NORMALLY****
TOTAL RUN TIME: 0 days 0 hours 0 minutes 21 seconds 117 msec
