                         Program Version 6.0.0  -   RELEASE  -
|  1> ! pbe def2-sv(p) def2/J RI DEFGRID1 loosescf d4 GCP(DFT/SV(P)) printgap
|  2> %output
|  3>     printlevel normal
|  4> end
|  5> * xyz 0 1
|  6> C 2.1576050935 -1.1978472969 -0.1020708583
|  7> C 1.3993621171 0.1027772766 0.0063700171
|  8> O 1.9707768012 1.1977310881 0.0550417436
|  9> N 0.0682712957 0.0091466028 0.0483807225
| 10> C -0.712530273 -1.2142973981 -0.0289696191
| 11> C -2.1471983659 -0.7552489551 0.2308214997
| 12> C -2.1536996621 0.6719943447 -0.3135186059
| 13> C -0.7833789467 1.1885399992 0.1088137302
| 14> H 1.8381728591 -1.7482781285 -0.9829667069
| 15> H 1.9784489513 -1.8097117177 0.778415526
| 16> H 3.2184888696 -0.9769036071 -0.1748819683
| 17> H -0.6167633637 -1.6539318658 -1.0274853806
| 18> H -0.370109673 -1.9425721197 0.7077642228
| 19> H -2.8761503234 -1.3964593044 -0.2574192462
| 20> H -2.3478322935 -0.7438949767 1.3017932535
| 21> H -2.230745342 0.6615167987 -1.4005314096
| 22> H -2.9607860454 1.2757116991 0.0919902867
| 23> H -0.3772847259 1.966029515 -0.5411162068
| 24> H -0.7964481638 1.5774794829 1.1328144422
| 25> *
| 26>
| 27>                          ****END OF INPUT****

CARTESIAN COORDINATES (ANGSTROEM)
---------------------------------
  C      2.157605   -1.197847   -0.102071
  C      1.399362    0.102777    0.006370
  O      1.970777    1.197731    0.055042
  N      0.068271    0.009147    0.048381
  C     -0.712530   -1.214297   -0.028970
  C     -2.147198   -0.755249    0.230821
  C     -2.153700    0.671994   -0.313519
  C     -0.783379    1.188540    0.108814
  H      1.838173   -1.748278   -0.982967
  H      1.978449   -1.809712    0.778416
  H      3.218489   -0.976904   -0.174882
  H     -0.616763   -1.653932   -1.027485
  H     -0.370110   -1.942572    0.707764
  H     -2.876150   -1.396459   -0.257419
  H     -2.347832   -0.743895    1.301793
  H     -2.230745    0.661517   -1.400531
  H     -2.960786    1.275712    0.091990
  H     -0.377285    1.966030   -0.541116
  H     -0.796448    1.577479    1.132814

 Total Charge           Charge          ....    0
 Multiplicity           Mult            ....    1
 Number of Electrons    NEL             ....   62
 Basis Dimension        Dim             ....  134

ORBITAL ENERGIES
----------------

  NO   OCC          E(Eh)            E(eV)
   0   2.0000     -18.696186      -508.7491
   1   2.0000     -14.015753      -381.3880
   2   2.0000      -9.968497      -271.2566
   3   2.0000      -9.932556      -270.2786
   4   2.0000      -9.918987      -269.9094
   5   2.0000      -9.904345      -269.5109
   6   2.0000      -9.900102      -269.3955
   7   2.0000      -9.883769      -268.9510
   8   2.0000      -0.919949       -25.0331
   9   2.0000      -0.852501       -23.1977
  10   2.0000      -0.727403       -19.7936
  11   2.0000      -0.678614       -18.4660
  12   2.0000      -0.649563       -17.6755
  13   2.0000      -0.577212       -15.7067
  14   2.0000      -0.539880       -14.6909
  15   2.0000      -0.498309       -13.5597
  16   2.0000      -0.465343       -12.6626
  17   2.0000      -0.424674       -11.5560
  18   2.0000      -0.405005       -11.0207
  19   2.0000      -0.391857       -10.6630
  20   2.0000      -0.386968       -10.5299
  21   2.0000      -0.377179       -10.2636
  22   2.0000      -0.360503        -9.8098
  23   2.0000      -0.345392        -9.3986
  24   2.0000      -0.321820        -8.7572
  25   2.0000      -0.319152        -8.6846
  26   2.0000      -0.316163        -8.6032
  27   2.0000      -0.306884        -8.3507
  28   2.0000      -0.294171        -8.0048
  29   2.0000      -0.196004        -5.3336
  30   2.0000      -0.182382        -4.9629
  31   0.0000       0.003770         0.1026
  32   0.0000       0.018816         0.5120
  33   0.0000       0.049428         1.3450
  34   0.0000       0.052375         1.4252
  35   0.0000       0.079125         2.1531

MULLIKEN ATOMIC CHARGES
-----------------------
   0 C :   -0.260214
   1 C :    0.033275
   2 O :   -0.253000
   3 N :   -0.254402
   4 C :   -0.027813
   5 C :   -0.184189
   6 C :   -0.191745
   7 C :   -0.012716
   8 H :    0.113235
   9 H :    0.116953
  10 H :    0.120981
  11 H :    0.093132
  12 H :    0.097601
  13 H :    0.102021
  14 H :    0.098763
  15 H :    0.098082
  16 H :    0.103097
  17 H :    0.110962
  18 H :    0.095975
Sum of atomic charges:    0.0000000

LOEWDIN ATOMIC CHARGES
----------------------
   0 C :   -0.361520
   1 C :    0.008582
   2 O :   -0.222984
   3 N :   -0.050350
   4 C :   -0.144804
   5 C :   -0.228718
   6 C :   -0.231567
   7 C :   -0.140347
   8 H :    0.132270
   9 H :    0.134310
  10 H :    0.138287
  11 H :    0.111746
  12 H :    0.117071
  13 H :    0.124652
  14 H :    0.124340
  15 H :    0.123097
  16 H :    0.125538
  17 H :    0.125466
  18 H :    0.114931

  Mayer bond orders larger than 0.100000
B(  0-C ,  1-C ) :   1.0844 B(  0-C ,  8-H ) :   0.9252 B(  0-C ,  9-H ) :   0.9268
B(  0-C , 10-H ) :   0.9353 B(  1-C ,  2-O ) :   2.0332 B(  1-C ,  3-N ) :   1.1978
B(  3-N ,  4-C ) :   0.9960 B(  3-N ,  7-C ) :   0.9787 B(  4-C ,  5-C ) :   1.1121
B(  4-C , 11-H ) :   0.9225 B(  4-C , 12-H ) :   0.9199 B(  5-C ,  6-C ) :   1.1285
B(  5-C , 13-H ) :   0.9262 B(  5-C , 14-H ) :   0.9201 B(  6-C ,  7-C ) :   1.1045
B(  6-C , 15-H ) :   0.9214 B(  6-C , 16-H ) :   0.9277 B(  7-C , 17-H ) :   0.9216
B(  7-C , 18-H ) :   0.9318

Dispersion correction           -0.016852414
FINAL SINGLE POINT ENERGY      -364.430581463444

DIPOLE MOMENT
-------------

Method             : SCF
Type of density    : Electron Density
Multiplicity       :   1
Irrep              :   0
Energy             :  -364.4986111916506388 Eh
Relativity type    :
Basis              : AO
                                X                 Y                 Z
Electronic contribution:      3.927958484       3.445089663       0.299935358
Nuclear contribution   :     -5.168801056      -4.476965280      -0.347563584
                        -----------------------------------------
Total Dipole Moment    :     -1.240842572      -1.031875617      -0.047628226
                        -----------------------------------------
Magnitude (a.u.)       :      1.614535854
Magnitude (Debye)      :      4.103824005

Rotational constants in cm-1:             0.137172             0.052069             0.039644
Rotational constants in MHz :          4112.300054          1560.993847          1188.507476

                             ****ORCA TERMINATED NORMALLY****
TOTAL RUN TIME: 0 days 0 hours 0 minutes 22 seconds 856 msec
