                         Program Version 6.0.0  -   RELEASE  -
|  1> ! r2scan-3c def2/J RI DEFGRID2 scfconv6 printgap
|  2> %output
|  3>     printlevel normal
|  4> end
|  5> * xyz 0 1
|  6> C 0.8553285602 1.379927983 -0.5797224457
|  7> C 1.5891365196 0.1402420482 -0.0530193559
|  8> H 2.5338162154 0.0534712882 -0.60375408
|  9> C 0.750090535 -1.1246664287 -0.338345116
| 10> H 1.1840485318 -1.9693296869 0.2192754688
| 11> C -0.691629849 -0.9089520716 0.1655341341
| 12> H -1.3323877239 -1.7476669325 -0.1274571416
| 13> C -1.263930112 0.382839066 -0.4568024493
| 14> H -1.2761587005 0.295437645 -1.5550598058
| 15> O -0.4583421235 1.4837569338 -0.0754836766
| 16> O -2.5602556558 0.6205448207 -0.0551583995
| 17> O -0.7501729932 -0.8435833458 1.5677503818
| 18> O 0.8024330806 -1.3556761732 -1.7237588656
| 19> O 1.8136344062 0.3096852437 1.3287169748
| 20> H 0.8365800077 1.3362254866 -1.6759835898
| 21> H 1.3654614576 2.2816605963 -0.2415357537
| 22> H -2.5969314256 0.5871438503 0.9162801192
| 23> H -0.1152250221 -0.1659560315 1.8655074791
| 24> H 0.4314738454 -2.2256872005 -1.9292251952
| 25> H 2.5023956891 -0.2974284809 1.6335015626
| 26> *
| 27>
| 28>                          ****END OF INPUT****

CARTESIAN COORDINATES (ANGSTROEM)
---------------------------------
  C      0.855329    1.379928   -0.579722
  C      1.589137    0.140242   -0.053019
  H      2.533816    0.053471   -0.603754
  C      0.750091   -1.124666   -0.338345
  H      1.184049   -1.969330    0.219275
  C     -0.691630   -0.908952    0.165534
  H     -1.332388   -1.747667   -0.127457
  C     -1.263930    0.382839   -0.456802
  H     -1.276159    0.295438   -1.555060
  O     -0.458342    1.483757   -0.075484
  O     -2.560256    0.620545   -0.055158
  O     -0.750173   -0.843583    1.567750
  O      0.802433   -1.355676   -1.723759
  O      1.813634    0.309685    1.328717
  H      0.836580    1.336225   -1.675984
  H      1.365461    2.281661   -0.241536
  H     -2.596931    0.587144    0.916280
  H     -0.115225   -0.165956    1.865507
  H      0.431474   -2.225687   -1.929225
  H      2.502396   -0.297428    1.633502

 Total Charge           Charge          ....    0
 Multiplicity           Mult            ....    1
 Number of Electrons    NEL             ....   80
 Basis Dimension        Dim             ....  265

ORBITAL ENERGIES
----------------

  NO   OCC          E(Eh)            E(eV)
   0   2.0000     -18.978988      -516.4445
   1   2.0000     -18.974282      -516.3165
   2   2.0000     -18.958377      -515.8837
   3   2.0000     -18.953642      -515.7548
   4   2.0000     -18.952691      -515.7289
   5   2.0000     -10.125397      -275.5261
   6   2.0000     -10.101410      -274.8733
   7   2.0000     -10.099083      -274.8100
   8   2.0000     -10.086011      -274.4543
   9   2.0000     -10.084579      -274.4153
  10   2.0000      -1.043312       -28.3900
  11   2.0000      -1.018892       -27.7255
  12   2.0000      -1.009782       -27.4776
  13   2.0000      -0.988143       -26.8887
  14   2.0000      -0.972122       -26.4528
  15   2.0000      -0.748907       -20.3788
  16   2.0000      -0.715078       -19.4583
  17   2.0000      -0.628876       -17.1126
  18   2.0000      -0.613479       -16.6936
  19   2.0000      -0.562382       -15.3032
  20   2.0000      -0.523966       -14.2578
  21   2.0000      -0.516969       -14.0674
  22   2.0000      -0.491314       -13.3693
  23   2.0000      -0.461357       -12.5542
  24   2.0000      -0.451933       -12.2977
  25   2.0000      -0.449115       -12.2210
  26   2.0000      -0.427640       -11.6367
  27   2.0000      -0.399857       -10.8807
  28   2.0000      -0.389317       -10.5939
  29   2.0000      -0.370147       -10.0722
  30   2.0000      -0.359449        -9.7811
  31   2.0000      -0.336322        -9.1518
  32   2.0000      -0.328081        -8.9275
  33   2.0000      -0.308645        -8.3987
  34   2.0000      -0.294131        -8.0037
  35   2.0000      -0.281792        -7.6680
  36   2.0000      -0.274881        -7.4799
  37   2.0000      -0.258775        -7.0416
  38   2.0000      -0.238805        -6.4982
  39   2.0000      -0.214479        -5.8363
  40   0.0000       0.023800         0.6476
  41   0.0000       0.041694         1.1345
  42   0.0000       0.071768         1.9529
  43   0.0000       0.094277         2.5654
  44   0.0000       0.102335         2.7847

MULLIKEN ATOMIC CHARGES
-----------------------
   0 C :   -0.277150
   1 C :    0.008796
   2 H :    0.148845
   3 C :   -0.073114
   4 H :    0.146489
   5 C :   -0.005942
   6 H :    0.158233
   7 C :   -0.016892
   8 H :    0.149366
   9 O :   -0.207556
  10 O :   -0.372574
  11 O :   -0.430062
  12 O :   -0.405581
  13 O :   -0.416110
  14 H :    0.163600
  15 H :    0.158715
  16 H :    0.321927
  17 H :    0.343441
  18 H :    0.302096
  19 H :    0.303473
Sum of atomic charges:    0.0000000

LOEWDIN ATOMIC CHARGES
----------------------
   0 C :    0.055216
   1 C :    0.100895
   2 H :    0.184495
   3 C :    0.104536
   4 H :    0.176098
   5 C :    0.102132
   6 H :    0.192566
   7 C :    0.280942
   8 H :    0.199609
   9 O :   -0.673847
  10 O :   -0.481890
  11 O :   -0.566885
  12 O :   -0.589452
  13 O :   -0.587519
  14 H :    0.181964
  15 H :    0.194197
  16 H :    0.285835
  17 H :    0.289167
  18 H :    0.275749
  19 H :    0.276193

  Mayer bond orders larger than 0.100000
B(  0-C ,  1-C ) :   0.9367 B(  0-C ,  9-O ) :   0.9431 B(  0-C , 14-H ) :   0.9754
B(  0-C , 15-H ) :   0.9533 B(  1-C ,  2-H ) :   0.9505 B(  1-C ,  3-C ) :   0.8991
B(  1-C , 13-O ) :   0.9251 B(  3-C ,  4-H ) :   0.9836 B(  3-C ,  5-C ) :   0.8296
B(  3-C , 12-O ) :   0.9551 B(  5-C ,  6-H ) :   0.9699 B(  5-C ,  7-C ) :   0.8671
B(  5-C , 11-O ) :   1.0001 B(  7-C ,  8-H ) :   0.9897 B(  7-C ,  9-O ) :   0.9080
B(  7-C , 10-O ) :   1.1294 B( 10-O , 16-H ) :   0.8581 B( 11-O , 17-H ) :   0.8237
B( 12-O , 18-H ) :   0.8948 B( 13-O , 19-H ) :   0.8965

Dispersion correction           -0.006468826
FINAL SINGLE POINT ENERGY      -572.561200608399

DIPOLE MOMENT
-------------

Method             : SCF
Type of density    : Electron Density
Multiplicity       :   1
Irrep              :   0
Energy             :  -572.5716807721197483 Eh
Relativity type    :
Basis              : AO
                                X                 Y                 Z
Electronic contribution:     -2.057482744       0.804356082       1.239771205
Nuclear contribution   :      3.297546683      -1.734431441      -1.390364208
                        -----------------------------------------
Total Dipole Moment    :      1.240063939      -0.930075359      -0.150593003
                        -----------------------------------------
Magnitude (a.u.)       :      1.557394298
Magnitude (Debye)      :      3.958581711

Rotational constants in cm-1:             0.058509             0.040549             0.038380
Rotational constants in MHz :          1754.062595          1215.618924          1150.602326

                             ****ORCA TERMINATED NORMALLY****
TOTAL RUN TIME: 0 days 0 hours 0 minutes 46 seconds 69 msec
