                         Program Version 6.0.0  -   RELEASE  -
|  1> ! r2scan-3c def2/J RI DEFGRID2 scfconv6 printgap
|  2> %output
|  3>     printlevel normal
|  4> end
|  5> %cpcm
|  6>     smd true
|  7>     smdsolvent "water"
|  8> end
|  9> * xyz 0 1
| 10> C 0.8553285602 1.379927983 -0.5797224457
| 11> C 1.5891365196 0.1402420482 -0.0530193559
| 12> H 2.5338162154 0.0534712882 -0.60375408
| 13> C 0.750090535 -1.1246664287 -0.338345116
| 14> H 1.1840485318 -1.9693296869 0.2192754688
| 15> C -0.691629849 -0.9089520716 0.1655341341
| 16> H -1.3323877239 -1.7476669325 -0.1274571416
| 17> C -1.263930112 0.382839066 -0.4568024493
| 18> H -1.2761587005 0.295437645 -1.5550598058
| 19> O -0.4583421235 1.4837569338 -0.0754836766
| 20> O -2.5602556558 0.6205448207 -0.0551583995
| 21> O -0.7501729932 -0.8435833458 1.5677503818
| 22> O 0.8024330806 -1.3556761732 -1.7237588656
| 23> O 1.8136344062 0.3096852437 1.3287169748
| 24> H 0.8365800077 1.3362254866 -1.6759835898
| 25> H 1.3654614576 2.2816605963 -0.2415357537
| 26> H -2.5969314256 0.5871438503 0.9162801192
| 27> H -0.1152250221 -0.1659560315 1.8655074791
| 28> H 0.4314738454 -2.2256872005 -1.9292251952
| 29> H 2.5023956891 -0.2974284809 1.6335015626
| 30> *
| 31>
| 32>                          ****END OF INPUT****

CARTESIAN COORDINATES (ANGSTROEM)
---------------------------------
  C      0.855329    1.379928   -0.579722
  C      1.589137    0.140242   -0.053019
  H      2.533816    0.053471   -0.603754
  C      0.750091   -1.124666   -0.338345
  H      1.184049   -1.969330    0.219275
  C     -0.691630   -0.908952    0.165534
  H     -1.332388   -1.747667   -0.127457
  C     -1.263930    0.382839   -0.456802
  H     -1.276159    0.295438   -1.555060
  O     -0.458342    1.483757   -0.075484
  O     -2.560256    0.620545   -0.055158
  O     -0.750173   -0.843583    1.567750
  O      0.802433   -1.355676   -1.723759
  O      1.813634    0.309685    1.328717
  H      0.836580    1.336225   -1.675984
  H      1.365461    2.281661   -0.241536
  H     -2.596931    0.587144    0.916280
  H     -0.115225   -0.165956    1.865507
  H      0.431474   -2.225687   -1.929225
  H      2.502396   -0.297428    1.633502

 Total Charge           Charge          ....    0
 Multiplicity           Mult            ....    1
 Number of Electrons    NEL             ....   80
 Basis Dimension        Dim             ....  265

ORBITAL ENERGIES
----------------

  NO   OCC          E(Eh)            E(eV)
   0   2.0000     -18.967005      -516.1185
   1   2.0000     -18.966434      -516.1029
   2   2.0000     -18.964097      -516.0393
   3   2.0000     -18.961742      -515.9752
   4   2.0000     -18.958058      -515.8750
   5   2.0000     -10.128774      -275.6180
   6   2.0000     -10.087490      -274.4946
   7   2.0000     -10.085986      -274.4536
   8   2.0000     -10.081487      -274.3312
   9   2.0000     -10.077883      -274.2331
  10   2.0000      -1.049601       -28.5611
  11   2.0000      -1.009052       -27.4577
  12   2.0000      -0.995986       -27.1021
  13   2.0000      -0.991831       -26.9891
  14   2.0000      -0.980378       -26.6775
  15   2.0000      -0.738577       -20.0977
  16   2.0000      -0.712771       -19.3955
  17   2.0000      -0.622320       -16.9342
  18   2.0000      -0.611502       -16.6398
  19   2.0000      -0.554952       -15.1010
  20   2.0000      -0.516646       -14.0587
  21   2.0000      -0.515216       -14.0197
  22   2.0000      -0.480866       -13.0850
  23   2.0000      -0.458532       -12.4773
  24   2.0000      -0.453471       -12.3396
  25   2.0000      -0.443572       -12.0702
  26   2.0000      -0.422031       -11.4840
  27   2.0000      -0.395568       -10.7640
  28   2.0000      -0.385890       -10.5006
  29   2.0000      -0.365603        -9.9486
  30   2.0000      -0.357525        -9.7288
  31   2.0000      -0.334515        -9.1026
  32   2.0000      -0.332347        -9.0436
  33   2.0000      -0.311370        -8.4728
  34   2.0000      -0.295039        -8.0284
  35   2.0000      -0.287569        -7.8251
  36   2.0000      -0.268752        -7.3131
  37   2.0000      -0.265307        -7.2194
  38   2.0000      -0.234128        -6.3709
  39   2.0000      -0.216751        -5.8981
  40   0.0000       0.043112         1.1731
  41   0.0000       0.066725         1.8157
  42   0.0000       0.083710         2.2779
  43   0.0000       0.104616         2.8468
  44   0.0000       0.111973         3.0469

MULLIKEN ATOMIC CHARGES
-----------------------
   0 C :   -0.288167
   1 C :    0.026683
   2 H :    0.174180
   3 C :   -0.079427
   4 H :    0.175346
   5 C :    0.002189
   6 H :    0.180614
   7 C :   -0.028939
   8 H :    0.170428
   9 O :   -0.260075
  10 O :   -0.441881
  11 O :   -0.483600
  12 O :   -0.470537
  13 O :   -0.470663
  14 H :    0.181202
  15 H :    0.176795
  16 H :    0.362944
  17 H :    0.367155
  18 H :    0.352841
  19 H :    0.352915
Sum of atomic charges:    0.0000000

LOEWDIN ATOMIC CHARGES
----------------------
   0 C :    0.053917
   1 C :    0.105348
   2 H :    0.195050
   3 C :    0.112183
   4 H :    0.189036
   5 C :    0.106217
   6 H :    0.203693
   7 C :    0.277838
   8 H :    0.208528
   9 O :   -0.707956
  10 O :   -0.513992
  11 O :   -0.593804
  12 O :   -0.606893
  13 O :   -0.600652
  14 H :    0.188932
  15 H :    0.199813
  16 H :    0.298353
  17 H :    0.294449
  18 H :    0.294721
  19 H :    0.295220

  Mayer bond orders larger than 0.100000
B(  0-C ,  1-C ) :   0.9131 B(  0-C ,  9-O ) :   0.9197 B(  0-C , 14-H ) :   0.9720
B(  0-C , 15-H ) :   0.9479 B(  1-C ,  2-H ) :   0.9525 B(  1-C ,  3-C ) :   0.8913
B(  1-C , 13-O ) :   0.9237 B(  3-C ,  4-H ) :   0.9872 B(  3-C ,  5-C ) :   0.8427
B(  3-C , 12-O ) :   0.9568 B(  5-C ,  6-H ) :   0.9505 B(  5-C ,  7-C ) :   0.8800
B(  5-C , 11-O ) :   0.9745 B(  7-C ,  8-H ) :   0.9847 B(  7-C ,  9-O ) :   0.9052
B(  7-C , 10-O ) :   1.1019 B( 10-O , 16-H ) :   0.8377 B( 11-O , 17-H ) :   0.8127
B( 12-O , 18-H ) :   0.8686 B( 13-O , 19-H ) :   0.8700

Dispersion correction           -0.006468826
FINAL SINGLE POINT ENERGY      -572.589624881005

DIPOLE MOMENT
-------------

Method             : SCF
Type of density    : Electron Density
Multiplicity       :   1
Irrep              :   0
Energy             :  -572.6001050447260923 Eh
Relativity type    :
Basis              : AO
                                X                 Y                 Z
Electronic contribution:     -1.630519655       0.333897632       1.147930883
Nuclear contribution   :      3.297546683      -1.734431441      -1.390364208
                        -----------------------------------------
Total Dipole Moment    :      1.667027028      -1.400533810      -0.242433325
                        -----------------------------------------
Magnitude (a.u.)       :      2.190718600
Magnitude (Debye)      :      5.568364155

Rotational constants in cm-1:             0.058509             0.040549             0.038380
Rotational constants in MHz :          1754.062595          1215.618924          1150.602326

                             ****ORCA TERMINATED NORMALLY****
TOTAL RUN TIME: 0 days 0 hours 0 minutes 51 seconds 180 msec
