                         Program Version 6.0.0  -   RELEASE  -
|  1> ! r2scan-3c def2/J RI DEFGRID2 scfconv6 printgap
|  2> %output
|  3>     printlevel normal
|  4> end
|  5> %cpcm
|  6>     smd true
|  7>     smdsolvent "water"
|  8> end
|  9> * xyz 0 1
| 10> C 0.2322124898 -2.2762133586 2.3388360013
| 11> C 1.3126270372 -1.2270526442 2.179591818
| 12> O 1.9276230517 -1.4090138114 0.8787388145
| 13> P 2.6086433145 -0.2359808453 0.0771136241
| 14> S 3.4872627622 -0.8709491445 -1.5481764749
| 15> O 3.5452875561 0.4134657651 1.1848621813
| 16> C 4.6514093934 1.2798930866 0.8671655702
| 17> C 4.2043701365 2.5752642763 0.2221431105
| 18> S 1.080468227 1.2305591537 -0.2104637188
| 19> C 0.3886347779 0.4837634586 -1.7035668455
| 20> S -0.5050304781 -1.0568822503 -1.3599479436
| 21> P -2.1972159698 -0.1280416118 -0.4956492036
| 22> S -2.8628480913 1.4523304173 -1.4532439388
| 23> O -1.8498495241 0.1407598884 1.0361050781
| 24> C -1.8549818741 1.4427702005 1.6505316984
| 25> C -3.1742113337 1.6828144094 2.3569753831
| 26> O -3.0704333032 -1.4482793155 -0.4460251615
| 27> C -4.2668179221 -1.5760349131 0.353869485
| 28> C -5.4568768654 -0.899622071 -0.2972238631
| 29> H -0.5432272334 -2.1363187204 1.5889249908
| 30> H 0.657660548 -3.2678212614 2.2146081153
| 31> H -0.2058593047 -2.1905233545 3.3279865938
| 32> H 2.0976011745 -1.3385358901 2.9297180599
| 33> H 0.9025453268 -0.2143289511 2.2337538155
| 34> H 5.1269384663 1.453188945 1.8335702834
| 35> H 5.3337645856 0.7367195924 0.2067617669
| 36> H 3.7984040682 2.3775311823 -0.7687646075
| 37> H 3.438865328 3.0564652247 0.825617239
| 38> H 5.057732989 3.2385982875 0.1245587238
| 39> H 1.2001882587 0.2354937098 -2.3881447683
| 40> H -0.294205832 1.2125407155 -2.1427710082
| 41> H -1.0186604698 1.4337052883 2.3505507308
| 42> H -1.681306199 2.2043798798 0.8847780896
| 43> H -3.1350650238 2.6399728015 2.8666110782
| 44> H -3.984715463 1.7044330239 1.6309926746
| 45> H -3.3644764582 0.8976978165 3.0835545059
| 46> H -4.4147565598 -2.6549607279 0.426682478
| 47> H -4.0720279958 -1.1624735115 1.3465943464
| 48> H -6.3420897618 -1.0699751009 0.3074203589
| 49> H -5.286038349 0.1717359008 -0.3852973394
| 50> H -5.6189488693 -1.3027742954 -1.2934847583
| 51> *
| 52>
| 53>                          ****END OF INPUT****

CARTESIAN COORDINATES (ANGSTROEM)
---------------------------------
  C      0.232212   -2.276213    2.338836
  C      1.312627   -1.227053    2.179592
  O      1.927623   -1.409014    0.878739
  P      2.608643   -0.235981    0.077114
  S      3.487263   -0.870949   -1.548176
  O      3.545288    0.413466    1.184862
  C      4.651409    1.279893    0.867166
  C      4.204370    2.575264    0.222143
  S      1.080468    1.230559   -0.210464
  C      0.388635    0.483763   -1.703567
  S     -0.505030   -1.056882   -1.359948
  P     -2.197216   -0.128042   -0.495649
  S     -2.862848    1.452330   -1.453244
  O     -1.849850    0.140760    1.036105
  C     -1.854982    1.442770    1.650532
  C     -3.174211    1.682814    2.356975
  O     -3.070433   -1.448279   -0.446025
  C     -4.266818   -1.576035    0.353869
  C     -5.456877   -0.899622   -0.297224
  H     -0.543227   -2.136319    1.588925
  H      0.657661   -3.267821    2.214608
  H     -0.205859   -2.190523    3.327987
  H      2.097601   -1.338536    2.929718
  H      0.902545   -0.214329    2.233754
  H      5.126938    1.453189    1.833570
  H      5.333765    0.736720    0.206762
  H      3.798404    2.377531   -0.768765
  H      3.438865    3.056465    0.825617
  H      5.057733    3.238598    0.124559
  H      1.200188    0.235494   -2.388145
  H     -0.294206    1.212541   -2.142771
  H     -1.018660    1.433705    2.350551
  H     -1.681306    2.204380    0.884778
  H     -3.135065    2.639973    2.866611
  H     -3.984715    1.704433    1.630993
  H     -3.364476    0.897698    3.083555
  H     -4.414757   -2.654961    0.426682
  H     -4.072028   -1.162474    1.346594
  H     -6.342090   -1.069975    0.307420
  H     -5.286038    0.171736   -0.385297
  H     -5.618949   -1.302774   -1.293485

 Total Charge           Charge          ....    0
 Multiplicity           Mult            ....    1
 Number of Electrons    NEL             ....  202
 Basis Dimension        Dim             ....  539

ORBITAL ENERGIES
----------------

  NO   OCC          E(Eh)            E(eV)
   0   2.0000     -88.578222     -2410.3360
   1   2.0000     -88.576968     -2410.3018
   2   2.0000     -88.531793     -2409.0726
   3   2.0000     -88.529075     -2408.9986
   4   2.0000     -76.920669     -2093.1178
   5   2.0000     -76.920560     -2093.1148
   6   2.0000     -18.997381      -516.9450
   7   2.0000     -18.996523      -516.9217
   8   2.0000     -18.994677      -516.8714
   9   2.0000     -18.993870      -516.8495
  10   2.0000     -10.102572      -274.9050
  11   2.0000     -10.091926      -274.6153
  12   2.0000     -10.091895      -274.6144
  13   2.0000     -10.091445      -274.6022
  14   2.0000     -10.088047      -274.5097
  15   2.0000     -10.018986      -272.6305
  16   2.0000     -10.018882      -272.6276
  17   2.0000     -10.017775      -272.5975
  18   2.0000     -10.017624      -272.5934
  19   2.0000      -7.872448      -214.2202
  20   2.0000      -7.871433      -214.1926
  21   2.0000      -7.826880      -212.9802
  22   2.0000      -7.824213      -212.9077
  23   2.0000      -6.599229      -179.5741
  24   2.0000      -6.598823      -179.5631
  25   2.0000      -5.819283      -158.3507
  26   2.0000      -5.818213      -158.3216
  27   2.0000      -5.816387      -158.2719
  28   2.0000      -5.815319      -158.2429
  29   2.0000      -5.809555      -158.0860
  30   2.0000      -5.808591      -158.0598
  31   2.0000      -5.774440      -157.1305
  32   2.0000      -5.771754      -157.0574
  33   2.0000      -5.767092      -156.9305
  34   2.0000      -5.766975      -156.9274
  35   2.0000      -5.764655      -156.8642
  36   2.0000      -5.764095      -156.8490
  37   2.0000      -4.745056      -129.1195
  38   2.0000      -4.744560      -129.1061
  39   2.0000      -4.744036      -129.0918
  40   2.0000      -4.743462      -129.0762
  41   2.0000      -4.742831      -129.0590
  42   2.0000      -4.742670      -129.0546
  43   2.0000      -1.054883       -28.7048
  44   2.0000      -1.052528       -28.6407
  45   2.0000      -1.012701       -27.5570
  46   2.0000      -1.012181       -27.5428
  47   2.0000      -0.804426       -21.8896
  48   2.0000      -0.758371       -20.6363
  49   2.0000      -0.745641       -20.2899
  50   2.0000      -0.725850       -19.7514
  51   2.0000      -0.723713       -19.6932
  52   2.0000      -0.710035       -19.3210
  53   2.0000      -0.690413       -18.7871
  54   2.0000      -0.674997       -18.3676
  55   2.0000      -0.629037       -17.1170
  56   2.0000      -0.617597       -16.8057
  57   2.0000      -0.604135       -16.4393
  58   2.0000      -0.599764       -16.3204
  59   2.0000      -0.587330       -15.9821
  60   2.0000      -0.528717       -14.3871
  61   2.0000      -0.519810       -14.1448
  62   2.0000      -0.492552       -13.4030
  63   2.0000      -0.491214       -13.3666
  64   2.0000      -0.479773       -13.0553
  65   2.0000      -0.460542       -12.5320
  66   2.0000      -0.453053       -12.3282
  67   2.0000      -0.449431       -12.2296
  68   2.0000      -0.445239       -12.1156
  69   2.0000      -0.432373       -11.7655
  70   2.0000      -0.424439       -11.5496
  71   2.0000      -0.407052       -11.0764
  72   2.0000      -0.403633       -10.9834
  73   2.0000      -0.396147       -10.7797
  74   2.0000      -0.391570       -10.6552
  75   2.0000      -0.387792       -10.5523
  76   2.0000      -0.381282       -10.3752
  77   2.0000      -0.373972       -10.1763
  78   2.0000      -0.361078        -9.8254
  79   2.0000      -0.359909        -9.7936
  80   2.0000      -0.356560        -9.7025
  81   2.0000      -0.352204        -9.5840
  82   2.0000      -0.351772        -9.5722
  83   2.0000      -0.347124        -9.4457
  84   2.0000      -0.345179        -9.3928
  85   2.0000      -0.332725        -9.0539
  86   2.0000      -0.319506        -8.6942
  87   2.0000      -0.316357        -8.6085
  88   2.0000      -0.307795        -8.3755
  89   2.0000      -0.305970        -8.3259
  90   2.0000      -0.301246        -8.1973
  91   2.0000      -0.292323        -7.9545
  92   2.0000      -0.286665        -7.8006
  93   2.0000      -0.280282        -7.6269
  94   2.0000      -0.273631        -7.4459
  95   2.0000      -0.250408        -6.8140
  96   2.0000      -0.239844        -6.5265
  97   2.0000      -0.235366        -6.4046
  98   2.0000      -0.227462        -6.1896
  99   2.0000      -0.225227        -6.1287
 100   2.0000      -0.217893        -5.9292
 101   0.0000      -0.053463        -1.4548
 102   0.0000      -0.030714        -0.8358
 103   0.0000      -0.007728        -0.2103
 104   0.0000      -0.004232        -0.1152
 105   0.0000       0.013321         0.3625

MULLIKEN ATOMIC CHARGES
-----------------------
   0 C :   -0.502870
   1 C :   -0.096267
   2 O :   -0.291577
   3 P :    0.659225
   4 S :   -0.497637
   5 O :   -0.309016
   6 C :   -0.156907
   7 C :   -0.484357
   8 S :   -0.159797
   9 C :   -0.246216
  10 S :   -0.141395
  11 P :    0.699861
  12 S :   -0.518372
  13 O :   -0.284815
  14 C :   -0.102171
  15 C :   -0.518525
  16 O :   -0.342512
  17 C :   -0.146795
  18 C :   -0.476609
  19 H :    0.168514
  20 H :    0.166929
  21 H :    0.172543
  22 H :    0.176871
  23 H :    0.168189
  24 H :    0.176214
  25 H :    0.179431
  26 H :    0.174767
  27 H :    0.169157
  28 H :    0.173343
  29 H :    0.234724
  30 H :    0.231954
  31 H :    0.181934
  32 H :    0.172070
  33 H :    0.170286
  34 H :    0.170033
  35 H :    0.170172
  36 H :    0.176019
  37 H :    0.178412
  38 H :    0.171063
  39 H :    0.165655
  40 H :    0.168469
Sum of atomic charges:   -0.0000000

LOEWDIN ATOMIC CHARGES
----------------------
   0 C :   -0.394473
   1 C :    0.030667
   2 O :   -0.676688
   3 P :    0.380955
   4 S :   -0.144154
   5 O :   -0.670533
   6 C :    0.029654
   7 C :   -0.411163
   8 S :    0.150537
   9 C :   -0.421348
  10 S :    0.165500
  11 P :    0.386646
  12 S :   -0.161546
  13 O :   -0.684998
  14 C :    0.006665
  15 C :   -0.400533
  16 O :   -0.679786
  17 C :    0.038193
  18 C :   -0.405736
  19 H :    0.165628
  20 H :    0.164056
  21 H :    0.170682
  22 H :    0.184017
  23 H :    0.182583
  24 H :    0.191819
  25 H :    0.181861
  26 H :    0.162079
  27 H :    0.163811
  28 H :    0.168898
  29 H :    0.196876
  30 H :    0.197275
  31 H :    0.186974
  32 H :    0.181771
  33 H :    0.168349
  34 H :    0.162139
  35 H :    0.163242
  36 H :    0.191722
  37 H :    0.184349
  38 H :    0.168402
  39 H :    0.162404
  40 H :    0.163201

  Mayer bond orders larger than 0.100000
B(  0-C ,  1-C ) :   0.9358 B(  0-C , 19-H ) :   0.9638 B(  0-C , 20-H ) :   0.9695
B(  0-C , 21-H ) :   0.9604 B(  1-C ,  2-O ) :   0.7263 B(  1-C , 22-H ) :   0.9367
B(  1-C , 23-H ) :   0.9450 B(  2-O ,  3-P ) :   1.1677 B(  3-P ,  4-S ) :   1.8173
B(  3-P ,  5-O ) :   1.0499 B(  3-P ,  8-S ) :   1.0117 B(  5-O ,  6-C ) :   0.8067
B(  6-C ,  7-C ) :   0.9059 B(  6-C , 24-H ) :   0.9503 B(  6-C , 25-H ) :   0.9672
B(  7-C , 26-H ) :   0.9647 B(  7-C , 27-H ) :   0.9646 B(  7-C , 28-H ) :   0.9504
B(  8-S ,  9-C ) :   0.8973 B(  9-C , 10-S ) :   0.8937 B(  9-C , 29-H ) :   0.8987
B(  9-C , 30-H ) :   0.9009 B( 10-S , 11-P ) :   1.0992 B( 11-P , 12-S ) :   1.7527
B( 11-P , 13-O ) :   1.0376 B( 11-P , 16-O ) :   1.1503 B( 13-O , 14-C ) :   0.7255
B( 14-C , 15-C ) :   0.9281 B( 14-C , 31-H ) :   0.9503 B( 14-C , 32-H ) :   0.9461
B( 15-C , 33-H ) :   0.9585 B( 15-C , 34-H ) :   0.9680 B( 15-C , 35-H ) :   0.9732
B( 16-O , 17-C ) :   0.7840 B( 17-C , 18-C ) :   0.9278 B( 17-C , 36-H ) :   0.9514
B( 17-C , 37-H ) :   0.9586 B( 18-C , 38-H ) :   0.9596 B( 18-C , 39-H ) :   0.9581
B( 18-C , 40-H ) :   0.9704

Dispersion correction           -0.021922359
FINAL SINGLE POINT ENERGY     -2932.473506498151

DIPOLE MOMENT
-------------

Method             : SCF
Type of density    : Electron Density
Multiplicity       :   1
Irrep              :   0
Energy             : -2932.4981586730687013 Eh
Relativity type    :
Basis              : AO
                                X                 Y                 Z
Electronic contribution:     11.207227059      -4.928983830     -17.178447744
Nuclear contribution   :    -11.978402471       5.921541362      20.438809774
                        -----------------------------------------
Total Dipole Moment    :     -0.771175412       0.992557532       3.260362030
                        -----------------------------------------
Magnitude (a.u.)       :      3.494258510
Magnitude (Debye)      :      8.881699293

Rotational constants in cm-1:             0.013865             0.004606             0.004584
Rotational constants in MHz :           415.675347           138.074072           137.439045

                             ****ORCA TERMINATED NORMALLY****
TOTAL RUN TIME: 0 days 0 hours 1 minutes 52 seconds 68 msec
