                         Program Version 6.0.0  -   RELEASE  -
|  1> ! pbe def2-sv(p) def2/J RI DEFGRID1 loosescf d4 GCP(DFT/SV(P)) printgap
|  2> %output
|  3>     printlevel normal
|  4> end
|  5> * xyz 0 1
|  6> C 3.2271990842 -0.7904610583 -2.5427763303
|  7> C 3.2305465217 0.6763219496 -2.1701824719
|  8> O 2.181446474 1.0097863765 -1.229940288
|  9> P 2.0421117657 0.4497304701 0.2329195862
| 10> S 0.9559541896 1.5968893446 1.3874295183
| 11> O 3.5764711789 0.3641593589 0.66715178
| 12> C 4.0112193499 0.317807728 2.0356632907
| 13> C 3.6048578979 -0.963934404 2.7344604239
| 14> S 1.4090582698 -1.587413584 0.0999019109
| 15> C 0.073029421 -1.6108278028 1.3289639907
| 16> S -1.5623241405 -2.0047513072 0.637157924
| 17> P -2.0449453162 -0.1957967036 -0.3043928905
| 18> S -0.8539501789 0.5266948135 -1.6957547016
| 19> O -2.3163907314 0.7192795955 0.9534485014
| 20> C -2.5824312744 2.1337639423 0.8253459891
| 21> C -2.4674850203 2.7508392533 2.2025444643
| 22> O -3.51695673 -0.4648515804 -0.8406058463
| 23> C -3.7862682098 -1.0870072091 -2.1128696727
| 24> C -5.1122675005 -0.5619108231 -2.6259481007
| 25> H 3.4828767193 -1.4019609291 -1.6785881577
| 26> H 2.2425486038 -1.0830028851 -2.9004494597
| 27> H 3.9584111008 -0.960055875 -3.3269185134
| 28> H 2.9981678152 1.3088468129 -3.0284189933
| 29> H 4.1867400361 0.9708182027 -1.7327318922
| 30> H 5.0961152154 0.4084343593 1.9631720493
| 31> H 3.6000298884 1.187579812 2.5577763001
| 32> H 3.8976702826 -1.8278036506 2.1434170879
| 33> H 4.0905321552 -1.0088242568 3.7039660789
| 34> H 2.5263151485 -0.9824301468 2.8812974735
| 35> H 0.0272381203 -0.6361747497 1.8230915869
| 36> H 0.2804925063 -2.4117780494 2.0336362327
| 37> H -1.8516217606 2.5636089318 0.131467796
| 38> H -3.5860319396 2.2515478043 0.4099924518
| 39> H -2.7141453572 3.8055672962 2.1412273583
| 40> H -3.1489438752 2.255228588 2.8873750348
| 41> H -1.4499432092 2.6414587582 2.5705854755
| 42> H -2.9674831614 -0.8462582645 -2.7996293224
| 43> H -3.81927448 -2.1673153972 -1.9533805828
| 44> H -5.0516109835 0.5097423316 -2.7952603921
| 45> H -5.352723922 -1.0582115063 -3.5603360063
| 46> H -5.8946425804 -0.7610031332 -1.8993286018
| 47> *
| 48>
| 49>                          ****END OF INPUT****

CARTESIAN COORDINATES (ANGSTROEM)
---------------------------------
  C      3.227199   -0.790461   -2.542776
  C      3.230547    0.676322   -2.170182
  O      2.181446    1.009786   -1.229940
  P      2.042112    0.449730    0.232920
  S      0.955954    1.596889    1.387430
  O      3.576471    0.364159    0.667152
  C      4.011219    0.317808    2.035663
  C      3.604858   -0.963934    2.734460
  S      1.409058   -1.587414    0.099902
  C      0.073029   -1.610828    1.328964
  S     -1.562324   -2.004751    0.637158
  P     -2.044945   -0.195797   -0.304393
  S     -0.853950    0.526695   -1.695755
  O     -2.316391    0.719280    0.953449
  C     -2.582431    2.133764    0.825346
  C     -2.467485    2.750839    2.202544
  O     -3.516957   -0.464852   -0.840606
  C     -3.786268   -1.087007   -2.112870
  C     -5.112268   -0.561911   -2.625948
  H      3.482877   -1.401961   -1.678588
  H      2.242549   -1.083003   -2.900449
  H      3.958411   -0.960056   -3.326919
  H      2.998168    1.308847   -3.028419
  H      4.186740    0.970818   -1.732732
  H      5.096115    0.408434    1.963172
  H      3.600030    1.187580    2.557776
  H      3.897670   -1.827804    2.143417
  H      4.090532   -1.008824    3.703966
  H      2.526315   -0.982430    2.881297
  H      0.027238   -0.636175    1.823092
  H      0.280493   -2.411778    2.033636
  H     -1.851622    2.563609    0.131468
  H     -3.586032    2.251548    0.409992
  H     -2.714145    3.805567    2.141227
  H     -3.148944    2.255229    2.887375
  H     -1.449943    2.641459    2.570585
  H     -2.967483   -0.846258   -2.799629
  H     -3.819274   -2.167315   -1.953381
  H     -5.051611    0.509742   -2.795260
  H     -5.352724   -1.058212   -3.560336
  H     -5.894643   -0.761003   -1.899329

 Total Charge           Charge          ....    0
 Multiplicity           Mult            ....    1
 Number of Electrons    NEL             ....  202
 Basis Dimension        Dim             ....  334

ORBITAL ENERGIES
----------------

  NO   OCC          E(Eh)            E(eV)
   0   2.0000     -88.037472     -2395.6214
   1   2.0000     -88.036569     -2395.5968
   2   2.0000     -87.983821     -2394.1615
   3   2.0000     -87.973626     -2393.8841
   4   2.0000     -76.424682     -2079.6213
   5   2.0000     -76.415642     -2079.3753
   6   2.0000     -18.787578      -511.2360
   7   2.0000     -18.786757      -511.2136
   8   2.0000     -18.783319      -511.1201
   9   2.0000     -18.780187      -511.0349
  10   2.0000      -9.954034      -270.8630
  11   2.0000      -9.952473      -270.8206
  12   2.0000      -9.952396      -270.8185
  13   2.0000      -9.946154      -270.6486
  14   2.0000      -9.940314      -270.4897
  15   2.0000      -9.886310      -269.0202
  16   2.0000      -9.886027      -269.0125
  17   2.0000      -9.883683      -268.9487
  18   2.0000      -9.875392      -268.7231
  19   2.0000      -7.682507      -209.0516
  20   2.0000      -7.682053      -209.0393
  21   2.0000      -7.628793      -207.5900
  22   2.0000      -7.618346      -207.3057
  23   2.0000      -6.421655      -174.7421
  24   2.0000      -6.413569      -174.5221
  25   2.0000      -5.710350      -155.3865
  26   2.0000      -5.710062      -155.3787
  27   2.0000      -5.706978      -155.2948
  28   2.0000      -5.706642      -155.2856
  29   2.0000      -5.699401      -155.0886
  30   2.0000      -5.698910      -155.0752
  31   2.0000      -5.657688      -153.9535
  32   2.0000      -5.649452      -153.7294
  33   2.0000      -5.648847      -153.7129
  34   2.0000      -5.647149      -153.6667
  35   2.0000      -5.638894      -153.4421
  36   2.0000      -5.638729      -153.4376
  37   2.0000      -4.644583      -126.3855
  38   2.0000      -4.643078      -126.3446
  39   2.0000      -4.642216      -126.3211
  40   2.0000      -4.636143      -126.1559
  41   2.0000      -4.635369      -126.1348
  42   2.0000      -4.633903      -126.0949
  43   2.0000      -0.984553       -26.7911
  44   2.0000      -0.977555       -26.6006
  45   2.0000      -0.939460       -25.5640
  46   2.0000      -0.936005       -25.4700
  47   2.0000      -0.757200       -20.6045
  48   2.0000      -0.717984       -19.5373
  49   2.0000      -0.707175       -19.2432
  50   2.0000      -0.689668       -18.7668
  51   2.0000      -0.682212       -18.5639
  52   2.0000      -0.672069       -18.2879
  53   2.0000      -0.645426       -17.5629
  54   2.0000      -0.627878       -17.0854
  55   2.0000      -0.596923       -16.2431
  56   2.0000      -0.581748       -15.8302
  57   2.0000      -0.578592       -15.7443
  58   2.0000      -0.562461       -15.3054
  59   2.0000      -0.553255       -15.0548
  60   2.0000      -0.500333       -13.6147
  61   2.0000      -0.493638       -13.4326
  62   2.0000      -0.473962       -12.8972
  63   2.0000      -0.467317       -12.7163
  64   2.0000      -0.449917       -12.2429
  65   2.0000      -0.445166       -12.1136
  66   2.0000      -0.437286       -11.8991
  67   2.0000      -0.431114       -11.7312
  68   2.0000      -0.424873       -11.5614
  69   2.0000      -0.423517       -11.5245
  70   2.0000      -0.402486       -10.9522
  71   2.0000      -0.398526       -10.8444
  72   2.0000      -0.386696       -10.5225
  73   2.0000      -0.381829       -10.3901
  74   2.0000      -0.374639       -10.1944
  75   2.0000      -0.368184       -10.0188
  76   2.0000      -0.361313        -9.8318
  77   2.0000      -0.354757        -9.6534
  78   2.0000      -0.351640        -9.5686
  79   2.0000      -0.350996        -9.5511
  80   2.0000      -0.344527        -9.3751
  81   2.0000      -0.340763        -9.2726
  82   2.0000      -0.336890        -9.1672
  83   2.0000      -0.333070        -9.0633
  84   2.0000      -0.325808        -8.8657
  85   2.0000      -0.310005        -8.4357
  86   2.0000      -0.307079        -8.3560
  87   2.0000      -0.295175        -8.0321
  88   2.0000      -0.292737        -7.9658
  89   2.0000      -0.291981        -7.9452
  90   2.0000      -0.282170        -7.6782
  91   2.0000      -0.270063        -7.3488
  92   2.0000      -0.263010        -7.1569
  93   2.0000      -0.257852        -7.0165
  94   2.0000      -0.253046        -6.8857
  95   2.0000      -0.233650        -6.3579
  96   2.0000      -0.219438        -5.9712
  97   2.0000      -0.203765        -5.5447
  98   2.0000      -0.200131        -5.4458
  99   2.0000      -0.185899        -5.0586
 100   2.0000      -0.182267        -4.9597
 101   0.0000      -0.035448        -0.9646
 102   0.0000      -0.031211        -0.8493
 103   0.0000      -0.008558        -0.2329
 104   0.0000       0.007047         0.1918
 105   0.0000       0.014507         0.3947

MULLIKEN ATOMIC CHARGES
-----------------------
   0 C :   -0.334865
   1 C :    0.007532
   2 O :   -0.350843
   3 P :    0.631499
   4 S :   -0.318933
   5 O :   -0.388638
   6 C :    0.005395
   7 C :   -0.320986
   8 S :   -0.100493
   9 C :   -0.360915
  10 S :   -0.088702
  11 P :    0.616749
  12 S :   -0.325691
  13 O :   -0.368650
  14 C :   -0.003049
  15 C :   -0.286778
  16 O :   -0.384154
  17 C :   -0.006668
  18 C :   -0.283633
  19 H :    0.126323
  20 H :    0.139723
  21 H :    0.115333
  22 H :    0.112243
  23 H :    0.108701
  24 H :    0.102142
  25 H :    0.110561
  26 H :    0.119201
  27 H :    0.112274
  28 H :    0.123820
  29 H :    0.201962
  30 H :    0.182363
  31 H :    0.115247
  32 H :    0.097307
  33 H :    0.106308
  34 H :    0.111341
  35 H :    0.130902
  36 H :    0.103293
  37 H :    0.099742
  38 H :    0.117400
  39 H :    0.110010
  40 H :    0.115625
Sum of atomic charges:   -0.0000000

LOEWDIN ATOMIC CHARGES
----------------------
   0 C :   -0.371339
   1 C :   -0.106769
   2 O :   -0.225273
   3 P :    0.580218
   4 S :   -0.294459
   5 O :   -0.254901
   6 C :   -0.116498
   7 C :   -0.370020
   8 S :    0.078233
   9 C :   -0.484731
  10 S :    0.078157
  11 P :    0.560113
  12 S :   -0.317864
  13 O :   -0.240338
  14 C :   -0.116812
  15 C :   -0.352526
  16 O :   -0.252560
  17 C :   -0.121185
  18 C :   -0.351781
  19 H :    0.116165
  20 H :    0.133568
  21 H :    0.132516
  22 H :    0.124168
  23 H :    0.113506
  24 H :    0.117513
  25 H :    0.110791
  26 H :    0.124393
  27 H :    0.130467
  28 H :    0.120047
  29 H :    0.123275
  30 H :    0.135746
  31 H :    0.111626
  32 H :    0.109206
  33 H :    0.128766
  34 H :    0.124825
  35 H :    0.124353
  36 H :    0.105343
  37 H :    0.110752
  38 H :    0.127386
  39 H :    0.129856
  40 H :    0.126069

  Mayer bond orders larger than 0.100000
B(  0-C ,  1-C ) :   1.1707 B(  0-C , 19-H ) :   0.9320 B(  0-C , 20-H ) :   0.9400
B(  0-C , 21-H ) :   0.9355 B(  1-C ,  2-O ) :   0.9009 B(  1-C , 22-H ) :   0.9324
B(  1-C , 23-H ) :   0.9262 B(  2-O ,  3-P ) :   1.1461 B(  3-P ,  4-S ) :   1.6032
B(  3-P ,  5-O ) :   1.0558 B(  3-P ,  8-S ) :   0.9439 B(  4-S ,  8-S ) :   0.1163
B(  4-S , 29-H ) :   0.1119 B(  5-O ,  6-C ) :   0.9192 B(  6-C ,  7-C ) :   1.1645
B(  6-C , 24-H ) :   0.9346 B(  6-C , 25-H ) :   0.9165 B(  7-C , 26-H ) :   0.9420
B(  7-C , 27-H ) :   0.9367 B(  7-C , 28-H ) :   0.9376 B(  8-S ,  9-C ) :   1.0044
B(  9-C , 10-S ) :   0.9951 B(  9-C , 29-H ) :   0.8444 B(  9-C , 30-H ) :   0.9082
B( 10-S , 11-P ) :   0.9776 B( 10-S , 12-S ) :   0.1174 B( 11-P , 12-S ) :   1.6394
B( 11-P , 13-O ) :   1.1329 B( 11-P , 16-O ) :   1.0957 B( 13-O , 14-C ) :   0.8911
B( 14-C , 15-C ) :   1.1652 B( 14-C , 31-H ) :   0.9097 B( 14-C , 32-H ) :   0.9306
B( 15-C , 33-H ) :   0.9413 B( 15-C , 34-H ) :   0.9491 B( 15-C , 35-H ) :   0.9447
B( 16-O , 17-C ) :   0.9092 B( 17-C , 18-C ) :   1.1613 B( 17-C , 36-H ) :   0.9005
B( 17-C , 37-H ) :   0.9326 B( 18-C , 38-H ) :   0.9510 B( 18-C , 39-H ) :   0.9420
B( 18-C , 40-H ) :   0.9510

Dispersion correction           -0.066293461
FINAL SINGLE POINT ENERGY     -2929.515090279514

DIPOLE MOMENT
-------------

Method             : SCF
Type of density    : Electron Density
Multiplicity       :   1
Irrep              :   0
Energy             : -2929.6330757799878484 Eh
Relativity type    :
Basis              : AO
                                X                 Y                 Z
Electronic contribution:      0.018808247      -2.886335716       0.347361525
Nuclear contribution   :      0.519565131       2.427227697      -0.356785060
                        -----------------------------------------
Total Dipole Moment    :      0.538373378      -0.459108019      -0.009423536
                        -----------------------------------------
Magnitude (a.u.)       :      0.707612090
Magnitude (Debye)      :      1.798606996

Rotational constants in cm-1:             0.011927             0.005297             0.004866
Rotational constants in MHz :           357.572307           158.797701           145.875099

                             ****ORCA TERMINATED NORMALLY****
TOTAL RUN TIME: 0 days 0 hours 0 minutes 21 seconds 351 msec
