                         Program Version 6.0.1  -  RELEASE   -
|  1> ! pbe def2-sv(p) def2/J RI DEFGRID1 loosescf d4 GCP(DFT/SV(P)) printgap
|  2> %output
|  3>     printlevel normal
|  4> end
|  5> * xyz 0 1
|  6> C 1.8503018624 -3.2377622785 0.0949470061
|  7> C 2.9193108278 -2.1653365374 -0.039290255
|  8> O 2.3398294013 -0.9406965846 -0.5285186588
|  9> C 2.248033854 -0.7673400769 -1.839048744
| 10> O 2.7218659499 -1.5174675459 -2.6596272224
| 11> C 1.4963249698 0.5022273455 -2.1893066287
| 12> C 0.3584443066 0.7728538624 -1.212666353
| 13> H -0.1917977528 1.6726526613 -1.5066469161
| 14> C 0.8420704048 0.9658116946 0.2101108
| 15> O 0.2929329276 0.4383248115 1.1586423837
| 16> O 1.8487113313 1.7854522644 0.2961653305
| 17> C 2.3519134116 2.0866336763 1.6165331268
| 18> C 3.5600579495 2.9874576199 1.4615171573
| 19> S -0.8203570085 -0.6230770917 -1.1974329804
| 20> P -2.1254006954 0.080879538 0.3383463066
| 21> S -2.2224853023 1.9948818406 0.7364778968
| 22> O -3.5285342516 -0.3225670235 -0.3069945047
| 23> C -3.8541828956 -1.6637420883 -0.7055107486
| 24> O -2.1091397675 -0.9587332743 1.5530463002
| 25> C -1.4933535176 -0.7979681371 2.8301762354
| 26> H 1.4513355148 -3.4912710456 -0.8846572856
| 27> H 2.2814442862 -4.1251772071 0.545941228
| 28> H 1.0353945362 -2.8761079639 0.7179364526
| 29> H 3.7044608544 -2.4794165783 -0.7324467008
| 30> H 3.3472656 -1.9044583709 0.9291488692
| 31> H 1.1153909901 0.398484049 -3.2049640515
| 32> H 2.1964322485 1.3400371154 -2.1553524138
| 33> H 1.5493141034 2.5712873954 2.1808895929
| 34> H 2.6039094681 1.1430362726 2.1086930752
| 35> H 3.9461006898 3.2378069753 2.4439125744
| 36> H 4.3336184944 2.482514091 0.8909206565
| 37> H 3.2797479998 3.9003817986 0.9450330389
| 38> H -3.1057296121 -2.0371541385 -1.4056298418
| 39> H -4.8255007959 -1.5894286275 -1.1878528768
| 40> H -3.9041937532 -2.3099727941 0.1690102542
| 41> H -1.462699275 0.2560902982 3.1059736152
| 42> H -0.4810971188 -1.1957807515 2.8032477377
| 43> H -2.114647337 -1.3578922378 3.5260691295
| 44> *
| 45>
| 46>                          ****END OF INPUT****

CARTESIAN COORDINATES (ANGSTROEM)
---------------------------------
  C      1.850302   -3.237762    0.094947
  C      2.919311   -2.165337   -0.039290
  O      2.339829   -0.940697   -0.528519
  C      2.248034   -0.767340   -1.839049
  O      2.721866   -1.517468   -2.659627
  C      1.496325    0.502227   -2.189307
  C      0.358444    0.772854   -1.212666
  H     -0.191798    1.672653   -1.506647
  C      0.842070    0.965812    0.210111
  O      0.292933    0.438325    1.158642
  O      1.848711    1.785452    0.296165
  C      2.351913    2.086634    1.616533
  C      3.560058    2.987458    1.461517
  S     -0.820357   -0.623077   -1.197433
  P     -2.125401    0.080880    0.338346
  S     -2.222485    1.994882    0.736478
  O     -3.528534   -0.322567   -0.306995
  C     -3.854183   -1.663742   -0.705511
  O     -2.109140   -0.958733    1.553046
  C     -1.493354   -0.797968    2.830176
  H      1.451336   -3.491271   -0.884657
  H      2.281444   -4.125177    0.545941
  H      1.035395   -2.876108    0.717936
  H      3.704461   -2.479417   -0.732447
  H      3.347266   -1.904458    0.929149
  H      1.115391    0.398484   -3.204964
  H      2.196432    1.340037   -2.155352
  H      1.549314    2.571287    2.180890
  H      2.603909    1.143036    2.108693
  H      3.946101    3.237807    2.443913
  H      4.333618    2.482514    0.890921
  H      3.279748    3.900382    0.945033
  H     -3.105730   -2.037154   -1.405630
  H     -4.825501   -1.589429   -1.187853
  H     -3.904194   -2.309973    0.169010
  H     -1.462699    0.256090    3.105974
  H     -0.481097   -1.195781    2.803248
  H     -2.114647   -1.357892    3.526069

 Total Charge           Charge          ....    0
 Multiplicity           Mult            ....    1
 Number of Electrons    NEL             ....  174
 Basis Dimension        Dim             ....  316

ORBITAL ENERGIES
----------------

  NO   OCC          E(Eh)            E(eV)
   0   2.0000     -88.034361     -2395.5367
   1   2.0000     -87.969317     -2393.7668
   2   2.0000     -76.419061     -2079.4684
   3   2.0000     -18.821466      -512.1581
   4   2.0000     -18.812463      -511.9132
   5   2.0000     -18.783445      -511.1235
   6   2.0000     -18.773347      -510.8487
   7   2.0000     -18.752905      -510.2925
   8   2.0000     -18.743845      -510.0459
   9   2.0000     -10.026553      -272.8364
  10   2.0000     -10.018910      -272.6284
  11   2.0000      -9.960735      -271.0454
  12   2.0000      -9.954048      -270.8634
  13   2.0000      -9.951417      -270.7918
  14   2.0000      -9.939354      -270.4636
  15   2.0000      -9.935293      -270.3531
  16   2.0000      -9.921988      -269.9910
  17   2.0000      -9.898855      -269.3615
  18   2.0000      -9.887838      -269.0617
  19   2.0000      -7.679148      -208.9602
  20   2.0000      -7.614834      -207.2102
  21   2.0000      -6.414794      -174.5554
  22   2.0000      -5.707012      -155.2957
  23   2.0000      -5.704027      -155.2145
  24   2.0000      -5.695794      -154.9904
  25   2.0000      -5.644228      -153.5872
  26   2.0000      -5.635624      -153.3531
  27   2.0000      -5.634261      -153.3160
  28   2.0000      -4.637638      -126.1966
  29   2.0000      -4.636658      -126.1699
  30   2.0000      -4.635335      -126.1339
  31   2.0000      -1.032428       -28.0938
  32   2.0000      -1.017616       -27.6907
  33   2.0000      -0.972093       -26.4520
  34   2.0000      -0.933836       -25.4110
  35   2.0000      -0.926408       -25.2088
  36   2.0000      -0.922803       -25.1108
  37   2.0000      -0.772013       -21.0075
  38   2.0000      -0.719707       -19.5842
  39   2.0000      -0.712167       -19.3791
  40   2.0000      -0.690551       -18.7908
  41   2.0000      -0.657047       -17.8791
  42   2.0000      -0.630084       -17.1455
  43   2.0000      -0.624380       -16.9902
  44   2.0000      -0.607351       -16.5269
  45   2.0000      -0.599890       -16.3238
  46   2.0000      -0.568496       -15.4696
  47   2.0000      -0.523374       -14.2417
  48   2.0000      -0.506871       -13.7927
  49   2.0000      -0.505446       -13.7539
  50   2.0000      -0.486269       -13.2320
  51   2.0000      -0.468659       -12.7529
  52   2.0000      -0.467311       -12.7162
  53   2.0000      -0.459932       -12.5154
  54   2.0000      -0.440872       -11.9967
  55   2.0000      -0.436538       -11.8788
  56   2.0000      -0.428446       -11.6586
  57   2.0000      -0.420353       -11.4384
  58   2.0000      -0.414784       -11.2868
  59   2.0000      -0.403826       -10.9887
  60   2.0000      -0.401102       -10.9145
  61   2.0000      -0.393134       -10.6977
  62   2.0000      -0.390535       -10.6270
  63   2.0000      -0.385619       -10.4932
  64   2.0000      -0.378630       -10.3030
  65   2.0000      -0.372316       -10.1312
  66   2.0000      -0.370499       -10.0818
  67   2.0000      -0.358787        -9.7631
  68   2.0000      -0.357128        -9.7179
  69   2.0000      -0.344650        -9.3784
  70   2.0000      -0.336093        -9.1455
  71   2.0000      -0.331964        -9.0332
  72   2.0000      -0.325962        -8.8699
  73   2.0000      -0.317942        -8.6517
  74   2.0000      -0.311649        -8.4804
  75   2.0000      -0.297230        -8.0880
  76   2.0000      -0.293501        -7.9866
  77   2.0000      -0.287636        -7.8270
  78   2.0000      -0.280972        -7.6456
  79   2.0000      -0.266356        -7.2479
  80   2.0000      -0.259663        -7.0658
  81   2.0000      -0.252768        -6.8782
  82   2.0000      -0.240416        -6.5420
  83   2.0000      -0.229850        -6.2545
  84   2.0000      -0.209973        -5.7137
  85   2.0000      -0.192981        -5.2513
  86   2.0000      -0.182437        -4.9644
  87   0.0000      -0.047230        -1.2852
  88   0.0000      -0.035783        -0.9737
  89   0.0000      -0.022242        -0.6052
  90   0.0000      -0.000358        -0.0097
  91   0.0000       0.019648         0.5347

MULLIKEN ATOMIC CHARGES
-----------------------
   0 C :   -0.307839
   1 C :   -0.013626
   2 O :   -0.241882
   3 C :    0.108600
   4 O :   -0.188193
   5 C :   -0.090250
   6 C :   -0.299281
   7 H :    0.158340
   8 C :    0.248078
   9 O :   -0.208271
  10 O :   -0.224623
  11 C :   -0.029861
  12 C :   -0.276433
  13 S :   -0.119486
  14 P :    0.644049
  15 S :   -0.338870
  16 O :   -0.369206
  17 C :   -0.111830
  18 O :   -0.398153
  19 C :   -0.084170
  20 H :    0.125516
  21 H :    0.110855
  22 H :    0.129767
  23 H :    0.111870
  24 H :    0.101149
  25 H :    0.129182
  26 H :    0.141270
  27 H :    0.120307
  28 H :    0.106238
  29 H :    0.115830
  30 H :    0.117115
  31 H :    0.121841
  32 H :    0.118788
  33 H :    0.128744
  34 H :    0.117236
  35 H :    0.114719
  36 H :    0.117962
  37 H :    0.114517
Sum of atomic charges:    0.0000000

LOEWDIN ATOMIC CHARGES
----------------------
   0 C :   -0.356438
   1 C :   -0.109011
   2 O :   -0.053609
   3 C :    0.029430
   4 O :   -0.154638
   5 C :   -0.245672
   6 C :   -0.263847
   7 H :    0.148522
   8 C :    0.015394
   9 O :   -0.162483
  10 O :   -0.040094
  11 C :   -0.101817
  12 C :   -0.350546
  13 S :    0.085796
  14 P :    0.588927
  15 S :   -0.333599
  16 O :   -0.255731
  17 C :   -0.214344
  18 O :   -0.254477
  19 C :   -0.207169
  20 H :    0.130497
  21 H :    0.129186
  22 H :    0.127689
  23 H :    0.121259
  24 H :    0.116131
  25 H :    0.146623
  26 H :    0.154679
  27 H :    0.124330
  28 H :    0.117006
  29 H :    0.133502
  30 H :    0.127391
  31 H :    0.130057
  32 H :    0.103752
  33 H :    0.124534
  34 H :    0.112159
  35 H :    0.111558
  36 H :    0.110202
  37 H :    0.114854

  Mayer bond orders larger than 0.100000
B(  0-C ,  1-C ) :   1.1772 B(  0-C , 20-H ) :   0.9446 B(  0-C , 21-H ) :   0.9422
B(  0-C , 22-H ) :   0.9427 B(  1-C ,  2-O ) :   0.9084 B(  1-C , 23-H ) :   0.9129
B(  1-C , 24-H ) :   0.9358 B(  2-O ,  3-C ) :   1.1982 B(  3-C ,  4-O ) :   2.0774
B(  3-C ,  5-C ) :   1.0033 B(  5-C ,  6-C ) :   1.0616 B(  5-C , 25-H ) :   0.9048
B(  5-C , 26-H ) :   0.8779 B(  6-C ,  7-H ) :   0.8536 B(  6-C ,  8-C ) :   0.8852
B(  6-C , 13-S ) :   1.0503 B(  8-C ,  9-O ) :   1.9311 B(  8-C , 10-O ) :   1.2703
B(  9-O , 14-P ) :   0.1046 B( 10-O , 11-C ) :   0.8934 B( 11-C , 12-C ) :   1.1555
B( 11-C , 27-H ) :   0.9313 B( 11-C , 28-H ) :   0.9282 B( 12-C , 29-H ) :   0.9425
B( 12-C , 30-H ) :   0.9501 B( 12-C , 31-H ) :   0.9487 B( 13-S , 14-P ) :   0.9182
B( 13-S , 15-S ) :   0.1068 B( 14-P , 15-S ) :   1.6014 B( 14-P , 16-O ) :   1.1019
B( 14-P , 18-O ) :   1.0859 B( 16-O , 17-C ) :   0.9363 B( 17-C , 32-H ) :   0.9361
B( 17-C , 33-H ) :   0.9607 B( 17-C , 34-H ) :   0.9462 B( 18-O , 19-C ) :   0.9315
B( 19-C , 35-H ) :   0.9411 B( 19-C , 36-H ) :   0.9485 B( 19-C , 37-H ) :   0.9533

Dispersion correction           -0.052922340
FINAL SINGLE POINT ENERGY     -1979.010854943414

DIPOLE MOMENT
-------------

Method             : SCF
Type of density    : Electron Density
Multiplicity       :   1
Irrep              :   0
Energy             : -1979.1415971914207148 Eh
Relativity type    :
Basis              : AO
                                X                 Y                 Z
Electronic contribution:    -14.518574551       5.590045590      -7.526294417
Nuclear contribution   :     15.856568550      -6.105294463       8.418698353
                        -----------------------------------------
Total Dipole Moment    :      1.337993999      -0.515248873       0.892403936
                        -----------------------------------------
Magnitude (a.u.)       :      1.688814414
Magnitude (Debye)      :      4.292625101

Rotational constants in cm-1:             0.012547             0.007954             0.006430
Rotational constants in MHz :           376.161949           238.452473           192.769266

                             ****ORCA TERMINATED NORMALLY****
TOTAL RUN TIME: 0 days 0 hours 0 minutes 38 seconds 822 msec
