                         Program Version 6.0.0  -   RELEASE  -
|  1> ! r2scan-3c def2/J RI DEFGRID2 scfconv6 printgap
|  2> %output
|  3>     printlevel normal
|  4> end
|  5> * xyz 0 1
|  6> C 3.5616122333 1.6194703636 2.2892288355
|  7> C 2.6045473769 1.636187472 1.1160484645
|  8> O 1.6717340088 0.526067676 1.2051966226
|  9> P 1.8582476287 -0.8263249779 0.4243345736
| 10> S 0.4417430024 -2.1122418354 0.8378834512
| 11> O 3.3307850997 -1.2668866313 0.8162077147
| 12> C 3.8878122165 -2.5122341148 0.346244934
| 13> C 5.1272307283 -2.8038090018 1.167439796
| 14> S 2.0836193471 -0.3313525661 -1.6407210212
| 15> C 0.3366165037 -0.1572886531 -2.0416174437
| 16> S -0.4097737295 1.2490308147 -1.1545881671
| 17> P -2.3462160595 0.4507476407 -0.739052961
| 18> S -2.6296121856 -1.4353282983 -1.1615123161
| 19> O -3.3375460104 1.3677207498 -1.5448475548
| 20> C -3.3520834701 2.8158996287 -1.4591966939
| 21> C -4.3746974428 3.2892307706 -0.4471490423
| 22> O -2.6138028348 0.9001075506 0.7635305878
| 23> C -1.9793047726 0.2621232487 1.8855552397
| 24> C -2.6585239294 0.7611999978 3.1438670231
| 25> H 3.0081700147 1.6445091127 3.2237701792
| 26> H 4.1685384033 0.7185031765 2.2655999361
| 27> H 4.2076744955 2.4897687848 2.2309876279
| 28> H 3.1387886413 1.5736749442 0.1643316968
| 29> H 1.9707159851 2.5247638666 1.1229589767
| 30> H 3.133185564 -3.2969830844 0.4626583328
| 31> H 4.1266616506 -2.400055853 -0.7146886217
| 32> H 4.8665852559 -2.8919186253 2.2183788786
| 33> H 5.566134017 -3.7364619064 0.8287869708
| 34> H 5.8501438623 -2.0023177595 1.0472345355
| 35> H -0.206216769 -1.0668490586 -1.7660553534
| 36> H 0.2827994266 0.025167327 -3.1119769802
| 37> H -2.346907969 3.164230557 -1.2047212621
| 38> H -3.6109282045 3.1405433147 -2.468464457
| 39> H -4.1071794116 2.9479916826 0.5490323069
| 40> H -4.4086801692 4.3741650736 -0.4591303022
| 41> H -5.3557069763 2.8960770795 -0.6991825018
| 42> H -2.0749358892 -0.823292344 1.7761064034
| 43> H -0.914194946 0.5157094867 1.8772680675
| 44> H -2.1967040935 0.2895372929 4.0048945041
| 45> H -2.5515604441 1.839253217 3.2219033486
| 46> H -3.7148312571 0.508518596 3.1200129704
| 47> *
| 48>
| 49>                          ****END OF INPUT****

CARTESIAN COORDINATES (ANGSTROEM)
---------------------------------
  C      3.561612    1.619470    2.289229
  C      2.604547    1.636187    1.116048
  O      1.671734    0.526068    1.205197
  P      1.858248   -0.826325    0.424335
  S      0.441743   -2.112242    0.837883
  O      3.330785   -1.266887    0.816208
  C      3.887812   -2.512234    0.346245
  C      5.127231   -2.803809    1.167440
  S      2.083619   -0.331353   -1.640721
  C      0.336617   -0.157289   -2.041617
  S     -0.409774    1.249031   -1.154588
  P     -2.346216    0.450748   -0.739053
  S     -2.629612   -1.435328   -1.161512
  O     -3.337546    1.367721   -1.544848
  C     -3.352083    2.815900   -1.459197
  C     -4.374697    3.289231   -0.447149
  O     -2.613803    0.900108    0.763531
  C     -1.979305    0.262123    1.885555
  C     -2.658524    0.761200    3.143867
  H      3.008170    1.644509    3.223770
  H      4.168538    0.718503    2.265600
  H      4.207674    2.489769    2.230988
  H      3.138789    1.573675    0.164332
  H      1.970716    2.524764    1.122959
  H      3.133186   -3.296983    0.462658
  H      4.126662   -2.400056   -0.714689
  H      4.866585   -2.891919    2.218379
  H      5.566134   -3.736462    0.828787
  H      5.850144   -2.002318    1.047235
  H     -0.206217   -1.066849   -1.766055
  H      0.282799    0.025167   -3.111977
  H     -2.346908    3.164231   -1.204721
  H     -3.610928    3.140543   -2.468464
  H     -4.107179    2.947992    0.549032
  H     -4.408680    4.374165   -0.459130
  H     -5.355707    2.896077   -0.699183
  H     -2.074936   -0.823292    1.776106
  H     -0.914195    0.515709    1.877268
  H     -2.196704    0.289537    4.004895
  H     -2.551560    1.839253    3.221903
  H     -3.714831    0.508519    3.120013

 Total Charge           Charge          ....    0
 Multiplicity           Mult            ....    1
 Number of Electrons    NEL             ....  202
 Basis Dimension        Dim             ....  539

ORBITAL ENERGIES
----------------

  NO   OCC          E(Eh)            E(eV)
   0   2.0000     -88.578410     -2410.3411
   1   2.0000     -88.570021     -2410.1128
   2   2.0000     -88.515875     -2408.6394
   3   2.0000     -88.511969     -2408.5331
   4   2.0000     -76.914374     -2092.9465
   5   2.0000     -76.907382     -2092.7563
   6   2.0000     -18.997397      -516.9455
   7   2.0000     -18.995365      -516.8902
   8   2.0000     -18.986323      -516.6441
   9   2.0000     -18.985792      -516.6297
  10   2.0000     -10.105789      -274.9925
  11   2.0000     -10.103310      -274.9250
  12   2.0000     -10.102339      -274.8986
  13   2.0000     -10.101272      -274.8696
  14   2.0000     -10.084950      -274.4254
  15   2.0000     -10.037568      -273.1361
  16   2.0000     -10.035327      -273.0751
  17   2.0000     -10.029138      -272.9067
  18   2.0000     -10.025539      -272.8088
  19   2.0000      -7.872703      -214.2271
  20   2.0000      -7.864459      -214.0028
  21   2.0000      -7.810520      -212.5350
  22   2.0000      -7.806665      -212.4301
  23   2.0000      -6.592885      -179.4015
  24   2.0000      -6.585767      -179.2078
  25   2.0000      -5.819535      -158.3576
  26   2.0000      -5.816338      -158.2706
  27   2.0000      -5.811221      -158.1314
  28   2.0000      -5.810093      -158.1007
  29   2.0000      -5.808350      -158.0532
  30   2.0000      -5.801626      -157.8703
  31   2.0000      -5.758318      -156.6918
  32   2.0000      -5.754422      -156.5858
  33   2.0000      -5.750652      -156.4832
  34   2.0000      -5.750536      -156.4801
  35   2.0000      -5.746972      -156.3831
  36   2.0000      -5.746540      -156.3713
  37   2.0000      -4.738704      -128.9467
  38   2.0000      -4.737992      -128.9273
  39   2.0000      -4.736124      -128.8765
  40   2.0000      -4.731444      -128.7491
  41   2.0000      -4.730769      -128.7308
  42   2.0000      -4.729280      -128.6902
  43   2.0000      -1.055824       -28.7304
  44   2.0000      -1.045610       -28.4525
  45   2.0000      -1.015391       -27.6302
  46   2.0000      -1.004713       -27.3396
  47   2.0000      -0.798199       -21.7201
  48   2.0000      -0.760832       -20.7033
  49   2.0000      -0.751717       -20.4553
  50   2.0000      -0.741104       -20.1665
  51   2.0000      -0.730496       -19.8778
  52   2.0000      -0.707439       -19.2504
  53   2.0000      -0.681941       -18.5566
  54   2.0000      -0.663409       -18.0523
  55   2.0000      -0.622888       -16.9496
  56   2.0000      -0.615945       -16.7607
  57   2.0000      -0.608372       -16.5546
  58   2.0000      -0.601487       -16.3673
  59   2.0000      -0.592663       -16.1272
  60   2.0000      -0.538852       -14.6629
  61   2.0000      -0.524173       -14.2635
  62   2.0000      -0.505191       -13.7470
  63   2.0000      -0.495898       -13.4941
  64   2.0000      -0.468191       -12.7401
  65   2.0000      -0.463947       -12.6247
  66   2.0000      -0.459900       -12.5145
  67   2.0000      -0.455334       -12.3903
  68   2.0000      -0.449257       -12.2249
  69   2.0000      -0.436945       -11.8899
  70   2.0000      -0.424021       -11.5382
  71   2.0000      -0.411330       -11.1929
  72   2.0000      -0.404675       -11.0118
  73   2.0000      -0.400999       -10.9117
  74   2.0000      -0.398971       -10.8566
  75   2.0000      -0.383273       -10.4294
  76   2.0000      -0.376174       -10.2362
  77   2.0000      -0.373725       -10.1696
  78   2.0000      -0.372133       -10.1263
  79   2.0000      -0.366981        -9.9861
  80   2.0000      -0.365512        -9.9461
  81   2.0000      -0.364072        -9.9069
  82   2.0000      -0.355584        -9.6759
  83   2.0000      -0.353378        -9.6159
  84   2.0000      -0.350284        -9.5317
  85   2.0000      -0.333426        -9.0730
  86   2.0000      -0.324329        -8.8254
  87   2.0000      -0.319664        -8.6985
  88   2.0000      -0.312445        -8.5021
  89   2.0000      -0.307060        -8.3555
  90   2.0000      -0.301336        -8.1998
  91   2.0000      -0.294228        -8.0063
  92   2.0000      -0.284508        -7.7419
  93   2.0000      -0.278110        -7.5678
  94   2.0000      -0.267451        -7.2777
  95   2.0000      -0.248046        -6.7497
  96   2.0000      -0.231150        -6.2899
  97   2.0000      -0.222343        -6.0503
  98   2.0000      -0.214815        -5.8454
  99   2.0000      -0.206533        -5.6200
 100   2.0000      -0.199094        -5.4176
 101   0.0000      -0.043481        -1.1832
 102   0.0000      -0.031114        -0.8466
 103   0.0000      -0.007069        -0.1924
 104   0.0000       0.015376         0.4184
 105   0.0000       0.016462         0.4480

MULLIKEN ATOMIC CHARGES
-----------------------
   0 C :   -0.460525
   1 C :   -0.107542
   2 O :   -0.270756
   3 P :    0.656476
   4 S :   -0.411937
   5 O :   -0.288324
   6 C :   -0.154795
   7 C :   -0.441558
   8 S :   -0.184018
   9 C :   -0.217558
  10 S :   -0.197581
  11 P :    0.644554
  12 S :   -0.419355
  13 O :   -0.278368
  14 C :   -0.110250
  15 C :   -0.452318
  16 O :   -0.266288
  17 C :   -0.137665
  18 C :   -0.468440
  19 H :    0.155592
  20 H :    0.167151
  21 H :    0.147110
  22 H :    0.163369
  23 H :    0.159297
  24 H :    0.173375
  25 H :    0.150224
  26 H :    0.160072
  27 H :    0.148975
  28 H :    0.150628
  29 H :    0.226980
  30 H :    0.192569
  31 H :    0.146956
  32 H :    0.154149
  33 H :    0.167568
  34 H :    0.144497
  35 H :    0.157494
  36 H :    0.174352
  37 H :    0.172114
  38 H :    0.150394
  39 H :    0.146166
  40 H :    0.157217
Sum of atomic charges:    0.0000000

LOEWDIN ATOMIC CHARGES
----------------------
   0 C :   -0.392422
   1 C :    0.018303
   2 O :   -0.670411
   3 P :    0.371823
   4 S :   -0.083736
   5 O :   -0.676400
   6 C :    0.020660
   7 C :   -0.385825
   8 S :    0.121369
   9 C :   -0.414578
  10 S :    0.124839
  11 P :    0.377255
  12 S :   -0.087137
  13 O :   -0.651111
  14 C :    0.023208
  15 C :   -0.394049
  16 O :   -0.675924
  17 C :    0.012212
  18 C :   -0.387952
  19 H :    0.160884
  20 H :    0.166634
  21 H :    0.158986
  22 H :    0.177273
  23 H :    0.181018
  24 H :    0.182470
  25 H :    0.172087
  26 H :    0.162269
  27 H :    0.161257
  28 H :    0.158206
  29 H :    0.201971
  30 H :    0.178281
  31 H :    0.173458
  32 H :    0.180815
  33 H :    0.167619
  34 H :    0.157491
  35 H :    0.162198
  36 H :    0.184109
  37 H :    0.184648
  38 H :    0.161473
  39 H :    0.156123
  40 H :    0.160604

  Mayer bond orders larger than 0.100000
B(  0-C ,  1-C ) :   0.9406 B(  0-C , 19-H ) :   0.9714 B(  0-C , 20-H ) :   0.9669
B(  0-C , 21-H ) :   0.9659 B(  1-C ,  2-O ) :   0.7395 B(  1-C , 22-H ) :   0.9658
B(  1-C , 23-H ) :   0.9602 B(  2-O ,  3-P ) :   1.1328 B(  3-P ,  4-S ) :   1.8538
B(  3-P ,  5-O ) :   1.0583 B(  3-P ,  8-S ) :   0.9840 B(  5-O ,  6-C ) :   0.7875
B(  6-C ,  7-C ) :   0.9559 B(  6-C , 24-H ) :   0.9493 B(  6-C , 25-H ) :   0.9414
B(  7-C , 26-H ) :   0.9711 B(  7-C , 27-H ) :   0.9630 B(  7-C , 28-H ) :   0.9719
B(  8-S ,  9-C ) :   0.9300 B(  9-C , 10-S ) :   0.9017 B(  9-C , 29-H ) :   0.9019
B(  9-C , 30-H ) :   0.9145 B( 10-S , 11-P ) :   0.9791 B( 11-P , 12-S ) :   1.8598
B( 11-P , 13-O ) :   1.1851 B( 11-P , 16-O ) :   1.0582 B( 13-O , 14-C ) :   0.7579
B( 14-C , 15-C ) :   0.9468 B( 14-C , 31-H ) :   0.9649 B( 14-C , 32-H ) :   0.9631
B( 15-C , 33-H ) :   0.9643 B( 15-C , 34-H ) :   0.9665 B( 15-C , 35-H ) :   0.9696
B( 16-O , 17-C ) :   0.7888 B( 17-C , 18-C ) :   0.9372 B( 17-C , 36-H ) :   0.9435
B( 17-C , 37-H ) :   0.9319 B( 18-C , 38-H ) :   0.9645 B( 18-C , 39-H ) :   0.9749
B( 18-C , 40-H ) :   0.9755

Dispersion correction           -0.020996442
FINAL SINGLE POINT ENERGY     -2932.459616212879

DIPOLE MOMENT
-------------

Method             : SCF
Type of density    : Electron Density
Multiplicity       :   1
Irrep              :   0
Energy             : -2932.4849707106250207 Eh
Relativity type    :
Basis              : AO
                                X                 Y                 Z
Electronic contribution:     -7.127620026     -10.449220596     -16.460869345
Nuclear contribution   :      8.722341909      12.100053723      16.985835671
                        -----------------------------------------
Total Dipole Moment    :      1.594721883       1.650833127       0.524966326
                        -----------------------------------------
Magnitude (a.u.)       :      2.354565255
Magnitude (Debye)      :      5.984829256

Rotational constants in cm-1:             0.012930             0.004616             0.004476
Rotational constants in MHz :           387.629849           138.378763           134.180111

                             ****ORCA TERMINATED NORMALLY****
TOTAL RUN TIME: 0 days 0 hours 1 minutes 18 seconds 348 msec
