                         Program Version 6.0.0  -   RELEASE  -
|  1> ! r2scan-3c def2/J RI DEFGRID2 scfconv6 printgap
|  2> %output
|  3>     printlevel normal
|  4> end
|  5> %cpcm
|  6>     smd true
|  7>     smdsolvent "water"
|  8> end
|  9> * xyz 0 1
| 10> C 3.5616122333 1.6194703636 2.2892288355
| 11> C 2.6045473769 1.636187472 1.1160484645
| 12> O 1.6717340088 0.526067676 1.2051966226
| 13> P 1.8582476287 -0.8263249779 0.4243345736
| 14> S 0.4417430024 -2.1122418354 0.8378834512
| 15> O 3.3307850997 -1.2668866313 0.8162077147
| 16> C 3.8878122165 -2.5122341148 0.346244934
| 17> C 5.1272307283 -2.8038090018 1.167439796
| 18> S 2.0836193471 -0.3313525661 -1.6407210212
| 19> C 0.3366165037 -0.1572886531 -2.0416174437
| 20> S -0.4097737295 1.2490308147 -1.1545881671
| 21> P -2.3462160595 0.4507476407 -0.739052961
| 22> S -2.6296121856 -1.4353282983 -1.1615123161
| 23> O -3.3375460104 1.3677207498 -1.5448475548
| 24> C -3.3520834701 2.8158996287 -1.4591966939
| 25> C -4.3746974428 3.2892307706 -0.4471490423
| 26> O -2.6138028348 0.9001075506 0.7635305878
| 27> C -1.9793047726 0.2621232487 1.8855552397
| 28> C -2.6585239294 0.7611999978 3.1438670231
| 29> H 3.0081700147 1.6445091127 3.2237701792
| 30> H 4.1685384033 0.7185031765 2.2655999361
| 31> H 4.2076744955 2.4897687848 2.2309876279
| 32> H 3.1387886413 1.5736749442 0.1643316968
| 33> H 1.9707159851 2.5247638666 1.1229589767
| 34> H 3.133185564 -3.2969830844 0.4626583328
| 35> H 4.1266616506 -2.400055853 -0.7146886217
| 36> H 4.8665852559 -2.8919186253 2.2183788786
| 37> H 5.566134017 -3.7364619064 0.8287869708
| 38> H 5.8501438623 -2.0023177595 1.0472345355
| 39> H -0.206216769 -1.0668490586 -1.7660553534
| 40> H 0.2827994266 0.025167327 -3.1119769802
| 41> H -2.346907969 3.164230557 -1.2047212621
| 42> H -3.6109282045 3.1405433147 -2.468464457
| 43> H -4.1071794116 2.9479916826 0.5490323069
| 44> H -4.4086801692 4.3741650736 -0.4591303022
| 45> H -5.3557069763 2.8960770795 -0.6991825018
| 46> H -2.0749358892 -0.823292344 1.7761064034
| 47> H -0.914194946 0.5157094867 1.8772680675
| 48> H -2.1967040935 0.2895372929 4.0048945041
| 49> H -2.5515604441 1.839253217 3.2219033486
| 50> H -3.7148312571 0.508518596 3.1200129704
| 51> *
| 52>
| 53>                          ****END OF INPUT****

CARTESIAN COORDINATES (ANGSTROEM)
---------------------------------
  C      3.561612    1.619470    2.289229
  C      2.604547    1.636187    1.116048
  O      1.671734    0.526068    1.205197
  P      1.858248   -0.826325    0.424335
  S      0.441743   -2.112242    0.837883
  O      3.330785   -1.266887    0.816208
  C      3.887812   -2.512234    0.346245
  C      5.127231   -2.803809    1.167440
  S      2.083619   -0.331353   -1.640721
  C      0.336617   -0.157289   -2.041617
  S     -0.409774    1.249031   -1.154588
  P     -2.346216    0.450748   -0.739053
  S     -2.629612   -1.435328   -1.161512
  O     -3.337546    1.367721   -1.544848
  C     -3.352083    2.815900   -1.459197
  C     -4.374697    3.289231   -0.447149
  O     -2.613803    0.900108    0.763531
  C     -1.979305    0.262123    1.885555
  C     -2.658524    0.761200    3.143867
  H      3.008170    1.644509    3.223770
  H      4.168538    0.718503    2.265600
  H      4.207674    2.489769    2.230988
  H      3.138789    1.573675    0.164332
  H      1.970716    2.524764    1.122959
  H      3.133186   -3.296983    0.462658
  H      4.126662   -2.400056   -0.714689
  H      4.866585   -2.891919    2.218379
  H      5.566134   -3.736462    0.828787
  H      5.850144   -2.002318    1.047235
  H     -0.206217   -1.066849   -1.766055
  H      0.282799    0.025167   -3.111977
  H     -2.346908    3.164231   -1.204721
  H     -3.610928    3.140543   -2.468464
  H     -4.107179    2.947992    0.549032
  H     -4.408680    4.374165   -0.459130
  H     -5.355707    2.896077   -0.699183
  H     -2.074936   -0.823292    1.776106
  H     -0.914195    0.515709    1.877268
  H     -2.196704    0.289537    4.004895
  H     -2.551560    1.839253    3.221903
  H     -3.714831    0.508519    3.120013

 Total Charge           Charge          ....    0
 Multiplicity           Mult            ....    1
 Number of Electrons    NEL             ....  202
 Basis Dimension        Dim             ....  539

ORBITAL ENERGIES
----------------

  NO   OCC          E(Eh)            E(eV)
   0   2.0000     -88.580786     -2410.4057
   1   2.0000     -88.575565     -2410.2637
   2   2.0000     -88.528254     -2408.9763
   3   2.0000     -88.524902     -2408.8850
   4   2.0000     -76.918738     -2093.0653
   5   2.0000     -76.918552     -2093.0602
   6   2.0000     -18.996281      -516.9151
   7   2.0000     -18.995327      -516.8891
   8   2.0000     -18.994344      -516.8624
   9   2.0000     -18.994001      -516.8530
  10   2.0000     -10.102663      -274.9074
  11   2.0000     -10.093286      -274.6523
  12   2.0000     -10.092308      -274.6257
  13   2.0000     -10.091549      -274.6050
  14   2.0000     -10.086119      -274.4572
  15   2.0000     -10.020149      -272.6621
  16   2.0000     -10.018741      -272.6238
  17   2.0000     -10.018455      -272.6160
  18   2.0000     -10.018271      -272.6110
  19   2.0000      -7.875012      -214.2900
  20   2.0000      -7.869890      -214.1506
  21   2.0000      -7.823368      -212.8847
  22   2.0000      -7.819943      -212.7915
  23   2.0000      -6.597188      -179.5186
  24   2.0000      -6.597086      -179.5158
  25   2.0000      -5.821860      -158.4209
  26   2.0000      -5.818671      -158.3341
  27   2.0000      -5.816678      -158.2798
  28   2.0000      -5.813819      -158.2021
  29   2.0000      -5.812372      -158.1627
  30   2.0000      -5.807011      -158.0168
  31   2.0000      -5.770972      -157.0361
  32   2.0000      -5.767611      -156.9447
  33   2.0000      -5.763682      -156.8377
  34   2.0000      -5.763308      -156.8276
  35   2.0000      -5.760124      -156.7409
  36   2.0000      -5.759964      -156.7366
  37   2.0000      -4.742832      -129.0590
  38   2.0000      -4.742828      -129.0589
  39   2.0000      -4.742170      -129.0410
  40   2.0000      -4.742110      -129.0394
  41   2.0000      -4.740855      -129.0052
  42   2.0000      -4.740481      -128.9950
  43   2.0000      -1.055017       -28.7085
  44   2.0000      -1.053505       -28.6673
  45   2.0000      -1.013858       -27.5885
  46   2.0000      -1.012054       -27.5394
  47   2.0000      -0.800531       -21.7835
  48   2.0000      -0.757089       -20.6014
  49   2.0000      -0.747431       -20.3386
  50   2.0000      -0.727872       -19.8064
  51   2.0000      -0.726297       -19.7636
  52   2.0000      -0.708203       -19.2712
  53   2.0000      -0.686711       -18.6863
  54   2.0000      -0.671350       -18.2684
  55   2.0000      -0.620107       -16.8740
  56   2.0000      -0.614448       -16.7200
  57   2.0000      -0.601670       -16.3723
  58   2.0000      -0.594891       -16.1878
  59   2.0000      -0.591524       -16.0962
  60   2.0000      -0.536468       -14.5980
  61   2.0000      -0.523629       -14.2487
  62   2.0000      -0.499066       -13.5803
  63   2.0000      -0.496558       -13.5120
  64   2.0000      -0.464737       -12.6461
  65   2.0000      -0.460736       -12.5373
  66   2.0000      -0.458264       -12.4700
  67   2.0000      -0.454149       -12.3580
  68   2.0000      -0.443428       -12.0663
  69   2.0000      -0.436774       -11.8852
  70   2.0000      -0.419818       -11.4238
  71   2.0000      -0.404942       -11.0190
  72   2.0000      -0.402097       -10.9416
  73   2.0000      -0.399864       -10.8809
  74   2.0000      -0.391531       -10.6541
  75   2.0000      -0.379882       -10.3371
  76   2.0000      -0.377087       -10.2611
  77   2.0000      -0.368081       -10.0160
  78   2.0000      -0.362611        -9.8671
  79   2.0000      -0.359020        -9.7694
  80   2.0000      -0.358108        -9.7446
  81   2.0000      -0.351856        -9.5745
  82   2.0000      -0.350601        -9.5403
  83   2.0000      -0.349958        -9.5228
  84   2.0000      -0.346834        -9.4378
  85   2.0000      -0.326147        -8.8749
  86   2.0000      -0.323560        -8.8045
  87   2.0000      -0.314966        -8.5707
  88   2.0000      -0.312202        -8.4954
  89   2.0000      -0.303131        -8.2486
  90   2.0000      -0.300434        -8.1752
  91   2.0000      -0.291254        -7.9254
  92   2.0000      -0.286667        -7.8006
  93   2.0000      -0.277527        -7.5519
  94   2.0000      -0.273455        -7.4411
  95   2.0000      -0.251657        -6.8479
  96   2.0000      -0.242479        -6.5982
  97   2.0000      -0.234137        -6.3712
  98   2.0000      -0.225063        -6.1243
  99   2.0000      -0.218625        -5.9491
 100   2.0000      -0.213155        -5.8002
 101   0.0000      -0.047203        -1.2845
 102   0.0000      -0.039201        -1.0667
 103   0.0000      -0.011057        -0.3009
 104   0.0000       0.008836         0.2405
 105   0.0000       0.014082         0.3832

MULLIKEN ATOMIC CHARGES
-----------------------
   0 C :   -0.502741
   1 C :   -0.091882
   2 O :   -0.297396
   3 P :    0.675550
   4 S :   -0.473722
   5 O :   -0.306089
   6 C :   -0.145429
   7 C :   -0.480844
   8 S :   -0.181439
   9 C :   -0.219582
  10 S :   -0.188019
  11 P :    0.661652
  12 S :   -0.488225
  13 O :   -0.317422
  14 C :   -0.096078
  15 C :   -0.493992
  16 O :   -0.282269
  17 C :   -0.127686
  18 C :   -0.498787
  19 H :    0.167579
  20 H :    0.169623
  21 H :    0.171326
  22 H :    0.175040
  23 H :    0.180731
  24 H :    0.173390
  25 H :    0.169088
  26 H :    0.167162
  27 H :    0.169715
  28 H :    0.166450
  29 H :    0.217613
  30 H :    0.231857
  31 H :    0.162480
  32 H :    0.178247
  33 H :    0.169405
  34 H :    0.171111
  35 H :    0.167221
  36 H :    0.171471
  37 H :    0.174189
  38 H :    0.168706
  39 H :    0.165758
  40 H :    0.166236
Sum of atomic charges:    0.0000000

LOEWDIN ATOMIC CHARGES
----------------------
   0 C :   -0.394997
   1 C :    0.026317
   2 O :   -0.683711
   3 P :    0.375421
   4 S :   -0.129537
   5 O :   -0.682030
   6 C :    0.024835
   7 C :   -0.388812
   8 S :    0.130940
   9 C :   -0.411927
  10 S :    0.138177
  11 P :    0.379021
  12 S :   -0.140000
  13 O :   -0.674391
  14 C :    0.031109
  15 C :   -0.396136
  16 O :   -0.680943
  17 C :    0.014093
  18 C :   -0.389921
  19 H :    0.163568
  20 H :    0.165552
  21 H :    0.168945
  22 H :    0.182574
  23 H :    0.190161
  24 H :    0.181906
  25 H :    0.179749
  26 H :    0.163588
  27 H :    0.169210
  28 H :    0.163344
  29 H :    0.197939
  30 H :    0.192922
  31 H :    0.181072
  32 H :    0.191118
  33 H :    0.166234
  34 H :    0.168689
  35 H :    0.163798
  36 H :    0.181888
  37 H :    0.185248
  38 H :    0.168693
  39 H :    0.163110
  40 H :    0.163184

  Mayer bond orders larger than 0.100000
B(  0-C ,  1-C ) :   0.9330 B(  0-C , 19-H ) :   0.9699 B(  0-C , 20-H ) :   0.9667
B(  0-C , 21-H ) :   0.9592 B(  1-C ,  2-O ) :   0.7287 B(  1-C , 22-H ) :   0.9569
B(  1-C , 23-H ) :   0.9499 B(  2-O ,  3-P ) :   1.1426 B(  3-P ,  4-S ) :   1.8157
B(  3-P ,  5-O ) :   1.0697 B(  3-P ,  8-S ) :   1.0000 B(  5-O ,  6-C ) :   0.7791
B(  6-C ,  7-C ) :   0.9554 B(  6-C , 24-H ) :   0.9467 B(  6-C , 25-H ) :   0.9325
B(  7-C , 26-H ) :   0.9689 B(  7-C , 27-H ) :   0.9576 B(  7-C , 28-H ) :   0.9683
B(  8-S ,  9-C ) :   0.9240 B(  9-C , 10-S ) :   0.8915 B(  9-C , 29-H ) :   0.9066
B(  9-C , 30-H ) :   0.9002 B( 10-S , 11-P ) :   1.0043 B( 11-P , 12-S ) :   1.8231
B( 11-P , 13-O ) :   1.1883 B( 11-P , 16-O ) :   1.0628 B( 13-O , 14-C ) :   0.7483
B( 14-C , 15-C ) :   0.9365 B( 14-C , 31-H ) :   0.9541 B( 14-C , 32-H ) :   0.9525
B( 15-C , 33-H ) :   0.9647 B( 15-C , 34-H ) :   0.9593 B( 15-C , 35-H ) :   0.9686
B( 16-O , 17-C ) :   0.7846 B( 17-C , 18-C ) :   0.9359 B( 17-C , 36-H ) :   0.9428
B( 17-C , 37-H ) :   0.9285 B( 18-C , 38-H ) :   0.9578 B( 18-C , 39-H ) :   0.9695
B( 18-C , 40-H ) :   0.9723

Dispersion correction           -0.020996442
FINAL SINGLE POINT ENERGY     -2932.470270229761

DIPOLE MOMENT
-------------

Method             : SCF
Type of density    : Electron Density
Multiplicity       :   1
Irrep              :   0
Energy             : -2932.4956247275076748 Eh
Relativity type    :
Basis              : AO
                                X                 Y                 Z
Electronic contribution:     -6.415323981      -9.572905574     -16.505204858
Nuclear contribution   :      8.722341909      12.100053723      16.985835671
                        -----------------------------------------
Total Dipole Moment    :      2.307017928       2.527148150       0.480630813
                        -----------------------------------------
Magnitude (a.u.)       :      3.455403807
Magnitude (Debye)      :      8.782938487

Rotational constants in cm-1:             0.012930             0.004616             0.004476
Rotational constants in MHz :           387.629849           138.378763           134.180111

                             ****ORCA TERMINATED NORMALLY****
TOTAL RUN TIME: 0 days 0 hours 1 minutes 49 seconds 993 msec
