                         Program Version 6.0.0  -   RELEASE  -
|  1> ! wb97x-v def2-tzvp def2/J RIJCOSX DEFGRID2 scfconv7 GCP(DFT/TZ) printgap
|  2> %output
|  3>     printlevel normal
|  4> end
|  5> * xyz 0 1
|  6> C -1.818474800779177 -0.8403779468947498 0.4542287915719275
|  7> S -0.9365180820559834 0.5011978340938201 -0.4369855276350671
|  8> S 0.9387122591751706 0.49302941239008236 0.4481428242242868
|  9> C 1.8206792343750138 -0.8382862479218934 -0.4579537263296584
| 10> H -2.8289444046888432 -0.874143509785066 0.033492821325807755
| 11> H -1.8765646013338764 -0.6188278614674669 1.521708804301882
| 12> H -1.328070464153165 -1.8015921123449146 0.28589645952713305
| 13> H 2.8309264415370623 -0.8783333298472149 -0.03721842427709484
| 14> H 1.8791829544208356 -0.6040208272676932 -1.5227010843114235
| 15> H 1.3288010871349718 -1.8006569989135004 -0.3011754958539367
| 16> *
| 17>
| 18>                          ****END OF INPUT****

CARTESIAN COORDINATES (ANGSTROEM)
---------------------------------
  C     -1.818475   -0.840378    0.454229
  S     -0.936518    0.501198   -0.436986
  S      0.938712    0.493029    0.448143
  C      1.820679   -0.838286   -0.457954
  H     -2.828944   -0.874144    0.033493
  H     -1.876565   -0.618828    1.521709
  H     -1.328070   -1.801592    0.285896
  H      2.830926   -0.878333   -0.037218
  H      1.879183   -0.604021   -1.522701
  H      1.328801   -1.800657   -0.301175

 Total Charge           Charge          ....    0
 Multiplicity           Mult            ....    1
 Number of Electrons    NEL             ....   50
 Basis Dimension        Dim             ....  172

ORBITAL ENERGIES
----------------

  NO   OCC          E(Eh)            E(eV)
   0   2.0000     -94.144014     -2561.7889
   1   2.0000     -94.143907     -2561.7859
   2   2.0000     -12.077364      -328.6418
   3   2.0000     -12.077350      -328.6414
   4   2.0000      -9.652678      -262.6627
   5   2.0000      -9.652345      -262.6537
   6   2.0000      -7.633911      -207.7293
   7   2.0000      -7.629346      -207.6051
   8   2.0000      -7.629174      -207.6004
   9   2.0000      -7.627759      -207.5619
  10   2.0000      -7.627644      -207.5587
  11   2.0000      -7.625993      -207.5138
  12   2.0000      -1.312792       -35.7229
  13   2.0000      -1.246785       -33.9267
  14   2.0000      -1.159546       -31.5529
  15   2.0000      -1.071864       -29.1669
  16   2.0000      -0.874532       -23.7972
  17   2.0000      -0.858377       -23.3576
  18   2.0000      -0.857588       -23.3362
  19   2.0000      -0.847827       -23.0705
  20   2.0000      -0.831332       -22.6217
  21   2.0000      -0.790267       -21.5043
  22   2.0000      -0.742252       -20.1977
  23   2.0000      -0.660037       -17.9605
  24   2.0000      -0.647389       -17.6163
  25   0.0000      -0.292477        -7.9587
  26   0.0000      -0.199383        -5.4255
  27   0.0000      -0.195256        -5.3132
  28   0.0000      -0.017227        -0.4688
  29   0.0000       0.008781         0.2390

MULLIKEN ATOMIC CHARGES
-----------------------
   0 C :   -0.320748
   1 S :   -0.071642
   2 S :   -0.071866
   3 C :   -0.320774
   4 H :    0.130974
   5 H :    0.137963
   6 H :    0.123551
   7 H :    0.131109
   8 H :    0.137935
   9 H :    0.123497
Sum of atomic charges:   -0.0000000

LOEWDIN ATOMIC CHARGES
----------------------
   0 C :   -0.532810
   1 S :    0.220875
   2 S :    0.220841
   3 C :   -0.532786
   4 H :    0.109540
   5 H :    0.103072
   6 H :    0.099289
   7 H :    0.109615
   8 H :    0.103090
   9 H :    0.099274

  Mayer bond orders larger than 0.100000
B(  0-C ,  1-S ) :   1.0217 B(  0-C ,  4-H ) :   0.9568 B(  0-C ,  5-H ) :   0.9676
B(  0-C ,  6-H ) :   0.9677 B(  1-S ,  2-S ) :   1.1719 B(  2-S ,  3-C ) :   1.0216
B(  3-C ,  7-H ) :   0.9568 B(  3-C ,  8-H ) :   0.9676 B(  3-C ,  9-H ) :   0.9677

FINAL SINGLE POINT ENERGY      -876.115643481482

DIPOLE MOMENT
-------------

Method             : SCF
Type of density    : Electron Density
Multiplicity       :   1
Irrep              :   0
Energy             :  -876.1219527172816015 Eh
Relativity type    :
Basis              : AO
                                X                 Y                 Z
Electronic contribution:      0.000446532       5.654385780       0.031042760
Nuclear contribution   :     -0.001106814      -6.500315645      -0.036402544
                        -----------------------------------------
Total Dipole Moment    :     -0.000660283      -0.845929866      -0.005359784
                        -----------------------------------------
Magnitude (a.u.)       :      0.845947103
Magnitude (Debye)      :      2.150226654

Rotational constants in cm-1:             0.264470             0.091064             0.082614
Rotational constants in MHz :          7928.611267          2730.017787          2476.715084

                             ****ORCA TERMINATED NORMALLY****
TOTAL RUN TIME: 0 days 0 hours 0 minutes 45 seconds 203 msec
