                         Program Version 6.0.0  -   RELEASE  -
|  1> ! wb97x-v def2-tzvp def2/J RIJCOSX DEFGRID2 scfconv7 GCP(DFT/TZ) printgap
|  2> %output
|  3>     printlevel normal
|  4> end
|  5> %cpcm
|  6>     smd true
|  7>     smdsolvent "water"
|  8> end
|  9> * xyz 0 1
| 10> C -1.818474800779177 -0.8403779468947498 0.4542287915719275
| 11> S -0.9365180820559834 0.5011978340938201 -0.4369855276350671
| 12> S 0.9387122591751706 0.49302941239008236 0.4481428242242868
| 13> C 1.8206792343750138 -0.8382862479218934 -0.4579537263296584
| 14> H -2.8289444046888432 -0.874143509785066 0.033492821325807755
| 15> H -1.8765646013338764 -0.6188278614674669 1.521708804301882
| 16> H -1.328070464153165 -1.8015921123449146 0.28589645952713305
| 17> H 2.8309264415370623 -0.8783333298472149 -0.03721842427709484
| 18> H 1.8791829544208356 -0.6040208272676932 -1.5227010843114235
| 19> H 1.3288010871349718 -1.8006569989135004 -0.3011754958539367
| 20> *
| 21>
| 22>                          ****END OF INPUT****

CARTESIAN COORDINATES (ANGSTROEM)
---------------------------------
  C     -1.818475   -0.840378    0.454229
  S     -0.936518    0.501198   -0.436986
  S      0.938712    0.493029    0.448143
  C      1.820679   -0.838286   -0.457954
  H     -2.828944   -0.874144    0.033493
  H     -1.876565   -0.618828    1.521709
  H     -1.328070   -1.801592    0.285896
  H      2.830926   -0.878333   -0.037218
  H      1.879183   -0.604021   -1.522701
  H      1.328801   -1.800657   -0.301175

 Total Charge           Charge          ....    0
 Multiplicity           Mult            ....    1
 Number of Electrons    NEL             ....   50
 Basis Dimension        Dim             ....  172

ORBITAL ENERGIES
----------------

  NO   OCC          E(Eh)            E(eV)
   0   2.0000     -94.141947     -2561.7326
   1   2.0000     -94.141844     -2561.7298
   2   2.0000     -12.064631      -328.2953
   3   2.0000     -12.064619      -328.2950
   4   2.0000      -9.650675      -262.6082
   5   2.0000      -9.650351      -262.5994
   6   2.0000      -7.632018      -207.6778
   7   2.0000      -7.627293      -207.5492
   8   2.0000      -7.627120      -207.5445
   9   2.0000      -7.625942      -207.5124
  10   2.0000      -7.625829      -207.5094
  11   2.0000      -7.624122      -207.4629
  12   2.0000      -1.308474       -35.6054
  13   2.0000      -1.237821       -33.6828
  14   2.0000      -1.149450       -31.2781
  15   2.0000      -1.065131       -28.9837
  16   2.0000      -0.865067       -23.5397
  17   2.0000      -0.846058       -23.0224
  18   2.0000      -0.845488       -23.0069
  19   2.0000      -0.833795       -22.6887
  20   2.0000      -0.821623       -22.3575
  21   2.0000      -0.785067       -21.3628
  22   2.0000      -0.739022       -20.1098
  23   2.0000      -0.657800       -17.8996
  24   2.0000      -0.645229       -17.5576
  25   0.0000      -0.290484        -7.9045
  26   0.0000      -0.193469        -5.2646
  27   0.0000      -0.189454        -5.1553
  28   0.0000      -0.000846        -0.0230
  29   0.0000       0.021739         0.5915

MULLIKEN ATOMIC CHARGES
-----------------------
   0 C :   -0.356151
   1 S :   -0.112735
   2 S :   -0.113022
   3 C :   -0.356198
   4 H :    0.159978
   5 H :    0.153150
   6 H :    0.155880
   7 H :    0.160151
   8 H :    0.153152
   9 H :    0.155795
Sum of atomic charges:   -0.0000000

LOEWDIN ATOMIC CHARGES
----------------------
   0 C :   -0.528140
   1 S :    0.194299
   2 S :    0.194240
   3 C :   -0.528112
   4 H :    0.118006
   5 H :    0.107343
   6 H :    0.108462
   7 H :    0.118091
   8 H :    0.107370
   9 H :    0.108441

  Mayer bond orders larger than 0.100000
B(  0-C ,  1-S ) :   1.0108 B(  0-C ,  4-H ) :   0.9485 B(  0-C ,  5-H ) :   0.9635
B(  0-C ,  6-H ) :   0.9620 B(  1-S ,  2-S ) :   1.1663 B(  2-S ,  3-C ) :   1.0108
B(  3-C ,  7-H ) :   0.9484 B(  3-C ,  8-H ) :   0.9635 B(  3-C ,  9-H ) :   0.9620

FINAL SINGLE POINT ENERGY      -876.118301112824

DIPOLE MOMENT
-------------

Method             : SCF
Type of density    : Electron Density
Multiplicity       :   1
Irrep              :   0
Energy             :  -876.1246103486237189 Eh
Relativity type    :
Basis              : AO
                                X                 Y                 Z
Electronic contribution:      0.000215445       5.308523699       0.028887633
Nuclear contribution   :     -0.001106814      -6.500315645      -0.036402544
                        -----------------------------------------
Total Dipole Moment    :     -0.000891370      -1.191791946      -0.007514912
                        -----------------------------------------
Magnitude (a.u.)       :      1.191815972
Magnitude (Debye)      :      3.029355455

Rotational constants in cm-1:             0.264470             0.091064             0.082614
Rotational constants in MHz :          7928.611267          2730.017787          2476.715084

                             ****ORCA TERMINATED NORMALLY****
TOTAL RUN TIME: 0 days 0 hours 0 minutes 47 seconds 648 msec
