                         Program Version 6.0.0  -   RELEASE  -
|  1> ! pbe def2-sv(p) def2/J RI DEFGRID1 loosescf d4 GCP(DFT/SV(P)) printgap
|  2> %output
|  3>     printlevel normal
|  4> end
|  5> * xyz 0 1
|  6> C 5.7080435911 0.9382200428 -0.8588170047
|  7> C 4.3602720267 0.3391750805 -1.2060973313
|  8> O 3.5521228099 0.34734646 -0.0127873085
|  9> P 1.9753605351 0.1943372761 -0.0846380135
| 10> S 1.0961217067 1.4414915998 -1.3178330024
| 11> O 1.5224965957 0.4290426715 1.4035655763
| 12> C 1.7130544991 -0.4776841677 2.524736513
| 13> C 3.1507147097 -0.910924729 2.7037447227
| 14> S 1.7122417924 -1.8660848897 -0.5389637202
| 15> C -0.0408226637 -1.8037516053 -0.9629506626
| 16> S -1.0878258786 -1.4010807184 0.4723158016
| 17> P -2.1756748699 0.2693135551 -0.2822118549
| 18> S -2.2672864835 0.4477460121 -2.2248326336
| 19> O -1.5843481944 1.5331340587 0.4514329061
| 20> C -1.5024158292 1.6515815199 1.8927681354
| 21> C -2.6547776677 2.4728732418 2.4322076468
| 22> O -3.5847857698 0.1104979723 0.44367067
| 23> C -4.6691817063 -0.6500216188 -0.1188628563
| 24> C -4.3596786014 -2.1302120733 -0.208449991
| 25> H 5.5834117504 1.9602460582 -0.5121681478
| 26> H 6.1829894176 0.3547407193 -0.0757652101
| 27> H 6.3372080699 0.9345200752 -1.7427579681
| 28> H 4.4574902493 -0.6960565419 -1.5436718409
| 29> H 3.8477445235 0.9212948767 -1.9796535234
| 30> H 1.3612529407 0.109266567 3.3744451874
| 31> H 1.0578489761 -1.3405336474 2.3740270818
| 32> H 3.2313934339 -1.4808910148 3.6243014531
| 33> H 3.4657007929 -1.5371732828 1.871935424
| 34> H 3.8021143568 -0.0428340001 2.7589102507
| 35> H -0.3037214664 -2.7994934321 -1.3106267139
| 36> H -0.2149518519 -1.0535359101 -1.7396090644
| 37> H -1.4902418693 0.6484659259 2.3296504368
| 38> H -0.5418714485 2.1413096536 2.0686480498
| 39> H -2.6774525468 3.4441074312 1.9453545612
| 40> H -3.597617911 1.9652937035 2.2477850539
| 41> H -2.5213606872 2.6090694452 3.500823538
| 42> H -5.5007570088 -0.4534543116 0.5593483462
| 43> H -4.8922619542 -0.244587023 -1.1103644245
| 44> H -4.0172312525 -2.5067627312 0.7520979868
| 45> H -5.2570370288 -2.6627683455 -0.5065821151
| 46> H -3.5858161527 -2.302484063 -0.9549415061
| 47> *
| 48>
| 49>                          ****END OF INPUT****

CARTESIAN COORDINATES (ANGSTROEM)
---------------------------------
  C      5.708044    0.938220   -0.858817
  C      4.360272    0.339175   -1.206097
  O      3.552123    0.347346   -0.012787
  P      1.975361    0.194337   -0.084638
  S      1.096122    1.441492   -1.317833
  O      1.522497    0.429043    1.403566
  C      1.713054   -0.477684    2.524737
  C      3.150715   -0.910925    2.703745
  S      1.712242   -1.866085   -0.538964
  C     -0.040823   -1.803752   -0.962951
  S     -1.087826   -1.401081    0.472316
  P     -2.175675    0.269314   -0.282212
  S     -2.267286    0.447746   -2.224833
  O     -1.584348    1.533134    0.451433
  C     -1.502416    1.651582    1.892768
  C     -2.654778    2.472873    2.432208
  O     -3.584786    0.110498    0.443671
  C     -4.669182   -0.650022   -0.118863
  C     -4.359679   -2.130212   -0.208450
  H      5.583412    1.960246   -0.512168
  H      6.182989    0.354741   -0.075765
  H      6.337208    0.934520   -1.742758
  H      4.457490   -0.696057   -1.543672
  H      3.847745    0.921295   -1.979654
  H      1.361253    0.109267    3.374445
  H      1.057849   -1.340534    2.374027
  H      3.231393   -1.480891    3.624301
  H      3.465701   -1.537173    1.871935
  H      3.802114   -0.042834    2.758910
  H     -0.303721   -2.799493   -1.310627
  H     -0.214952   -1.053536   -1.739609
  H     -1.490242    0.648466    2.329650
  H     -0.541871    2.141310    2.068648
  H     -2.677453    3.444107    1.945355
  H     -3.597618    1.965294    2.247785
  H     -2.521361    2.609069    3.500824
  H     -5.500757   -0.453454    0.559348
  H     -4.892262   -0.244587   -1.110364
  H     -4.017231   -2.506763    0.752098
  H     -5.257037   -2.662768   -0.506582
  H     -3.585816   -2.302484   -0.954942

 Total Charge           Charge          ....    0
 Multiplicity           Mult            ....    1
 Number of Electrons    NEL             ....  202
 Basis Dimension        Dim             ....  334

ORBITAL ENERGIES
----------------

  NO   OCC          E(Eh)            E(eV)
   0   2.0000     -88.044309     -2395.8074
   1   2.0000     -88.040689     -2395.7089
   2   2.0000     -87.980909     -2394.0822
   3   2.0000     -87.974527     -2393.9086
   4   2.0000     -76.422374     -2079.5585
   5   2.0000     -76.421617     -2079.5379
   6   2.0000     -18.792755      -511.3769
   7   2.0000     -18.791821      -511.3514
   8   2.0000     -18.789512      -511.2886
   9   2.0000     -18.781947      -511.0828
  10   2.0000      -9.957852      -270.9669
  11   2.0000      -9.953946      -270.8606
  12   2.0000      -9.952016      -270.8081
  13   2.0000      -9.950618      -270.7701
  14   2.0000      -9.949136      -270.7298
  15   2.0000      -9.889895      -269.1177
  16   2.0000      -9.888209      -269.0718
  17   2.0000      -9.882427      -268.9145
  18   2.0000      -9.881171      -268.8803
  19   2.0000      -7.689391      -209.2390
  20   2.0000      -7.685173      -209.1242
  21   2.0000      -7.626136      -207.5177
  22   2.0000      -7.619493      -207.3369
  23   2.0000      -6.419801      -174.6917
  24   2.0000      -6.418989      -174.6696
  25   2.0000      -5.717167      -155.5720
  26   2.0000      -5.713713      -155.4780
  27   2.0000      -5.713037      -155.4596
  28   2.0000      -5.709671      -155.3680
  29   2.0000      -5.706688      -155.2869
  30   2.0000      -5.702209      -155.1650
  31   2.0000      -5.655202      -153.8859
  32   2.0000      -5.648555      -153.7050
  33   2.0000      -5.646661      -153.6535
  34   2.0000      -5.646194      -153.6408
  35   2.0000      -5.639972      -153.4714
  36   2.0000      -5.639660      -153.4630
  37   2.0000      -4.642588      -126.3312
  38   2.0000      -4.641804      -126.3099
  39   2.0000      -4.641763      -126.3088
  40   2.0000      -4.640635      -126.2781
  41   2.0000      -4.639786      -126.2550
  42   2.0000      -4.639418      -126.2450
  43   2.0000      -0.987065       -26.8594
  44   2.0000      -0.982562       -26.7369
  45   2.0000      -0.945867       -25.7383
  46   2.0000      -0.938258       -25.5313
  47   2.0000      -0.761384       -20.7183
  48   2.0000      -0.719306       -19.5733
  49   2.0000      -0.709742       -19.3131
  50   2.0000      -0.693856       -18.8808
  51   2.0000      -0.686560       -18.6823
  52   2.0000      -0.675347       -18.3771
  53   2.0000      -0.646090       -17.5810
  54   2.0000      -0.631048       -17.1717
  55   2.0000      -0.594630       -16.1807
  56   2.0000      -0.590422       -16.0662
  57   2.0000      -0.571143       -15.5416
  58   2.0000      -0.568352       -15.4657
  59   2.0000      -0.563513       -15.3340
  60   2.0000      -0.504524       -13.7288
  61   2.0000      -0.495462       -13.4822
  62   2.0000      -0.477408       -12.9909
  63   2.0000      -0.469661       -12.7801
  64   2.0000      -0.451045       -12.2736
  65   2.0000      -0.446487       -12.1495
  66   2.0000      -0.440950       -11.9989
  67   2.0000      -0.435406       -11.8480
  68   2.0000      -0.430109       -11.7039
  69   2.0000      -0.422482       -11.4963
  70   2.0000      -0.410737       -11.1767
  71   2.0000      -0.401768       -10.9327
  72   2.0000      -0.388898       -10.5825
  73   2.0000      -0.383680       -10.4405
  74   2.0000      -0.377564       -10.2740
  75   2.0000      -0.365091        -9.9346
  76   2.0000      -0.362709        -9.8698
  77   2.0000      -0.359715        -9.7883
  78   2.0000      -0.353095        -9.6082
  79   2.0000      -0.351699        -9.5702
  80   2.0000      -0.349161        -9.5011
  81   2.0000      -0.348463        -9.4821
  82   2.0000      -0.340310        -9.2603
  83   2.0000      -0.336455        -9.1554
  84   2.0000      -0.334832        -9.1113
  85   2.0000      -0.315872        -8.5953
  86   2.0000      -0.310998        -8.4627
  87   2.0000      -0.297636        -8.0991
  88   2.0000      -0.292709        -7.9650
  89   2.0000      -0.292145        -7.9497
  90   2.0000      -0.287360        -7.8195
  91   2.0000      -0.276733        -7.5303
  92   2.0000      -0.265201        -7.2165
  93   2.0000      -0.260271        -7.0823
  94   2.0000      -0.255893        -6.9632
  95   2.0000      -0.236969        -6.4482
  96   2.0000      -0.218003        -5.9322
  97   2.0000      -0.210774        -5.7354
  98   2.0000      -0.198692        -5.4067
  99   2.0000      -0.187697        -5.1075
 100   2.0000      -0.181926        -4.9504
 101   0.0000      -0.041921        -1.1407
 102   0.0000      -0.032119        -0.8740
 103   0.0000      -0.007061        -0.1921
 104   0.0000       0.010281         0.2798
 105   0.0000       0.018854         0.5130

MULLIKEN ATOMIC CHARGES
-----------------------
   0 C :   -0.281185
   1 C :   -0.010506
   2 O :   -0.377687
   3 P :    0.583483
   4 S :   -0.281341
   5 O :   -0.356373
   6 C :   -0.007378
   7 C :   -0.301171
   8 S :   -0.123443
   9 C :   -0.339818
  10 S :   -0.130307
  11 P :    0.609682
  12 S :   -0.289377
  13 O :   -0.340479
  14 C :   -0.021767
  15 C :   -0.282208
  16 O :   -0.385792
  17 C :    0.001562
  18 C :   -0.310621
  19 H :    0.122141
  20 H :    0.113445
  21 H :    0.113073
  22 H :    0.101340
  23 H :    0.107688
  24 H :    0.104513
  25 H :    0.114189
  26 H :    0.113049
  27 H :    0.118751
  28 H :    0.123114
  29 H :    0.179716
  30 H :    0.210900
  31 H :    0.097915
  32 H :    0.119719
  33 H :    0.121697
  34 H :    0.118149
  35 H :    0.104006
  36 H :    0.102088
  37 H :    0.112039
  38 H :    0.115470
  39 H :    0.111535
  40 H :    0.120186
Sum of atomic charges:    0.0000000

LOEWDIN ATOMIC CHARGES
----------------------
   0 C :   -0.350526
   1 C :   -0.121234
   2 O :   -0.245939
   3 P :    0.558098
   4 S :   -0.290728
   5 O :   -0.232523
   6 C :   -0.115143
   7 C :   -0.366595
   8 S :    0.058799
   9 C :   -0.477846
  10 S :    0.065679
  11 P :    0.574480
  12 S :   -0.291042
  13 O :   -0.225071
  14 C :   -0.113952
  15 C :   -0.359115
  16 O :   -0.251292
  17 C :   -0.117054
  18 C :   -0.370990
  19 H :    0.129830
  20 H :    0.125081
  21 H :    0.131450
  22 H :    0.108467
  23 H :    0.110061
  24 H :    0.118932
  25 H :    0.103413
  26 H :    0.131491
  27 H :    0.118186
  28 H :    0.128699
  29 H :    0.135260
  30 H :    0.126645
  31 H :    0.100022
  32 H :    0.122174
  33 H :    0.129951
  34 H :    0.124910
  35 H :    0.126897
  36 H :    0.116949
  37 H :    0.112385
  38 H :    0.121959
  39 H :    0.129921
  40 H :    0.119310

  Mayer bond orders larger than 0.100000
B(  0-C ,  1-C ) :   1.1601 B(  0-C , 19-H ) :   0.9507 B(  0-C , 20-H ) :   0.9515
B(  0-C , 21-H ) :   0.9418 B(  1-C ,  2-O ) :   0.9026 B(  1-C , 22-H ) :   0.9298
B(  1-C , 23-H ) :   0.9062 B(  2-O ,  3-P ) :   1.0860 B(  3-P ,  4-S ) :   1.6757
B(  3-P ,  5-O ) :   1.1332 B(  3-P ,  8-S ) :   0.9305 B(  4-S ,  8-S ) :   0.1082
B(  5-O ,  6-C ) :   0.8943 B(  6-C ,  7-C ) :   1.1735 B(  6-C , 24-H ) :   0.9332
B(  6-C , 25-H ) :   0.9110 B(  7-C , 26-H ) :   0.9350 B(  7-C , 27-H ) :   0.9381
B(  7-C , 28-H ) :   0.9422 B(  8-S ,  9-C ) :   1.0039 B(  9-C , 10-S ) :   0.9956
B(  9-C , 29-H ) :   0.9102 B(  9-C , 30-H ) :   0.8449 B( 10-S , 11-P ) :   0.9373
B( 10-S , 12-S ) :   0.1119 B( 11-P , 12-S ) :   1.6351 B( 11-P , 13-O ) :   1.1464
B( 11-P , 16-O ) :   1.0694 B( 13-O , 14-C ) :   0.8974 B( 14-C , 15-C ) :   1.1582
B( 14-C , 31-H ) :   0.9151 B( 14-C , 32-H ) :   0.9287 B( 15-C , 33-H ) :   0.9466
B( 15-C , 34-H ) :   0.9417 B( 15-C , 35-H ) :   0.9403 B( 16-O , 17-C ) :   0.9115
B( 17-C , 18-C ) :   1.1671 B( 17-C , 36-H ) :   0.9342 B( 17-C , 37-H ) :   0.9177
B( 18-C , 38-H ) :   0.9425 B( 18-C , 39-H ) :   0.9371 B( 18-C , 40-H ) :   0.9366

Dispersion correction           -0.067197688
FINAL SINGLE POINT ENERGY     -2929.514577733670

DIPOLE MOMENT
-------------

Method             : SCF
Type of density    : Electron Density
Multiplicity       :   1
Irrep              :   0
Energy             : -2929.6335754087690475 Eh
Relativity type    :
Basis              : AO
                                X                 Y                 Z
Electronic contribution:     -4.206343065       1.200002861     -13.788801425
Nuclear contribution   :      4.627990750      -2.245155194      15.412306573
                        -----------------------------------------
Total Dipole Moment    :      0.421647685      -1.045152333       1.623505149
                        -----------------------------------------
Magnitude (a.u.)       :      1.976334774
Magnitude (Debye)      :      5.023443775

Rotational constants in cm-1:             0.013280             0.005002             0.004843
Rotational constants in MHz :           398.111145           149.945761           145.180542

                             ****ORCA TERMINATED NORMALLY****
TOTAL RUN TIME: 0 days 0 hours 0 minutes 21 seconds 34 msec
