                         Program Version 6.0.0  -   RELEASE  -
|  1> ! pbe def2-sv(p) def2/J RI DEFGRID1 loosescf d4 GCP(DFT/SV(P)) printgap
|  2> %output
|  3>     printlevel normal
|  4> end
|  5> * xyz 0 1
|  6> C 2.8322796023 3.9516e-06 -0.0352674348
|  7> N 1.393154318 -0.0001549305 -0.2811624908
|  8> C 0.7275043433 1.1841959244 0.2293637637
|  9> C -0.7338267771 1.1831121933 -0.2057799126
| 10> N -1.4029445557 -0.0001950837 0.3046970504
| 11> C -0.7335983873 -1.1831265966 -0.2064165458
| 12> C 0.7272915803 -1.1840562241 0.2299794388
| 13> C -2.8125308519 9.29909e-05 -0.0260859968
| 14> H 3.1387883571 0.8809466148 0.5303109525
| 15> H 3.3585598608 0.0016574619 -0.9914545772
| 16> H 3.1392525497 -0.8823567192 0.5276209938
| 17> H 0.7696632592 1.2290171087 1.3327996877
| 18> H 1.2235420142 2.0666104062 -0.1796114806
| 19> H -1.2343039459 2.0666599274 0.1960951139
| 20> H -0.7788346761 1.2224258321 -1.3091682278
| 21> H -1.2343650581 -2.067108047 0.1943693881
| 22> H -0.7777063411 -1.2214999181 -1.3098448006
| 23> H 0.7683294051 -1.2277641989 1.3335410875
| 24> H 1.2237281913 -2.0669231976 -0.1775595851
| 25> H -3.2770666054 -0.8857509999 0.4031096915
| 26> H -2.9914903675 0.0013473397 -1.1131384883
| 27> H -3.2768847236 0.8849541103 0.4051715466
| 28> *
| 29>
| 30>                          ****END OF INPUT****

CARTESIAN COORDINATES (ANGSTROEM)
---------------------------------
  C      2.832280    0.000004   -0.035267
  N      1.393154   -0.000155   -0.281162
  C      0.727504    1.184196    0.229364
  C     -0.733827    1.183112   -0.205780
  N     -1.402945   -0.000195    0.304697
  C     -0.733598   -1.183127   -0.206417
  C      0.727292   -1.184056    0.229979
  C     -2.812531    0.000093   -0.026086
  H      3.138788    0.880947    0.530311
  H      3.358560    0.001657   -0.991455
  H      3.139253   -0.882357    0.527621
  H      0.769663    1.229017    1.332800
  H      1.223542    2.066610   -0.179611
  H     -1.234304    2.066660    0.196095
  H     -0.778835    1.222426   -1.309168
  H     -1.234365   -2.067108    0.194369
  H     -0.777706   -1.221500   -1.309845
  H      0.768329   -1.227764    1.333541
  H      1.223728   -2.066923   -0.177560
  H     -3.277067   -0.885751    0.403110
  H     -2.991490    0.001347   -1.113138
  H     -3.276885    0.884954    0.405172

 Total Charge           Charge          ....    0
 Multiplicity           Mult            ....    1
 Number of Electrons    NEL             ....   64
 Basis Dimension        Dim             ....  140

ORBITAL ENERGIES
----------------

  NO   OCC          E(Eh)            E(eV)
   0   2.0000     -13.979393      -380.3986
   1   2.0000     -13.976516      -380.3203
   2   2.0000      -9.903773      -269.4954
   3   2.0000      -9.903752      -269.4948
   4   2.0000      -9.903022      -269.4749
   5   2.0000      -9.903008      -269.4746
   6   2.0000      -9.898471      -269.3511
   7   2.0000      -9.897628      -269.3281
   8   2.0000      -0.856899       -23.3174
   9   2.0000      -0.815458       -22.1897
  10   2.0000      -0.681184       -18.5360
  11   2.0000      -0.662212       -18.0197
  12   2.0000      -0.600377       -16.3371
  13   2.0000      -0.572617       -15.5817
  14   2.0000      -0.544775       -14.8241
  15   2.0000      -0.487298       -13.2600
  16   2.0000      -0.445128       -12.1125
  17   2.0000      -0.419820       -11.4239
  18   2.0000      -0.409164       -11.1339
  19   2.0000      -0.408797       -11.1239
  20   2.0000      -0.396788       -10.7971
  21   2.0000      -0.384261       -10.4563
  22   2.0000      -0.352049        -9.5797
  23   2.0000      -0.350610        -9.5406
  24   2.0000      -0.348037        -9.4706
  25   2.0000      -0.326851        -8.8941
  26   2.0000      -0.310345        -8.4449
  27   2.0000      -0.302261        -8.2249
  28   2.0000      -0.287879        -7.8336
  29   2.0000      -0.284469        -7.7408
  30   2.0000      -0.172450        -4.6926
  31   2.0000      -0.165342        -4.4992
  32   0.0000       0.040293         1.0964
  33   0.0000       0.048937         1.3316
  34   0.0000       0.067836         1.8459
  35   0.0000       0.076723         2.0877
  36   0.0000       0.086281         2.3478

MULLIKEN ATOMIC CHARGES
-----------------------
   0 C :   -0.160786
   1 N :   -0.328770
   2 C :   -0.035520
   3 C :   -0.042636
   4 N :   -0.321183
   5 C :   -0.042524
   6 C :   -0.035527
   7 C :   -0.142644
   8 H :    0.097531
   9 H :    0.108354
  10 H :    0.097622
  11 H :    0.052979
  12 H :    0.084004
  13 H :    0.080383
  14 H :    0.051259
  15 H :    0.080385
  16 H :    0.051254
  17 H :    0.052943
  18 H :    0.084007
  19 H :    0.100981
  20 H :    0.066917
  21 H :    0.100970
Sum of atomic charges:   -0.0000000

LOEWDIN ATOMIC CHARGES
----------------------
   0 C :   -0.255985
   1 N :   -0.161276
   2 C :   -0.161784
   3 C :   -0.161183
   4 N :   -0.150814
   5 C :   -0.161180
   6 C :   -0.161804
   7 C :   -0.256460
   8 H :    0.111654
   9 H :    0.112259
  10 H :    0.111736
  11 H :    0.091459
  12 H :    0.113447
  13 H :    0.113129
  14 H :    0.091705
  15 H :    0.113109
  16 H :    0.091723
  17 H :    0.091459
  18 H :    0.113424
  19 H :    0.113028
  20 H :    0.089321
  21 H :    0.113034

  Mayer bond orders larger than 0.100000
B(  0-C ,  1-N ) :   1.0169 B(  0-C ,  8-H ) :   0.9444 B(  0-C ,  9-H ) :   0.9642
B(  0-C , 10-H ) :   0.9445 B(  1-N ,  2-C ) :   1.0398 B(  1-N ,  6-C ) :   1.0397
B(  2-C ,  3-C ) :   1.1526 B(  2-C , 11-H ) :   0.8772 B(  2-C , 12-H ) :   0.9191
B(  3-C ,  4-N ) :   1.0347 B(  3-C , 13-H ) :   0.9184 B(  3-C , 14-H ) :   0.8791
B(  4-N ,  5-C ) :   1.0346 B(  4-N ,  7-C ) :   1.0451 B(  5-C ,  6-C ) :   1.1525
B(  5-C , 15-H ) :   0.9184 B(  5-C , 16-H ) :   0.8791 B(  6-C , 17-H ) :   0.8772
B(  6-C , 18-H ) :   0.9191 B(  7-C , 19-H ) :   0.9559 B(  7-C , 20-H ) :   0.9251
B(  7-C , 21-H ) :   0.9559

Dispersion correction           -0.020038631
FINAL SINGLE POINT ENERGY      -345.711134230756

DIPOLE MOMENT
-------------

Method             : SCF
Type of density    : Electron Density
Multiplicity       :   1
Irrep              :   0
Energy             :  -345.7946416805530134 Eh
Relativity type    :
Basis              : AO
                                X                 Y                 Z
Electronic contribution:      0.029143486      -0.002074228       0.183212033
Nuclear contribution   :      0.047991652       0.002076796      -0.147874890
                        -----------------------------------------
Total Dipole Moment    :      0.077135138       0.000002568       0.035337143
                        -----------------------------------------
Magnitude (a.u.)       :      0.084844229
Magnitude (Debye)      :      0.215656892

Rotational constants in cm-1:             0.154993             0.047194             0.038673
Rotational constants in MHz :          4646.575499          1414.841422          1159.400326

                             ****ORCA TERMINATED NORMALLY****
TOTAL RUN TIME: 0 days 0 hours 0 minutes 11 seconds 770 msec
