                         Program Version 6.0.1  -  RELEASE   -
|  1> ! pbe def2-sv(p) def2/J RI DEFGRID1 loosescf d4 GCP(DFT/SV(P)) printgap
|  2> %output
|  3>     printlevel normal
|  4> end
|  5> * xyz 0 1
|  6> C 4.2414242135 -1.9970652641 1.0788778299
|  7> C 2.7525685122 -1.8526088893 0.8302133157
|  8> O 2.5629807572 -0.908079487 -0.2418223794
|  9> C 1.4882022521 -0.9950768866 -0.991578327
| 10> O 0.5997153572 -1.8118476627 -0.8352934541
| 11> C 1.4677878503 0.0615780266 -2.0761185248
| 12> C 0.2777057734 1.0026716938 -1.8626904875
| 13> H 0.2347825672 1.7305419863 -2.677127057
| 14> C 0.3629963502 1.7378151713 -0.5391781182
| 15> O -0.5872017126 1.8003472481 0.2236544735
| 16> O 1.5349236926 2.2472108118 -0.3186294988
| 17> C 1.8085258225 2.8707365049 0.9578917634
| 18> C 3.2669947375 2.6201545283 1.2878977711
| 19> S -1.3333106805 0.1412744183 -1.9094600145
| 20> P -1.6885394685 -0.3912793334 0.1115802758
| 21> S -0.5435563078 -0.6403994096 1.7014723125
| 22> O -3.0353650299 0.3967198165 0.4936140713
| 23> C -3.1359973418 1.4874414725 1.4055125598
| 24> O -2.3558670278 -1.7697034737 -0.3603773413
| 25> C -2.9077870309 -2.7038832358 0.5677742368
| 26> H 4.6710219262 -1.0366748845 1.3465716398
| 27> H 4.3976909866 -2.6970695837 1.8926055916
| 28> H 4.7361044853 -2.3683550658 0.1861661701
| 29> H 2.2252548581 -1.4697829744 1.7100043507
| 30> H 2.2879748868 -2.8003929177 0.5410757709
| 31> H 1.3453903502 -0.4350685403 -3.0386133329
| 32> H 2.3976401749 0.628036469 -2.046124977
| 33> H 1.5944543685 3.9371827464 0.853948349
| 34> H 1.1391206233 2.4380024763 1.707101925
| 35> H 3.902204244 3.0455158243 0.5174393111
| 36> H 3.500507775 3.0790657407 2.2425626658
| 37> H 3.4536041885 1.5515691525 1.3504813336
| 38> H -4.1495609834 1.452662766 1.7982480917
| 39> H -2.9530291383 2.423141804 0.8807819935
| 40> H -2.4073497146 1.3702868406 2.2096930949
| 41> H -3.026958057 -3.6321808545 0.0147652868
| 42> H -3.8703012755 -2.3432614354 0.931390305
| 43> H -2.2247309359 -2.8479697506 1.4081781488
| 44> *
| 45>
| 46>                          ****END OF INPUT****

CARTESIAN COORDINATES (ANGSTROEM)
---------------------------------
  C      4.241424   -1.997065    1.078878
  C      2.752569   -1.852609    0.830213
  O      2.562981   -0.908079   -0.241822
  C      1.488202   -0.995077   -0.991578
  O      0.599715   -1.811848   -0.835293
  C      1.467788    0.061578   -2.076119
  C      0.277706    1.002672   -1.862690
  H      0.234783    1.730542   -2.677127
  C      0.362996    1.737815   -0.539178
  O     -0.587202    1.800347    0.223654
  O      1.534924    2.247211   -0.318629
  C      1.808526    2.870737    0.957892
  C      3.266995    2.620155    1.287898
  S     -1.333311    0.141274   -1.909460
  P     -1.688539   -0.391279    0.111580
  S     -0.543556   -0.640399    1.701472
  O     -3.035365    0.396720    0.493614
  C     -3.135997    1.487441    1.405513
  O     -2.355867   -1.769703   -0.360377
  C     -2.907787   -2.703883    0.567774
  H      4.671022   -1.036675    1.346572
  H      4.397691   -2.697070    1.892606
  H      4.736104   -2.368355    0.186166
  H      2.225255   -1.469783    1.710004
  H      2.287975   -2.800393    0.541076
  H      1.345390   -0.435069   -3.038613
  H      2.397640    0.628036   -2.046125
  H      1.594454    3.937183    0.853948
  H      1.139121    2.438002    1.707102
  H      3.902204    3.045516    0.517439
  H      3.500508    3.079066    2.242563
  H      3.453604    1.551569    1.350481
  H     -4.149561    1.452663    1.798248
  H     -2.953029    2.423142    0.880782
  H     -2.407350    1.370287    2.209693
  H     -3.026958   -3.632181    0.014765
  H     -3.870301   -2.343261    0.931390
  H     -2.224731   -2.847970    1.408178

 Total Charge           Charge          ....    0
 Multiplicity           Mult            ....    1
 Number of Electrons    NEL             ....  174
 Basis Dimension        Dim             ....  316

ORBITAL ENERGIES
----------------

  NO   OCC          E(Eh)            E(eV)
   0   2.0000     -88.024385     -2395.2653
   1   2.0000     -87.963549     -2393.6099
   2   2.0000     -76.411225     -2079.2551
   3   2.0000     -18.827027      -512.3095
   4   2.0000     -18.802271      -511.6358
   5   2.0000     -18.764967      -510.6207
   6   2.0000     -18.764858      -510.6177
   7   2.0000     -18.760195      -510.4909
   8   2.0000     -18.730499      -509.6828
   9   2.0000     -10.032403      -272.9956
  10   2.0000     -10.006241      -272.2837
  11   2.0000      -9.960956      -271.0514
  12   2.0000      -9.954956      -270.8881
  13   2.0000      -9.939978      -270.4805
  14   2.0000      -9.921408      -269.9752
  15   2.0000      -9.920737      -269.9570
  16   2.0000      -9.912848      -269.7423
  17   2.0000      -9.897754      -269.3316
  18   2.0000      -9.887539      -269.0536
  19   2.0000      -7.669785      -208.7055
  20   2.0000      -7.608555      -207.0393
  21   2.0000      -6.406015      -174.3165
  22   2.0000      -5.698307      -155.0588
  23   2.0000      -5.694734      -154.9616
  24   2.0000      -5.685531      -154.7112
  25   2.0000      -5.637797      -153.4123
  26   2.0000      -5.629290      -153.1808
  27   2.0000      -5.628201      -153.1511
  28   2.0000      -4.628711      -125.9536
  29   2.0000      -4.628217      -125.9402
  30   2.0000      -4.626578      -125.8956
  31   2.0000      -1.038097       -28.2481
  32   2.0000      -1.007555       -27.4170
  33   2.0000      -0.957519       -26.0554
  34   2.0000      -0.941649       -25.6236
  35   2.0000      -0.913091       -24.8465
  36   2.0000      -0.909047       -24.7364
  37   2.0000      -0.766806       -20.8659
  38   2.0000      -0.720034       -19.5931
  39   2.0000      -0.709301       -19.3011
  40   2.0000      -0.682820       -18.5805
  41   2.0000      -0.647195       -17.6111
  42   2.0000      -0.622283       -16.9332
  43   2.0000      -0.610500       -16.6126
  44   2.0000      -0.608056       -16.5460
  45   2.0000      -0.588414       -16.0116
  46   2.0000      -0.562270       -15.3002
  47   2.0000      -0.522642       -14.2218
  48   2.0000      -0.506463       -13.7816
  49   2.0000      -0.495752       -13.4901
  50   2.0000      -0.486234       -13.2311
  51   2.0000      -0.464613       -12.6428
  52   2.0000      -0.458047       -12.4641
  53   2.0000      -0.449067       -12.2197
  54   2.0000      -0.443458       -12.0671
  55   2.0000      -0.427101       -11.6220
  56   2.0000      -0.421169       -11.4606
  57   2.0000      -0.406586       -11.0638
  58   2.0000      -0.405135       -11.0243
  59   2.0000      -0.400256       -10.8915
  60   2.0000      -0.389726       -10.6050
  61   2.0000      -0.387568       -10.5463
  62   2.0000      -0.381135       -10.3712
  63   2.0000      -0.378304       -10.2942
  64   2.0000      -0.375017       -10.2047
  65   2.0000      -0.367422        -9.9980
  66   2.0000      -0.364157        -9.9092
  67   2.0000      -0.356471        -9.7001
  68   2.0000      -0.354783        -9.6541
  69   2.0000      -0.341108        -9.2820
  70   2.0000      -0.336371        -9.1531
  71   2.0000      -0.334246        -9.0953
  72   2.0000      -0.315895        -8.5959
  73   2.0000      -0.314137        -8.5481
  74   2.0000      -0.297167        -8.0863
  75   2.0000      -0.294092        -8.0027
  76   2.0000      -0.282744        -7.6938
  77   2.0000      -0.281632        -7.6636
  78   2.0000      -0.266938        -7.2637
  79   2.0000      -0.257336        -7.0025
  80   2.0000      -0.252571        -6.8728
  81   2.0000      -0.247265        -6.7284
  82   2.0000      -0.238501        -6.4899
  83   2.0000      -0.221851        -6.0369
  84   2.0000      -0.192913        -5.2494
  85   2.0000      -0.180231        -4.9043
  86   2.0000      -0.172423        -4.6919
  87   0.0000      -0.050735        -1.3806
  88   0.0000      -0.042869        -1.1665
  89   0.0000      -0.025298        -0.6884
  90   0.0000       0.011496         0.3128
  91   0.0000       0.024635         0.6703

MULLIKEN ATOMIC CHARGES
-----------------------
   0 C :   -0.284389
   1 C :   -0.032481
   2 O :   -0.230484
   3 C :    0.078570
   4 O :   -0.185133
   5 C :   -0.009516
   6 C :   -0.341742
   7 H :    0.156127
   8 C :    0.221494
   9 O :   -0.194313
  10 O :   -0.213636
  11 C :   -0.032316
  12 C :   -0.298192
  13 S :   -0.050813
  14 P :    0.659826
  15 S :   -0.366087
  16 O :   -0.392509
  17 C :   -0.083375
  18 O :   -0.385204
  19 C :   -0.091275
  20 H :    0.115256
  21 H :    0.112828
  22 H :    0.110805
  23 H :    0.122186
  24 H :    0.113731
  25 H :    0.123178
  26 H :    0.110695
  27 H :    0.110553
  28 H :    0.133256
  29 H :    0.115948
  30 H :    0.116387
  31 H :    0.133900
  32 H :    0.109548
  33 H :    0.106400
  34 H :    0.107971
  35 H :    0.116972
  36 H :    0.103240
  37 H :    0.112594
Sum of atomic charges:   -0.0000000

LOEWDIN ATOMIC CHARGES
----------------------
   0 C :   -0.351876
   1 C :   -0.113116
   2 O :   -0.053235
   3 C :    0.014775
   4 O :   -0.161043
   5 C :   -0.248741
   6 C :   -0.263295
   7 H :    0.151961
   8 C :    0.019313
   9 O :   -0.150431
  10 O :   -0.030673
  11 C :   -0.103572
  12 C :   -0.351952
  13 S :    0.130487
  14 P :    0.602819
  15 S :   -0.332871
  16 O :   -0.261654
  17 C :   -0.214977
  18 O :   -0.258495
  19 C :   -0.214460
  20 H :    0.122452
  21 H :    0.131284
  22 H :    0.124747
  23 H :    0.115203
  24 H :    0.120753
  25 H :    0.146585
  26 H :    0.135844
  27 H :    0.119855
  28 H :    0.127748
  29 H :    0.126954
  30 H :    0.133352
  31 H :    0.129949
  32 H :    0.112884
  33 H :    0.107876
  34 H :    0.103376
  35 H :    0.118251
  36 H :    0.107247
  37 H :    0.106677

  Mayer bond orders larger than 0.100000
B(  0-C ,  1-C ) :   1.1515 B(  0-C , 20-H ) :   0.9493 B(  0-C , 21-H ) :   0.9444
B(  0-C , 22-H ) :   0.9496 B(  1-C ,  2-O ) :   0.8899 B(  1-C , 23-H ) :   0.9231
B(  1-C , 24-H ) :   0.9197 B(  2-O ,  3-C ) :   1.2374 B(  3-C ,  4-O ) :   2.0110
B(  3-C ,  5-C ) :   0.9987 B(  5-C ,  6-C ) :   1.0111 B(  5-C , 25-H ) :   0.8893
B(  5-C , 26-H ) :   0.8852 B(  6-C ,  7-H ) :   0.8744 B(  6-C ,  8-C ) :   0.9012
B(  6-C , 13-S ) :   1.0681 B(  8-C ,  9-O ) :   1.9183 B(  8-C , 10-O ) :   1.2884
B(  9-O , 14-P ) :   0.1291 B( 10-O , 11-C ) :   0.8831 B( 11-C , 12-C ) :   1.1651
B( 11-C , 27-H ) :   0.9343 B( 11-C , 28-H ) :   0.9127 B( 12-C , 29-H ) :   0.9481
B( 12-C , 30-H ) :   0.9412 B( 12-C , 31-H ) :   0.9416 B( 13-S , 14-P ) :   0.9148
B( 13-S , 15-S ) :   0.1161 B( 14-P , 15-S ) :   1.4974 B( 14-P , 16-O ) :   1.0822
B( 14-P , 18-O ) :   1.0872 B( 16-O , 17-C ) :   0.9425 B( 17-C , 32-H ) :   0.9565
B( 17-C , 33-H ) :   0.9517 B( 17-C , 34-H ) :   0.9305 B( 18-O , 19-C ) :   0.9435
B( 19-C , 35-H ) :   0.9603 B( 19-C , 36-H ) :   0.9514 B( 19-C , 37-H ) :   0.9313

Dispersion correction           -0.055308561
FINAL SINGLE POINT ENERGY     -1978.995355699977

DIPOLE MOMENT
-------------

Method             : SCF
Type of density    : Electron Density
Multiplicity       :   1
Irrep              :   0
Energy             : -1979.1240135864168224 Eh
Relativity type    :
Basis              : AO
                                X                 Y                 Z
Electronic contribution:    -16.347667773      -1.185204519     -10.868721768
Nuclear contribution   :     17.731125391       2.263419337      10.988705724
                        -----------------------------------------
Total Dipole Moment    :      1.383457619       1.078214817       0.119983957
                        -----------------------------------------
Magnitude (a.u.)       :      1.758095084
Magnitude (Debye)      :      4.468722569

Rotational constants in cm-1:             0.013190             0.008562             0.007314
Rotational constants in MHz :           395.413756           256.668423           219.278434

                             ****ORCA TERMINATED NORMALLY****
TOTAL RUN TIME: 0 days 0 hours 0 minutes 44 seconds 65 msec
