                         Program Version 6.0.1  -  RELEASE   -
|  1> ! pbe def2-sv(p) def2/J RI DEFGRID1 loosescf d4 GCP(DFT/SV(P)) printgap
|  2> %output
|  3>     printlevel normal
|  4> end
|  5> * xyz 0 1
|  6> C 2.1128314319 -4.0794349108 -0.4851125534
|  7> C 2.5807387632 -2.678660964 -0.1430952264
|  8> O 1.9772784835 -1.7663770017 -1.0793632294
|  9> C 2.4273647503 -0.5338045891 -1.1312453233
| 10> O 3.3598355217 -0.1148327396 -0.4777560015
| 11> C 1.595573932 0.3255259085 -2.0675728947
| 12> C 0.3247482734 0.7447322366 -1.3134938149
| 13> H -0.1706082998 1.5757969883 -1.817175142
| 14> C 0.7372819536 1.1425766452 0.0923275749
| 15> O 0.6792819423 0.3710745338 1.0309475856
| 16> O 1.2125660808 2.3546479297 0.1185051007
| 17> C 1.7725437708 2.8610235968 1.347370501
| 18> C 3.2886879288 2.8788237879 1.2482165866
| 19> S -0.8330007536 -0.6594159991 -1.2032165345
| 20> P -2.0027269067 -0.0014509166 0.4353417385
| 21> S -2.0942591762 1.9332571338 0.7227302026
| 22> O -3.4188910718 -0.6620129899 0.0788561472
| 23> C -4.2010189336 -0.1951531113 -1.0264446747
| 24> O -1.6570891884 -0.823562445 1.7378707159
| 25> C -1.4913722667 -2.2552346461 1.7219833361
| 26> H 2.451767297 -4.3524666119 -1.4797809036
| 27> H 2.5183877971 -4.7793021091 0.2376367077
| 28> H 1.0280105824 -4.1252033823 -0.4620482807
| 29> H 3.6684020841 -2.5780584677 -0.2130355248
| 30> H 2.2717622406 -2.3767983356 0.8638190897
| 31> H 1.3215861251 -0.2442780274 -2.9543719952
| 32> H 2.1647410833 1.2162900147 -2.3317206788
| 33> H 1.3603889873 3.8657217907 1.4533107429
| 34> H 1.4306065918 2.2270605904 2.1701832644
| 35> H 3.7053448864 3.2220692191 2.1890276925
| 36> H 3.6592312118 1.8778035422 1.0347002617
| 37> H 3.6027045101 3.5444135483 0.449802443
| 38> H -4.2813695689 0.8924383292 -0.9944034836
| 39> H -5.1795711394 -0.6522054452 -0.9049044762
| 40> H -3.741082286 -0.5090863593 -1.9630313332
| 41> H -1.2348996367 -2.5208045226 2.7440578644
| 42> H -0.6823641683 -2.5226297438 1.0418121943
| 43> H -2.4193375478 -2.7327120571 1.4125847078
| 44> *
| 45>
| 46>                          ****END OF INPUT****

CARTESIAN COORDINATES (ANGSTROEM)
---------------------------------
  C      2.112831   -4.079435   -0.485113
  C      2.580739   -2.678661   -0.143095
  O      1.977278   -1.766377   -1.079363
  C      2.427365   -0.533805   -1.131245
  O      3.359836   -0.114833   -0.477756
  C      1.595574    0.325526   -2.067573
  C      0.324748    0.744732   -1.313494
  H     -0.170608    1.575797   -1.817175
  C      0.737282    1.142577    0.092328
  O      0.679282    0.371075    1.030948
  O      1.212566    2.354648    0.118505
  C      1.772544    2.861024    1.347371
  C      3.288688    2.878824    1.248217
  S     -0.833001   -0.659416   -1.203217
  P     -2.002727   -0.001451    0.435342
  S     -2.094259    1.933257    0.722730
  O     -3.418891   -0.662013    0.078856
  C     -4.201019   -0.195153   -1.026445
  O     -1.657089   -0.823562    1.737871
  C     -1.491372   -2.255235    1.721983
  H      2.451767   -4.352467   -1.479781
  H      2.518388   -4.779302    0.237637
  H      1.028011   -4.125203   -0.462048
  H      3.668402   -2.578058   -0.213036
  H      2.271762   -2.376798    0.863819
  H      1.321586   -0.244278   -2.954372
  H      2.164741    1.216290   -2.331721
  H      1.360389    3.865722    1.453311
  H      1.430607    2.227061    2.170183
  H      3.705345    3.222069    2.189028
  H      3.659231    1.877804    1.034700
  H      3.602705    3.544414    0.449802
  H     -4.281370    0.892438   -0.994403
  H     -5.179571   -0.652205   -0.904904
  H     -3.741082   -0.509086   -1.963031
  H     -1.234900   -2.520805    2.744058
  H     -0.682364   -2.522630    1.041812
  H     -2.419338   -2.732712    1.412585

 Total Charge           Charge          ....    0
 Multiplicity           Mult            ....    1
 Number of Electrons    NEL             ....  174
 Basis Dimension        Dim             ....  316

ORBITAL ENERGIES
----------------

  NO   OCC          E(Eh)            E(eV)
   0   2.0000     -88.037970     -2395.6350
   1   2.0000     -87.977725     -2393.9956
   2   2.0000     -76.421409     -2079.5323
   3   2.0000     -18.806748      -511.7576
   4   2.0000     -18.806351      -511.7468
   5   2.0000     -18.786987      -511.2199
   6   2.0000     -18.786191      -511.1982
   7   2.0000     -18.742515      -510.0098
   8   2.0000     -18.736010      -509.8328
   9   2.0000     -10.016501      -272.5629
  10   2.0000     -10.014154      -272.4990
  11   2.0000      -9.950409      -270.7644
  12   2.0000      -9.950106      -270.7562
  13   2.0000      -9.946101      -270.6472
  14   2.0000      -9.941102      -270.5111
  15   2.0000      -9.940548      -270.4961
  16   2.0000      -9.920703      -269.9561
  17   2.0000      -9.892673      -269.1933
  18   2.0000      -9.876228      -268.7458
  19   2.0000      -7.682935      -209.0633
  20   2.0000      -7.622977      -207.4318
  21   2.0000      -6.418193      -174.6479
  22   2.0000      -5.710764      -155.3978
  23   2.0000      -5.707456      -155.3078
  24   2.0000      -5.699915      -155.1026
  25   2.0000      -5.652114      -153.8018
  26   2.0000      -5.643442      -153.5659
  27   2.0000      -5.643020      -153.5544
  28   2.0000      -4.640891      -126.2851
  29   2.0000      -4.640166      -126.2653
  30   2.0000      -4.638511      -126.2203
  31   2.0000      -1.017779       -27.6952
  32   2.0000      -1.013107       -27.5680
  33   2.0000      -0.981333       -26.7034
  34   2.0000      -0.936824       -25.4923
  35   2.0000      -0.919900       -25.0318
  36   2.0000      -0.917535       -24.9674
  37   2.0000      -0.769988       -20.9524
  38   2.0000      -0.715456       -19.4686
  39   2.0000      -0.703535       -19.1442
  40   2.0000      -0.691811       -18.8251
  41   2.0000      -0.660611       -17.9761
  42   2.0000      -0.632465       -17.2102
  43   2.0000      -0.619096       -16.8465
  44   2.0000      -0.614834       -16.7305
  45   2.0000      -0.589645       -16.0451
  46   2.0000      -0.559541       -15.2259
  47   2.0000      -0.514984       -14.0134
  48   2.0000      -0.511294       -13.9130
  49   2.0000      -0.495487       -13.4829
  50   2.0000      -0.485370       -13.2076
  51   2.0000      -0.470597       -12.8056
  52   2.0000      -0.465115       -12.6564
  53   2.0000      -0.446209       -12.1420
  54   2.0000      -0.436722       -11.8838
  55   2.0000      -0.427999       -11.6464
  56   2.0000      -0.419740       -11.4217
  57   2.0000      -0.419133       -11.4052
  58   2.0000      -0.412267       -11.2184
  59   2.0000      -0.410941       -11.1823
  60   2.0000      -0.405181       -11.0255
  61   2.0000      -0.399256       -10.8643
  62   2.0000      -0.390578       -10.6282
  63   2.0000      -0.383009       -10.4222
  64   2.0000      -0.375733       -10.2242
  65   2.0000      -0.362626        -9.8676
  66   2.0000      -0.361507        -9.8371
  67   2.0000      -0.354376        -9.6431
  68   2.0000      -0.348706        -9.4888
  69   2.0000      -0.337653        -9.1880
  70   2.0000      -0.332831        -9.0568
  71   2.0000      -0.329011        -8.9528
  72   2.0000      -0.321638        -8.7522
  73   2.0000      -0.312755        -8.5105
  74   2.0000      -0.305009        -8.2997
  75   2.0000      -0.297325        -8.0906
  76   2.0000      -0.293129        -7.9764
  77   2.0000      -0.288100        -7.8396
  78   2.0000      -0.270403        -7.3581
  79   2.0000      -0.264814        -7.2060
  80   2.0000      -0.256724        -6.9858
  81   2.0000      -0.255060        -6.9405
  82   2.0000      -0.232394        -6.3238
  83   2.0000      -0.223536        -6.0827
  84   2.0000      -0.218601        -5.9484
  85   2.0000      -0.195898        -5.3306
  86   2.0000      -0.194611        -5.2956
  87   0.0000      -0.041257        -1.1227
  88   0.0000      -0.029714        -0.8086
  89   0.0000      -0.020017        -0.5447
  90   0.0000       0.006743         0.1835
  91   0.0000       0.022242         0.6052

MULLIKEN ATOMIC CHARGES
-----------------------
   0 C :   -0.286669
   1 C :   -0.028936
   2 O :   -0.217008
   3 C :    0.085799
   4 O :   -0.206830
   5 C :   -0.022693
   6 C :   -0.282458
   7 H :    0.147552
   8 C :    0.160122
   9 O :   -0.202335
  10 O :   -0.208099
  11 C :   -0.017836
  12 C :   -0.309819
  13 S :   -0.098857
  14 P :    0.616133
  15 S :   -0.321603
  16 O :   -0.390609
  17 C :   -0.099677
  18 O :   -0.348502
  19 C :   -0.120711
  20 H :    0.114374
  21 H :    0.112592
  22 H :    0.122951
  23 H :    0.110309
  24 H :    0.118000
  25 H :    0.123446
  26 H :    0.122601
  27 H :    0.107650
  28 H :    0.120250
  29 H :    0.108046
  30 H :    0.144173
  31 H :    0.107789
  32 H :    0.117144
  33 H :    0.123572
  34 H :    0.112103
  35 H :    0.131566
  36 H :    0.136350
  37 H :    0.120120
Sum of atomic charges:   -0.0000000

LOEWDIN ATOMIC CHARGES
----------------------
   0 C :   -0.351299
   1 C :   -0.107402
   2 O :   -0.051999
   3 C :    0.025141
   4 O :   -0.162807
   5 C :   -0.237020
   6 C :   -0.256650
   7 H :    0.140018
   8 C :   -0.009674
   9 O :   -0.173511
  10 O :   -0.032176
  11 C :   -0.105594
  12 C :   -0.359405
  13 S :    0.100326
  14 P :    0.580934
  15 S :   -0.309997
  16 O :   -0.263382
  17 C :   -0.217822
  18 O :   -0.227591
  19 C :   -0.209809
  20 H :    0.126982
  21 H :    0.131105
  22 H :    0.125384
  23 H :    0.118548
  24 H :    0.121153
  25 H :    0.138209
  26 H :    0.146688
  27 H :    0.119570
  28 H :    0.124754
  29 H :    0.128313
  30 H :    0.135121
  31 H :    0.122581
  32 H :    0.111116
  33 H :    0.121556
  34 H :    0.106704
  35 H :    0.126953
  36 H :    0.110937
  37 H :    0.114044

  Mayer bond orders larger than 0.100000
B(  0-C ,  1-C ) :   1.1546 B(  0-C , 20-H ) :   0.9494 B(  0-C , 21-H ) :   0.9437
B(  0-C , 22-H ) :   0.9465 B(  1-C ,  2-O ) :   0.8976 B(  1-C , 23-H ) :   0.9263
B(  1-C , 24-H ) :   0.9269 B(  2-O ,  3-C ) :   1.2444 B(  3-C ,  4-O ) :   1.9918
B(  3-C ,  5-C ) :   1.0150 B(  5-C ,  6-C ) :   1.0461 B(  5-C , 25-H ) :   0.8983
B(  5-C , 26-H ) :   0.8892 B(  6-C ,  7-H ) :   0.8798 B(  6-C ,  8-C ) :   0.8740
B(  6-C , 13-S ) :   1.0193 B(  8-C ,  9-O ) :   1.9599 B(  8-C , 10-O ) :   1.2846
B( 10-O , 11-C ) :   0.8928 B( 11-C , 12-C ) :   1.1740 B( 11-C , 27-H ) :   0.9357
B( 11-C , 28-H ) :   0.9084 B( 12-C , 29-H ) :   0.9431 B( 12-C , 30-H ) :   0.9306
B( 12-C , 31-H ) :   0.9499 B( 13-S , 14-P ) :   0.9621 B( 13-S , 15-S ) :   0.1110
B( 14-P , 15-S ) :   1.6160 B( 14-P , 16-O ) :   1.0651 B( 14-P , 18-O ) :   1.1399
B( 16-O , 17-C ) :   0.9345 B( 17-C , 32-H ) :   0.9347 B( 17-C , 33-H ) :   0.9587
B( 17-C , 34-H ) :   0.9465 B( 18-O , 19-C ) :   0.9205 B( 19-C , 35-H ) :   0.9589
B( 19-C , 36-H ) :   0.9327 B( 19-C , 37-H ) :   0.9456

Dispersion correction           -0.053829025
FINAL SINGLE POINT ENERGY     -1979.012908786832

DIPOLE MOMENT
-------------

Method             : SCF
Type of density    : Electron Density
Multiplicity       :   1
Irrep              :   0
Energy             : -1979.1420200960678812 Eh
Relativity type    :
Basis              : AO
                                X                 Y                 Z
Electronic contribution:    -12.478515636       7.332561277      -0.852004246
Nuclear contribution   :     12.670372734      -8.462301199       0.092801190
                        -----------------------------------------
Total Dipole Moment    :      0.191857099      -1.129739922      -0.759203056
                        -----------------------------------------
Magnitude (a.u.)       :      1.374594747
Magnitude (Debye)      :      3.493942178

Rotational constants in cm-1:             0.012186             0.008678             0.006361
Rotational constants in MHz :           365.316279           260.167649           190.704186

                             ****ORCA TERMINATED NORMALLY****
TOTAL RUN TIME: 0 days 0 hours 0 minutes 44 seconds 671 msec
