                         Program Version 6.0.0  -   RELEASE  -
|  1> ! pbe def2-sv(p) def2/J RI DEFGRID1 loosescf d4 GCP(DFT/SV(P)) printgap
|  2> %output
|  3>     printlevel normal
|  4> end
|  5> * xyz 0 1
|  6> C -0.5556317361 1.360709026 0.0001362514
|  7> C 0.1467377075 0.2065423856 6.33515e-05
|  8> C -0.5267303061 -1.0835973395 5.83139e-05
|  9> O 0.0115530582 -2.1711280577 4.74708e-05
| 10> N -1.9074759099 -0.9647775717 1.31197e-05
| 11> C -2.6509974504 0.1906103304 -2.69994e-05
| 12> O -3.8640952733 0.191153981 -0.0001224835
| 13> N -1.9117258899 1.3487455552 5.33127e-05
| 14> Br 2.0422955473 0.193604784 -3.26915e-05
| 15> H -0.0695796726 2.3252355619 4.29279e-05
| 16> H -2.4343322302 -1.8343086188 2.66182e-05
| 17> H -2.4327304388 2.2197130384 3.79339e-05
| 18> *
| 19>
| 20>                          ****END OF INPUT****

CARTESIAN COORDINATES (ANGSTROEM)
---------------------------------
  C     -0.555632    1.360709    0.000136
  C      0.146738    0.206542    0.000063
  C     -0.526730   -1.083597    0.000058
  O      0.011553   -2.171128    0.000047
  N     -1.907476   -0.964778    0.000013
  C     -2.650997    0.190610   -0.000027
  O     -3.864095    0.191154   -0.000122
  N     -1.911726    1.348746    0.000053
  Br     2.042296    0.193605   -0.000033
  H     -0.069580    2.325236    0.000043
  H     -2.434332   -1.834309    0.000027
  H     -2.432730    2.219713    0.000038

 Total Charge           Charge          ....    0
 Multiplicity           Mult            ....    1
 Number of Electrons    NEL             ....   92
 Basis Dimension        Dim             ....  150

ORBITAL ENERGIES
----------------

  NO   OCC          E(Eh)            E(eV)
   0   2.0000    -480.948746    -13087.2807
   1   2.0000     -61.790705     -1681.4106
   2   2.0000     -55.721416     -1516.2568
   3   2.0000     -55.718234     -1516.1702
   4   2.0000     -55.718083     -1516.1661
   5   2.0000     -18.745105      -510.0802
   6   2.0000     -18.743664      -510.0410
   7   2.0000     -14.078900      -383.1064
   8   2.0000     -14.056517      -382.4973
   9   2.0000     -10.045226      -273.3445
  10   2.0000     -10.015356      -272.5317
  11   2.0000      -9.982415      -271.6353
  12   2.0000      -9.962775      -271.1009
  13   2.0000      -8.415968      -229.0101
  14   2.0000      -6.298623      -171.3942
  15   2.0000      -6.283386      -170.9796
  16   2.0000      -6.282861      -170.9653
  17   2.0000      -2.499600       -68.0176
  18   2.0000      -2.495872       -67.9161
  19   2.0000      -2.495511       -67.9063
  20   2.0000      -2.484063       -67.5948
  21   2.0000      -2.484023       -67.5937
  22   2.0000      -0.996170       -27.1072
  23   2.0000      -0.957798       -26.0630
  24   2.0000      -0.907872       -24.7044
  25   2.0000      -0.858248       -23.3541
  26   2.0000      -0.772544       -21.0220
  27   2.0000      -0.695078       -18.9140
  28   2.0000      -0.643949       -17.5228
  29   2.0000      -0.619688       -16.8626
  30   2.0000      -0.540929       -14.7194
  31   2.0000      -0.532251       -14.4833
  32   2.0000      -0.490030       -13.3344
  33   2.0000      -0.452118       -12.3027
  34   2.0000      -0.434094       -11.8123
  35   2.0000      -0.392927       -10.6921
  36   2.0000      -0.379957       -10.3392
  37   2.0000      -0.378190       -10.2911
  38   2.0000      -0.373765       -10.1707
  39   2.0000      -0.351093        -9.5537
  40   2.0000      -0.284244        -7.7347
  41   2.0000      -0.261151        -7.1063
  42   2.0000      -0.259524        -7.0620
  43   2.0000      -0.252660        -6.8752
  44   2.0000      -0.227039        -6.1780
  45   2.0000      -0.216652        -5.8954
  46   0.0000      -0.084809        -2.3078
  47   0.0000      -0.043890        -1.1943
  48   0.0000      -0.032053        -0.8722
  49   0.0000       0.014079         0.3831
  50   0.0000       0.046708         1.2710

MULLIKEN ATOMIC CHARGES
-----------------------
   0 C :    0.042059
   1 C :   -0.205342
   2 C :    0.172892
   3 O :   -0.150985
   4 N :   -0.243499
   5 C :    0.140488
   6 O :   -0.181812
   7 N :   -0.203127
   8 Br:    0.019347
   9 H :    0.094784
  10 H :    0.255214
  11 H :    0.259982
Sum of atomic charges:   -0.0000000

LOEWDIN ATOMIC CHARGES
----------------------
   0 C :   -0.071160
   1 C :   -0.219183
   2 C :    0.012473
   3 O :   -0.160043
   4 N :   -0.113248
   5 C :    0.028857
   6 O :   -0.188919
   7 N :   -0.092409
   8 Br:    0.141884
   9 H :    0.141328
  10 H :    0.259830
  11 H :    0.260589

  Mayer bond orders larger than 0.100000
B(  0-C ,  1-C ) :   1.6739 B(  0-C ,  7-N ) :   1.1899 B(  0-C ,  9-H ) :   0.9245
B(  1-C ,  2-C ) :   1.0029 B(  1-C ,  8-Br) :   1.0439 B(  2-C ,  3-O ) :   2.1852
B(  2-C ,  4-N ) :   1.0690 B(  4-N ,  5-C ) :   1.1041 B(  4-N , 10-H ) :   0.8276
B(  5-C ,  6-O ) :   2.1387 B(  5-C ,  7-N ) :   1.0749 B(  7-N , 11-H ) :   0.8424

Dispersion correction           -0.014746907
FINAL SINGLE POINT ENERGY     -2986.870739987572

DIPOLE MOMENT
-------------

Method             : SCF
Type of density    : Electron Density
Multiplicity       :   1
Irrep              :   0
Energy             : -2986.9125856143418787 Eh
Relativity type    :
Basis              : AO
                                X                 Y                 Z
Electronic contribution:     23.529144834       0.768785715      -0.000327759
Nuclear contribution   :    -23.672441919       0.718288423       0.000403640
                        -----------------------------------------
Total Dipole Moment    :     -0.143297085       1.487074137       0.000075881
                        -----------------------------------------
Magnitude (a.u.)       :      1.493962366
Magnitude (Debye)      :      3.797350553

Rotational constants in cm-1:             0.099979             0.021669             0.017809
Rotational constants in MHz :          2997.288258           649.624365           533.906810

                             ****ORCA TERMINATED NORMALLY****
TOTAL RUN TIME: 0 days 0 hours 0 minutes 8 seconds 147 msec
