                         Program Version 6.0.0  -   RELEASE  -
|  1> ! pbe def2-sv(p) def2/J RI DEFGRID1 loosescf d4 GCP(DFT/SV(P)) printgap
|  2> %output
|  3>     printlevel normal
|  4> end
|  5> * xyz 0 1
|  6> C 4.2713217756 0.1682763668 -2.3264749546
|  7> C 4.3444481138 0.9520135333 -1.0319068132
|  8> O 3.7419872267 0.2454665865 0.065544895
|  9> P 2.1833843318 -0.0520783569 0.1464638699
| 10> S 1.0378453136 1.4358923834 -0.4465013019
| 11> O 2.0140247176 -0.4889197862 1.6579098738
| 12> C 1.7041701792 0.4505469087 2.7060170022
| 13> C 2.8892174841 1.3320348151 3.0406182732
| 14> S 1.9861740892 -1.9386375298 -0.7717743103
| 15> C 0.2044235873 -1.9256880761 -1.1004252562
| 16> S -0.7899879104 -1.6048059735 0.3919261162
| 17> P -2.1174581715 -0.1448212711 -0.3941363745
| 18> S -1.9280372469 0.414436761 -2.2536915582
| 19> O -2.073681559 1.069431262 0.6252865383
| 20> C -2.2720513784 0.8779769191 2.0464035514
| 21> C -2.1265420304 2.2295823382 2.7137334437
| 22> O -3.4721227175 -0.9388983231 -0.0755687434
| 23> C -4.6902810603 -0.6846363045 -0.7997201902
| 24> C -5.2975120646 0.6524097301 -0.4238561086
| 25> H 4.6690961067 -0.8334759725 -2.1849858603
| 26> H 3.2358367159 0.0904494887 -2.6567057601
| 27> H 4.844946302 0.6818813981 -3.0913989101
| 28> H 3.8400221384 1.9178498121 -1.1394759999
| 29> H 5.3756023052 1.1037589188 -0.710081723
| 30> H 0.8522718639 1.0584760253 2.3835610006
| 31> H 1.4156306197 -0.1813534456 3.5470492424
| 32> H 3.7604105683 0.7200204933 3.2575464232
| 33> H 3.1174917487 1.9817245042 2.1967997876
| 34> H 2.650414417 1.9438181609 3.9049739524
| 35> H -0.0331641263 -2.9179853833 -1.4757707374
| 36> H -0.0332033593 -1.1582204486 -1.8429245071
| 37> H -3.2658576217 0.4515670114 2.2039769119
| 38> H -1.5222774703 0.1654733303 2.4054316235
| 39> H -2.8961360487 2.9076325266 2.3565983128
| 40> H -2.2177380225 2.1099831162 3.7882341039
| 41> H -1.1558635748 2.6577270693 2.4770834077
| 42> H -4.4697503415 -0.7173405139 -1.8711547039
| 43> H -5.3386011343 -1.5184444537 -0.5273657233
| 44> H -6.2193177162 0.7978108674 -0.9782409844
| 45> H -5.5100068419 0.6906912959 0.6415193918
| 46> H -4.603117925 1.453901376 -0.6771961398
| 47> *
| 48>
| 49>                          ****END OF INPUT****

CARTESIAN COORDINATES (ANGSTROEM)
---------------------------------
  C      4.271322    0.168276   -2.326475
  C      4.344448    0.952014   -1.031907
  O      3.741987    0.245467    0.065545
  P      2.183384   -0.052078    0.146464
  S      1.037845    1.435892   -0.446501
  O      2.014025   -0.488920    1.657910
  C      1.704170    0.450547    2.706017
  C      2.889217    1.332035    3.040618
  S      1.986174   -1.938638   -0.771774
  C      0.204424   -1.925688   -1.100425
  S     -0.789988   -1.604806    0.391926
  P     -2.117458   -0.144821   -0.394136
  S     -1.928037    0.414437   -2.253692
  O     -2.073682    1.069431    0.625287
  C     -2.272051    0.877977    2.046404
  C     -2.126542    2.229582    2.713733
  O     -3.472123   -0.938898   -0.075569
  C     -4.690281   -0.684636   -0.799720
  C     -5.297512    0.652410   -0.423856
  H      4.669096   -0.833476   -2.184986
  H      3.235837    0.090449   -2.656706
  H      4.844946    0.681881   -3.091399
  H      3.840022    1.917850   -1.139476
  H      5.375602    1.103759   -0.710082
  H      0.852272    1.058476    2.383561
  H      1.415631   -0.181353    3.547049
  H      3.760411    0.720020    3.257546
  H      3.117492    1.981725    2.196800
  H      2.650414    1.943818    3.904974
  H     -0.033164   -2.917985   -1.475771
  H     -0.033203   -1.158220   -1.842925
  H     -3.265858    0.451567    2.203977
  H     -1.522277    0.165473    2.405432
  H     -2.896136    2.907633    2.356598
  H     -2.217738    2.109983    3.788234
  H     -1.155864    2.657727    2.477083
  H     -4.469750   -0.717341   -1.871155
  H     -5.338601   -1.518444   -0.527366
  H     -6.219318    0.797811   -0.978241
  H     -5.510007    0.690691    0.641519
  H     -4.603118    1.453901   -0.677196

 Total Charge           Charge          ....    0
 Multiplicity           Mult            ....    1
 Number of Electrons    NEL             ....  202
 Basis Dimension        Dim             ....  334

ORBITAL ENERGIES
----------------

  NO   OCC          E(Eh)            E(eV)
   0   2.0000     -88.040518     -2395.7043
   1   2.0000     -88.037463     -2395.6212
   2   2.0000     -87.984855     -2394.1896
   3   2.0000     -87.982147     -2394.1159
   4   2.0000     -76.422460     -2079.5608
   5   2.0000     -76.421240     -2079.5277
   6   2.0000     -18.791211      -511.3348
   7   2.0000     -18.789313      -511.2832
   8   2.0000     -18.784744      -511.1589
   9   2.0000     -18.784076      -511.1407
  10   2.0000      -9.957757      -270.9643
  11   2.0000      -9.951913      -270.8053
  12   2.0000      -9.951197      -270.7858
  13   2.0000      -9.950143      -270.7572
  14   2.0000      -9.948278      -270.7064
  15   2.0000      -9.891086      -269.1501
  16   2.0000      -9.884612      -268.9740
  17   2.0000      -9.883698      -268.9491
  18   2.0000      -9.881340      -268.8849
  19   2.0000      -7.686031      -209.1475
  20   2.0000      -7.682346      -209.0473
  21   2.0000      -7.630080      -207.6250
  22   2.0000      -7.626639      -207.5314
  23   2.0000      -6.419830      -174.6924
  24   2.0000      -6.419218      -174.6758
  25   2.0000      -5.714010      -155.4861
  26   2.0000      -5.710502      -155.3907
  27   2.0000      -5.710212      -155.3828
  28   2.0000      -5.707164      -155.2998
  29   2.0000      -5.702862      -155.1828
  30   2.0000      -5.698994      -155.0775
  31   2.0000      -5.659083      -153.9915
  32   2.0000      -5.655442      -153.8924
  33   2.0000      -5.650987      -153.7712
  34   2.0000      -5.649792      -153.7387
  35   2.0000      -5.647383      -153.6731
  36   2.0000      -5.646887      -153.6596
  37   2.0000      -4.642213      -126.3210
  38   2.0000      -4.642041      -126.3164
  39   2.0000      -4.641641      -126.3055
  40   2.0000      -4.640537      -126.2754
  41   2.0000      -4.640423      -126.2723
  42   2.0000      -4.639879      -126.2575
  43   2.0000      -0.983454       -26.7611
  44   2.0000      -0.981701       -26.7134
  45   2.0000      -0.942613       -25.6498
  46   2.0000      -0.939777       -25.5726
  47   2.0000      -0.759839       -20.6763
  48   2.0000      -0.720484       -19.6054
  49   2.0000      -0.707833       -19.2611
  50   2.0000      -0.690739       -18.7960
  51   2.0000      -0.685255       -18.6467
  52   2.0000      -0.670965       -18.2579
  53   2.0000      -0.650039       -17.6885
  54   2.0000      -0.634613       -17.2687
  55   2.0000      -0.599763       -16.3204
  56   2.0000      -0.587017       -15.9736
  57   2.0000      -0.572917       -15.5899
  58   2.0000      -0.570653       -15.5283
  59   2.0000      -0.557950       -15.1826
  60   2.0000      -0.504954       -13.7405
  61   2.0000      -0.490302       -13.3418
  62   2.0000      -0.477459       -12.9923
  63   2.0000      -0.469841       -12.7850
  64   2.0000      -0.451449       -12.2845
  65   2.0000      -0.446123       -12.1396
  66   2.0000      -0.437799       -11.9131
  67   2.0000      -0.436517       -11.8782
  68   2.0000      -0.427298       -11.6274
  69   2.0000      -0.409304       -11.1377
  70   2.0000      -0.401955       -10.9377
  71   2.0000      -0.401195       -10.9171
  72   2.0000      -0.390592       -10.6286
  73   2.0000      -0.390189       -10.6176
  74   2.0000      -0.380418       -10.3517
  75   2.0000      -0.372734       -10.1426
  76   2.0000      -0.365559        -9.9474
  77   2.0000      -0.359900        -9.7934
  78   2.0000      -0.352737        -9.5985
  79   2.0000      -0.348993        -9.4966
  80   2.0000      -0.347101        -9.4451
  81   2.0000      -0.343034        -9.3344
  82   2.0000      -0.339624        -9.2416
  83   2.0000      -0.335355        -9.1255
  84   2.0000      -0.332743        -9.0544
  85   2.0000      -0.316925        -8.6240
  86   2.0000      -0.312418        -8.5013
  87   2.0000      -0.311273        -8.4702
  88   2.0000      -0.293182        -7.9779
  89   2.0000      -0.280151        -7.6233
  90   2.0000      -0.276927        -7.5356
  91   2.0000      -0.273497        -7.4422
  92   2.0000      -0.265038        -7.2120
  93   2.0000      -0.264115        -7.1869
  94   2.0000      -0.260031        -7.0758
  95   2.0000      -0.229114        -6.2345
  96   2.0000      -0.220505        -6.0003
  97   2.0000      -0.213347        -5.8055
  98   2.0000      -0.198456        -5.4003
  99   2.0000      -0.195601        -5.3226
 100   2.0000      -0.186153        -5.0655
 101   0.0000      -0.042387        -1.1534
 102   0.0000      -0.031852        -0.8667
 103   0.0000      -0.005250        -0.1429
 104   0.0000       0.011066         0.3011
 105   0.0000       0.021496         0.5849

MULLIKEN ATOMIC CHARGES
-----------------------
   0 C :   -0.318739
   1 C :   -0.002148
   2 O :   -0.370919
   3 P :    0.602959
   4 S :   -0.316064
   5 O :   -0.360168
   6 C :   -0.039816
   7 C :   -0.293919
   8 S :   -0.090443
   9 C :   -0.341563
  10 S :   -0.112362
  11 P :    0.637335
  12 S :   -0.291080
  13 O :   -0.368508
  14 C :   -0.040012
  15 C :   -0.287698
  16 O :   -0.391770
  17 C :   -0.004959
  18 C :   -0.319272
  19 H :    0.118362
  20 H :    0.131604
  21 H :    0.113083
  22 H :    0.110281
  23 H :    0.104065
  24 H :    0.132163
  25 H :    0.104493
  26 H :    0.117849
  27 H :    0.121053
  28 H :    0.107857
  29 H :    0.181088
  30 H :    0.203137
  31 H :    0.106794
  32 H :    0.118590
  33 H :    0.119355
  34 H :    0.108722
  35 H :    0.138274
  36 H :    0.111544
  37 H :    0.102924
  38 H :    0.112940
  39 H :    0.112906
  40 H :    0.132061
Sum of atomic charges:   -0.0000000

LOEWDIN ATOMIC CHARGES
----------------------
   0 C :   -0.370054
   1 C :   -0.119252
   2 O :   -0.244915
   3 P :    0.562840
   4 S :   -0.309982
   5 O :   -0.239394
   6 C :   -0.120790
   7 C :   -0.362016
   8 S :    0.090242
   9 C :   -0.475643
  10 S :    0.073268
  11 P :    0.576699
  12 S :   -0.283597
  13 O :   -0.237981
  14 C :   -0.120918
  15 C :   -0.350355
  16 O :   -0.261886
  17 C :   -0.120649
  18 C :   -0.366215
  19 H :    0.123962
  20 H :    0.123110
  21 H :    0.131072
  22 H :    0.110417
  23 H :    0.118176
  24 H :    0.108779
  25 H :    0.117691
  26 H :    0.127414
  27 H :    0.123753
  28 H :    0.128316
  29 H :    0.135919
  30 H :    0.122714
  31 H :    0.108982
  32 H :    0.105787
  33 H :    0.129616
  34 H :    0.129418
  35 H :    0.130610
  36 H :    0.109137
  37 H :    0.117334
  38 H :    0.131138
  39 H :    0.121053
  40 H :    0.126200

  Mayer bond orders larger than 0.100000
B(  0-C ,  1-C ) :   1.1666 B(  0-C , 19-H ) :   0.9441 B(  0-C , 20-H ) :   0.9353
B(  0-C , 21-H ) :   0.9376 B(  1-C ,  2-O ) :   0.9084 B(  1-C , 22-H ) :   0.9156
B(  1-C , 23-H ) :   0.9340 B(  2-O ,  3-P ) :   1.1047 B(  3-P ,  4-S ) :   1.6095
B(  3-P ,  5-O ) :   1.1191 B(  3-P ,  8-S ) :   0.9573 B(  4-S ,  8-S ) :   0.1141
B(  5-O ,  6-C ) :   0.9118 B(  6-C ,  7-C ) :   1.1621 B(  6-C , 24-H ) :   0.9001
B(  6-C , 25-H ) :   0.9342 B(  7-C , 26-H ) :   0.9458 B(  7-C , 27-H ) :   0.9381
B(  7-C , 28-H ) :   0.9395 B(  8-S ,  9-C ) :   0.9978 B(  9-C , 10-S ) :   1.0061
B(  9-C , 29-H ) :   0.9116 B(  9-C , 30-H ) :   0.8527 B( 10-S , 11-P ) :   0.9482
B( 10-S , 12-S ) :   0.1117 B( 11-P , 12-S ) :   1.6341 B( 11-P , 13-O ) :   1.1022
B( 11-P , 16-O ) :   1.0687 B( 12-S , 30-H ) :   0.1036 B( 13-O , 14-C ) :   0.9045
B( 14-C , 15-C ) :   1.1641 B( 14-C , 31-H ) :   0.9195 B( 14-C , 32-H ) :   0.9103
B( 15-C , 33-H ) :   0.9484 B( 15-C , 34-H ) :   0.9407 B( 15-C , 35-H ) :   0.9424
B( 16-O , 17-C ) :   0.9179 B( 17-C , 18-C ) :   1.1589 B( 17-C , 36-H ) :   0.9132
B( 17-C , 37-H ) :   0.9345 B( 18-C , 38-H ) :   0.9392 B( 18-C , 39-H ) :   0.9453
B( 18-C , 40-H ) :   0.9356

Dispersion correction           -0.066531040
FINAL SINGLE POINT ENERGY     -2929.517020213890

DIPOLE MOMENT
-------------

Method             : SCF
Type of density    : Electron Density
Multiplicity       :   1
Irrep              :   0
Energy             : -2929.6351062226517570 Eh
Relativity type    :
Basis              : AO
                                X                 Y                 Z
Electronic contribution:      3.147989704     -12.780588716     -10.490143203
Nuclear contribution   :     -3.351357770      12.800349175      11.609194155
                        -----------------------------------------
Total Dipole Moment    :     -0.203368065       0.019760459       1.119050952
                        -----------------------------------------
Magnitude (a.u.)       :      1.137551791
Magnitude (Debye)      :      2.891426868

Rotational constants in cm-1:             0.012654             0.005322             0.004626
Rotational constants in MHz :           379.372057           159.540819           138.687547

                             ****ORCA TERMINATED NORMALLY****
TOTAL RUN TIME: 0 days 0 hours 0 minutes 21 seconds 233 msec
