                         Program Version 6.0.0  -   RELEASE  -
|  1> ! r2scan-3c def2/J RI DEFGRID2 scfconv6 printgap
|  2> %output
|  3>     printlevel normal
|  4> end
|  5> * xyz 0 1
|  6> C 4.5980030698 -1.4310153885 -1.2618239922
|  7> C 4.7182686276 0.0053922741 -0.7953592547
|  8> O 3.678240717 0.3625108665 0.1305503065
|  9> P 2.1460000327 0.4581215245 -0.2977487998
| 10> S 1.8856887445 1.2272849839 -2.0871274238
| 11> O 1.5647621585 1.2554145145 0.9442145672
| 12> C 1.7622470928 2.6806948155 1.0680852845
| 13> C 0.8778670657 3.1759279029 2.1929253855
| 14> S 1.36261987 -1.4484473397 0.0996601541
| 15> C 0.0957638049 -1.5723840916 -1.2180592961
| 16> S -1.519206525 -2.0857121031 -0.5925730761
| 17> P -2.2100308209 -0.2642886075 0.2681478065
| 18> S -1.3378132163 1.3565213927 -0.4288325435
| 19> O -2.2533183339 -0.4236960163 1.8380003264
| 20> C -1.0918457934 -0.3810301278 2.6896291301
| 21> C -0.6750958143 -1.7825544074 3.0923918986
| 22> O -3.7726820447 -0.3367025697 0.0694840572
| 23> C -4.3558001796 -0.1667597457 -1.2393847204
| 24> C -5.8274203895 0.1423026598 -1.0532235155
| 25> H 4.5277579905 -2.1014217419 -0.409013295
| 26> H 3.7060952794 -1.545594084 -1.8766453948
| 27> H 5.4690209329 -1.6895171985 -1.8552913377
| 28> H 4.6703073482 0.6909696829 -1.6475079376
| 29> H 5.6376531323 0.1728569776 -0.2327850993
| 30> H 2.8201960928 2.8619780723 1.2744860043
| 31> H 1.4938507452 3.1488339481 0.1145331016
| 32> H -0.1652562372 2.9878481605 1.9503779059
| 33> H 1.1276713522 2.6622151927 3.116696337
| 34> H 1.0266110398 4.243328154 2.3182507513
| 35> H 0.4016685585 -2.3489831804 -1.9137779008
| 36> H 0.0178794599 -0.6014961896 -1.714288102
| 37> H -0.2796009478 0.1490927916 2.1812939234
| 38> H -1.4075138723 0.2003678157 3.5585245242
| 39> H -1.5152946497 -2.2991764163 3.5472583574
| 40> H -0.3378750939 -2.3498751425 2.2276865624
| 41> H 0.1396036514 -1.7180436444 3.8063616287
| 42> H -3.8372754825 0.6501179247 -1.7541290389
| 43> H -4.2113509129 -1.0936903214 -1.8014018715
| 44> H -5.9468449591 1.0640058644 -0.4909041098
| 45> H -6.2951584589 0.2513216516 -2.0261486585
| 46> H -6.3068819748 -0.6658181128 -0.5089845273
| 47> *
| 48>
| 49>                          ****END OF INPUT****

CARTESIAN COORDINATES (ANGSTROEM)
---------------------------------
  C      4.598003   -1.431015   -1.261824
  C      4.718269    0.005392   -0.795359
  O      3.678241    0.362511    0.130550
  P      2.146000    0.458122   -0.297749
  S      1.885689    1.227285   -2.087127
  O      1.564762    1.255415    0.944215
  C      1.762247    2.680695    1.068085
  C      0.877867    3.175928    2.192925
  S      1.362620   -1.448447    0.099660
  C      0.095764   -1.572384   -1.218059
  S     -1.519207   -2.085712   -0.592573
  P     -2.210031   -0.264289    0.268148
  S     -1.337813    1.356521   -0.428833
  O     -2.253318   -0.423696    1.838000
  C     -1.091846   -0.381030    2.689629
  C     -0.675096   -1.782554    3.092392
  O     -3.772682   -0.336703    0.069484
  C     -4.355800   -0.166760   -1.239385
  C     -5.827420    0.142303   -1.053224
  H      4.527758   -2.101422   -0.409013
  H      3.706095   -1.545594   -1.876645
  H      5.469021   -1.689517   -1.855291
  H      4.670307    0.690970   -1.647508
  H      5.637653    0.172857   -0.232785
  H      2.820196    2.861978    1.274486
  H      1.493851    3.148834    0.114533
  H     -0.165256    2.987848    1.950378
  H      1.127671    2.662215    3.116696
  H      1.026611    4.243328    2.318251
  H      0.401669   -2.348983   -1.913778
  H      0.017879   -0.601496   -1.714288
  H     -0.279601    0.149093    2.181294
  H     -1.407514    0.200368    3.558525
  H     -1.515295   -2.299176    3.547258
  H     -0.337875   -2.349875    2.227687
  H      0.139604   -1.718044    3.806362
  H     -3.837275    0.650118   -1.754129
  H     -4.211351   -1.093690   -1.801402
  H     -5.946845    1.064006   -0.490904
  H     -6.295158    0.251322   -2.026149
  H     -6.306882   -0.665818   -0.508985

 Total Charge           Charge          ....    0
 Multiplicity           Mult            ....    1
 Number of Electrons    NEL             ....  202
 Basis Dimension        Dim             ....  539

ORBITAL ENERGIES
----------------

  NO   OCC          E(Eh)            E(eV)
   0   2.0000     -88.579440     -2410.3691
   1   2.0000     -88.577651     -2410.3204
   2   2.0000     -88.518293     -2408.7052
   3   2.0000     -88.515793     -2408.6372
   4   2.0000     -76.912204     -2092.8875
   5   2.0000     -76.911564     -2092.8700
   6   2.0000     -18.989890      -516.7412
   7   2.0000     -18.989286      -516.7247
   8   2.0000     -18.986913      -516.6602
   9   2.0000     -18.985167      -516.6127
  10   2.0000     -10.107841      -275.0483
  11   2.0000     -10.096706      -274.7453
  12   2.0000     -10.096092      -274.7286
  13   2.0000     -10.093134      -274.6481
  14   2.0000     -10.093063      -274.6462
  15   2.0000     -10.030400      -272.9411
  16   2.0000     -10.027979      -272.8752
  17   2.0000     -10.025995      -272.8212
  18   2.0000     -10.023275      -272.7472
  19   2.0000      -7.873626      -214.2522
  20   2.0000      -7.872282      -214.2157
  21   2.0000      -7.812949      -212.6012
  22   2.0000      -7.810500      -212.5345
  23   2.0000      -6.590715      -179.3425
  24   2.0000      -6.590106      -179.3259
  25   2.0000      -5.820608      -158.3868
  26   2.0000      -5.819055      -158.3445
  27   2.0000      -5.817164      -158.2931
  28   2.0000      -5.816170      -158.2660
  29   2.0000      -5.810981      -158.1248
  30   2.0000      -5.809388      -158.0815
  31   2.0000      -5.760628      -156.7547
  32   2.0000      -5.758153      -156.6873
  33   2.0000      -5.753420      -156.5585
  34   2.0000      -5.752750      -156.5403
  35   2.0000      -5.750816      -156.4876
  36   2.0000      -5.750482      -156.4786
  37   2.0000      -4.736075      -128.8752
  38   2.0000      -4.735567      -128.8613
  39   2.0000      -4.735482      -128.8590
  40   2.0000      -4.735295      -128.8539
  41   2.0000      -4.734640      -128.8361
  42   2.0000      -4.733672      -128.8098
  43   2.0000      -1.051032       -28.6000
  44   2.0000      -1.046998       -28.4903
  45   2.0000      -1.007709       -27.4212
  46   2.0000      -1.005971       -27.3739
  47   2.0000      -0.800127       -21.7726
  48   2.0000      -0.758810       -20.6483
  49   2.0000      -0.750180       -20.4134
  50   2.0000      -0.729119       -19.8403
  51   2.0000      -0.726686       -19.7741
  52   2.0000      -0.711892       -19.3716
  53   2.0000      -0.682224       -18.5643
  54   2.0000      -0.663677       -18.0596
  55   2.0000      -0.630243       -17.1498
  56   2.0000      -0.623162       -16.9571
  57   2.0000      -0.602637       -16.3986
  58   2.0000      -0.594053       -16.1650
  59   2.0000      -0.588801       -16.0221
  60   2.0000      -0.530318       -14.4307
  61   2.0000      -0.524069       -14.2606
  62   2.0000      -0.492855       -13.4113
  63   2.0000      -0.489742       -13.3266
  64   2.0000      -0.469443       -12.7742
  65   2.0000      -0.463466       -12.6115
  66   2.0000      -0.455506       -12.3949
  67   2.0000      -0.453978       -12.3534
  68   2.0000      -0.442889       -12.0516
  69   2.0000      -0.439509       -11.9596
  70   2.0000      -0.423159       -11.5147
  71   2.0000      -0.413443       -11.2504
  72   2.0000      -0.410230       -11.1629
  73   2.0000      -0.404155       -10.9976
  74   2.0000      -0.390259       -10.6195
  75   2.0000      -0.386359       -10.5134
  76   2.0000      -0.380392       -10.3510
  77   2.0000      -0.371473       -10.1083
  78   2.0000      -0.367984       -10.0134
  79   2.0000      -0.364918        -9.9299
  80   2.0000      -0.360610        -9.8127
  81   2.0000      -0.355366        -9.6700
  82   2.0000      -0.351785        -9.5726
  83   2.0000      -0.348105        -9.4724
  84   2.0000      -0.345219        -9.3939
  85   2.0000      -0.329737        -8.9726
  86   2.0000      -0.325002        -8.8438
  87   2.0000      -0.316205        -8.6044
  88   2.0000      -0.310446        -8.4477
  89   2.0000      -0.307161        -8.3583
  90   2.0000      -0.298601        -8.1253
  91   2.0000      -0.283817        -7.7231
  92   2.0000      -0.280975        -7.6457
  93   2.0000      -0.278987        -7.5916
  94   2.0000      -0.272393        -7.4122
  95   2.0000      -0.250178        -6.8077
  96   2.0000      -0.232996        -6.3401
  97   2.0000      -0.228148        -6.2082
  98   2.0000      -0.217105        -5.9077
  99   2.0000      -0.211393        -5.7523
 100   2.0000      -0.201315        -5.4781
 101   0.0000      -0.047203        -1.2845
 102   0.0000      -0.037563        -1.0221
 103   0.0000      -0.013543        -0.3685
 104   0.0000       0.007391         0.2011
 105   0.0000       0.015138         0.4119

MULLIKEN ATOMIC CHARGES
-----------------------
   0 C :   -0.442468
   1 C :   -0.157504
   2 O :   -0.305377
   3 P :    0.682288
   4 S :   -0.467203
   5 O :   -0.276576
   6 C :   -0.139326
   7 C :   -0.470833
   8 S :   -0.135887
   9 C :   -0.209363
  10 S :   -0.152185
  11 P :    0.689125
  12 S :   -0.429075
  13 O :   -0.282212
  14 C :   -0.155000
  15 C :   -0.427165
  16 O :   -0.304910
  17 C :   -0.148105
  18 C :   -0.437768
  19 H :    0.155566
  20 H :    0.169685
  21 H :    0.147316
  22 H :    0.173953
  23 H :    0.146381
  24 H :    0.149673
  25 H :    0.172689
  26 H :    0.181188
  27 H :    0.148612
  28 H :    0.145170
  29 H :    0.194011
  30 H :    0.218298
  31 H :    0.183830
  32 H :    0.148197
  33 H :    0.151395
  34 H :    0.159679
  35 H :    0.146221
  36 H :    0.169344
  37 H :    0.151136
  38 H :    0.158234
  39 H :    0.145591
  40 H :    0.153374
Sum of atomic charges:    0.0000000

LOEWDIN ATOMIC CHARGES
----------------------
   0 C :   -0.407156
   1 C :    0.017770
   2 O :   -0.667105
   3 P :    0.368642
   4 S :   -0.125373
   5 O :   -0.699585
   6 C :    0.018095
   7 C :   -0.393217
   8 S :    0.163670
   9 C :   -0.414579
  10 S :    0.136338
  11 P :    0.379618
  12 S :   -0.083770
  13 O :   -0.643365
  14 C :    0.022210
  15 C :   -0.402784
  16 O :   -0.652869
  17 C :    0.020243
  18 C :   -0.384693
  19 H :    0.160501
  20 H :    0.162948
  21 H :    0.158591
  22 H :    0.180020
  23 H :    0.178712
  24 H :    0.171950
  25 H :    0.182678
  26 H :    0.167999
  27 H :    0.157062
  28 H :    0.159507
  29 H :    0.179095
  30 H :    0.203580
  31 H :    0.193605
  32 H :    0.177910
  33 H :    0.158376
  34 H :    0.161983
  35 H :    0.160061
  36 H :    0.180325
  37 H :    0.171620
  38 H :    0.161859
  39 H :    0.159508
  40 H :    0.160022

  Mayer bond orders larger than 0.100000
B(  0-C ,  1-C ) :   0.9195 B(  0-C , 19-H ) :   0.9670 B(  0-C , 20-H ) :   0.9664
B(  0-C , 21-H ) :   0.9597 B(  1-C ,  2-O ) :   0.8258 B(  1-C , 22-H ) :   0.9674
B(  1-C , 23-H ) :   0.9584 B(  2-O ,  3-P ) :   1.0532 B(  3-P ,  4-S ) :   1.7426
B(  3-P ,  5-O ) :   1.1797 B(  3-P ,  8-S ) :   1.1230 B(  5-O ,  6-C ) :   0.7769
B(  6-C ,  7-C ) :   0.9411 B(  6-C , 24-H ) :   0.9426 B(  6-C , 25-H ) :   0.9536
B(  7-C , 26-H ) :   0.9652 B(  7-C , 27-H ) :   0.9722 B(  7-C , 28-H ) :   0.9638
B(  8-S ,  9-C ) :   0.8780 B(  9-C , 10-S ) :   0.9241 B(  9-C , 29-H ) :   0.9129
B(  9-C , 30-H ) :   0.9000 B( 10-S , 11-P ) :   1.0063 B( 11-P , 12-S ) :   1.7733
B( 11-P , 13-O ) :   1.1560 B( 11-P , 16-O ) :   1.1426 B( 13-O , 14-C ) :   0.7542
B( 14-C , 15-C ) :   0.9489 B( 14-C , 31-H ) :   0.9529 B( 14-C , 32-H ) :   0.9627
B( 15-C , 33-H ) :   0.9739 B( 15-C , 34-H ) :   0.9548 B( 15-C , 35-H ) :   0.9684
B( 16-O , 17-C ) :   0.7831 B( 17-C , 18-C ) :   0.9604 B( 17-C , 36-H ) :   0.9516
B( 17-C , 37-H ) :   0.9440 B( 18-C , 38-H ) :   0.9714 B( 18-C , 39-H ) :   0.9645
B( 18-C , 40-H ) :   0.9718

Dispersion correction           -0.021809249
FINAL SINGLE POINT ENERGY     -2932.462278949296

DIPOLE MOMENT
-------------

Method             : SCF
Type of density    : Electron Density
Multiplicity       :   1
Irrep              :   0
Energy             : -2932.4870528828046190 Eh
Relativity type    :
Basis              : AO
                                X                 Y                 Z
Electronic contribution:     -0.358315202      -2.839954497      -7.066123406
Nuclear contribution   :      0.724091853       2.371300429       7.536053124
                        -----------------------------------------
Total Dipole Moment    :      0.365776651      -0.468654068       0.469929719
                        -----------------------------------------
Magnitude (a.u.)       :      0.757801514
Magnitude (Debye)      :      1.926178372

Rotational constants in cm-1:             0.012150             0.005050             0.004873
Rotational constants in MHz :           364.240552           151.390421           146.076798

                             ****ORCA TERMINATED NORMALLY****
TOTAL RUN TIME: 0 days 0 hours 1 minutes 23 seconds 737 msec
