                         Program Version 6.0.0  -   RELEASE  -
|  1> ! r2scan-3c def2/J RI DEFGRID2 scfconv6 printgap
|  2> %output
|  3>     printlevel normal
|  4> end
|  5> %cpcm
|  6>     smd true
|  7>     smdsolvent "water"
|  8> end
|  9> * xyz 0 1
| 10> C 4.5980030698 -1.4310153885 -1.2618239922
| 11> C 4.7182686276 0.0053922741 -0.7953592547
| 12> O 3.678240717 0.3625108665 0.1305503065
| 13> P 2.1460000327 0.4581215245 -0.2977487998
| 14> S 1.8856887445 1.2272849839 -2.0871274238
| 15> O 1.5647621585 1.2554145145 0.9442145672
| 16> C 1.7622470928 2.6806948155 1.0680852845
| 17> C 0.8778670657 3.1759279029 2.1929253855
| 18> S 1.36261987 -1.4484473397 0.0996601541
| 19> C 0.0957638049 -1.5723840916 -1.2180592961
| 20> S -1.519206525 -2.0857121031 -0.5925730761
| 21> P -2.2100308209 -0.2642886075 0.2681478065
| 22> S -1.3378132163 1.3565213927 -0.4288325435
| 23> O -2.2533183339 -0.4236960163 1.8380003264
| 24> C -1.0918457934 -0.3810301278 2.6896291301
| 25> C -0.6750958143 -1.7825544074 3.0923918986
| 26> O -3.7726820447 -0.3367025697 0.0694840572
| 27> C -4.3558001796 -0.1667597457 -1.2393847204
| 28> C -5.8274203895 0.1423026598 -1.0532235155
| 29> H 4.5277579905 -2.1014217419 -0.409013295
| 30> H 3.7060952794 -1.545594084 -1.8766453948
| 31> H 5.4690209329 -1.6895171985 -1.8552913377
| 32> H 4.6703073482 0.6909696829 -1.6475079376
| 33> H 5.6376531323 0.1728569776 -0.2327850993
| 34> H 2.8201960928 2.8619780723 1.2744860043
| 35> H 1.4938507452 3.1488339481 0.1145331016
| 36> H -0.1652562372 2.9878481605 1.9503779059
| 37> H 1.1276713522 2.6622151927 3.116696337
| 38> H 1.0266110398 4.243328154 2.3182507513
| 39> H 0.4016685585 -2.3489831804 -1.9137779008
| 40> H 0.0178794599 -0.6014961896 -1.714288102
| 41> H -0.2796009478 0.1490927916 2.1812939234
| 42> H -1.4075138723 0.2003678157 3.5585245242
| 43> H -1.5152946497 -2.2991764163 3.5472583574
| 44> H -0.3378750939 -2.3498751425 2.2276865624
| 45> H 0.1396036514 -1.7180436444 3.8063616287
| 46> H -3.8372754825 0.6501179247 -1.7541290389
| 47> H -4.2113509129 -1.0936903214 -1.8014018715
| 48> H -5.9468449591 1.0640058644 -0.4909041098
| 49> H -6.2951584589 0.2513216516 -2.0261486585
| 50> H -6.3068819748 -0.6658181128 -0.5089845273
| 51> *
| 52>
| 53>                          ****END OF INPUT****

CARTESIAN COORDINATES (ANGSTROEM)
---------------------------------
  C      4.598003   -1.431015   -1.261824
  C      4.718269    0.005392   -0.795359
  O      3.678241    0.362511    0.130550
  P      2.146000    0.458122   -0.297749
  S      1.885689    1.227285   -2.087127
  O      1.564762    1.255415    0.944215
  C      1.762247    2.680695    1.068085
  C      0.877867    3.175928    2.192925
  S      1.362620   -1.448447    0.099660
  C      0.095764   -1.572384   -1.218059
  S     -1.519207   -2.085712   -0.592573
  P     -2.210031   -0.264289    0.268148
  S     -1.337813    1.356521   -0.428833
  O     -2.253318   -0.423696    1.838000
  C     -1.091846   -0.381030    2.689629
  C     -0.675096   -1.782554    3.092392
  O     -3.772682   -0.336703    0.069484
  C     -4.355800   -0.166760   -1.239385
  C     -5.827420    0.142303   -1.053224
  H      4.527758   -2.101422   -0.409013
  H      3.706095   -1.545594   -1.876645
  H      5.469021   -1.689517   -1.855291
  H      4.670307    0.690970   -1.647508
  H      5.637653    0.172857   -0.232785
  H      2.820196    2.861978    1.274486
  H      1.493851    3.148834    0.114533
  H     -0.165256    2.987848    1.950378
  H      1.127671    2.662215    3.116696
  H      1.026611    4.243328    2.318251
  H      0.401669   -2.348983   -1.913778
  H      0.017879   -0.601496   -1.714288
  H     -0.279601    0.149093    2.181294
  H     -1.407514    0.200368    3.558525
  H     -1.515295   -2.299176    3.547258
  H     -0.337875   -2.349875    2.227687
  H      0.139604   -1.718044    3.806362
  H     -3.837275    0.650118   -1.754129
  H     -4.211351   -1.093690   -1.801402
  H     -5.946845    1.064006   -0.490904
  H     -6.295158    0.251322   -2.026149
  H     -6.306882   -0.665818   -0.508985

 Total Charge           Charge          ....    0
 Multiplicity           Mult            ....    1
 Number of Electrons    NEL             ....  202
 Basis Dimension        Dim             ....  539

ORBITAL ENERGIES
----------------

  NO   OCC          E(Eh)            E(eV)
   0   2.0000     -88.583212     -2410.4718
   1   2.0000     -88.579654     -2410.3749
   2   2.0000     -88.526038     -2408.9160
   3   2.0000     -88.524940     -2408.8861
   4   2.0000     -76.918697     -2093.0641
   5   2.0000     -76.917110     -2093.0210
   6   2.0000     -18.995931      -516.9056
   7   2.0000     -18.994459      -516.8655
   8   2.0000     -18.991963      -516.7976
   9   2.0000     -18.987940      -516.6881
  10   2.0000     -10.106361      -275.0081
  11   2.0000     -10.090751      -274.5833
  12   2.0000     -10.089747      -274.5560
  13   2.0000     -10.087519      -274.4953
  14   2.0000     -10.087401      -274.4921
  15   2.0000     -10.019690      -272.6496
  16   2.0000     -10.017652      -272.5942
  17   2.0000     -10.017556      -272.5916
  18   2.0000     -10.017013      -272.5768
  19   2.0000      -7.877329      -214.3530
  20   2.0000      -7.874244      -214.2691
  21   2.0000      -7.821029      -212.8210
  22   2.0000      -7.819867      -212.7894
  23   2.0000      -6.597360      -179.5233
  24   2.0000      -6.595663      -179.4771
  25   2.0000      -5.824328      -158.4880
  26   2.0000      -5.821053      -158.3989
  27   2.0000      -5.820884      -158.3943
  28   2.0000      -5.818150      -158.3199
  29   2.0000      -5.814670      -158.2252
  30   2.0000      -5.811307      -158.1337
  31   2.0000      -5.768623      -156.9722
  32   2.0000      -5.767455      -156.9404
  33   2.0000      -5.761497      -156.7783
  34   2.0000      -5.760859      -156.7609
  35   2.0000      -5.760135      -156.7413
  36   2.0000      -5.759920      -156.7354
  37   2.0000      -4.742719      -129.0560
  38   2.0000      -4.742563      -129.0517
  39   2.0000      -4.740994      -129.0090
  40   2.0000      -4.740936      -129.0074
  41   2.0000      -4.740483      -128.9951
  42   2.0000      -4.739683      -128.9733
  43   2.0000      -1.057799       -28.7842
  44   2.0000      -1.049482       -28.5579
  45   2.0000      -1.013681       -27.5837
  46   2.0000      -1.007849       -27.4250
  47   2.0000      -0.801258       -21.8033
  48   2.0000      -0.757779       -20.6202
  49   2.0000      -0.746767       -20.3206
  50   2.0000      -0.721759       -19.6401
  51   2.0000      -0.721256       -19.6264
  52   2.0000      -0.711561       -19.3626
  53   2.0000      -0.687354       -18.7038
  54   2.0000      -0.670141       -18.2355
  55   2.0000      -0.630360       -17.1530
  56   2.0000      -0.620946       -16.8968
  57   2.0000      -0.598145       -16.2764
  58   2.0000      -0.590184       -16.0597
  59   2.0000      -0.585865       -15.9422
  60   2.0000      -0.529514       -14.4088
  61   2.0000      -0.522194       -14.2096
  62   2.0000      -0.495064       -13.4714
  63   2.0000      -0.487357       -13.2617
  64   2.0000      -0.471481       -12.8296
  65   2.0000      -0.463546       -12.6137
  66   2.0000      -0.453507       -12.3405
  67   2.0000      -0.452175       -12.3043
  68   2.0000      -0.438211       -11.9243
  69   2.0000      -0.436069       -11.8660
  70   2.0000      -0.421788       -11.4774
  71   2.0000      -0.414410       -11.2767
  72   2.0000      -0.410049       -11.1580
  73   2.0000      -0.401338       -10.9210
  74   2.0000      -0.389521       -10.5994
  75   2.0000      -0.385421       -10.4878
  76   2.0000      -0.379131       -10.3167
  77   2.0000      -0.365720        -9.9518
  78   2.0000      -0.361106        -9.8262
  79   2.0000      -0.356889        -9.7114
  80   2.0000      -0.355487        -9.6733
  81   2.0000      -0.351171        -9.5558
  82   2.0000      -0.347285        -9.4501
  83   2.0000      -0.344362        -9.3706
  84   2.0000      -0.341288        -9.2869
  85   2.0000      -0.328854        -8.9486
  86   2.0000      -0.323252        -8.7961
  87   2.0000      -0.315999        -8.5988
  88   2.0000      -0.310756        -8.4561
  89   2.0000      -0.303792        -8.2666
  90   2.0000      -0.299582        -8.1520
  91   2.0000      -0.283424        -7.7123
  92   2.0000      -0.282421        -7.6851
  93   2.0000      -0.280488        -7.6325
  94   2.0000      -0.276284        -7.5181
  95   2.0000      -0.252661        -6.8753
  96   2.0000      -0.238730        -6.4962
  97   2.0000      -0.236420        -6.4333
  98   2.0000      -0.224474        -6.1083
  99   2.0000      -0.219011        -5.9596
 100   2.0000      -0.211058        -5.7432
 101   0.0000      -0.051457        -1.4002
 102   0.0000      -0.042265        -1.1501
 103   0.0000      -0.016590        -0.4514
 104   0.0000       0.001984         0.0540
 105   0.0000       0.010763         0.2929

MULLIKEN ATOMIC CHARGES
-----------------------
   0 C :   -0.477270
   1 C :   -0.157242
   2 O :   -0.332221
   3 P :    0.721665
   4 S :   -0.526896
   5 O :   -0.296838
   6 C :   -0.137076
   7 C :   -0.502594
   8 S :   -0.133813
   9 C :   -0.206573
  10 S :   -0.153372
  11 P :    0.701500
  12 S :   -0.469407
  13 O :   -0.313365
  14 C :   -0.141183
  15 C :   -0.470281
  16 O :   -0.335610
  17 C :   -0.139746
  18 C :   -0.480295
  19 H :    0.166873
  20 H :    0.170649
  21 H :    0.171444
  22 H :    0.176796
  23 H :    0.172794
  24 H :    0.171672
  25 H :    0.172817
  26 H :    0.171045
  27 H :    0.166780
  28 H :    0.168769
  29 H :    0.235875
  30 H :    0.211458
  31 H :    0.176652
  32 H :    0.175272
  33 H :    0.165562
  34 H :    0.159316
  35 H :    0.172008
  36 H :    0.172121
  37 H :    0.170928
  38 H :    0.166298
  39 H :    0.169622
  40 H :    0.165867
Sum of atomic charges:    0.0000000

LOEWDIN ATOMIC CHARGES
----------------------
   0 C :   -0.409888
   1 C :    0.022503
   2 O :   -0.678571
   3 P :    0.374726
   4 S :   -0.162925
   5 O :   -0.708751
   6 C :    0.021214
   7 C :   -0.395582
   8 S :    0.168206
   9 C :   -0.407207
  10 S :    0.141859
  11 P :    0.378795
  12 S :   -0.110211
  13 O :   -0.662268
  14 C :    0.026198
  15 C :   -0.406348
  16 O :   -0.672936
  17 C :    0.024510
  18 C :   -0.388565
  19 H :    0.163352
  20 H :    0.160915
  21 H :    0.167354
  22 H :    0.180842
  23 H :    0.189745
  24 H :    0.180530
  25 H :    0.182201
  26 H :    0.163050
  27 H :    0.162853
  28 H :    0.168020
  29 H :    0.195758
  30 H :    0.201026
  31 H :    0.192187
  32 H :    0.188847
  33 H :    0.162503
  34 H :    0.159776
  35 H :    0.169428
  36 H :    0.181601
  37 H :    0.179922
  38 H :    0.162943
  39 H :    0.169078
  40 H :    0.163310

  Mayer bond orders larger than 0.100000
B(  0-C ,  1-C ) :   0.9089 B(  0-C , 19-H ) :   0.9649 B(  0-C , 20-H ) :   0.9655
B(  0-C , 21-H ) :   0.9546 B(  1-C ,  2-O ) :   0.8140 B(  1-C , 22-H ) :   0.9653
B(  1-C , 23-H ) :   0.9489 B(  2-O ,  3-P ) :   1.0612 B(  3-P ,  4-S ) :   1.6867
B(  3-P ,  5-O ) :   1.1871 B(  3-P ,  8-S ) :   1.1417 B(  5-O ,  6-C ) :   0.7669
B(  6-C ,  7-C ) :   0.9357 B(  6-C , 24-H ) :   0.9344 B(  6-C , 25-H ) :   0.9521
B(  7-C , 26-H ) :   0.9679 B(  7-C , 27-H ) :   0.9680 B(  7-C , 28-H ) :   0.9592
B(  8-S ,  9-C ) :   0.8744 B(  9-C , 10-S ) :   0.9189 B(  9-C , 29-H ) :   0.8970
B(  9-C , 30-H ) :   0.9044 B( 10-S , 11-P ) :   1.0289 B( 11-P , 12-S ) :   1.7539
B( 11-P , 13-O ) :   1.1515 B( 11-P , 16-O ) :   1.1401 B( 13-O , 14-C ) :   0.7465
B( 14-C , 15-C ) :   0.9409 B( 14-C , 31-H ) :   0.9490 B( 14-C , 32-H ) :   0.9527
B( 15-C , 33-H ) :   0.9718 B( 15-C , 34-H ) :   0.9555 B( 15-C , 35-H ) :   0.9628
B( 16-O , 17-C ) :   0.7768 B( 17-C , 18-C ) :   0.9554 B( 17-C , 36-H ) :   0.9474
B( 17-C , 37-H ) :   0.9349 B( 18-C , 38-H ) :   0.9698 B( 18-C , 39-H ) :   0.9582
B( 18-C , 40-H ) :   0.9693

Dispersion correction           -0.021809249
FINAL SINGLE POINT ENERGY     -2932.468911404712

DIPOLE MOMENT
-------------

Method             : SCF
Type of density    : Electron Density
Multiplicity       :   1
Irrep              :   0
Energy             : -2932.4936853382214395 Eh
Relativity type    :
Basis              : AO
                                X                 Y                 Z
Electronic contribution:     -0.031333567      -3.186424067      -6.980533573
Nuclear contribution   :      0.724091853       2.371300429       7.536053124
                        -----------------------------------------
Total Dipole Moment    :      0.692758286      -0.815123638       0.555519552
                        -----------------------------------------
Magnitude (a.u.)       :      1.205380671
Magnitude (Debye)      :      3.063834178

Rotational constants in cm-1:             0.012150             0.005050             0.004873
Rotational constants in MHz :           364.240552           151.390421           146.076798

                             ****ORCA TERMINATED NORMALLY****
TOTAL RUN TIME: 0 days 0 hours 1 minutes 54 seconds 917 msec
