                         Program Version 6.0.0  -   RELEASE  -
|  1> ! pbe def2-sv(p) def2/J RI DEFGRID1 loosescf d4 GCP(DFT/SV(P)) printgap
|  2> %output
|  3>     printlevel normal
|  4> end
|  5> * xyz 0 1
|  6> C 4.0753202479 0.1180512742 -2.7077644729
|  7> C 4.7646136672 -0.5100363226 -1.512536925
|  8> O 3.8454211554 -1.2399538556 -0.6821802267
|  9> P 2.7572836438 -0.5060096838 0.1987572627
| 10> S 3.3296114341 1.2245282035 0.9349947391
| 11> O 2.5445612723 -1.7102150597 1.2048021961
| 12> C 1.3861609667 -1.8818189341 2.0382938109
| 13> C 1.3060808563 -0.8470281954 3.1435635229
| 14> S 0.9883844747 -0.4621688827 -1.0062469926
| 15> C 0.3296415678 1.1484645816 -0.4917516713
| 16> S -0.9278969217 1.0213590416 0.7991544808
| 17> P -2.4904919544 0.2932928456 -0.463516546
| 18> S -2.4725700151 0.9302343518 -2.3109983073
| 19> O -3.8160075268 0.5905787251 0.3629438669
| 20> C -4.5310436123 1.8350538053 0.2553988643
| 21> C -3.7301527164 3.0110422555 0.7751777072
| 22> O -2.3767767844 -1.2788622575 -0.3853402692
| 23> C -2.4587823787 -2.0311805483 0.8501405366
| 24> C -3.8700723352 -2.5254193484 1.0939466305
| 25> H 4.8209487306 0.5472948307 -3.3692758459
| 26> H 3.5006664651 -0.6298714655 -3.2486400076
| 27> H 3.4017287742 0.9080775973 -2.3776653064
| 28> H 5.2539373787 0.2574218087 -0.9036334288
| 29> H 5.4946733364 -1.2606349317 -1.8181503089
| 30> H 0.4919892263 -1.847215911 1.4074480733
| 31> H 1.5088531445 -2.8878170045 2.4434800819
| 32> H 2.2377525755 -0.8247936462 3.7029686772
| 33> H 1.1259519423 0.1439346543 2.7291411025
| 34> H 0.4907112638 -1.0994847757 3.8137377848
| 35> H -0.1178515354 1.6065944717 -1.3739648869
| 36> H 1.1438310506 1.7561076448 -0.0895807989
| 37> H -4.7995572347 1.9870442979 -0.794403323
| 38> H -5.4314220333 1.6691154478 0.8486077726
| 39> H -4.3626083595 3.8928149303 0.7944137038
| 40> H -3.3627029005 2.8080343531 1.7780109592
| 41> H -2.8812334201 3.2035931958 0.1208765859
| 42> H -1.769799386 -2.8657366528 0.7037662691
| 43> H -2.1143097965 -1.3988178798 1.6737700159
| 44> H -3.8755377483 -3.1564075141 1.9772535714
| 45> H -4.5437014328 -1.6870576057 1.2471571314
| 46> H -4.2148567358 -3.1012204082 0.2394313595
| 47> *
| 48>
| 49>                          ****END OF INPUT****

CARTESIAN COORDINATES (ANGSTROEM)
---------------------------------
  C      4.075320    0.118051   -2.707764
  C      4.764614   -0.510036   -1.512537
  O      3.845421   -1.239954   -0.682180
  P      2.757284   -0.506010    0.198757
  S      3.329611    1.224528    0.934995
  O      2.544561   -1.710215    1.204802
  C      1.386161   -1.881819    2.038294
  C      1.306081   -0.847028    3.143564
  S      0.988384   -0.462169   -1.006247
  C      0.329642    1.148465   -0.491752
  S     -0.927897    1.021359    0.799154
  P     -2.490492    0.293293   -0.463517
  S     -2.472570    0.930234   -2.310998
  O     -3.816008    0.590579    0.362944
  C     -4.531044    1.835054    0.255399
  C     -3.730153    3.011042    0.775178
  O     -2.376777   -1.278862   -0.385340
  C     -2.458782   -2.031181    0.850141
  C     -3.870072   -2.525419    1.093947
  H      4.820949    0.547295   -3.369276
  H      3.500666   -0.629871   -3.248640
  H      3.401729    0.908078   -2.377665
  H      5.253937    0.257422   -0.903633
  H      5.494673   -1.260635   -1.818150
  H      0.491989   -1.847216    1.407448
  H      1.508853   -2.887817    2.443480
  H      2.237753   -0.824794    3.702969
  H      1.125952    0.143935    2.729141
  H      0.490711   -1.099485    3.813738
  H     -0.117852    1.606594   -1.373965
  H      1.143831    1.756108   -0.089581
  H     -4.799557    1.987044   -0.794403
  H     -5.431422    1.669115    0.848608
  H     -4.362608    3.892815    0.794414
  H     -3.362703    2.808034    1.778011
  H     -2.881233    3.203593    0.120877
  H     -1.769799   -2.865737    0.703766
  H     -2.114310   -1.398818    1.673770
  H     -3.875538   -3.156408    1.977254
  H     -4.543701   -1.687058    1.247157
  H     -4.214857   -3.101220    0.239431

 Total Charge           Charge          ....    0
 Multiplicity           Mult            ....    1
 Number of Electrons    NEL             ....  202
 Basis Dimension        Dim             ....  334

ORBITAL ENERGIES
----------------

  NO   OCC          E(Eh)            E(eV)
   0   2.0000     -88.047065     -2395.8824
   1   2.0000     -88.044590     -2395.8151
   2   2.0000     -87.992434     -2394.3959
   3   2.0000     -87.992293     -2394.3920
   4   2.0000     -76.431402     -2079.8042
   5   2.0000     -76.428337     -2079.7208
   6   2.0000     -18.801700      -511.6203
   7   2.0000     -18.796435      -511.4770
   8   2.0000     -18.790928      -511.3271
   9   2.0000     -18.790817      -511.3241
  10   2.0000      -9.962384      -271.0903
  11   2.0000      -9.959314      -271.0067
  12   2.0000      -9.955834      -270.9120
  13   2.0000      -9.951555      -270.7956
  14   2.0000      -9.950708      -270.7725
  15   2.0000      -9.891027      -269.1485
  16   2.0000      -9.888456      -269.0786
  17   2.0000      -9.882756      -268.9235
  18   2.0000      -9.881873      -268.8994
  19   2.0000      -7.691659      -209.3007
  20   2.0000      -7.689009      -209.2286
  21   2.0000      -7.637527      -207.8277
  22   2.0000      -7.637302      -207.8216
  23   2.0000      -6.429090      -174.9444
  24   2.0000      -6.425702      -174.8522
  25   2.0000      -5.719318      -155.6305
  26   2.0000      -5.716782      -155.5616
  27   2.0000      -5.716252      -155.5471
  28   2.0000      -5.713528      -155.4730
  29   2.0000      -5.708842      -155.3455
  30   2.0000      -5.706198      -155.2735
  31   2.0000      -5.666551      -154.1947
  32   2.0000      -5.666069      -154.1816
  33   2.0000      -5.657955      -153.9608
  34   2.0000      -5.657952      -153.9607
  35   2.0000      -5.657742      -153.9550
  36   2.0000      -5.657601      -153.9512
  37   2.0000      -4.651987      -126.5870
  38   2.0000      -4.650719      -126.5525
  39   2.0000      -4.649354      -126.5154
  40   2.0000      -4.647951      -126.4772
  41   2.0000      -4.647765      -126.4721
  42   2.0000      -4.646148      -126.4281
  43   2.0000      -0.994504       -27.0618
  44   2.0000      -0.990011       -26.9396
  45   2.0000      -0.951692       -25.8969
  46   2.0000      -0.945692       -25.7336
  47   2.0000      -0.764264       -20.7967
  48   2.0000      -0.723887       -19.6980
  49   2.0000      -0.714144       -19.4328
  50   2.0000      -0.696033       -18.9400
  51   2.0000      -0.682663       -18.5762
  52   2.0000      -0.680890       -18.5279
  53   2.0000      -0.654990       -17.8232
  54   2.0000      -0.642237       -17.4762
  55   2.0000      -0.602935       -16.4067
  56   2.0000      -0.597435       -16.2570
  57   2.0000      -0.581548       -15.8247
  58   2.0000      -0.571187       -15.5428
  59   2.0000      -0.561714       -15.2850
  60   2.0000      -0.506259       -13.7760
  61   2.0000      -0.496826       -13.5193
  62   2.0000      -0.480915       -13.0864
  63   2.0000      -0.470077       -12.7914
  64   2.0000      -0.459484       -12.5032
  65   2.0000      -0.453775       -12.3478
  66   2.0000      -0.441283       -12.0079
  67   2.0000      -0.435064       -11.8387
  68   2.0000      -0.430350       -11.7104
  69   2.0000      -0.423079       -11.5126
  70   2.0000      -0.412670       -11.2293
  71   2.0000      -0.410331       -11.1657
  72   2.0000      -0.399113       -10.8604
  73   2.0000      -0.386972       -10.5300
  74   2.0000      -0.379756       -10.3337
  75   2.0000      -0.374474       -10.1900
  76   2.0000      -0.371325       -10.1043
  77   2.0000      -0.364766        -9.9258
  78   2.0000      -0.357040        -9.7156
  79   2.0000      -0.354316        -9.6414
  80   2.0000      -0.350183        -9.5290
  81   2.0000      -0.348591        -9.4857
  82   2.0000      -0.343849        -9.3566
  83   2.0000      -0.339515        -9.2387
  84   2.0000      -0.336949        -9.1689
  85   2.0000      -0.322562        -8.7774
  86   2.0000      -0.311651        -8.4804
  87   2.0000      -0.303515        -8.2591
  88   2.0000      -0.300066        -8.1652
  89   2.0000      -0.298213        -8.1148
  90   2.0000      -0.290020        -7.8918
  91   2.0000      -0.276692        -7.5292
  92   2.0000      -0.271290        -7.3822
  93   2.0000      -0.267801        -7.2872
  94   2.0000      -0.259158        -7.0521
  95   2.0000      -0.239114        -6.5066
  96   2.0000      -0.220935        -6.0119
  97   2.0000      -0.216940        -5.9032
  98   2.0000      -0.208748        -5.6803
  99   2.0000      -0.208042        -5.6611
 100   2.0000      -0.204137        -5.5548
 101   0.0000      -0.047544        -1.2937
 102   0.0000      -0.033884        -0.9220
 103   0.0000      -0.011250        -0.3061
 104   0.0000      -0.002544        -0.0692
 105   0.0000       0.010242         0.2787

MULLIKEN ATOMIC CHARGES
-----------------------
   0 C :   -0.310569
   1 C :   -0.005016
   2 O :   -0.354886
   3 P :    0.598180
   4 S :   -0.326260
   5 O :   -0.350693
   6 C :   -0.041207
   7 C :   -0.304186
   8 S :   -0.087400
   9 C :   -0.367993
  10 S :   -0.104052
  11 P :    0.603610
  12 S :   -0.304917
  13 O :   -0.383991
  14 C :   -0.001330
  15 C :   -0.317005
  16 O :   -0.352060
  17 C :   -0.041812
  18 C :   -0.270349
  19 H :    0.112393
  20 H :    0.120468
  21 H :    0.120982
  22 H :    0.114333
  23 H :    0.107382
  24 H :    0.130130
  25 H :    0.106905
  26 H :    0.121821
  27 H :    0.127163
  28 H :    0.105035
  29 H :    0.196435
  30 H :    0.193472
  31 H :    0.115331
  32 H :    0.106021
  33 H :    0.116072
  34 H :    0.118202
  35 H :    0.128943
  36 H :    0.122630
  37 H :    0.105996
  38 H :    0.108675
  39 H :    0.122236
  40 H :    0.121312
Sum of atomic charges:    0.0000000

LOEWDIN ATOMIC CHARGES
----------------------
   0 C :   -0.367545
   1 C :   -0.119322
   2 O :   -0.232522
   3 P :    0.572124
   4 S :   -0.306399
   5 O :   -0.231579
   6 C :   -0.122147
   7 C :   -0.367012
   8 S :    0.086080
   9 C :   -0.494042
  10 S :    0.081436
  11 P :    0.571273
  12 S :   -0.299711
  13 O :   -0.247391
  14 C :   -0.115884
  15 C :   -0.370673
  16 O :   -0.234919
  17 C :   -0.117583
  18 C :   -0.358500
  19 H :    0.130541
  20 H :    0.126274
  21 H :    0.119714
  22 H :    0.110533
  23 H :    0.119944
  24 H :    0.102431
  25 H :    0.120250
  26 H :    0.129375
  27 H :    0.114214
  28 H :    0.126903
  29 H :    0.127712
  30 H :    0.124236
  31 H :    0.114307
  32 H :    0.118921
  33 H :    0.132613
  34 H :    0.123697
  35 H :    0.122044
  36 H :    0.121518
  37 H :    0.102680
  38 H :    0.129540
  39 H :    0.126594
  40 H :    0.130277

  Mayer bond orders larger than 0.100000
B(  0-C ,  1-C ) :   1.1630 B(  0-C , 19-H ) :   0.9386 B(  0-C , 20-H ) :   0.9447
B(  0-C , 21-H ) :   0.9387 B(  1-C ,  2-O ) :   0.9104 B(  1-C , 22-H ) :   0.9148
B(  1-C , 23-H ) :   0.9337 B(  2-O ,  3-P ) :   1.1368 B(  3-P ,  4-S ) :   1.5919
B(  3-P ,  5-O ) :   1.1301 B(  3-P ,  8-S ) :   0.9390 B(  4-S ,  8-S ) :   0.1240
B(  4-S , 30-H ) :   0.1143 B(  5-O ,  6-C ) :   0.9216 B(  6-C ,  7-C ) :   1.1608
B(  6-C , 24-H ) :   0.9009 B(  6-C , 25-H ) :   0.9341 B(  7-C , 26-H ) :   0.9435
B(  7-C , 27-H ) :   0.9296 B(  7-C , 28-H ) :   0.9376 B(  8-S ,  9-C ) :   1.0060
B(  9-C , 10-S ) :   1.0052 B(  9-C , 29-H ) :   0.8668 B(  9-C , 30-H ) :   0.8516
B( 10-S , 11-P ) :   0.9440 B( 10-S , 12-S ) :   0.1097 B( 11-P , 12-S ) :   1.6392
B( 11-P , 13-O ) :   1.0827 B( 11-P , 16-O ) :   1.1404 B( 13-O , 14-C ) :   0.9031
B( 14-C , 15-C ) :   1.1665 B( 14-C , 31-H ) :   0.9193 B( 14-C , 32-H ) :   0.9339
B( 15-C , 33-H ) :   0.9366 B( 15-C , 34-H ) :   0.9433 B( 15-C , 35-H ) :   0.9350
B( 16-O , 17-C ) :   0.8966 B( 17-C , 18-C ) :   1.1573 B( 17-C , 36-H ) :   0.9278
B( 17-C , 37-H ) :   0.9096 B( 18-C , 38-H ) :   0.9395 B( 18-C , 39-H ) :   0.9401
B( 18-C , 40-H ) :   0.9456

Dispersion correction           -0.064682549
FINAL SINGLE POINT ENERGY     -2929.522777367995

DIPOLE MOMENT
-------------

Method             : SCF
Type of density    : Electron Density
Multiplicity       :   1
Irrep              :   0
Energy             : -2929.6428269780608389 Eh
Relativity type    :
Basis              : AO
                                X                 Y                 Z
Electronic contribution:      6.966102889       1.344082564      -8.330209432
Nuclear contribution   :     -7.769773450      -1.799049057       9.206886190
                        -----------------------------------------
Total Dipole Moment    :     -0.803670560      -0.454966493       0.876676758
                        -----------------------------------------
Magnitude (a.u.)       :      1.273358951
Magnitude (Debye)      :      3.236621235

Rotational constants in cm-1:             0.012641             0.004527             0.004209
Rotational constants in MHz :           378.979110           135.713758           126.195072

                             ****ORCA TERMINATED NORMALLY****
TOTAL RUN TIME: 0 days 0 hours 0 minutes 21 seconds 76 msec
