                         Program Version 6.0.0  -   RELEASE  -
|  1> ! pbe def2-sv(p) def2/J RI DEFGRID1 loosescf d4 GCP(DFT/SV(P)) printgap
|  2> %output
|  3>     printlevel normal
|  4> end
|  5> * xyz 0 1
|  6> C 4.3611656182 -0.90789655 -2.3963227321
|  7> C 3.4597071463 -2.0287692018 -1.9223777844
|  8> O 2.9195660599 -1.8007780243 -0.607297915
|  9> P 2.1712108062 -0.485690868 -0.1179745332
| 10> S 3.2818067887 1.0814217504 0.2955169688
| 11> O 1.3880134425 -1.0760909015 1.1239329756
| 12> C 1.7801876499 -0.9128079381 2.502729336
| 13> C 0.6057309707 -0.3923839588 3.3081615479
| 14> S 0.6521132675 -0.2391983365 -1.5681732288
| 15> C 0.2190948384 1.4658646078 -1.1413194025
| 16> S -0.499861734 1.6057649773 0.5114614863
| 17> P -2.226806991 0.4277081373 0.1312880796
| 18> S -2.9961765902 0.6057190876 -1.6684739034
| 19> O -3.1497524082 0.7577628949 1.3762612297
| 20> C -3.4671184352 2.0773532082 1.8559866771
| 21> C -4.060569336 2.9660808432 0.7822107998
| 22> O -1.8538041292 -1.057745879 0.5361789126
| 23> C -2.0250289129 -2.2018581072 -0.3270401614
| 24> C -0.9846100605 -3.242583078 0.0317905687
| 25> H 5.1475798643 -0.7189721171 -1.6692842773
| 26> H 4.8085234287 -1.1838593455 -3.3458168646
| 27> H 3.786804711 0.0080297489 -2.528677374
| 28> H 4.010703442 -2.964628289 -1.8130338511
| 29> H 2.6229444084 -2.169890652 -2.6123554403
| 30> H 2.0912396361 -1.9011725783 2.8471325726
| 31> H 2.6302368753 -0.2241815223 2.5531994659
| 32> H 0.8480977714 -0.4460749206 4.3645232754
| 33> H 0.3912715748 0.6400121022 3.0435312881
| 34> H -0.2772363913 -0.9943071616 3.1080668902
| 35> H -0.5033844238 1.7959850977 -1.8876374266
| 36> H 1.1155933461 2.085601191 -1.1437375336
| 37> H -4.1817151229 1.8911395794 2.6597022199
| 38> H -2.5563377053 2.5219648538 2.2670013629
| 39> H -4.9217002972 2.4844889459 0.3248809872
| 40> H -4.3680630042 3.9084479918 1.2239611377
| 41> H -3.3229601702 3.162719756 0.005395396
| 42> H -3.0359339178 -2.5835904419 -0.1644294348
| 43> H -1.9310524819 -1.8830525061 -1.3705833288
| 44> H -1.0907675331 -3.5311522322 1.0734270802
| 45> H -1.1247479993 -4.1130612763 -0.6007078039
| 46> H 0.0169329929 -2.8478900576 -0.1200497578
| 47> *
| 48>
| 49>                          ****END OF INPUT****

CARTESIAN COORDINATES (ANGSTROEM)
---------------------------------
  C      4.361166   -0.907897   -2.396323
  C      3.459707   -2.028769   -1.922378
  O      2.919566   -1.800778   -0.607298
  P      2.171211   -0.485691   -0.117975
  S      3.281807    1.081422    0.295517
  O      1.388013   -1.076091    1.123933
  C      1.780188   -0.912808    2.502729
  C      0.605731   -0.392384    3.308162
  S      0.652113   -0.239198   -1.568173
  C      0.219095    1.465865   -1.141319
  S     -0.499862    1.605765    0.511461
  P     -2.226807    0.427708    0.131288
  S     -2.996177    0.605719   -1.668474
  O     -3.149752    0.757763    1.376261
  C     -3.467118    2.077353    1.855987
  C     -4.060569    2.966081    0.782211
  O     -1.853804   -1.057746    0.536179
  C     -2.025029   -2.201858   -0.327040
  C     -0.984610   -3.242583    0.031791
  H      5.147580   -0.718972   -1.669284
  H      4.808523   -1.183859   -3.345817
  H      3.786805    0.008030   -2.528677
  H      4.010703   -2.964628   -1.813034
  H      2.622944   -2.169891   -2.612355
  H      2.091240   -1.901173    2.847133
  H      2.630237   -0.224182    2.553199
  H      0.848098   -0.446075    4.364523
  H      0.391272    0.640012    3.043531
  H     -0.277236   -0.994307    3.108067
  H     -0.503384    1.795985   -1.887637
  H      1.115593    2.085601   -1.143738
  H     -4.181715    1.891140    2.659702
  H     -2.556338    2.521965    2.267001
  H     -4.921700    2.484489    0.324881
  H     -4.368063    3.908448    1.223961
  H     -3.322960    3.162720    0.005395
  H     -3.035934   -2.583590   -0.164429
  H     -1.931052   -1.883053   -1.370583
  H     -1.090768   -3.531152    1.073427
  H     -1.124748   -4.113061   -0.600708
  H      0.016933   -2.847890   -0.120050

 Total Charge           Charge          ....    0
 Multiplicity           Mult            ....    1
 Number of Electrons    NEL             ....  202
 Basis Dimension        Dim             ....  334

ORBITAL ENERGIES
----------------

  NO   OCC          E(Eh)            E(eV)
   0   2.0000     -88.049667     -2395.9532
   1   2.0000     -88.045444     -2395.8383
   2   2.0000     -87.988837     -2394.2980
   3   2.0000     -87.986765     -2394.2416
   4   2.0000     -76.429825     -2079.7613
   5   2.0000     -76.427563     -2079.6997
   6   2.0000     -18.795152      -511.4421
   7   2.0000     -18.793405      -511.3946
   8   2.0000     -18.787383      -511.2307
   9   2.0000     -18.785748      -511.1862
  10   2.0000      -9.959661      -271.0161
  11   2.0000      -9.958410      -270.9821
  12   2.0000      -9.957973      -270.9702
  13   2.0000      -9.947932      -270.6970
  14   2.0000      -9.944726      -270.6098
  15   2.0000      -9.884776      -268.9784
  16   2.0000      -9.883486      -268.9433
  17   2.0000      -9.877792      -268.7884
  18   2.0000      -9.877533      -268.7813
  19   2.0000      -7.694360      -209.3742
  20   2.0000      -7.690136      -209.2592
  21   2.0000      -7.633779      -207.7257
  22   2.0000      -7.631750      -207.6705
  23   2.0000      -6.426736      -174.8804
  24   2.0000      -6.424541      -174.8207
  25   2.0000      -5.722121      -155.7068
  26   2.0000      -5.718853      -155.6179
  27   2.0000      -5.717898      -155.5919
  28   2.0000      -5.714655      -155.5037
  29   2.0000      -5.711506      -155.4180
  30   2.0000      -5.707231      -155.3016
  31   2.0000      -5.662649      -154.0885
  32   2.0000      -5.660618      -154.0332
  33   2.0000      -5.654526      -153.8675
  34   2.0000      -5.653876      -153.8498
  35   2.0000      -5.652370      -153.8088
  36   2.0000      -5.651978      -153.7982
  37   2.0000      -4.649220      -126.5117
  38   2.0000      -4.648726      -126.4983
  39   2.0000      -4.647151      -126.4554
  40   2.0000      -4.646879      -126.4480
  41   2.0000      -4.646550      -126.4391
  42   2.0000      -4.645048      -126.3982
  43   2.0000      -0.986544       -26.8452
  44   2.0000      -0.985599       -26.8195
  45   2.0000      -0.944022       -25.6881
  46   2.0000      -0.941774       -25.6270
  47   2.0000      -0.769731       -20.9454
  48   2.0000      -0.722844       -19.6696
  49   2.0000      -0.711176       -19.3521
  50   2.0000      -0.687355       -18.7039
  51   2.0000      -0.683636       -18.6027
  52   2.0000      -0.674704       -18.3596
  53   2.0000      -0.651073       -17.7166
  54   2.0000      -0.641416       -17.4538
  55   2.0000      -0.599758       -16.3202
  56   2.0000      -0.593211       -16.1421
  57   2.0000      -0.577967       -15.7273
  58   2.0000      -0.566519       -15.4158
  59   2.0000      -0.558014       -15.1843
  60   2.0000      -0.503787       -13.7088
  61   2.0000      -0.498766       -13.5721
  62   2.0000      -0.472055       -12.8453
  63   2.0000      -0.470474       -12.8023
  64   2.0000      -0.463213       -12.6047
  65   2.0000      -0.443914       -12.0795
  66   2.0000      -0.435882       -11.8609
  67   2.0000      -0.432592       -11.7714
  68   2.0000      -0.424416       -11.5490
  69   2.0000      -0.419525       -11.4158
  70   2.0000      -0.415270       -11.3001
  71   2.0000      -0.400795       -10.9062
  72   2.0000      -0.396469       -10.7885
  73   2.0000      -0.384864       -10.4727
  74   2.0000      -0.384373       -10.4593
  75   2.0000      -0.377157       -10.2630
  76   2.0000      -0.364001        -9.9050
  77   2.0000      -0.350678        -9.5424
  78   2.0000      -0.349520        -9.5109
  79   2.0000      -0.348496        -9.4831
  80   2.0000      -0.345822        -9.4103
  81   2.0000      -0.344254        -9.3676
  82   2.0000      -0.339716        -9.2442
  83   2.0000      -0.338651        -9.2152
  84   2.0000      -0.329363        -8.9624
  85   2.0000      -0.323646        -8.8068
  86   2.0000      -0.309268        -8.4156
  87   2.0000      -0.299723        -8.1559
  88   2.0000      -0.296906        -8.0792
  89   2.0000      -0.289658        -7.8820
  90   2.0000      -0.284022        -7.7286
  91   2.0000      -0.276555        -7.5254
  92   2.0000      -0.272744        -7.4217
  93   2.0000      -0.267109        -7.2684
  94   2.0000      -0.253168        -6.8891
  95   2.0000      -0.235116        -6.3978
  96   2.0000      -0.221906        -6.0384
  97   2.0000      -0.213263        -5.8032
  98   2.0000      -0.205835        -5.6010
  99   2.0000      -0.200852        -5.4655
 100   2.0000      -0.198859        -5.4112
 101   0.0000      -0.050797        -1.3822
 102   0.0000      -0.027687        -0.7534
 103   0.0000      -0.008499        -0.2313
 104   0.0000      -0.002382        -0.0648
 105   0.0000       0.002546         0.0693

MULLIKEN ATOMIC CHARGES
-----------------------
   0 C :   -0.310898
   1 C :   -0.008490
   2 O :   -0.377521
   3 P :    0.617384
   4 S :   -0.325979
   5 O :   -0.359798
   6 C :   -0.005375
   7 C :   -0.297195
   8 S :   -0.092579
   9 C :   -0.349679
  10 S :   -0.099303
  11 P :    0.614212
  12 S :   -0.335275
  13 O :   -0.363826
  14 C :   -0.013532
  15 C :   -0.307949
  16 O :   -0.359618
  17 C :   -0.004709
  18 C :   -0.293158
  19 H :    0.127782
  20 H :    0.112079
  21 H :    0.124088
  22 H :    0.109867
  23 H :    0.111741
  24 H :    0.100527
  25 H :    0.108398
  26 H :    0.103624
  27 H :    0.123925
  28 H :    0.124224
  29 H :    0.192962
  30 H :    0.192063
  31 H :    0.110419
  32 H :    0.114698
  33 H :    0.126403
  34 H :    0.111256
  35 H :    0.124358
  36 H :    0.101836
  37 H :    0.112204
  38 H :    0.110201
  39 H :    0.103173
  40 H :    0.127457
Sum of atomic charges:    0.0000000

LOEWDIN ATOMIC CHARGES
----------------------
   0 C :   -0.369779
   1 C :   -0.113909
   2 O :   -0.246952
   3 P :    0.569593
   4 S :   -0.317264
   5 O :   -0.232499
   6 C :   -0.114029
   7 C :   -0.360222
   8 S :    0.095613
   9 C :   -0.480646
  10 S :    0.091443
  11 P :    0.571754
  12 S :   -0.318892
  13 O :   -0.239353
  14 C :   -0.115183
  15 C :   -0.368812
  16 O :   -0.236491
  17 C :   -0.118558
  18 C :   -0.356408
  19 H :    0.130032
  20 H :    0.130335
  21 H :    0.120527
  22 H :    0.121817
  23 H :    0.108976
  24 H :    0.114205
  25 H :    0.106411
  26 H :    0.126369
  27 H :    0.118149
  28 H :    0.127201
  29 H :    0.130719
  30 H :    0.130990
  31 H :    0.122043
  32 H :    0.108169
  33 H :    0.130152
  34 H :    0.129937
  35 H :    0.120761
  36 H :    0.112307
  37 H :    0.102592
  38 H :    0.123858
  39 H :    0.126898
  40 H :    0.118147

  Mayer bond orders larger than 0.100000
B(  0-C ,  1-C ) :   1.1668 B(  0-C , 19-H ) :   0.9422 B(  0-C , 20-H ) :   0.9348
B(  0-C , 21-H ) :   0.9341 B(  1-C ,  2-O ) :   0.9143 B(  1-C , 22-H ) :   0.9339
B(  1-C , 23-H ) :   0.9278 B(  2-O ,  3-P ) :   1.1024 B(  3-P ,  4-S ) :   1.6027
B(  3-P ,  5-O ) :   1.1216 B(  3-P ,  8-S ) :   0.9497 B(  4-S ,  8-S ) :   0.1054
B(  5-O ,  6-C ) :   0.9012 B(  6-C ,  7-C ) :   1.1658 B(  6-C , 24-H ) :   0.9348
B(  6-C , 25-H ) :   0.9024 B(  7-C , 26-H ) :   0.9393 B(  7-C , 27-H ) :   0.9424
B(  7-C , 28-H ) :   0.9449 B(  8-S ,  9-C ) :   1.0043 B(  9-C , 10-S ) :   1.0137
B(  9-C , 29-H ) :   0.8789 B(  9-C , 30-H ) :   0.8801 B( 10-S , 11-P ) :   0.9311
B( 10-S , 12-S ) :   0.1092 B( 11-P , 12-S ) :   1.6006 B( 11-P , 13-O ) :   1.1302
B( 11-P , 16-O ) :   1.1306 B( 13-O , 14-C ) :   0.9157 B( 14-C , 15-C ) :   1.1639
B( 14-C , 31-H ) :   0.9338 B( 14-C , 32-H ) :   0.9254 B( 15-C , 33-H ) :   0.9434
B( 15-C , 34-H ) :   0.9355 B( 15-C , 35-H ) :   0.9335 B( 16-O , 17-C ) :   0.8954
B( 17-C , 18-C ) :   1.1626 B( 17-C , 36-H ) :   0.9345 B( 17-C , 37-H ) :   0.9048
B( 18-C , 38-H ) :   0.9483 B( 18-C , 39-H ) :   0.9402 B( 18-C , 40-H ) :   0.9362

Dispersion correction           -0.067938082
FINAL SINGLE POINT ENERGY     -2929.521438590214

DIPOLE MOMENT
-------------

Method             : SCF
Type of density    : Electron Density
Multiplicity       :   1
Irrep              :   0
Energy             : -2929.6389331503532958 Eh
Relativity type    :
Basis              : AO
                                X                 Y                 Z
Electronic contribution:     -0.093244441       6.159628268      -5.528613576
Nuclear contribution   :      0.173074495      -6.710362115       5.924688220
                        -----------------------------------------
Total Dipole Moment    :      0.079830054      -0.550733847       0.396074645
                        -----------------------------------------
Magnitude (a.u.)       :      0.683048851
Magnitude (Debye)      :      1.736172202

Rotational constants in cm-1:             0.012568             0.005350             0.005145
Rotational constants in MHz :           376.771531           160.400458           154.235840

                             ****ORCA TERMINATED NORMALLY****
TOTAL RUN TIME: 0 days 0 hours 0 minutes 22 seconds 340 msec
