                         Program Version 6.0.0  -   RELEASE  -
|  1> ! r2scan-3c def2/J RI DEFGRID2 scfconv6 printgap
|  2> %output
|  3>     printlevel normal
|  4> end
|  5> * xyz 0 1
|  6> C 1.4483301627 -0.9809953102 -3.026929951
|  7> C 2.0944249605 -1.5473888763 -1.7785498562
|  8> O 2.5743405308 -0.4434212725 -0.9709809523
|  9> P 2.5628909204 -0.4567090261 0.6055230261
| 10> S 3.3486819257 1.2038925228 1.2784944926
| 11> O 3.3007758711 -1.8316606695 0.9056065664
| 12> C 3.2656530142 -2.545247856 2.1573785026
| 13> C 3.6788265246 -1.6870747337 3.3342026335
| 14> S 0.55971061 -0.847907533 1.2250025997
| 15> C 0.0138870162 0.8699529942 1.208741424
| 16> S -0.1598432506 1.5388067032 -0.4795395399
| 17> P -2.1883095135 1.0195414898 -0.7887259818
| 18> S -2.8727161764 1.2799530252 -2.6041214598
| 19> O -2.8539078952 1.8765260117 0.3669458796
| 20> C -4.2545919274 2.2254888464 0.3357734113
| 21> C -5.1407674692 1.0098458513 0.5049526442
| 22> O -2.3367745653 -0.456698118 -0.2131459913
| 23> C -2.0782318215 -1.6198577292 -1.0239448939
| 24> C -2.3722583227 -2.8394993308 -0.175725564
| 25> H 1.0957318935 -1.795738368 -3.6513551483
| 26> H 0.6089313544 -0.3369210918 -2.769788175
| 27> H 2.1693840367 -0.3874860058 -3.5813007444
| 28> H 2.9591582722 -2.1662373519 -2.0239362714
| 29> H 1.3864703081 -2.1372243298 -1.1877119445
| 30> H 2.2534242107 -2.933678096 2.2980851238
| 31> H 3.9629362465 -3.369845936 1.9999237841
| 32> H 2.9632310007 -0.8794519282 3.4814104798
| 33> H 3.7144090303 -2.2972209236 4.2309271555
| 34> H 4.657597109 -1.2469617862 3.1585242617
| 35> H 0.7701836177 1.4831567894 1.7008199698
| 36> H -0.9423042813 0.9204920484 1.7209602011
| 37> H -4.36482618 2.9302222953 1.1610132452
| 38> H -4.4640349718 2.7276778981 -0.6138263096
| 39> H -4.8669555925 0.4651252739 1.4045620104
| 40> H -6.1763801339 1.327586519 0.5748133906
| 41> H -5.0300596408 0.3519459687 -0.3559111519
| 42> H -2.7155157537 -1.5693170956 -1.912140111
| 43> H -1.03272663 -1.602995951 -1.3424743351
| 44> H -2.1839020851 -3.7334948713 -0.7605802292
| 45> H -1.7312123455 -2.8370543584 0.7019483978
| 46> H -3.4099757263 -2.8314450857 0.1435631213
| 47> *
| 48>
| 49>                          ****END OF INPUT****

CARTESIAN COORDINATES (ANGSTROEM)
---------------------------------
  C      1.448330   -0.980995   -3.026930
  C      2.094425   -1.547389   -1.778550
  O      2.574341   -0.443421   -0.970981
  P      2.562891   -0.456709    0.605523
  S      3.348682    1.203893    1.278494
  O      3.300776   -1.831661    0.905607
  C      3.265653   -2.545248    2.157379
  C      3.678827   -1.687075    3.334203
  S      0.559711   -0.847908    1.225003
  C      0.013887    0.869953    1.208741
  S     -0.159843    1.538807   -0.479540
  P     -2.188310    1.019541   -0.788726
  S     -2.872716    1.279953   -2.604121
  O     -2.853908    1.876526    0.366946
  C     -4.254592    2.225489    0.335773
  C     -5.140767    1.009846    0.504953
  O     -2.336775   -0.456698   -0.213146
  C     -2.078232   -1.619858   -1.023945
  C     -2.372258   -2.839499   -0.175726
  H      1.095732   -1.795738   -3.651355
  H      0.608931   -0.336921   -2.769788
  H      2.169384   -0.387486   -3.581301
  H      2.959158   -2.166237   -2.023936
  H      1.386470   -2.137224   -1.187712
  H      2.253424   -2.933678    2.298085
  H      3.962936   -3.369846    1.999924
  H      2.963231   -0.879452    3.481410
  H      3.714409   -2.297221    4.230927
  H      4.657597   -1.246962    3.158524
  H      0.770184    1.483157    1.700820
  H     -0.942304    0.920492    1.720960
  H     -4.364826    2.930222    1.161013
  H     -4.464035    2.727678   -0.613826
  H     -4.866956    0.465125    1.404562
  H     -6.176380    1.327587    0.574813
  H     -5.030060    0.351946   -0.355911
  H     -2.715516   -1.569317   -1.912140
  H     -1.032727   -1.602996   -1.342474
  H     -2.183902   -3.733495   -0.760580
  H     -1.731212   -2.837054    0.701948
  H     -3.409976   -2.831445    0.143563

 Total Charge           Charge          ....    0
 Multiplicity           Mult            ....    1
 Number of Electrons    NEL             ....  202
 Basis Dimension        Dim             ....  539

ORBITAL ENERGIES
----------------

  NO   OCC          E(Eh)            E(eV)
   0   2.0000     -88.582260     -2410.4458
   1   2.0000     -88.575574     -2410.2639
   2   2.0000     -88.523705     -2408.8525
   3   2.0000     -88.520400     -2408.7625
   4   2.0000     -76.917345     -2093.0274
   5   2.0000     -76.916267     -2092.9980
   6   2.0000     -18.999352      -516.9986
   7   2.0000     -18.996470      -516.9202
   8   2.0000     -18.993815      -516.8480
   9   2.0000     -18.991728      -516.7912
  10   2.0000     -10.109859      -275.1032
  11   2.0000     -10.109165      -275.0844
  12   2.0000     -10.103449      -274.9288
  13   2.0000     -10.102913      -274.9142
  14   2.0000     -10.101496      -274.8757
  15   2.0000     -10.038028      -273.1486
  16   2.0000     -10.032757      -273.0052
  17   2.0000     -10.031899      -272.9818
  18   2.0000     -10.029797      -272.9247
  19   2.0000      -7.876773      -214.3379
  20   2.0000      -7.869376      -214.1366
  21   2.0000      -7.818259      -212.7456
  22   2.0000      -7.815108      -212.6599
  23   2.0000      -6.595684      -179.4777
  24   2.0000      -6.594729      -179.4517
  25   2.0000      -5.823424      -158.4634
  26   2.0000      -5.820450      -158.3825
  27   2.0000      -5.816675      -158.2798
  28   2.0000      -5.814275      -158.2145
  29   2.0000      -5.812975      -158.1791
  30   2.0000      -5.806415      -158.0006
  31   2.0000      -5.765914      -156.8985
  32   2.0000      -5.762941      -156.8176
  33   2.0000      -5.758605      -156.6996
  34   2.0000      -5.758230      -156.6894
  35   2.0000      -5.755336      -156.6107
  36   2.0000      -5.754999      -156.6015
  37   2.0000      -4.741478      -129.0222
  38   2.0000      -4.740931      -129.0073
  39   2.0000      -4.740042      -128.9831
  40   2.0000      -4.739854      -128.9780
  41   2.0000      -4.738873      -128.9513
  42   2.0000      -4.738456      -128.9399
  43   2.0000      -1.055187       -28.7131
  44   2.0000      -1.054031       -28.6816
  45   2.0000      -1.015013       -27.6199
  46   2.0000      -1.012849       -27.5610
  47   2.0000      -0.804552       -21.8930
  48   2.0000      -0.764273       -20.7969
  49   2.0000      -0.755716       -20.5641
  50   2.0000      -0.738099       -20.0847
  51   2.0000      -0.737113       -20.0579
  52   2.0000      -0.712861       -19.3979
  53   2.0000      -0.690345       -18.7853
  54   2.0000      -0.671689       -18.2776
  55   2.0000      -0.631995       -17.1975
  56   2.0000      -0.624907       -17.0046
  57   2.0000      -0.607419       -16.5287
  58   2.0000      -0.604201       -16.4411
  59   2.0000      -0.599458       -16.3121
  60   2.0000      -0.536476       -14.5983
  61   2.0000      -0.531704       -14.4684
  62   2.0000      -0.500630       -13.6228
  63   2.0000      -0.497673       -13.5424
  64   2.0000      -0.485574       -13.2131
  65   2.0000      -0.470488       -12.8026
  66   2.0000      -0.459813       -12.5122
  67   2.0000      -0.455143       -12.3851
  68   2.0000      -0.448206       -12.1963
  69   2.0000      -0.439264       -11.9530
  70   2.0000      -0.437709       -11.9107
  71   2.0000      -0.419694       -11.4205
  72   2.0000      -0.415373       -11.3029
  73   2.0000      -0.405600       -11.0369
  74   2.0000      -0.400763       -10.9053
  75   2.0000      -0.385803       -10.4982
  76   2.0000      -0.383105       -10.4248
  77   2.0000      -0.377810       -10.2807
  78   2.0000      -0.371837       -10.1182
  79   2.0000      -0.366711        -9.9787
  80   2.0000      -0.365991        -9.9591
  81   2.0000      -0.365435        -9.9440
  82   2.0000      -0.361490        -9.8366
  83   2.0000      -0.357986        -9.7413
  84   2.0000      -0.349548        -9.5117
  85   2.0000      -0.335162        -9.1202
  86   2.0000      -0.330778        -9.0009
  87   2.0000      -0.319423        -8.6919
  88   2.0000      -0.316546        -8.6137
  89   2.0000      -0.314298        -8.5525
  90   2.0000      -0.307022        -8.3545
  91   2.0000      -0.295311        -8.0358
  92   2.0000      -0.293109        -7.9759
  93   2.0000      -0.285970        -7.7816
  94   2.0000      -0.271543        -7.3890
  95   2.0000      -0.253155        -6.8887
  96   2.0000      -0.232981        -6.3397
  97   2.0000      -0.223371        -6.0782
  98   2.0000      -0.219290        -5.9672
  99   2.0000      -0.218823        -5.9545
 100   2.0000      -0.214514        -5.8372
 101   0.0000      -0.045624        -1.2415
 102   0.0000      -0.025009        -0.6805
 103   0.0000      -0.018176        -0.4946
 104   0.0000       0.004082         0.1111
 105   0.0000       0.005321         0.1448

MULLIKEN ATOMIC CHARGES
-----------------------
   0 C :   -0.445784
   1 C :   -0.122916
   2 O :   -0.260935
   3 P :    0.651482
   4 S :   -0.421484
   5 O :   -0.291395
   6 C :   -0.159380
   7 C :   -0.426481
   8 S :   -0.180064
   9 C :   -0.238487
  10 S :   -0.109395
  11 P :    0.641503
  12 S :   -0.460783
  13 O :   -0.302104
  14 C :   -0.149956
  15 C :   -0.439397
  16 O :   -0.264981
  17 C :   -0.119039
  18 C :   -0.461453
  19 H :    0.146255
  20 H :    0.170914
  21 H :    0.158584
  22 H :    0.156076
  23 H :    0.139889
  24 H :    0.149437
  25 H :    0.151079
  26 H :    0.168305
  27 H :    0.146929
  28 H :    0.166495
  29 H :    0.224940
  30 H :    0.203677
  31 H :    0.150265
  32 H :    0.173519
  33 H :    0.153633
  34 H :    0.148891
  35 H :    0.168274
  36 H :    0.170653
  37 H :    0.149645
  38 H :    0.148699
  39 H :    0.161066
  40 H :    0.153824
Sum of atomic charges:   -0.0000000

LOEWDIN ATOMIC CHARGES
----------------------
   0 C :   -0.395608
   1 C :    0.019601
   2 O :   -0.651585
   3 P :    0.375645
   4 S :   -0.094967
   5 O :   -0.661194
   6 C :    0.024087
   7 C :   -0.405357
   8 S :    0.128680
   9 C :   -0.412216
  10 S :    0.187757
  11 P :    0.362502
  12 S :   -0.111362
  13 O :   -0.678281
  14 C :    0.024649
  15 C :   -0.400331
  16 O :   -0.685272
  17 C :    0.010861
  18 C :   -0.389508
  19 H :    0.158874
  20 H :    0.167118
  21 H :    0.164254
  22 H :    0.175720
  23 H :    0.169214
  24 H :    0.170536
  25 H :    0.181899
  26 H :    0.166584
  27 H :    0.158660
  28 H :    0.166503
  29 H :    0.196782
  30 H :    0.192089
  31 H :    0.180436
  32 H :    0.180977
  33 H :    0.159972
  34 H :    0.160204
  35 H :    0.165190
  36 H :    0.180476
  37 H :    0.174548
  38 H :    0.160033
  39 H :    0.161440
  40 H :    0.160388

  Mayer bond orders larger than 0.100000
B(  0-C ,  1-C ) :   0.9580 B(  0-C , 19-H ) :   0.9675 B(  0-C , 20-H ) :   0.9579
B(  0-C , 21-H ) :   0.9675 B(  1-C ,  2-O ) :   0.7337 B(  1-C , 22-H ) :   0.9494
B(  1-C , 23-H ) :   0.9570 B(  2-O ,  3-P ) :   1.1527 B(  3-P ,  4-S ) :   1.8686
B(  3-P ,  5-O ) :   1.0418 B(  3-P ,  8-S ) :   0.9709 B(  5-O ,  6-C ) :   0.8043
B(  6-C ,  7-C ) :   0.9440 B(  6-C , 24-H ) :   0.9617 B(  6-C , 25-H ) :   0.9580
B(  7-C , 26-H ) :   0.9544 B(  7-C , 27-H ) :   0.9618 B(  7-C , 28-H ) :   0.9653
B(  8-S ,  9-C ) :   0.9140 B(  9-C , 10-S ) :   0.9123 B(  9-C , 29-H ) :   0.9034
B(  9-C , 30-H ) :   0.9198 B( 10-S , 11-P ) :   1.0905 B( 11-P , 12-S ) :   1.8026
B( 11-P , 13-O ) :   1.1459 B( 11-P , 16-O ) :   1.0496 B( 13-O , 14-C ) :   0.8076
B( 14-C , 15-C ) :   0.9264 B( 14-C , 31-H ) :   0.9613 B( 14-C , 32-H ) :   0.9661
B( 15-C , 33-H ) :   0.9712 B( 15-C , 34-H ) :   0.9608 B( 15-C , 35-H ) :   0.9594
B( 16-O , 17-C ) :   0.7510 B( 17-C , 18-C ) :   0.9349 B( 17-C , 36-H ) :   0.9360
B( 17-C , 37-H ) :   0.9437 B( 18-C , 38-H ) :   0.9684 B( 18-C , 39-H ) :   0.9720
B( 18-C , 40-H ) :   0.9725

Dispersion correction           -0.021497439
FINAL SINGLE POINT ENERGY     -2932.462458652908

DIPOLE MOMENT
-------------

Method             : SCF
Type of density    : Electron Density
Multiplicity       :   1
Irrep              :   0
Energy             : -2932.4873737595376042 Eh
Relativity type    :
Basis              : AO
                                X                 Y                 Z
Electronic contribution:      9.216858903      17.215778233      -3.333409172
Nuclear contribution   :    -10.084786678     -19.294779108       4.288668593
                        -----------------------------------------
Total Dipole Moment    :     -0.867927775      -2.079000875       0.955259421
                        -----------------------------------------
Magnitude (a.u.)       :      2.447052067
Magnitude (Debye)      :      6.219912051

Rotational constants in cm-1:             0.013106             0.004502             0.004416
Rotational constants in MHz :           392.911680           134.954285           132.387003

                             ****ORCA TERMINATED NORMALLY****
TOTAL RUN TIME: 0 days 0 hours 1 minutes 23 seconds 384 msec
