                         Program Version 6.0.0  -   RELEASE  -
|  1> ! r2scan-3c def2/J RI DEFGRID2 scfconv6 printgap
|  2> %output
|  3>     printlevel normal
|  4> end
|  5> %cpcm
|  6>     smd true
|  7>     smdsolvent "water"
|  8> end
|  9> * xyz 0 1
| 10> C 1.4483301627 -0.9809953102 -3.026929951
| 11> C 2.0944249605 -1.5473888763 -1.7785498562
| 12> O 2.5743405308 -0.4434212725 -0.9709809523
| 13> P 2.5628909204 -0.4567090261 0.6055230261
| 14> S 3.3486819257 1.2038925228 1.2784944926
| 15> O 3.3007758711 -1.8316606695 0.9056065664
| 16> C 3.2656530142 -2.545247856 2.1573785026
| 17> C 3.6788265246 -1.6870747337 3.3342026335
| 18> S 0.55971061 -0.847907533 1.2250025997
| 19> C 0.0138870162 0.8699529942 1.208741424
| 20> S -0.1598432506 1.5388067032 -0.4795395399
| 21> P -2.1883095135 1.0195414898 -0.7887259818
| 22> S -2.8727161764 1.2799530252 -2.6041214598
| 23> O -2.8539078952 1.8765260117 0.3669458796
| 24> C -4.2545919274 2.2254888464 0.3357734113
| 25> C -5.1407674692 1.0098458513 0.5049526442
| 26> O -2.3367745653 -0.456698118 -0.2131459913
| 27> C -2.0782318215 -1.6198577292 -1.0239448939
| 28> C -2.3722583227 -2.8394993308 -0.175725564
| 29> H 1.0957318935 -1.795738368 -3.6513551483
| 30> H 0.6089313544 -0.3369210918 -2.769788175
| 31> H 2.1693840367 -0.3874860058 -3.5813007444
| 32> H 2.9591582722 -2.1662373519 -2.0239362714
| 33> H 1.3864703081 -2.1372243298 -1.1877119445
| 34> H 2.2534242107 -2.933678096 2.2980851238
| 35> H 3.9629362465 -3.369845936 1.9999237841
| 36> H 2.9632310007 -0.8794519282 3.4814104798
| 37> H 3.7144090303 -2.2972209236 4.2309271555
| 38> H 4.657597109 -1.2469617862 3.1585242617
| 39> H 0.7701836177 1.4831567894 1.7008199698
| 40> H -0.9423042813 0.9204920484 1.7209602011
| 41> H -4.36482618 2.9302222953 1.1610132452
| 42> H -4.4640349718 2.7276778981 -0.6138263096
| 43> H -4.8669555925 0.4651252739 1.4045620104
| 44> H -6.1763801339 1.327586519 0.5748133906
| 45> H -5.0300596408 0.3519459687 -0.3559111519
| 46> H -2.7155157537 -1.5693170956 -1.912140111
| 47> H -1.03272663 -1.602995951 -1.3424743351
| 48> H -2.1839020851 -3.7334948713 -0.7605802292
| 49> H -1.7312123455 -2.8370543584 0.7019483978
| 50> H -3.4099757263 -2.8314450857 0.1435631213
| 51> *
| 52>
| 53>                          ****END OF INPUT****

CARTESIAN COORDINATES (ANGSTROEM)
---------------------------------
  C      1.448330   -0.980995   -3.026930
  C      2.094425   -1.547389   -1.778550
  O      2.574341   -0.443421   -0.970981
  P      2.562891   -0.456709    0.605523
  S      3.348682    1.203893    1.278494
  O      3.300776   -1.831661    0.905607
  C      3.265653   -2.545248    2.157379
  C      3.678827   -1.687075    3.334203
  S      0.559711   -0.847908    1.225003
  C      0.013887    0.869953    1.208741
  S     -0.159843    1.538807   -0.479540
  P     -2.188310    1.019541   -0.788726
  S     -2.872716    1.279953   -2.604121
  O     -2.853908    1.876526    0.366946
  C     -4.254592    2.225489    0.335773
  C     -5.140767    1.009846    0.504953
  O     -2.336775   -0.456698   -0.213146
  C     -2.078232   -1.619858   -1.023945
  C     -2.372258   -2.839499   -0.175726
  H      1.095732   -1.795738   -3.651355
  H      0.608931   -0.336921   -2.769788
  H      2.169384   -0.387486   -3.581301
  H      2.959158   -2.166237   -2.023936
  H      1.386470   -2.137224   -1.187712
  H      2.253424   -2.933678    2.298085
  H      3.962936   -3.369846    1.999924
  H      2.963231   -0.879452    3.481410
  H      3.714409   -2.297221    4.230927
  H      4.657597   -1.246962    3.158524
  H      0.770184    1.483157    1.700820
  H     -0.942304    0.920492    1.720960
  H     -4.364826    2.930222    1.161013
  H     -4.464035    2.727678   -0.613826
  H     -4.866956    0.465125    1.404562
  H     -6.176380    1.327587    0.574813
  H     -5.030060    0.351946   -0.355911
  H     -2.715516   -1.569317   -1.912140
  H     -1.032727   -1.602996   -1.342474
  H     -2.183902   -3.733495   -0.760580
  H     -1.731212   -2.837054    0.701948
  H     -3.409976   -2.831445    0.143563

 Total Charge           Charge          ....    0
 Multiplicity           Mult            ....    1
 Number of Electrons    NEL             ....  202
 Basis Dimension        Dim             ....  539

ORBITAL ENERGIES
----------------

  NO   OCC          E(Eh)            E(eV)
   0   2.0000     -88.581186     -2410.4166
   1   2.0000     -88.579647     -2410.3747
   2   2.0000     -88.531137     -2409.0547
   3   2.0000     -88.529550     -2409.0115
   4   2.0000     -76.921331     -2093.1358
   5   2.0000     -76.920408     -2093.1107
   6   2.0000     -18.997749      -516.9550
   7   2.0000     -18.995066      -516.8820
   8   2.0000     -18.994467      -516.8657
   9   2.0000     -18.994088      -516.8554
  10   2.0000     -10.106534      -275.0128
  11   2.0000     -10.094075      -274.6737
  12   2.0000     -10.091774      -274.6111
  13   2.0000     -10.090254      -274.5698
  14   2.0000     -10.089437      -274.5476
  15   2.0000     -10.019823      -272.6532
  16   2.0000     -10.019238      -272.6373
  17   2.0000     -10.018933      -272.6290
  18   2.0000     -10.018897      -272.6281
  19   2.0000      -7.875538      -214.3043
  20   2.0000      -7.873677      -214.2536
  21   2.0000      -7.826057      -212.9578
  22   2.0000      -7.824673      -212.9202
  23   2.0000      -6.599742      -179.5881
  24   2.0000      -6.598872      -179.5644
  25   2.0000      -5.822272      -158.4321
  26   2.0000      -5.820891      -158.3945
  27   2.0000      -5.819262      -158.3502
  28   2.0000      -5.817225      -158.2947
  29   2.0000      -5.812922      -158.1777
  30   2.0000      -5.810838      -158.1209
  31   2.0000      -5.773620      -157.1082
  32   2.0000      -5.772353      -157.0737
  33   2.0000      -5.766383      -156.9113
  34   2.0000      -5.766072      -156.9028
  35   2.0000      -5.764908      -156.8711
  36   2.0000      -5.764629      -156.8635
  37   2.0000      -4.745491      -129.1314
  38   2.0000      -4.744910      -129.1156
  39   2.0000      -4.744115      -129.0939
  40   2.0000      -4.743963      -129.0898
  41   2.0000      -4.743090      -129.0660
  42   2.0000      -4.742747      -129.0567
  43   2.0000      -1.055168       -28.7126
  44   2.0000      -1.053095       -28.6562
  45   2.0000      -1.013307       -27.5735
  46   2.0000      -1.012489       -27.5512
  47   2.0000      -0.804148       -21.8820
  48   2.0000      -0.758948       -20.6520
  49   2.0000      -0.747452       -20.3392
  50   2.0000      -0.726412       -19.7667
  51   2.0000      -0.724980       -19.7277
  52   2.0000      -0.709918       -19.3178
  53   2.0000      -0.692898       -18.8547
  54   2.0000      -0.676269       -18.4022
  55   2.0000      -0.625982       -17.0338
  56   2.0000      -0.619067       -16.8457
  57   2.0000      -0.601672       -16.3723
  58   2.0000      -0.596336       -16.2271
  59   2.0000      -0.591660       -16.0999
  60   2.0000      -0.530293       -14.4300
  61   2.0000      -0.524780       -14.2800
  62   2.0000      -0.494843       -13.4654
  63   2.0000      -0.490532       -13.3481
  64   2.0000      -0.481740       -13.1088
  65   2.0000      -0.463334       -12.6080
  66   2.0000      -0.450730       -12.2650
  67   2.0000      -0.445535       -12.1236
  68   2.0000      -0.440477       -11.9860
  69   2.0000      -0.437004       -11.8915
  70   2.0000      -0.432585       -11.7712
  71   2.0000      -0.412532       -11.2256
  72   2.0000      -0.408870       -11.1259
  73   2.0000      -0.400301       -10.8928
  74   2.0000      -0.395083       -10.7507
  75   2.0000      -0.382672       -10.4130
  76   2.0000      -0.378547       -10.3008
  77   2.0000      -0.365729        -9.9520
  78   2.0000      -0.361509        -9.8372
  79   2.0000      -0.361022        -9.8239
  80   2.0000      -0.354773        -9.6539
  81   2.0000      -0.354342        -9.6421
  82   2.0000      -0.350877        -9.5479
  83   2.0000      -0.349772        -9.5178
  84   2.0000      -0.344785        -9.3821
  85   2.0000      -0.327945        -8.9238
  86   2.0000      -0.323402        -8.8002
  87   2.0000      -0.313761        -8.5379
  88   2.0000      -0.311691        -8.4815
  89   2.0000      -0.309108        -8.4113
  90   2.0000      -0.302661        -8.2358
  91   2.0000      -0.290644        -7.9088
  92   2.0000      -0.289348        -7.8736
  93   2.0000      -0.282634        -7.6909
  94   2.0000      -0.269663        -7.3379
  95   2.0000      -0.253849        -6.9076
  96   2.0000      -0.238514        -6.4903
  97   2.0000      -0.231580        -6.3016
  98   2.0000      -0.228983        -6.2310
  99   2.0000      -0.227886        -6.2011
 100   2.0000      -0.221752        -6.0342
 101   0.0000      -0.047423        -1.2905
 102   0.0000      -0.029993        -0.8162
 103   0.0000      -0.021118        -0.5747
 104   0.0000       0.000484         0.0132
 105   0.0000       0.006248         0.1700

MULLIKEN ATOMIC CHARGES
-----------------------
   0 C :   -0.491768
   1 C :   -0.107294
   2 O :   -0.297740
   3 P :    0.665817
   4 S :   -0.492078
   5 O :   -0.313472
   6 C :   -0.160183
   7 C :   -0.464835
   8 S :   -0.156549
   9 C :   -0.241879
  10 S :   -0.157665
  11 P :    0.677808
  12 S :   -0.520049
  13 O :   -0.323949
  14 C :   -0.142680
  15 C :   -0.479119
  16 O :   -0.282652
  17 C :   -0.117087
  18 C :   -0.494653
  19 H :    0.172363
  20 H :    0.165432
  21 H :    0.168234
  22 H :    0.177206
  23 H :    0.166604
  24 H :    0.172877
  25 H :    0.178080
  26 H :    0.164530
  27 H :    0.174129
  28 H :    0.170870
  29 H :    0.234959
  30 H :    0.238911
  31 H :    0.175887
  32 H :    0.176036
  33 H :    0.169637
  34 H :    0.172968
  35 H :    0.168283
  36 H :    0.172994
  37 H :    0.175583
  38 H :    0.172506
  39 H :    0.165379
  40 H :    0.166560
Sum of atomic charges:   -0.0000000

LOEWDIN ATOMIC CHARGES
----------------------
   0 C :   -0.400133
   1 C :    0.028494
   2 O :   -0.676053
   3 P :    0.378397
   4 S :   -0.147907
   5 O :   -0.669023
   6 C :    0.031784
   7 C :   -0.409005
   8 S :    0.152268
   9 C :   -0.405715
  10 S :    0.158485
  11 P :    0.368905
  12 S :   -0.151504
  13 O :   -0.687257
  14 C :    0.029327
  15 C :   -0.402962
  16 O :   -0.688884
  17 C :    0.016802
  18 C :   -0.391103
  19 H :    0.169811
  20 H :    0.162687
  21 H :    0.164051
  22 H :    0.184883
  23 H :    0.180675
  24 H :    0.179704
  25 H :    0.193513
  26 H :    0.161996
  27 H :    0.169043
  28 H :    0.164523
  29 H :    0.199762
  30 H :    0.204292
  31 H :    0.191282
  32 H :    0.181554
  33 H :    0.164384
  34 H :    0.169183
  35 H :    0.162984
  36 H :    0.182316
  37 H :    0.182890
  38 H :    0.169573
  39 H :    0.162359
  40 H :    0.163621

  Mayer bond orders larger than 0.100000
B(  0-C ,  1-C ) :   0.9430 B(  0-C , 19-H ) :   0.9602 B(  0-C , 20-H ) :   0.9627
B(  0-C , 21-H ) :   0.9685 B(  1-C ,  2-O ) :   0.7295 B(  1-C , 22-H ) :   0.9399
B(  1-C , 23-H ) :   0.9468 B(  2-O ,  3-P ) :   1.1567 B(  3-P ,  4-S ) :   1.8267
B(  3-P ,  5-O ) :   1.0594 B(  3-P ,  8-S ) :   0.9952 B(  5-O ,  6-C ) :   0.7929
B(  6-C ,  7-C ) :   0.9220 B(  6-C , 24-H ) :   0.9571 B(  6-C , 25-H ) :   0.9485
B(  7-C , 26-H ) :   0.9573 B(  7-C , 27-H ) :   0.9557 B(  7-C , 28-H ) :   0.9666
B(  8-S ,  9-C ) :   0.9085 B(  9-C , 10-S ) :   0.8998 B(  9-C , 29-H ) :   0.8991
B(  9-C , 30-H ) :   0.9092 B( 10-S , 11-P ) :   1.0973 B( 11-P , 12-S ) :   1.7652
B( 11-P , 13-O ) :   1.1554 B( 11-P , 16-O ) :   1.0671 B( 13-O , 14-C ) :   0.7951
B( 14-C , 15-C ) :   0.9162 B( 14-C , 31-H ) :   0.9508 B( 14-C , 32-H ) :   0.9622
B( 15-C , 33-H ) :   0.9697 B( 15-C , 34-H ) :   0.9551 B( 15-C , 35-H ) :   0.9584
B( 16-O , 17-C ) :   0.7416 B( 17-C , 18-C ) :   0.9327 B( 17-C , 36-H ) :   0.9325
B( 17-C , 37-H ) :   0.9367 B( 18-C , 38-H ) :   0.9616 B( 18-C , 39-H ) :   0.9694
B( 18-C , 40-H ) :   0.9703

Dispersion correction           -0.021497439
FINAL SINGLE POINT ENERGY     -2932.474640919879

DIPOLE MOMENT
-------------

Method             : SCF
Type of density    : Electron Density
Multiplicity       :   1
Irrep              :   0
Energy             : -2932.4995560265078893 Eh
Relativity type    :
Basis              : AO
                                X                 Y                 Z
Electronic contribution:      8.718687638      16.151503797      -2.881111838
Nuclear contribution   :    -10.084786678     -19.294779108       4.288668593
                        -----------------------------------------
Total Dipole Moment    :     -1.366099040      -3.143275311       1.407556755
                        -----------------------------------------
Magnitude (a.u.)       :      3.705080604
Magnitude (Debye)      :      9.417566470

Rotational constants in cm-1:             0.013106             0.004502             0.004416
Rotational constants in MHz :           392.911680           134.954285           132.387003

                             ****ORCA TERMINATED NORMALLY****
TOTAL RUN TIME: 0 days 0 hours 1 minutes 49 seconds 892 msec
