                         Program Version 6.0.0  -   RELEASE  -
|  1> ! pbe def2-sv(p) def2/J RI DEFGRID1 loosescf d4 GCP(DFT/SV(P)) printgap
|  2> %output
|  3>     printlevel normal
|  4> end
|  5> * xyz 0 1
|  6> C 3.8321503893 -0.146065776 2.6985127464
|  7> C 4.6515391102 -0.2106340508 1.4271966953
|  8> O 3.985449918 -0.9508041313 0.3748139741
|  9> P 2.644716846 -0.5498465468 -0.3454079236
| 10> S 2.4729238362 -1.5651835196 -2.0114201974
| 11> O 2.8186099084 1.0365323267 -0.4323203198
| 12> C 1.8004258826 1.963790656 -0.8312900598
| 13> C 1.6098705424 1.9949463811 -2.3344965724
| 14> S 1.060714956 -0.8500894188 1.0534268841
| 15> C -0.1593652658 -1.599524554 -0.0477264541
| 16> S -0.8913874836 -0.4426801495 -1.2489050674
| 17> P -2.3252969563 0.4664825173 0.0114958927
| 18> S -3.5115651685 1.7949469637 -0.8015566421
| 19> O -1.3524582368 0.9993171798 1.1437964737
| 20> C -1.7627679952 1.9961858427 2.1037110338
| 21> C -2.8110265864 1.4678976484 3.059530267
| 22> O -3.0679375757 -0.7416325132 0.7496670127
| 23> C -4.2950997608 -1.2905233344 0.2451342411
| 24> C -4.0828690482 -2.0732003533 -1.0355621862
| 25> H 2.924746198 0.4334913259 2.5378642333
| 26> H 3.5535518084 -1.1458857767 3.0211040895
| 27> H 4.4215510471 0.3301126755 3.4759931387
| 28> H 5.5761950897 -0.7708562283 1.5742636519
| 29> H 4.8782725304 0.7889192185 1.0522107004
| 30> H 0.8633354043 1.7079661062 -0.3250854197
| 31> H 2.1590132028 2.9260304636 -0.4597894045
| 32> H 0.8727421658 2.7511759654 -2.5864023235
| 33> H 2.5501417452 2.226711929 -2.8274387612
| 34> H 1.2569590482 1.030141985 -2.694389091
| 35> H -0.9403911316 -2.0082920533 0.5878085753
| 36> H 0.3249743314 -2.3698165614 -0.6470764227
| 37> H -0.8374525979 2.2516809886 2.6216484348
| 38> H -2.1402460132 2.8656015401 1.5561892263
| 39> H -3.7394255767 1.2751906926 2.5241111053
| 40> H -2.4684130659 0.5442616853 3.5185229341
| 41> H -2.997456696 2.2081316142 3.8313521485
| 42> H -4.65483769 -1.9279498903 1.0540540914
| 43> H -4.9982527054 -0.468715195 0.0755394393
| 44> H -3.3465800258 -2.859767431 -0.8895883688
| 45> H -5.0232640996 -2.5178337819 -1.3451038017
| 46> H -3.7332533829 -1.4065499657 -1.8239449179
| 47> *
| 48>
| 49>                          ****END OF INPUT****

CARTESIAN COORDINATES (ANGSTROEM)
---------------------------------
  C      3.832150   -0.146066    2.698513
  C      4.651539   -0.210634    1.427197
  O      3.985450   -0.950804    0.374814
  P      2.644717   -0.549847   -0.345408
  S      2.472924   -1.565184   -2.011420
  O      2.818610    1.036532   -0.432320
  C      1.800426    1.963791   -0.831290
  C      1.609871    1.994946   -2.334497
  S      1.060715   -0.850089    1.053427
  C     -0.159365   -1.599525   -0.047726
  S     -0.891387   -0.442680   -1.248905
  P     -2.325297    0.466483    0.011496
  S     -3.511565    1.794947   -0.801557
  O     -1.352458    0.999317    1.143796
  C     -1.762768    1.996186    2.103711
  C     -2.811027    1.467898    3.059530
  O     -3.067938   -0.741633    0.749667
  C     -4.295100   -1.290523    0.245134
  C     -4.082869   -2.073200   -1.035562
  H      2.924746    0.433491    2.537864
  H      3.553552   -1.145886    3.021104
  H      4.421551    0.330113    3.475993
  H      5.576195   -0.770856    1.574264
  H      4.878273    0.788919    1.052211
  H      0.863335    1.707966   -0.325085
  H      2.159013    2.926030   -0.459789
  H      0.872742    2.751176   -2.586402
  H      2.550142    2.226712   -2.827439
  H      1.256959    1.030142   -2.694389
  H     -0.940391   -2.008292    0.587809
  H      0.324974   -2.369817   -0.647076
  H     -0.837453    2.251681    2.621648
  H     -2.140246    2.865602    1.556189
  H     -3.739426    1.275191    2.524111
  H     -2.468413    0.544262    3.518523
  H     -2.997457    2.208132    3.831352
  H     -4.654838   -1.927950    1.054054
  H     -4.998253   -0.468715    0.075539
  H     -3.346580   -2.859767   -0.889588
  H     -5.023264   -2.517834   -1.345104
  H     -3.733253   -1.406550   -1.823945

 Total Charge           Charge          ....    0
 Multiplicity           Mult            ....    1
 Number of Electrons    NEL             ....  202
 Basis Dimension        Dim             ....  334

ORBITAL ENERGIES
----------------

  NO   OCC          E(Eh)            E(eV)
   0   2.0000     -88.045601     -2395.8426
   1   2.0000     -88.042451     -2395.7569
   2   2.0000     -87.992655     -2394.4019
   3   2.0000     -87.983939     -2394.1647
   4   2.0000     -76.429963     -2079.7650
   5   2.0000     -76.426857     -2079.6805
   6   2.0000     -18.798618      -511.5364
   7   2.0000     -18.795951      -511.4638
   8   2.0000     -18.791916      -511.3540
   9   2.0000     -18.791766      -511.3500
  10   2.0000      -9.958942      -270.9966
  11   2.0000      -9.957453      -270.9561
  12   2.0000      -9.956625      -270.9335
  13   2.0000      -9.956541      -270.9313
  14   2.0000      -9.947870      -270.6953
  15   2.0000      -9.894019      -269.2299
  16   2.0000      -9.889635      -269.1106
  17   2.0000      -9.887667      -269.0571
  18   2.0000      -9.872342      -268.6401
  19   2.0000      -7.690132      -209.2591
  20   2.0000      -7.687140      -209.1777
  21   2.0000      -7.637766      -207.8342
  22   2.0000      -7.629140      -207.5995
  23   2.0000      -6.427697      -174.9065
  24   2.0000      -6.423965      -174.8050
  25   2.0000      -5.718388      -155.6052
  26   2.0000      -5.715096      -155.5157
  27   2.0000      -5.714470      -155.4986
  28   2.0000      -5.711549      -155.4191
  29   2.0000      -5.706972      -155.2946
  30   2.0000      -5.704216      -155.2196
  31   2.0000      -5.666667      -154.1979
  32   2.0000      -5.658415      -153.9733
  33   2.0000      -5.658242      -153.9686
  34   2.0000      -5.657942      -153.9604
  35   2.0000      -5.649505      -153.7309
  36   2.0000      -5.649335      -153.7262
  37   2.0000      -4.650083      -126.5352
  38   2.0000      -4.649715      -126.5252
  39   2.0000      -4.648071      -126.4804
  40   2.0000      -4.646838      -126.4469
  41   2.0000      -4.645771      -126.4179
  42   2.0000      -4.644206      -126.3753
  43   2.0000      -0.992024       -26.9943
  44   2.0000      -0.987305       -26.8659
  45   2.0000      -0.951679       -25.8965
  46   2.0000      -0.942442       -25.6451
  47   2.0000      -0.764283       -20.7972
  48   2.0000      -0.724321       -19.7098
  49   2.0000      -0.712613       -19.3912
  50   2.0000      -0.692027       -18.8310
  51   2.0000      -0.688445       -18.7335
  52   2.0000      -0.676588       -18.4109
  53   2.0000      -0.656263       -17.8578
  54   2.0000      -0.639320       -17.3968
  55   2.0000      -0.603036       -16.4094
  56   2.0000      -0.591630       -16.0991
  57   2.0000      -0.577908       -15.7257
  58   2.0000      -0.576963       -15.7000
  59   2.0000      -0.565363       -15.3843
  60   2.0000      -0.500322       -13.6144
  61   2.0000      -0.495692       -13.4885
  62   2.0000      -0.478747       -13.0274
  63   2.0000      -0.473136       -12.8747
  64   2.0000      -0.462424       -12.5832
  65   2.0000      -0.448677       -12.2091
  66   2.0000      -0.445284       -12.1168
  67   2.0000      -0.436556       -11.8793
  68   2.0000      -0.427834       -11.6419
  69   2.0000      -0.424726       -11.5574
  70   2.0000      -0.411016       -11.1843
  71   2.0000      -0.399974       -10.8838
  72   2.0000      -0.399104       -10.8602
  73   2.0000      -0.396507       -10.7895
  74   2.0000      -0.387280       -10.5384
  75   2.0000      -0.372208       -10.1283
  76   2.0000      -0.367111        -9.9896
  77   2.0000      -0.359674        -9.7872
  78   2.0000      -0.357188        -9.7196
  79   2.0000      -0.353287        -9.6134
  80   2.0000      -0.352323        -9.5872
  81   2.0000      -0.348222        -9.4756
  82   2.0000      -0.340556        -9.2670
  83   2.0000      -0.335792        -9.1374
  84   2.0000      -0.329903        -8.9771
  85   2.0000      -0.325352        -8.8533
  86   2.0000      -0.314950        -8.5702
  87   2.0000      -0.299924        -8.1614
  88   2.0000      -0.295668        -8.0455
  89   2.0000      -0.293142        -7.9768
  90   2.0000      -0.288742        -7.8571
  91   2.0000      -0.279747        -7.6123
  92   2.0000      -0.275219        -7.4891
  93   2.0000      -0.268536        -7.3072
  94   2.0000      -0.258969        -7.0469
  95   2.0000      -0.234486        -6.3807
  96   2.0000      -0.218455        -5.9445
  97   2.0000      -0.210973        -5.7409
  98   2.0000      -0.208691        -5.6788
  99   2.0000      -0.202583        -5.5126
 100   2.0000      -0.198479        -5.4009
 101   0.0000      -0.042338        -1.1521
 102   0.0000      -0.027611        -0.7513
 103   0.0000      -0.012460        -0.3391
 104   0.0000       0.001839         0.0500
 105   0.0000       0.003144         0.0856

MULLIKEN ATOMIC CHARGES
-----------------------
   0 C :   -0.330230
   1 C :    0.003962
   2 O :   -0.360970
   3 P :    0.617428
   4 S :   -0.311765
   5 O :   -0.383878
   6 C :   -0.028880
   7 C :   -0.302912
   8 S :   -0.110092
   9 C :   -0.342610
  10 S :   -0.059280
  11 P :    0.601125
  12 S :   -0.320881
  13 O :   -0.367541
  14 C :   -0.003526
  15 C :   -0.307486
  16 O :   -0.382952
  17 C :   -0.009540
  18 C :   -0.312516
  19 H :    0.128139
  20 H :    0.128625
  21 H :    0.117462
  22 H :    0.112158
  23 H :    0.112824
  24 H :    0.122163
  25 H :    0.097821
  26 H :    0.109401
  27 H :    0.110880
  28 H :    0.140036
  29 H :    0.182963
  30 H :    0.197316
  31 H :    0.104485
  32 H :    0.112619
  33 H :    0.123811
  34 H :    0.117628
  35 H :    0.113743
  36 H :    0.105473
  37 H :    0.113484
  38 H :    0.115667
  39 H :    0.115001
  40 H :    0.130846
Sum of atomic charges:    0.0000000

LOEWDIN ATOMIC CHARGES
----------------------
   0 C :   -0.370463
   1 C :   -0.108750
   2 O :   -0.236647
   3 P :    0.567690
   4 S :   -0.302291
   5 O :   -0.246988
   6 C :   -0.124364
   7 C :   -0.366922
   8 S :    0.081438
   9 C :   -0.483364
  10 S :    0.113542
  11 P :    0.564201
  12 S :   -0.320458
  13 O :   -0.242139
  14 C :   -0.115862
  15 C :   -0.364653
  16 O :   -0.248126
  17 C :   -0.122732
  18 C :   -0.366770
  19 H :    0.116153
  20 H :    0.129537
  21 H :    0.133517
  22 H :    0.123581
  23 H :    0.115666
  24 H :    0.101075
  25 H :    0.115004
  26 H :    0.130345
  27 H :    0.124452
  28 H :    0.119699
  29 H :    0.131362
  30 H :    0.133235
  31 H :    0.118160
  32 H :    0.112072
  33 H :    0.123498
  34 H :    0.126855
  35 H :    0.131312
  36 H :    0.118207
  37 H :    0.110292
  38 H :    0.123858
  39 H :    0.132229
  40 H :    0.123551

  Mayer bond orders larger than 0.100000
B(  0-C ,  1-C ) :   1.1692 B(  0-C , 19-H ) :   0.9318 B(  0-C , 20-H ) :   0.9434
B(  0-C , 21-H ) :   0.9358 B(  1-C ,  2-O ) :   0.9016 B(  1-C , 22-H ) :   0.9338
B(  1-C , 23-H ) :   0.9262 B(  2-O ,  3-P ) :   1.1412 B(  3-P ,  4-S ) :   1.6492
B(  3-P ,  5-O ) :   1.0713 B(  3-P ,  8-S ) :   0.9438 B(  4-S ,  8-S ) :   0.1147
B(  5-O ,  6-C ) :   0.9109 B(  6-C ,  7-C ) :   1.1673 B(  6-C , 24-H ) :   0.9031
B(  6-C , 25-H ) :   0.9343 B(  7-C , 26-H ) :   0.9381 B(  7-C , 27-H ) :   0.9456
B(  7-C , 28-H ) :   0.9301 B(  8-S ,  9-C ) :   1.0106 B(  9-C , 10-S ) :   0.9813
B(  9-C , 29-H ) :   0.8869 B(  9-C , 30-H ) :   0.8744 B( 10-S , 11-P ) :   0.9764
B( 11-P , 12-S ) :   1.6403 B( 11-P , 13-O ) :   1.1046 B( 11-P , 16-O ) :   1.0579
B( 13-O , 14-C ) :   0.9034 B( 14-C , 15-C ) :   1.1672 B( 14-C , 31-H ) :   0.9332
B( 14-C , 32-H ) :   0.9183 B( 15-C , 33-H ) :   0.9381 B( 15-C , 34-H ) :   0.9459
B( 15-C , 35-H ) :   0.9381 B( 16-O , 17-C ) :   0.9067 B( 17-C , 18-C ) :   1.1640
B( 17-C , 36-H ) :   0.9337 B( 17-C , 37-H ) :   0.9132 B( 18-C , 38-H ) :   0.9468
B( 18-C , 39-H ) :   0.9384 B( 18-C , 40-H ) :   0.9347

Dispersion correction           -0.065588491
FINAL SINGLE POINT ENERGY     -2929.520478038693

DIPOLE MOMENT
-------------

Method             : SCF
Type of density    : Electron Density
Multiplicity       :   1
Irrep              :   0
Energy             : -2929.6411855393839687 Eh
Relativity type    :
Basis              : AO
                                X                 Y                 Z
Electronic contribution:      5.187105114      -5.321282578     -11.459921115
Nuclear contribution   :     -5.383090009       5.611547665      13.389274761
                        -----------------------------------------
Total Dipole Moment    :     -0.195984895       0.290265087       1.929353646
                        -----------------------------------------
Magnitude (a.u.)       :      1.960884849
Magnitude (Debye)      :      4.984173187

Rotational constants in cm-1:             0.012479             0.004833             0.004528
Rotational constants in MHz :           374.113808           144.877236           135.752511

                             ****ORCA TERMINATED NORMALLY****
TOTAL RUN TIME: 0 days 0 hours 0 minutes 21 seconds 381 msec
