                         Program Version 6.0.0  -   RELEASE  -
|  1> ! pbe def2-sv(p) def2/J RI DEFGRID1 loosescf d4 GCP(DFT/SV(P)) printgap
|  2> %output
|  3>     printlevel normal
|  4> end
|  5> * xyz 0 1
|  6> C 3.5786173326 -0.9400744425 -3.0343618466
|  7> C 4.3146024309 -0.6365407008 -1.7466607177
|  8> O 3.6358548336 0.3386844014 -0.9322835781
|  9> P 2.116658294 0.2530165261 -0.4763531528
| 10> S 0.7778668661 0.8399608144 -1.7764065796
| 11> O 2.0891198145 1.232833034 0.7544868251
| 12> C 3.0348727527 1.2461688292 1.8522407237
| 13> C 2.4831128809 0.5048036845 3.0545468383
| 14> S 1.9954520022 -1.7494441527 0.2556434907
| 15> C 0.3248076089 -1.7186896693 0.9391069478
| 16> S -0.9839376398 -1.7891132671 -0.3353163325
| 17> P -2.1442715051 -0.1706718894 0.3521382468
| 18> S -1.2233161477 1.2540930015 1.3505409779
| 19> O -3.172231362 -0.9756052789 1.2509999777
| 20> C -3.9557080455 -0.3504630585 2.2864105708
| 21> C -5.0000266309 0.5834578269 1.7127845956
| 22> O -3.0720720565 0.2080804679 -0.8755488176
| 23> C -2.7205406461 0.9054808051 -2.0824949908
| 24> C -2.6375486559 2.4024704241 -1.8604839994
| 25> H 3.3975049215 -0.0247455308 -3.5932397356
| 26> H 4.1718025431 -1.6198016087 -3.6374040274
| 27> H 2.6174262296 -1.4049935697 -2.8173497682
| 28> H 5.2851305657 -0.1761508399 -1.9401779297
| 29> H 4.443171533 -1.5447892485 -1.1515375462
| 30> H 3.9810339422 0.8204336504 1.5136284379
| 31> H 3.1636803765 2.3072813237 2.0715518454
| 32> H 3.120063666 0.6997137861 3.9114336077
| 33> H 1.4773831272 0.8582938955 3.272527254
| 34> H 2.4555353096 -0.5668157415 2.8724796773
| 35> H 0.1842430433 -0.8026366687 1.5197048405
| 36> H 0.244060484 -2.6048730802 1.5628355378
| 37> H -4.4067244436 -1.1910579182 2.8148687301
| 38> H -3.2777088591 0.1927026301 2.9528420961
| 39> H -5.6124506494 0.0598031286 0.9835865818
| 40> H -5.6285013903 0.9602550126 2.5135888445
| 41> H -4.5095698717 1.4229091135 1.2211559733
| 42> H -1.7723992318 0.5214559331 -2.4671160072
| 43> H -3.5284263768 0.6496653597 -2.7707480125
| 44> H -2.4586550908 2.8918542312 -2.8121814028
| 45> H -3.5626337575 2.7749953324 -1.4281662043
| 46> H -1.8116723868 2.6378320892 -1.1919218077
| 47> *
| 48>
| 49>                          ****END OF INPUT****

CARTESIAN COORDINATES (ANGSTROEM)
---------------------------------
  C      3.578617   -0.940074   -3.034362
  C      4.314602   -0.636541   -1.746661
  O      3.635855    0.338684   -0.932284
  P      2.116658    0.253017   -0.476353
  S      0.777867    0.839961   -1.776407
  O      2.089120    1.232833    0.754487
  C      3.034873    1.246169    1.852241
  C      2.483113    0.504804    3.054547
  S      1.995452   -1.749444    0.255643
  C      0.324808   -1.718690    0.939107
  S     -0.983938   -1.789113   -0.335316
  P     -2.144272   -0.170672    0.352138
  S     -1.223316    1.254093    1.350541
  O     -3.172231   -0.975605    1.251000
  C     -3.955708   -0.350463    2.286411
  C     -5.000027    0.583458    1.712785
  O     -3.072072    0.208080   -0.875549
  C     -2.720541    0.905481   -2.082495
  C     -2.637549    2.402470   -1.860484
  H      3.397505   -0.024746   -3.593240
  H      4.171803   -1.619802   -3.637404
  H      2.617426   -1.404994   -2.817350
  H      5.285131   -0.176151   -1.940178
  H      4.443172   -1.544789   -1.151538
  H      3.981034    0.820434    1.513628
  H      3.163680    2.307281    2.071552
  H      3.120064    0.699714    3.911434
  H      1.477383    0.858294    3.272527
  H      2.455535   -0.566816    2.872480
  H      0.184243   -0.802637    1.519705
  H      0.244060   -2.604873    1.562836
  H     -4.406724   -1.191058    2.814869
  H     -3.277709    0.192703    2.952842
  H     -5.612451    0.059803    0.983587
  H     -5.628501    0.960255    2.513589
  H     -4.509570    1.422909    1.221156
  H     -1.772399    0.521456   -2.467116
  H     -3.528426    0.649665   -2.770748
  H     -2.458655    2.891854   -2.812181
  H     -3.562634    2.774995   -1.428166
  H     -1.811672    2.637832   -1.191922

 Total Charge           Charge          ....    0
 Multiplicity           Mult            ....    1
 Number of Electrons    NEL             ....  202
 Basis Dimension        Dim             ....  334

ORBITAL ENERGIES
----------------

  NO   OCC          E(Eh)            E(eV)
   0   2.0000     -88.045808     -2395.8482
   1   2.0000     -88.034032     -2395.5278
   2   2.0000     -87.981797     -2394.1064
   3   2.0000     -87.975375     -2393.9317
   4   2.0000     -76.424090     -2079.6052
   5   2.0000     -76.420497     -2079.5074
   6   2.0000     -18.792891      -511.3806
   7   2.0000     -18.788002      -511.2475
   8   2.0000     -18.786988      -511.2199
   9   2.0000     -18.777538      -510.9628
  10   2.0000      -9.959946      -271.0239
  11   2.0000      -9.955824      -270.9117
  12   2.0000      -9.953345      -270.8443
  13   2.0000      -9.945592      -270.6333
  14   2.0000      -9.943894      -270.5871
  15   2.0000      -9.884208      -268.9630
  16   2.0000      -9.882775      -268.9240
  17   2.0000      -9.878237      -268.8005
  18   2.0000      -9.871466      -268.6162
  19   2.0000      -7.690632      -209.2727
  20   2.0000      -7.679569      -208.9717
  21   2.0000      -7.626495      -207.5275
  22   2.0000      -7.620516      -207.3648
  23   2.0000      -6.421102      -174.7271
  24   2.0000      -6.417867      -174.6390
  25   2.0000      -5.718233      -155.6010
  26   2.0000      -5.715135      -155.5167
  27   2.0000      -5.707937      -155.3209
  28   2.0000      -5.707517      -155.3094
  29   2.0000      -5.704312      -155.2222
  30   2.0000      -5.696143      -154.9999
  31   2.0000      -5.655291      -153.8883
  32   2.0000      -5.649642      -153.7346
  33   2.0000      -5.647413      -153.6739
  34   2.0000      -5.646475      -153.6484
  35   2.0000      -5.640975      -153.4987
  36   2.0000      -5.640567      -153.4876
  37   2.0000      -4.644089      -126.3721
  38   2.0000      -4.643225      -126.3486
  39   2.0000      -4.640939      -126.2864
  40   2.0000      -4.640314      -126.2694
  41   2.0000      -4.639644      -126.2511
  42   2.0000      -4.638472      -126.2192
  43   2.0000      -0.986590       -26.8465
  44   2.0000      -0.979157       -26.6442
  45   2.0000      -0.942853       -25.6563
  46   2.0000      -0.936754       -25.4904
  47   2.0000      -0.760342       -20.6900
  48   2.0000      -0.718882       -19.5618
  49   2.0000      -0.708396       -19.2764
  50   2.0000      -0.689780       -18.7699
  51   2.0000      -0.679725       -18.4962
  52   2.0000      -0.671488       -18.2721
  53   2.0000      -0.648763       -17.6537
  54   2.0000      -0.632595       -17.2138
  55   2.0000      -0.593349       -16.1458
  56   2.0000      -0.585638       -15.9360
  57   2.0000      -0.575909       -15.6713
  58   2.0000      -0.566187       -15.4067
  59   2.0000      -0.561361       -15.2754
  60   2.0000      -0.502597       -13.6763
  61   2.0000      -0.490818       -13.3558
  62   2.0000      -0.470754       -12.8099
  63   2.0000      -0.465908       -12.6780
  64   2.0000      -0.453656       -12.3446
  65   2.0000      -0.443729       -12.0745
  66   2.0000      -0.438151       -11.9227
  67   2.0000      -0.433167       -11.7871
  68   2.0000      -0.430067       -11.7027
  69   2.0000      -0.413741       -11.2585
  70   2.0000      -0.404151       -10.9975
  71   2.0000      -0.398809       -10.8522
  72   2.0000      -0.394490       -10.7346
  73   2.0000      -0.385112       -10.4794
  74   2.0000      -0.383815       -10.4441
  75   2.0000      -0.366316        -9.9680
  76   2.0000      -0.355029        -9.6608
  77   2.0000      -0.353859        -9.6290
  78   2.0000      -0.351194        -9.5565
  79   2.0000      -0.344391        -9.3714
  80   2.0000      -0.342723        -9.3260
  81   2.0000      -0.340849        -9.2750
  82   2.0000      -0.336971        -9.1695
  83   2.0000      -0.333547        -9.0763
  84   2.0000      -0.326613        -8.8876
  85   2.0000      -0.319852        -8.7036
  86   2.0000      -0.305891        -8.3237
  87   2.0000      -0.296888        -8.0787
  88   2.0000      -0.291300        -7.9267
  89   2.0000      -0.288106        -7.8398
  90   2.0000      -0.276998        -7.5375
  91   2.0000      -0.274349        -7.4654
  92   2.0000      -0.265534        -7.2255
  93   2.0000      -0.260356        -7.0846
  94   2.0000      -0.257925        -7.0185
  95   2.0000      -0.241328        -6.5669
  96   2.0000      -0.219638        -5.9767
  97   2.0000      -0.202695        -5.5156
  98   2.0000      -0.198928        -5.4131
  99   2.0000      -0.182152        -4.9566
 100   2.0000      -0.181927        -4.9505
 101   0.0000      -0.038940        -1.0596
 102   0.0000      -0.029482        -0.8022
 103   0.0000      -0.014761        -0.4017
 104   0.0000       0.003141         0.0855
 105   0.0000       0.022259         0.6057

MULLIKEN ATOMIC CHARGES
-----------------------
   0 C :   -0.310055
   1 C :   -0.015135
   2 O :   -0.380361
   3 P :    0.611634
   4 S :   -0.313463
   5 O :   -0.345320
   6 C :   -0.004682
   7 C :   -0.310414
   8 S :   -0.132969
   9 C :   -0.360873
  10 S :   -0.065623
  11 P :    0.619790
  12 S :   -0.321896
  13 O :   -0.368819
  14 C :   -0.001744
  15 C :   -0.308783
  16 O :   -0.374535
  17 C :   -0.012680
  18 C :   -0.314502
  19 H :    0.128414
  20 H :    0.110783
  21 H :    0.129474
  22 H :    0.110652
  23 H :    0.114631
  24 H :    0.100693
  25 H :    0.111504
  26 H :    0.109958
  27 H :    0.136434
  28 H :    0.118190
  29 H :    0.204395
  30 H :    0.184644
  31 H :    0.100853
  32 H :    0.104164
  33 H :    0.115872
  34 H :    0.108202
  35 H :    0.125111
  36 H :    0.129823
  37 H :    0.101512
  38 H :    0.107232
  39 H :    0.111935
  40 H :    0.145953
Sum of atomic charges:    0.0000000

LOEWDIN ATOMIC CHARGES
----------------------
   0 C :   -0.370502
   1 C :   -0.115115
   2 O :   -0.245641
   3 P :    0.567985
   4 S :   -0.302910
   5 O :   -0.226250
   6 C :   -0.109996
   7 C :   -0.366888
   8 S :    0.059953
   9 C :   -0.479808
  10 S :    0.085844
  11 P :    0.571582
  12 S :   -0.303784
  13 O :   -0.248935
  14 C :   -0.120060
  15 C :   -0.365255
  16 O :   -0.236069
  17 C :   -0.113875
  18 C :   -0.366482
  19 H :    0.131118
  20 H :    0.129830
  21 H :    0.122728
  22 H :    0.122003
  23 H :    0.107425
  24 H :    0.108468
  25 H :    0.123269
  26 H :    0.129615
  27 H :    0.131210
  28 H :    0.117280
  29 H :    0.120868
  30 H :    0.137380
  31 H :    0.116652
  32 H :    0.106004
  33 H :    0.125947
  34 H :    0.128398
  35 H :    0.122538
  36 H :    0.108428
  37 H :    0.116975
  38 H :    0.129513
  39 H :    0.122680
  40 H :    0.127881

  Mayer bond orders larger than 0.100000
B(  0-C ,  1-C ) :   1.1677 B(  0-C , 19-H ) :   0.9418 B(  0-C , 20-H ) :   0.9342
B(  0-C , 21-H ) :   0.9312 B(  1-C ,  2-O ) :   0.9126 B(  1-C , 22-H ) :   0.9332
B(  1-C , 23-H ) :   0.9255 B(  2-O ,  3-P ) :   1.0848 B(  3-P ,  4-S ) :   1.6633
B(  3-P ,  5-O ) :   1.1411 B(  3-P ,  8-S ) :   0.9322 B(  4-S ,  8-S ) :   0.1156
B(  5-O ,  6-C ) :   0.8994 B(  6-C ,  7-C ) :   1.1710 B(  6-C , 24-H ) :   0.9192
B(  6-C , 25-H ) :   0.9348 B(  7-C , 26-H ) :   0.9383 B(  7-C , 27-H ) :   0.9352
B(  7-C , 28-H ) :   0.9334 B(  8-S ,  9-C ) :   0.9940 B(  9-C , 10-S ) :   1.0031
B(  9-C , 29-H ) :   0.8424 B(  9-C , 30-H ) :   0.9109 B( 10-S , 11-P ) :   0.9679
B( 10-S , 12-S ) :   0.1178 B( 11-P , 12-S ) :   1.5844 B( 11-P , 13-O ) :   1.1160
B( 11-P , 16-O ) :   1.1275 B( 12-S , 29-H ) :   0.1040 B( 13-O , 14-C ) :   0.9175
B( 14-C , 15-C ) :   1.1642 B( 14-C , 31-H ) :   0.9346 B( 14-C , 32-H ) :   0.9121
B( 15-C , 33-H ) :   0.9466 B( 15-C , 34-H ) :   0.9388 B( 15-C , 35-H ) :   0.9356
B( 16-O , 17-C ) :   0.8984 B( 17-C , 18-C ) :   1.1715 B( 17-C , 36-H ) :   0.9124
B( 17-C , 37-H ) :   0.9347 B( 18-C , 38-H ) :   0.9384 B( 18-C , 39-H ) :   0.9458
B( 18-C , 40-H ) :   0.9296

Dispersion correction           -0.067328192
FINAL SINGLE POINT ENERGY     -2929.509837878421

DIPOLE MOMENT
-------------

Method             : SCF
Type of density    : Electron Density
Multiplicity       :   1
Irrep              :   0
Energy             : -2929.6273321573453359 Eh
Relativity type    :
Basis              : AO
                                X                 Y                 Z
Electronic contribution:      2.542757545      -6.895855464      -2.834049148
Nuclear contribution   :     -1.901741604       6.417253778       3.318670572
                        -----------------------------------------
Total Dipole Moment    :      0.641015940      -0.478601686       0.484621424
                        -----------------------------------------
Magnitude (a.u.)       :      0.935317558
Magnitude (Debye)      :      2.377388298

Rotational constants in cm-1:             0.012713             0.005274             0.004826
Rotational constants in MHz :           381.140317           158.104917           144.670019

                             ****ORCA TERMINATED NORMALLY****
TOTAL RUN TIME: 0 days 0 hours 0 minutes 20 seconds 902 msec
