                         Program Version 6.0.0  -   RELEASE  -
|  1> ! pbe def2-sv(p) def2/J RI DEFGRID1 loosescf d4 GCP(DFT/SV(P)) printgap
|  2> %output
|  3>     printlevel normal
|  4> end
|  5> * xyz 0 1
|  6> C 0.8186462211 -3.1989557051 0.7738037824
|  7> C 0.7109106542 -1.9736343346 1.6605427532
|  8> O 1.895517743 -1.15869506 1.6478697449
|  9> P 2.4588887379 -0.3038960055 0.4407453079
| 10> S 3.0889576227 -1.2984522102 -1.1347415082
| 11> O 3.5623117764 0.4147968839 1.3128910833
| 12> C 4.2050085552 1.6617902089 0.9922422838
| 13> C 4.8124374124 1.6806430949 -0.3957560609
| 14> S 1.0183124881 1.2282625455 0.0353840659
| 15> C 0.4534648693 0.6354523721 -1.576334643
| 16> S -0.7616499371 -0.7039477362 -1.4663110333
| 17> P -2.2934195402 0.4593213791 -0.5873496797
| 18> S -2.4821783139 2.3085456962 -1.1905057372
| 19> O -1.9245510069 0.2985130966 0.9648150681
| 20> C -2.2044228521 1.327440444 1.9279083319
| 21> C -3.6757568254 1.3473054643 2.2879434169
| 22> O -3.6160920968 -0.366300498 -0.8588468841
| 23> C -3.7258424142 -1.8084657227 -0.9019021831
| 24> C -3.5075025157 -2.4445763575 0.454808691
| 25> H 1.7357720438 -3.7391105878 0.9950236813
| 26> H -0.0317230157 -3.8479573955 0.9580662484
| 27> H 0.825666002 -2.9177390735 -0.2774333466
| 28> H 0.6158964142 -2.2577527315 2.7108595796
| 29> H -0.145085872 -1.3550122319 1.3738879678
| 30> H 3.4699462065 2.4641342692 1.1037732955
| 31> H 4.972959692 1.757251268 1.7621020277
| 32> H 5.4816585257 0.8337114227 -0.5285204091
| 33> H 4.0310136954 1.6239554197 -1.1524255105
| 34> H 5.3685049371 2.6028128728 -0.5317323624
| 35> H 1.3013562306 0.2296253341 -2.1313365569
| 36> H 0.0041466509 1.4877397768 -2.0848046444
| 37> H -1.5762928323 1.0773209257 2.7841379046
| 38> H -1.8931506104 2.2912575136 1.5120861759
| 39> H -3.979521058 0.3867430069 2.6951534266
| 40> H -3.8584213093 2.1246199241 3.0230050036
| 41> H -4.2654270758 1.5566444138 1.3953895684
| 42> H -4.7415863145 -1.9718878899 -1.2655857564
| 43> H -3.005889521 -2.1878906015 -1.6320166699
| 44> H -4.2011324125 -2.0294241176 1.1811854887
| 45> H -3.6738667041 -3.514144493 0.3735732309
| 46> H -2.4892489295 -2.2686786555 0.7939284042
| 47> *
| 48>
| 49>                          ****END OF INPUT****

CARTESIAN COORDINATES (ANGSTROEM)
---------------------------------
  C      0.818646   -3.198956    0.773804
  C      0.710911   -1.973634    1.660543
  O      1.895518   -1.158695    1.647870
  P      2.458889   -0.303896    0.440745
  S      3.088958   -1.298452   -1.134742
  O      3.562312    0.414797    1.312891
  C      4.205009    1.661790    0.992242
  C      4.812437    1.680643   -0.395756
  S      1.018312    1.228263    0.035384
  C      0.453465    0.635452   -1.576335
  S     -0.761650   -0.703948   -1.466311
  P     -2.293420    0.459321   -0.587350
  S     -2.482178    2.308546   -1.190506
  O     -1.924551    0.298513    0.964815
  C     -2.204423    1.327440    1.927908
  C     -3.675757    1.347305    2.287943
  O     -3.616092   -0.366300   -0.858847
  C     -3.725842   -1.808466   -0.901902
  C     -3.507503   -2.444576    0.454809
  H      1.735772   -3.739111    0.995024
  H     -0.031723   -3.847957    0.958066
  H      0.825666   -2.917739   -0.277433
  H      0.615896   -2.257753    2.710860
  H     -0.145086   -1.355012    1.373888
  H      3.469946    2.464134    1.103773
  H      4.972960    1.757251    1.762102
  H      5.481659    0.833711   -0.528520
  H      4.031014    1.623955   -1.152426
  H      5.368505    2.602813   -0.531732
  H      1.301356    0.229625   -2.131337
  H      0.004147    1.487740   -2.084805
  H     -1.576293    1.077321    2.784138
  H     -1.893151    2.291258    1.512086
  H     -3.979521    0.386743    2.695153
  H     -3.858421    2.124620    3.023005
  H     -4.265427    1.556644    1.395390
  H     -4.741586   -1.971888   -1.265586
  H     -3.005890   -2.187891   -1.632017
  H     -4.201132   -2.029424    1.181185
  H     -3.673867   -3.514144    0.373573
  H     -2.489249   -2.268679    0.793928

 Total Charge           Charge          ....    0
 Multiplicity           Mult            ....    1
 Number of Electrons    NEL             ....  202
 Basis Dimension        Dim             ....  334

ORBITAL ENERGIES
----------------

  NO   OCC          E(Eh)            E(eV)
   0   2.0000     -88.049329     -2395.9440
   1   2.0000     -88.047212     -2395.8864
   2   2.0000     -87.990649     -2394.3473
   3   2.0000     -87.988096     -2394.2778
   4   2.0000     -76.431269     -2079.8006
   5   2.0000     -76.428849     -2079.7347
   6   2.0000     -18.800929      -511.5993
   7   2.0000     -18.795723      -511.4576
   8   2.0000     -18.789638      -511.2921
   9   2.0000     -18.785708      -511.1851
  10   2.0000      -9.967536      -271.2304
  11   2.0000      -9.957161      -270.9481
  12   2.0000      -9.956839      -270.9394
  13   2.0000      -9.952445      -270.8198
  14   2.0000      -9.949800      -270.7478
  15   2.0000      -9.898532      -269.3528
  16   2.0000      -9.887577      -269.0546
  17   2.0000      -9.882915      -268.9278
  18   2.0000      -9.877060      -268.7685
  19   2.0000      -7.694173      -209.3691
  20   2.0000      -7.691691      -209.3016
  21   2.0000      -7.635861      -207.7823
  22   2.0000      -7.633020      -207.7050
  23   2.0000      -6.429040      -174.9431
  24   2.0000      -6.425508      -174.8470
  25   2.0000      -5.721893      -155.7006
  26   2.0000      -5.719471      -155.6347
  27   2.0000      -5.718821      -155.6170
  28   2.0000      -5.716113      -155.5433
  29   2.0000      -5.711190      -155.4094
  30   2.0000      -5.708969      -155.3490
  31   2.0000      -5.664924      -154.1504
  32   2.0000      -5.661890      -154.0679
  33   2.0000      -5.656659      -153.9255
  34   2.0000      -5.655644      -153.8979
  35   2.0000      -5.653631      -153.8431
  36   2.0000      -5.653249      -153.8327
  37   2.0000      -4.651836      -126.5829
  38   2.0000      -4.650611      -126.5496
  39   2.0000      -4.649471      -126.5185
  40   2.0000      -4.648046      -126.4798
  41   2.0000      -4.647652      -126.4690
  42   2.0000      -4.645736      -126.4169
  43   2.0000      -0.989989       -26.9390
  44   2.0000      -0.987211       -26.8634
  45   2.0000      -0.951786       -25.8994
  46   2.0000      -0.941234       -25.6123
  47   2.0000      -0.768582       -20.9142
  48   2.0000      -0.725547       -19.7431
  49   2.0000      -0.715174       -19.4609
  50   2.0000      -0.697472       -18.9792
  51   2.0000      -0.682876       -18.5820
  52   2.0000      -0.677858       -18.4454
  53   2.0000      -0.655082       -17.8257
  54   2.0000      -0.643786       -17.5183
  55   2.0000      -0.602207       -16.3869
  56   2.0000      -0.595257       -16.1978
  57   2.0000      -0.583232       -15.8706
  58   2.0000      -0.570228       -15.5167
  59   2.0000      -0.568490       -15.4694
  60   2.0000      -0.505867       -13.7653
  61   2.0000      -0.493113       -13.4183
  62   2.0000      -0.483356       -13.1528
  63   2.0000      -0.465633       -12.6705
  64   2.0000      -0.463251       -12.6057
  65   2.0000      -0.453201       -12.3322
  66   2.0000      -0.441349       -12.0097
  67   2.0000      -0.433228       -11.7887
  68   2.0000      -0.423669       -11.5286
  69   2.0000      -0.418598       -11.3906
  70   2.0000      -0.417298       -11.3553
  71   2.0000      -0.405254       -11.0275
  72   2.0000      -0.398423       -10.8417
  73   2.0000      -0.393451       -10.7064
  74   2.0000      -0.391106       -10.6425
  75   2.0000      -0.380355       -10.3500
  76   2.0000      -0.367146        -9.9905
  77   2.0000      -0.361969        -9.8497
  78   2.0000      -0.356647        -9.7049
  79   2.0000      -0.352503        -9.5921
  80   2.0000      -0.351585        -9.5671
  81   2.0000      -0.346629        -9.4322
  82   2.0000      -0.343207        -9.3391
  83   2.0000      -0.339004        -9.2248
  84   2.0000      -0.333000        -9.0614
  85   2.0000      -0.323441        -8.8013
  86   2.0000      -0.317966        -8.6523
  87   2.0000      -0.313049        -8.5185
  88   2.0000      -0.298560        -8.1242
  89   2.0000      -0.287846        -7.8327
  90   2.0000      -0.285552        -7.7703
  91   2.0000      -0.280430        -7.6309
  92   2.0000      -0.271648        -7.3919
  93   2.0000      -0.264942        -7.2094
  94   2.0000      -0.259660        -7.0657
  95   2.0000      -0.237243        -6.4557
  96   2.0000      -0.221716        -6.0332
  97   2.0000      -0.215799        -5.8722
  98   2.0000      -0.205696        -5.5973
  99   2.0000      -0.203917        -5.5489
 100   2.0000      -0.199762        -5.4358
 101   0.0000      -0.050318        -1.3692
 102   0.0000      -0.031026        -0.8443
 103   0.0000      -0.012077        -0.3286
 104   0.0000      -0.000283        -0.0077
 105   0.0000       0.006740         0.1834

MULLIKEN ATOMIC CHARGES
-----------------------
   0 C :   -0.310774
   1 C :   -0.050760
   2 O :   -0.354098
   3 P :    0.606421
   4 S :   -0.326668
   5 O :   -0.360238
   6 C :   -0.004089
   7 C :   -0.309988
   8 S :   -0.104470
   9 C :   -0.347361
  10 S :   -0.111421
  11 P :    0.622446
  12 S :   -0.311453
  13 O :   -0.376818
  14 C :   -0.007073
  15 C :   -0.309803
  16 O :   -0.368083
  17 C :   -0.024481
  18 C :   -0.329544
  19 H :    0.117454
  20 H :    0.102910
  21 H :    0.132774
  22 H :    0.101072
  23 H :    0.150577
  24 H :    0.110615
  25 H :    0.109873
  26 H :    0.128273
  27 H :    0.120327
  28 H :    0.111179
  29 H :    0.194780
  30 H :    0.195827
  31 H :    0.103422
  32 H :    0.115705
  33 H :    0.113587
  34 H :    0.114032
  35 H :    0.127279
  36 H :    0.118659
  37 H :    0.125869
  38 H :    0.125536
  39 H :    0.117312
  40 H :    0.141194
Sum of atomic charges:    0.0000000

LOEWDIN ATOMIC CHARGES
----------------------
   0 C :   -0.370757
   1 C :   -0.122102
   2 O :   -0.233704
   3 P :    0.571019
   4 S :   -0.305519
   5 O :   -0.234616
   6 C :   -0.112989
   7 C :   -0.369124
   8 S :    0.076590
   9 C :   -0.484298
  10 S :    0.091300
  11 P :    0.571423
  12 S :   -0.304283
  13 O :   -0.248418
  14 C :   -0.123804
  15 C :   -0.363652
  16 O :   -0.241169
  17 C :   -0.114141
  18 C :   -0.366480
  19 H :    0.127628
  20 H :    0.124220
  21 H :    0.114768
  22 H :    0.117955
  23 H :    0.105148
  24 H :    0.108171
  25 H :    0.121929
  26 H :    0.130254
  27 H :    0.119066
  28 H :    0.129841
  29 H :    0.127020
  30 H :    0.131765
  31 H :    0.116993
  32 H :    0.108862
  33 H :    0.121640
  34 H :    0.131629
  35 H :    0.125431
  36 H :    0.126207
  37 H :    0.110319
  38 H :    0.128662
  39 H :    0.133371
  40 H :    0.123846

  Mayer bond orders larger than 0.100000
B(  0-C ,  1-C ) :   1.1659 B(  0-C , 19-H ) :   0.9436 B(  0-C , 20-H ) :   0.9357
B(  0-C , 21-H ) :   0.9294 B(  1-C ,  2-O ) :   0.9156 B(  1-C , 22-H ) :   0.9348
B(  1-C , 23-H ) :   0.8935 B(  2-O ,  3-P ) :   1.1312 B(  3-P ,  4-S ) :   1.6121
B(  3-P ,  5-O ) :   1.1306 B(  3-P ,  8-S ) :   0.9170 B(  4-S ,  8-S ) :   0.1216
B(  5-O ,  6-C ) :   0.9185 B(  6-C ,  7-C ) :   1.1643 B(  6-C , 24-H ) :   0.9266
B(  6-C , 25-H ) :   0.9341 B(  7-C , 26-H ) :   0.9425 B(  7-C , 27-H ) :   0.9358
B(  7-C , 28-H ) :   0.9352 B(  8-S ,  9-C ) :   1.0153 B(  9-C , 10-S ) :   1.0047
B(  9-C , 29-H ) :   0.8619 B(  9-C , 30-H ) :   0.8759 B( 10-S , 11-P ) :   0.9557
B( 11-P , 12-S ) :   1.6304 B( 11-P , 13-O ) :   1.0656 B( 11-P , 16-O ) :   1.1272
B( 13-O , 14-C ) :   0.8999 B( 14-C , 15-C ) :   1.1627 B( 14-C , 31-H ) :   0.9326
B( 14-C , 32-H ) :   0.9094 B( 15-C , 33-H ) :   0.9445 B( 15-C , 34-H ) :   0.9402
B( 15-C , 35-H ) :   0.9369 B( 16-O , 17-C ) :   0.9064 B( 17-C , 18-C ) :   1.1621
B( 17-C , 36-H ) :   0.9341 B( 17-C , 37-H ) :   0.9167 B( 18-C , 38-H ) :   0.9411
B( 18-C , 39-H ) :   0.9351 B( 18-C , 40-H ) :   0.9327

Dispersion correction           -0.067121087
FINAL SINGLE POINT ENERGY     -2929.518472412065

DIPOLE MOMENT
-------------

Method             : SCF
Type of density    : Electron Density
Multiplicity       :   1
Irrep              :   0
Energy             : -2929.6372182583136237 Eh
Relativity type    :
Basis              : AO
                                X                 Y                 Z
Electronic contribution:      5.259837842       6.979956031     -11.433823754
Nuclear contribution   :     -5.854159424      -7.375873566      12.536086013
                        -----------------------------------------
Total Dipole Moment    :     -0.594321582      -0.395917535       1.102262259
                        -----------------------------------------
Magnitude (a.u.)       :      1.313373871
Magnitude (Debye)      :      3.338331079

Rotational constants in cm-1:             0.012387             0.005180             0.004734
Rotational constants in MHz :           371.350029           155.299823           141.923646

                             ****ORCA TERMINATED NORMALLY****
TOTAL RUN TIME: 0 days 0 hours 0 minutes 21 seconds 883 msec
