                         Program Version 6.0.0  -   RELEASE  -
|  1> ! pbe def2-sv(p) def2/J RI DEFGRID1 loosescf d4 GCP(DFT/SV(P)) printgap
|  2> %output
|  3>     printlevel normal
|  4> end
|  5> * xyz 0 1
|  6> C 1.9485971967 0.8819779896 3.1259224729
|  7> C 1.2510737603 -0.137224575 2.247764425
|  8> O 1.9070639137 -0.1333772867 0.9680668401
|  9> P 1.9176470623 -1.3775528489 -0.0228828986
| 10> S 1.9723078349 -3.1305601328 0.8450762688
| 11> O 3.1155404294 -1.0044351579 -0.9908425525
| 12> C 4.4672759944 -1.4373442007 -0.7257282377
| 13> C 5.0254255094 -0.8141225547 0.5359107855
| 14> S 0.3127785383 -1.0737269764 -1.3673604037
| 15> C 0.5838877354 0.6793717965 -1.7628213569
| 16> S 0.005401877 1.8207483056 -0.4727438435
| 17> P -1.9725813589 1.1130969512 -0.3766759802
| 18> S -2.8202382496 0.574128251 -2.0654492773
| 19> O -2.7435486067 2.2567630301 0.4110023652
| 20> C -3.2237932726 3.4498433618 -0.2436953972
| 21> C -4.3705252624 4.0049966697 0.5768023476
| 22> O -1.8545145102 0.0072453164 0.7522626949
| 23> C -2.7904661918 -1.0863571364 0.8844988997
| 24> C -2.0780065719 -2.2445430004 1.5520304554
| 25> H 2.9872881469 0.6022528587 3.2775428727
| 26> H 1.9097847392 1.8593251902 2.6529155007
| 27> H 1.4459149826 0.9264743271 4.0863851871
| 28> H 0.2006892955 0.1268998025 2.0973123448
| 29> H 1.3110303514 -1.1472778928 2.6676962307
| 30> H 4.4702769855 -2.5290731097 -0.6515357001
| 31> H 5.0175835392 -1.1236648996 -1.6137420972
| 32> H 4.9239063408 0.2673929688 0.4992170967
| 33> H 4.4851279586 -1.1925320093 1.4026994912
| 34> H 6.0741849754 -1.0770346025 0.6328972879
| 35> H 0.0189613618 0.8598479572 -2.6763214879
| 36> H 1.6445208079 0.8665765819 -1.904416833
| 37> H -2.3941359314 4.1586392885 -0.302116104
| 38> H -3.5463665246 3.1860616858 -1.2565298773
| 39> H -5.1856971575 3.2878044909 0.6147645321
| 40> H -4.0354548417 4.2117326625 1.5890140367
| 41> H -4.7233043165 4.923283679 0.1190124854
| 42> H -3.6301553399 -0.7342141142 1.4877038961
| 43> H -3.150196263 -1.3593785312 -0.1133575655
| 44> H -1.7194093779 -1.9512576322 2.5346530422
| 45> H -2.7692746213 -3.0744085441 1.6555847535
| 46> H -1.2295832018 -2.5677613754 0.9516736947
| 47> *
| 48>
| 49>                          ****END OF INPUT****

CARTESIAN COORDINATES (ANGSTROEM)
---------------------------------
  C      1.948597    0.881978    3.125922
  C      1.251074   -0.137225    2.247764
  O      1.907064   -0.133377    0.968067
  P      1.917647   -1.377553   -0.022883
  S      1.972308   -3.130560    0.845076
  O      3.115540   -1.004435   -0.990843
  C      4.467276   -1.437344   -0.725728
  C      5.025426   -0.814123    0.535911
  S      0.312779   -1.073727   -1.367360
  C      0.583888    0.679372   -1.762821
  S      0.005402    1.820748   -0.472744
  P     -1.972581    1.113097   -0.376676
  S     -2.820238    0.574128   -2.065449
  O     -2.743549    2.256763    0.411002
  C     -3.223793    3.449843   -0.243695
  C     -4.370525    4.004997    0.576802
  O     -1.854515    0.007245    0.752263
  C     -2.790466   -1.086357    0.884499
  C     -2.078007   -2.244543    1.552030
  H      2.987288    0.602253    3.277543
  H      1.909785    1.859325    2.652916
  H      1.445915    0.926474    4.086385
  H      0.200689    0.126900    2.097312
  H      1.311030   -1.147278    2.667696
  H      4.470277   -2.529073   -0.651536
  H      5.017584   -1.123665   -1.613742
  H      4.923906    0.267393    0.499217
  H      4.485128   -1.192532    1.402699
  H      6.074185   -1.077035    0.632897
  H      0.018961    0.859848   -2.676321
  H      1.644521    0.866577   -1.904417
  H     -2.394136    4.158639   -0.302116
  H     -3.546367    3.186062   -1.256530
  H     -5.185697    3.287804    0.614765
  H     -4.035455    4.211733    1.589014
  H     -4.723304    4.923284    0.119012
  H     -3.630155   -0.734214    1.487704
  H     -3.150196   -1.359379   -0.113358
  H     -1.719409   -1.951258    2.534653
  H     -2.769275   -3.074409    1.655585
  H     -1.229583   -2.567761    0.951674

 Total Charge           Charge          ....    0
 Multiplicity           Mult            ....    1
 Number of Electrons    NEL             ....  202
 Basis Dimension        Dim             ....  334

ORBITAL ENERGIES
----------------

  NO   OCC          E(Eh)            E(eV)
   0   2.0000     -88.044810     -2395.8211
   1   2.0000     -88.040636     -2395.7075
   2   2.0000     -87.989686     -2394.3211
   3   2.0000     -87.989668     -2394.3206
   4   2.0000     -76.428746     -2079.7319
   5   2.0000     -76.425872     -2079.6537
   6   2.0000     -18.795205      -511.4435
   7   2.0000     -18.794107      -511.4137
   8   2.0000     -18.792095      -511.3589
   9   2.0000     -18.790669      -511.3201
  10   2.0000      -9.958640      -270.9884
  11   2.0000      -9.955272      -270.8967
  12   2.0000      -9.954757      -270.8827
  13   2.0000      -9.948850      -270.7220
  14   2.0000      -9.944088      -270.5924
  15   2.0000      -9.890273      -269.1280
  16   2.0000      -9.886915      -269.0366
  17   2.0000      -9.883902      -268.9547
  18   2.0000      -9.878855      -268.8173
  19   2.0000      -7.690204      -209.2611
  20   2.0000      -7.685515      -209.1335
  21   2.0000      -7.634729      -207.7515
  22   2.0000      -7.634666      -207.7498
  23   2.0000      -6.426268      -174.8676
  24   2.0000      -6.423777      -174.7999
  25   2.0000      -5.718073      -155.5967
  26   2.0000      -5.714688      -155.5046
  27   2.0000      -5.713775      -155.4797
  28   2.0000      -5.709870      -155.3735
  29   2.0000      -5.707117      -155.2985
  30   2.0000      -5.702262      -155.1664
  31   2.0000      -5.663568      -154.1135
  32   2.0000      -5.663431      -154.1098
  33   2.0000      -5.655435      -153.8922
  34   2.0000      -5.655238      -153.8868
  35   2.0000      -5.655054      -153.8818
  36   2.0000      -5.654885      -153.8773
  37   2.0000      -4.648661      -126.4965
  38   2.0000      -4.648077      -126.4806
  39   2.0000      -4.646823      -126.4465
  40   2.0000      -4.646108      -126.4270
  41   2.0000      -4.645762      -126.4176
  42   2.0000      -4.644241      -126.3762
  43   2.0000      -0.988088       -26.8872
  44   2.0000      -0.987184       -26.8626
  45   2.0000      -0.946333       -25.7510
  46   2.0000      -0.945381       -25.7251
  47   2.0000      -0.765792       -20.8383
  48   2.0000      -0.725331       -19.7373
  49   2.0000      -0.710699       -19.3391
  50   2.0000      -0.688185       -18.7265
  51   2.0000      -0.687918       -18.7192
  52   2.0000      -0.672335       -18.2952
  53   2.0000      -0.653046       -17.7703
  54   2.0000      -0.639669       -17.4063
  55   2.0000      -0.599241       -16.3062
  56   2.0000      -0.593064       -16.1381
  57   2.0000      -0.571343       -15.5470
  58   2.0000      -0.564349       -15.3567
  59   2.0000      -0.558604       -15.2004
  60   2.0000      -0.510607       -13.8943
  61   2.0000      -0.500575       -13.6213
  62   2.0000      -0.481956       -13.1147
  63   2.0000      -0.478309       -13.0154
  64   2.0000      -0.461425       -12.5560
  65   2.0000      -0.444181       -12.0868
  66   2.0000      -0.436803       -11.8860
  67   2.0000      -0.432202       -11.7608
  68   2.0000      -0.430869       -11.7245
  69   2.0000      -0.415507       -11.3065
  70   2.0000      -0.409138       -11.1332
  71   2.0000      -0.401574       -10.9274
  72   2.0000      -0.395417       -10.7598
  73   2.0000      -0.381355       -10.3772
  74   2.0000      -0.379511       -10.3270
  75   2.0000      -0.374179       -10.1819
  76   2.0000      -0.365226        -9.9383
  77   2.0000      -0.359226        -9.7750
  78   2.0000      -0.355827        -9.6825
  79   2.0000      -0.352377        -9.5887
  80   2.0000      -0.348929        -9.4948
  81   2.0000      -0.347534        -9.4569
  82   2.0000      -0.343086        -9.3358
  83   2.0000      -0.335592        -9.1319
  84   2.0000      -0.331356        -9.0167
  85   2.0000      -0.320578        -8.7234
  86   2.0000      -0.313892        -8.5414
  87   2.0000      -0.302488        -8.2311
  88   2.0000      -0.295680        -8.0458
  89   2.0000      -0.291467        -7.9312
  90   2.0000      -0.286784        -7.8038
  91   2.0000      -0.278011        -7.5651
  92   2.0000      -0.275117        -7.4863
  93   2.0000      -0.266425        -7.2498
  94   2.0000      -0.256711        -6.9855
  95   2.0000      -0.232737        -6.3331
  96   2.0000      -0.217796        -5.9265
  97   2.0000      -0.210380        -5.7247
  98   2.0000      -0.209261        -5.6943
  99   2.0000      -0.204745        -5.5714
 100   2.0000      -0.202989        -5.5236
 101   0.0000      -0.044363        -1.2072
 102   0.0000      -0.019219        -0.5230
 103   0.0000      -0.009392        -0.2556
 104   0.0000       0.002908         0.0791
 105   0.0000       0.009877         0.2688

MULLIKEN ATOMIC CHARGES
-----------------------
   0 C :   -0.283335
   1 C :   -0.033720
   2 O :   -0.378739
   3 P :    0.617228
   4 S :   -0.320186
   5 O :   -0.380608
   6 C :   -0.003031
   7 C :   -0.314298
   8 S :   -0.061776
   9 C :   -0.356207
  10 S :   -0.085461
  11 P :    0.614776
  12 S :   -0.332692
  13 O :   -0.376154
  14 C :   -0.010468
  15 C :   -0.281540
  16 O :   -0.363962
  17 C :   -0.007527
  18 C :   -0.294779
  19 H :    0.113259
  20 H :    0.113521
  21 H :    0.108726
  22 H :    0.125100
  23 H :    0.107125
  24 H :    0.114780
  25 H :    0.106537
  26 H :    0.117552
  27 H :    0.127075
  28 H :    0.113539
  29 H :    0.195866
  30 H :    0.187781
  31 H :    0.101600
  32 H :    0.106947
  33 H :    0.119040
  34 H :    0.116810
  35 H :    0.112868
  36 H :    0.100480
  37 H :    0.113319
  38 H :    0.112501
  39 H :    0.109822
  40 H :    0.128230
Sum of atomic charges:    0.0000000

LOEWDIN ATOMIC CHARGES
----------------------
   0 C :   -0.350520
   1 C :   -0.130121
   2 O :   -0.243820
   3 P :    0.566788
   4 S :   -0.316812
   5 O :   -0.248432
   6 C :   -0.114259
   7 C :   -0.366951
   8 S :    0.101753
   9 C :   -0.474974
  10 S :    0.085751
  11 P :    0.565248
  12 S :   -0.321232
  13 O :   -0.250342
  14 C :   -0.120078
  15 C :   -0.350522
  16 O :   -0.239091
  17 C :   -0.115839
  18 C :   -0.355099
  19 H :    0.123484
  20 H :    0.125068
  21 H :    0.129449
  22 H :    0.109061
  23 H :    0.104885
  24 H :    0.113854
  25 H :    0.119456
  26 H :    0.126177
  27 H :    0.122164
  28 H :    0.131195
  29 H :    0.135652
  30 H :    0.135206
  31 H :    0.110783
  32 H :    0.107941
  33 H :    0.128393
  34 H :    0.126887
  35 H :    0.131281
  36 H :    0.111742
  37 H :    0.109759
  38 H :    0.123100
  39 H :    0.130647
  40 H :    0.122368

  Mayer bond orders larger than 0.100000
B(  0-C ,  1-C ) :   1.1598 B(  0-C , 19-H ) :   0.9509 B(  0-C , 20-H ) :   0.9492
B(  0-C , 21-H ) :   0.9424 B(  1-C ,  2-O ) :   0.8937 B(  1-C , 22-H ) :   0.9057
B(  1-C , 23-H ) :   0.9087 B(  2-O ,  3-P ) :   1.0979 B(  3-P ,  4-S ) :   1.6343
B(  3-P ,  5-O ) :   1.1013 B(  3-P ,  8-S ) :   0.9713 B(  5-O ,  6-C ) :   0.9060
B(  6-C ,  7-C ) :   1.1629 B(  6-C , 24-H ) :   0.9202 B(  6-C , 25-H ) :   0.9358
B(  7-C , 26-H ) :   0.9453 B(  7-C , 27-H ) :   0.9326 B(  7-C , 28-H ) :   0.9369
B(  8-S ,  9-C ) :   0.9932 B(  9-C , 10-S ) :   0.9882 B(  9-C , 29-H ) :   0.8898
B(  9-C , 30-H ) :   0.8964 B( 10-S , 11-P ) :   0.9790 B( 10-S , 12-S ) :   0.1103
B( 11-P , 12-S ) :   1.6082 B( 11-P , 13-O ) :   1.1183 B( 11-P , 16-O ) :   1.1156
B( 13-O , 14-C ) :   0.9037 B( 14-C , 15-C ) :   1.1621 B( 14-C , 31-H ) :   0.9306
B( 14-C , 32-H ) :   0.9071 B( 15-C , 33-H ) :   0.9510 B( 15-C , 34-H ) :   0.9507
B( 15-C , 35-H ) :   0.9418 B( 16-O , 17-C ) :   0.8908 B( 17-C , 18-C ) :   1.1611
B( 17-C , 36-H ) :   0.9326 B( 17-C , 37-H ) :   0.9086 B( 18-C , 38-H ) :   0.9487
B( 18-C , 39-H ) :   0.9401 B( 18-C , 40-H ) :   0.9367

Dispersion correction           -0.064793917
FINAL SINGLE POINT ENERGY     -2929.526834897243

DIPOLE MOMENT
-------------

Method             : SCF
Type of density    : Electron Density
Multiplicity       :   1
Irrep              :   0
Energy             : -2929.6470358920537365 Eh
Relativity type    :
Basis              : AO
                                X                 Y                 Z
Electronic contribution:     -1.696614823      -7.041047382     -16.430490573
Nuclear contribution   :      2.046207137       8.298281034      17.116028301
                        -----------------------------------------
Total Dipole Moment    :      0.349592315       1.257233652       0.685537729
                        -----------------------------------------
Magnitude (a.u.)       :      1.474046546
Magnitude (Debye)      :      3.746728562

Rotational constants in cm-1:             0.013302             0.004705             0.004623
Rotational constants in MHz :           398.771403           141.064899           138.582549

                             ****ORCA TERMINATED NORMALLY****
TOTAL RUN TIME: 0 days 0 hours 0 minutes 21 seconds 360 msec
