                         Program Version 6.0.0  -   RELEASE  -
|  1> ! r2scan-3c def2/J RI DEFGRID2 scfconv6 printgap
|  2> %output
|  3>     printlevel normal
|  4> end
|  5> * xyz 0 1
|  6> C -1.274887955 -0.2653583124 5.977e-06
|  7> C 0.0113393918 0.5659131794 -2.89556e-05
|  8> N 1.241517402 -0.2127554166 -3.798e-06
|  9> H -2.1436686209 0.3870097263 8.95852e-05
| 10> H -1.3179747114 -0.8997440507 -0.8837342054
| 11> H -1.3178296257 -0.8994894465 0.8839313871
| 12> H 0.0314855088 1.208985576 0.8840812082
| 13> H 0.0313984224 1.2086735185 -0.884277193
| 14> H 1.2603754824 -0.8150104042 0.8167721528
| 15> H 1.2602335827 -0.8153457348 -0.8165363414
| 16> *
| 17>
| 18>                          ****END OF INPUT****

CARTESIAN COORDINATES (ANGSTROEM)
---------------------------------
  C     -1.274888   -0.265358    0.000006
  C      0.011339    0.565913   -0.000029
  N      1.241517   -0.212755   -0.000004
  H     -2.143669    0.387010    0.000090
  H     -1.317975   -0.899744   -0.883734
  H     -1.317830   -0.899489    0.883931
  H      0.031486    1.208986    0.884081
  H      0.031398    1.208674   -0.884277
  H      1.260375   -0.815010    0.816772
  H      1.260234   -0.815346   -0.816536

 Total Charge           Charge          ....    0
 Multiplicity           Mult            ....    1
 Number of Electrons    NEL             ....   26
 Basis Dimension        Dim             ....   97

ORBITAL ENERGIES
----------------

  NO   OCC          E(Eh)            E(eV)
   0   2.0000     -14.133534      -384.5930
   1   2.0000     -10.049653      -273.4650
   2   2.0000     -10.016910      -272.5740
   3   2.0000      -0.845494       -23.0071
   4   2.0000      -0.692794       -18.8519
   5   2.0000      -0.574592       -15.6354
   6   2.0000      -0.465562       -12.6686
   7   2.0000      -0.405933       -11.0460
   8   2.0000      -0.379938       -10.3386
   9   2.0000      -0.372846       -10.1457
  10   2.0000      -0.329379        -8.9629
  11   2.0000      -0.307954        -8.3798
  12   2.0000      -0.204246        -5.5578
  13   0.0000       0.078740         2.1426
  14   0.0000       0.125063         3.4031
  15   0.0000       0.136420         3.7122
  16   0.0000       0.143470         3.9040
  17   0.0000       0.164441         4.4747

MULLIKEN ATOMIC CHARGES
-----------------------
   0 C :   -0.431354
   1 C :   -0.205611
   2 N :   -0.539973
   3 H :    0.140837
   4 H :    0.136850
   5 H :    0.136842
   6 H :    0.141901
   7 H :    0.141905
   8 H :    0.239300
   9 H :    0.239303
Sum of atomic charges:   -0.0000000

LOEWDIN ATOMIC CHARGES
----------------------
   0 C :   -0.422578
   1 C :   -0.092767
   2 N :   -0.736287
   3 H :    0.151393
   4 H :    0.148130
   5 H :    0.148124
   6 H :    0.168475
   7 H :    0.168466
   8 H :    0.233521
   9 H :    0.233522

  Mayer bond orders larger than 0.100000
B(  0-C ,  1-C ) :   0.9029 B(  0-C ,  3-H ) :   0.9701 B(  0-C ,  4-H ) :   0.9740
B(  0-C ,  5-H ) :   0.9740 B(  1-C ,  2-N ) :   0.9378 B(  1-C ,  6-H ) :   0.9867
B(  1-C ,  7-H ) :   0.9867 B(  2-N ,  8-H ) :   0.9197 B(  2-N ,  9-H ) :   0.9197

Dispersion correction           -0.001492903
FINAL SINGLE POINT ENERGY      -135.125307435160

DIPOLE MOMENT
-------------

Method             : SCF
Type of density    : Electron Density
Multiplicity       :   1
Irrep              :   0
Energy             :  -135.1317484687270394 Eh
Relativity type    :
Basis              : AO
                                X                 Y                 Z
Electronic contribution:      1.654228573       0.270677724      -0.000198414
Nuclear contribution   :     -2.053366105      -0.587454510       0.000306380
                        -----------------------------------------
Total Dipole Moment    :     -0.399137532      -0.316776786       0.000107965
                        -----------------------------------------
Magnitude (a.u.)       :      0.509566790
Magnitude (Debye)      :      1.295215847

Rotational constants in cm-1:             1.060902             0.296026             0.264037
Rotational constants in MHz :         31805.049169          8874.630895          7915.643036

                             ****ORCA TERMINATED NORMALLY****
TOTAL RUN TIME: 0 days 0 hours 0 minutes 7 seconds 964 msec
