                         Program Version 6.0.0  -   RELEASE  -
|  1> ! r2scan-3c def2/J RI DEFGRID2 scfconv6 printgap
|  2> %output
|  3>     printlevel normal
|  4> end
|  5> %cpcm
|  6>     smd true
|  7>     smdsolvent "water"
|  8> end
|  9> * xyz 0 1
| 10> C -1.274887955 -0.2653583124 5.977e-06
| 11> C 0.0113393918 0.5659131794 -2.89556e-05
| 12> N 1.241517402 -0.2127554166 -3.798e-06
| 13> H -2.1436686209 0.3870097263 8.95852e-05
| 14> H -1.3179747114 -0.8997440507 -0.8837342054
| 15> H -1.3178296257 -0.8994894465 0.8839313871
| 16> H 0.0314855088 1.208985576 0.8840812082
| 17> H 0.0313984224 1.2086735185 -0.884277193
| 18> H 1.2603754824 -0.8150104042 0.8167721528
| 19> H 1.2602335827 -0.8153457348 -0.8165363414
| 20> *
| 21>
| 22>                          ****END OF INPUT****

CARTESIAN COORDINATES (ANGSTROEM)
---------------------------------
  C     -1.274888   -0.265358    0.000006
  C      0.011339    0.565913   -0.000029
  N      1.241517   -0.212755   -0.000004
  H     -2.143669    0.387010    0.000090
  H     -1.317975   -0.899744   -0.883734
  H     -1.317830   -0.899489    0.883931
  H      0.031486    1.208986    0.884081
  H      0.031398    1.208674   -0.884277
  H      1.260375   -0.815010    0.816772
  H      1.260234   -0.815346   -0.816536

 Total Charge           Charge          ....    0
 Multiplicity           Mult            ....    1
 Number of Electrons    NEL             ....   26
 Basis Dimension        Dim             ....   97

ORBITAL ENERGIES
----------------

  NO   OCC          E(Eh)            E(eV)
   0   2.0000     -14.127082      -384.4174
   1   2.0000     -10.042480      -273.2698
   2   2.0000     -10.006431      -272.2888
   3   2.0000      -0.838991       -22.8301
   4   2.0000      -0.683876       -18.6092
   5   2.0000      -0.566817       -15.4239
   6   2.0000      -0.457216       -12.4415
   7   2.0000      -0.397854       -10.8262
   8   2.0000      -0.370102       -10.0710
   9   2.0000      -0.365915        -9.9571
  10   2.0000      -0.320769        -8.7286
  11   2.0000      -0.298490        -8.1223
  12   2.0000      -0.204857        -5.5744
  13   0.0000       0.090424         2.4606
  14   0.0000       0.134733         3.6663
  15   0.0000       0.141410         3.8480
  16   0.0000       0.158843         4.3223
  17   0.0000       0.174265         4.7420

MULLIKEN ATOMIC CHARGES
-----------------------
   0 C :   -0.480763
   1 C :   -0.196233
   2 N :   -0.637056
   3 H :    0.151561
   4 H :    0.152001
   5 H :    0.151985
   6 H :    0.147449
   7 H :    0.147444
   8 H :    0.281804
   9 H :    0.281809
Sum of atomic charges:   -0.0000000

LOEWDIN ATOMIC CHARGES
----------------------
   0 C :   -0.427551
   1 C :   -0.096526
   2 N :   -0.761595
   3 H :    0.154507
   4 H :    0.152454
   5 H :    0.152445
   6 H :    0.170093
   7 H :    0.170080
   8 H :    0.243046
   9 H :    0.243048

  Mayer bond orders larger than 0.100000
B(  0-C ,  1-C ) :   0.9091 B(  0-C ,  3-H ) :   0.9677 B(  0-C ,  4-H ) :   0.9722
B(  0-C ,  5-H ) :   0.9722 B(  1-C ,  2-N ) :   0.9470 B(  1-C ,  6-H ) :   0.9799
B(  1-C ,  7-H ) :   0.9799 B(  2-N ,  8-H ) :   0.9032 B(  2-N ,  9-H ) :   0.9032

Dispersion correction           -0.001492903
FINAL SINGLE POINT ENERGY      -135.131413365375

DIPOLE MOMENT
-------------

Method             : SCF
Type of density    : Electron Density
Multiplicity       :   1
Irrep              :   0
Energy             :  -135.1378543989421246 Eh
Relativity type    :
Basis              : AO
                                X                 Y                 Z
Electronic contribution:      1.518428255       0.144163368      -0.000157259
Nuclear contribution   :     -2.053366105      -0.587454510       0.000306380
                        -----------------------------------------
Total Dipole Moment    :     -0.534937850      -0.443291142       0.000149120
                        -----------------------------------------
Magnitude (a.u.)       :      0.694741363
Magnitude (Debye)      :      1.765892207

Rotational constants in cm-1:             1.060902             0.296026             0.264037
Rotational constants in MHz :         31805.049169          8874.630895          7915.643036

                             ****ORCA TERMINATED NORMALLY****
TOTAL RUN TIME: 0 days 0 hours 0 minutes 9 seconds 191 msec
