                         Program Version 6.0.0  -   RELEASE  -
|  1> ! pbe def2-sv(p) def2/J RI DEFGRID1 loosescf d4 GCP(DFT/SV(P)) printgap
|  2> %output
|  3>     printlevel normal
|  4> end
|  5> * xyz 0 1
|  6> C 3.283882316 0.603352915 -2.8515922597
|  7> C 3.1752489523 -0.5544317056 -1.880571407
|  8> O 3.4485683646 -0.1070974232 -0.528339524
|  9> P 2.3149005376 0.1537373827 0.5446904578
| 10> S 3.047729611 0.6651965954 2.2788318354
| 11> O 1.3691123657 -1.133515064 0.5682014407
| 12> C 1.5552711999 -2.2018091562 1.5141529042
| 13> C 2.7823426784 -3.0245604445 1.1815930767
| 14> S 1.0158359132 1.5408420523 -0.3678672793
| 15> C -0.0738431116 1.7759608496 1.0568138494
| 16> S -1.1836510299 0.3783811816 1.3971245417
| 17> P -1.8766520192 -0.0149997512 -0.6023545118
| 18> S -0.7692800471 -1.1777977871 -1.7250759808
| 19> O -2.1757260082 1.377210344 -1.2728311043
| 20> C -3.4205957868 2.116352609 -1.1650897388
| 21> C -3.6216487209 2.729207146 0.2048988548
| 22> O -3.3245499518 -0.6042887003 -0.3219194695
| 23> C -3.4901521997 -1.9333503395 0.2111755615
| 24> C -4.9471403229 -2.3183269803 0.0556063606
| 25> H 4.2541701144 1.0823242423 -2.752671836
| 26> H 3.165992614 0.2271928085 -3.8628704292
| 27> H 2.5059988522 1.3393963842 -2.6566583493
| 28> H 3.938273726 -1.3088902712 -2.0786271116
| 29> H 2.183049553 -1.0136930627 -1.9195310751
| 30> H 1.6355662217 -1.7673853051 2.5159792613
| 31> H 0.6376010807 -2.7867838192 1.4339000721
| 32> H 2.7071096151 -3.4193786906 0.1713195501
| 33> H 3.6732736054 -2.4005628925 1.2546531506
| 34> H 2.8668282657 -3.8462130548 1.8856781531
| 35> H -0.6633128973 2.6642548995 0.8447842736
| 36> H 0.5306506703 1.9107271104 1.9553473814
| 37> H -3.3201788233 2.8802989146 -1.937423543
| 38> H -4.2403305307 1.4407425927 -1.4122582464
| 39> H -4.5665599521 3.263953282 0.2123934318
| 40> H -3.6502591483 1.9543472311 0.967861861
| 41> H -2.8229738691 3.4292151283 0.4364569941
| 42> H -2.8323275793 -2.613546365 -0.3402432461
| 43> H -3.189440756 -1.9175474767 1.2627088212
| 44> H -5.5777549613 -1.6137842742 0.5897262286
| 45> H -5.2237571227 -2.3159984521 -0.9948831664
| 46> H -5.0963371588 -3.3130969059 0.4621734188
| 47> *
| 48>
| 49>                          ****END OF INPUT****

CARTESIAN COORDINATES (ANGSTROEM)
---------------------------------
  C      3.283882    0.603353   -2.851592
  C      3.175249   -0.554432   -1.880571
  O      3.448568   -0.107097   -0.528340
  P      2.314901    0.153737    0.544690
  S      3.047730    0.665197    2.278832
  O      1.369112   -1.133515    0.568201
  C      1.555271   -2.201809    1.514153
  C      2.782343   -3.024560    1.181593
  S      1.015836    1.540842   -0.367867
  C     -0.073843    1.775961    1.056814
  S     -1.183651    0.378381    1.397125
  P     -1.876652   -0.015000   -0.602355
  S     -0.769280   -1.177798   -1.725076
  O     -2.175726    1.377210   -1.272831
  C     -3.420596    2.116353   -1.165090
  C     -3.621649    2.729207    0.204899
  O     -3.324550   -0.604289   -0.321919
  C     -3.490152   -1.933350    0.211176
  C     -4.947140   -2.318327    0.055606
  H      4.254170    1.082324   -2.752672
  H      3.165993    0.227193   -3.862870
  H      2.505999    1.339396   -2.656658
  H      3.938274   -1.308890   -2.078627
  H      2.183050   -1.013693   -1.919531
  H      1.635566   -1.767385    2.515979
  H      0.637601   -2.786784    1.433900
  H      2.707110   -3.419379    0.171320
  H      3.673274   -2.400563    1.254653
  H      2.866828   -3.846213    1.885678
  H     -0.663313    2.664255    0.844784
  H      0.530651    1.910727    1.955347
  H     -3.320179    2.880299   -1.937424
  H     -4.240331    1.440743   -1.412258
  H     -4.566560    3.263953    0.212393
  H     -3.650259    1.954347    0.967862
  H     -2.822974    3.429215    0.436457
  H     -2.832328   -2.613546   -0.340243
  H     -3.189441   -1.917547    1.262709
  H     -5.577755   -1.613784    0.589726
  H     -5.223757   -2.315998   -0.994883
  H     -5.096337   -3.313097    0.462173

 Total Charge           Charge          ....    0
 Multiplicity           Mult            ....    1
 Number of Electrons    NEL             ....  202
 Basis Dimension        Dim             ....  334

ORBITAL ENERGIES
----------------

  NO   OCC          E(Eh)            E(eV)
   0   2.0000     -88.039054     -2395.6645
   1   2.0000     -88.037684     -2395.6272
   2   2.0000     -87.978583     -2394.0190
   3   2.0000     -87.978347     -2394.0125
   4   2.0000     -76.428076     -2079.7137
   5   2.0000     -76.419210     -2079.4724
   6   2.0000     -18.797536      -511.5070
   7   2.0000     -18.797339      -511.5016
   8   2.0000     -18.789275      -511.2822
   9   2.0000     -18.779720      -511.0222
  10   2.0000      -9.963555      -271.1221
  11   2.0000      -9.959338      -271.0074
  12   2.0000      -9.957289      -270.9516
  13   2.0000      -9.949600      -270.7424
  14   2.0000      -9.941469      -270.5211
  15   2.0000      -9.895130      -269.2602
  16   2.0000      -9.894198      -269.2348
  17   2.0000      -9.882764      -268.9237
  18   2.0000      -9.878582      -268.8099
  19   2.0000      -7.684183      -209.0972
  20   2.0000      -7.682391      -209.0485
  21   2.0000      -7.623764      -207.4532
  22   2.0000      -7.623746      -207.4527
  23   2.0000      -6.425089      -174.8356
  24   2.0000      -6.417093      -174.6180
  25   2.0000      -5.712087      -155.4338
  26   2.0000      -5.710328      -155.3859
  27   2.0000      -5.708775      -155.3437
  28   2.0000      -5.707177      -155.3002
  29   2.0000      -5.700960      -155.1310
  30   2.0000      -5.699094      -155.0802
  31   2.0000      -5.652847      -153.8218
  32   2.0000      -5.652731      -153.8186
  33   2.0000      -5.644528      -153.5954
  34   2.0000      -5.644513      -153.5950
  35   2.0000      -5.643658      -153.5717
  36   2.0000      -5.643517      -153.5679
  37   2.0000      -4.648572      -126.4941
  38   2.0000      -4.646771      -126.4451
  39   2.0000      -4.644816      -126.3919
  40   2.0000      -4.640082      -126.2631
  41   2.0000      -4.638490      -126.2197
  42   2.0000      -4.637519      -126.1933
  43   2.0000      -0.993825       -27.0433
  44   2.0000      -0.978406       -26.6238
  45   2.0000      -0.950602       -25.8672
  46   2.0000      -0.937201       -25.5025
  47   2.0000      -0.761945       -20.7336
  48   2.0000      -0.723027       -19.6746
  49   2.0000      -0.708394       -19.2764
  50   2.0000      -0.699843       -19.0437
  51   2.0000      -0.685113       -18.6429
  52   2.0000      -0.670785       -18.2530
  53   2.0000      -0.647385       -17.6163
  54   2.0000      -0.633871       -17.2485
  55   2.0000      -0.593442       -16.1484
  56   2.0000      -0.585461       -15.9312
  57   2.0000      -0.580073       -15.7846
  58   2.0000      -0.571874       -15.5615
  59   2.0000      -0.561586       -15.2815
  60   2.0000      -0.511397       -13.9158
  61   2.0000      -0.493666       -13.4333
  62   2.0000      -0.483499       -13.1567
  63   2.0000      -0.471982       -12.8433
  64   2.0000      -0.457811       -12.4577
  65   2.0000      -0.449239       -12.2244
  66   2.0000      -0.441998       -12.0274
  67   2.0000      -0.436246       -11.8709
  68   2.0000      -0.425561       -11.5801
  69   2.0000      -0.414045       -11.2667
  70   2.0000      -0.405357       -11.0303
  71   2.0000      -0.401403       -10.9227
  72   2.0000      -0.393717       -10.7136
  73   2.0000      -0.381972       -10.3940
  74   2.0000      -0.375512       -10.2182
  75   2.0000      -0.371070       -10.0973
  76   2.0000      -0.364570        -9.9205
  77   2.0000      -0.359684        -9.7875
  78   2.0000      -0.357489        -9.7278
  79   2.0000      -0.353822        -9.6280
  80   2.0000      -0.350796        -9.5457
  81   2.0000      -0.349744        -9.5170
  82   2.0000      -0.342417        -9.3176
  83   2.0000      -0.339941        -9.2503
  84   2.0000      -0.333668        -9.0796
  85   2.0000      -0.326144        -8.8748
  86   2.0000      -0.310737        -8.4556
  87   2.0000      -0.308499        -8.3947
  88   2.0000      -0.300760        -8.1841
  89   2.0000      -0.296824        -8.0770
  90   2.0000      -0.277704        -7.5567
  91   2.0000      -0.271362        -7.3841
  92   2.0000      -0.268162        -7.2971
  93   2.0000      -0.262370        -7.1395
  94   2.0000      -0.257653        -7.0111
  95   2.0000      -0.231767        -6.3067
  96   2.0000      -0.217054        -5.9063
  97   2.0000      -0.202653        -5.5145
  98   2.0000      -0.199183        -5.4200
  99   2.0000      -0.187970        -5.1149
 100   2.0000      -0.184459        -5.0194
 101   0.0000      -0.053151        -1.4463
 102   0.0000      -0.016374        -0.4456
 103   0.0000      -0.013685        -0.3724
 104   0.0000       0.002598         0.0707
 105   0.0000       0.017425         0.4742

MULLIKEN ATOMIC CHARGES
-----------------------
   0 C :   -0.293137
   1 C :   -0.046640
   2 O :   -0.368377
   3 P :    0.626595
   4 S :   -0.324032
   5 O :   -0.364621
   6 C :    0.004643
   7 C :   -0.316166
   8 S :   -0.096950
   9 C :   -0.338517
  10 S :   -0.121549
  11 P :    0.625682
  12 S :   -0.305286
  13 O :   -0.371344
  14 C :    0.004584
  15 C :   -0.331205
  16 O :   -0.388838
  17 C :   -0.015351
  18 C :   -0.280864
  19 H :    0.119543
  20 H :    0.112924
  21 H :    0.131983
  22 H :    0.107660
  23 H :    0.136628
  24 H :    0.106858
  25 H :    0.095833
  26 H :    0.114631
  27 H :    0.127445
  28 H :    0.110058
  29 H :    0.186804
  30 H :    0.184959
  31 H :    0.113447
  32 H :    0.114113
  33 H :    0.114860
  34 H :    0.131893
  35 H :    0.127231
  36 H :    0.107613
  37 H :    0.105637
  38 H :    0.115109
  39 H :    0.122008
  40 H :    0.114141
Sum of atomic charges:   -0.0000000

LOEWDIN ATOMIC CHARGES
----------------------
   0 C :   -0.357688
   1 C :   -0.121887
   2 O :   -0.240901
   3 P :    0.572241
   4 S :   -0.320972
   5 O :   -0.241738
   6 C :   -0.121021
   7 C :   -0.365385
   8 S :    0.096705
   9 C :   -0.475128
  10 S :    0.053197
  11 P :    0.570285
  12 S :   -0.308260
  13 O :   -0.240288
  14 C :   -0.106505
  15 C :   -0.366914
  16 O :   -0.251728
  17 C :   -0.121352
  18 C :   -0.350262
  19 H :    0.128243
  20 H :    0.132272
  21 H :    0.120718
  22 H :    0.119497
  23 H :    0.112825
  24 H :    0.107226
  25 H :    0.113930
  26 H :    0.123779
  27 H :    0.124585
  28 H :    0.129468
  29 H :    0.127015
  30 H :    0.131244
  31 H :    0.123456
  32 H :    0.116917
  33 H :    0.133395
  34 H :    0.122543
  35 H :    0.124107
  36 H :    0.109469
  37 H :    0.109202
  38 H :    0.125892
  39 H :    0.129575
  40 H :    0.132245

  Mayer bond orders larger than 0.100000
B(  0-C ,  1-C ) :   1.1710 B(  0-C , 19-H ) :   0.9463 B(  0-C , 20-H ) :   0.9389
B(  0-C , 21-H ) :   0.9368 B(  1-C ,  2-O ) :   0.8894 B(  1-C , 22-H ) :   0.9327
B(  1-C , 23-H ) :   0.9021 B(  2-O ,  3-P ) :   1.1326 B(  3-P ,  4-S ) :   1.6308
B(  3-P ,  5-O ) :   1.0932 B(  3-P ,  8-S ) :   0.9516 B(  5-O ,  6-C ) :   0.9066
B(  6-C ,  7-C ) :   1.1625 B(  6-C , 24-H ) :   0.9128 B(  6-C , 25-H ) :   0.9303
B(  7-C , 26-H ) :   0.9469 B(  7-C , 27-H ) :   0.9364 B(  7-C , 28-H ) :   0.9405
B(  8-S ,  9-C ) :   1.0194 B(  9-C , 10-S ) :   0.9959 B(  9-C , 29-H ) :   0.8954
B(  9-C , 30-H ) :   0.8770 B( 10-S , 11-P ) :   0.9358 B( 10-S , 12-S ) :   0.1135
B( 11-P , 12-S ) :   1.6766 B( 11-P , 13-O ) :   1.1202 B( 11-P , 16-O ) :   1.0624
B( 13-O , 14-C ) :   0.8950 B( 14-C , 15-C ) :   1.1687 B( 14-C , 31-H ) :   0.9344
B( 14-C , 32-H ) :   0.9252 B( 15-C , 33-H ) :   0.9346 B( 15-C , 34-H ) :   0.9347
B( 15-C , 35-H ) :   0.9368 B( 16-O , 17-C ) :   0.9053 B( 17-C , 18-C ) :   1.1605
B( 17-C , 36-H ) :   0.9074 B( 17-C , 37-H ) :   0.9272 B( 18-C , 38-H ) :   0.9513
B( 18-C , 39-H ) :   0.9510 B( 18-C , 40-H ) :   0.9414

Dispersion correction           -0.066766578
FINAL SINGLE POINT ENERGY     -2929.509702253625

DIPOLE MOMENT
-------------

Method             : SCF
Type of density    : Electron Density
Multiplicity       :   1
Irrep              :   0
Energy             : -2929.6279592227051580 Eh
Relativity type    :
Basis              : AO
                                X                 Y                 Z
Electronic contribution:     10.956881137       7.543397553       3.372120057
Nuclear contribution   :    -12.738497589      -7.793716491      -3.734538624
                        -----------------------------------------
Total Dipole Moment    :     -1.781616453      -0.250318938      -0.362418567
                        -----------------------------------------
Magnitude (a.u.)       :      1.835255833
Magnitude (Debye)      :      4.664849606

Rotational constants in cm-1:             0.011758             0.005299             0.005053
Rotational constants in MHz :           352.489348           158.874810           151.470363

                             ****ORCA TERMINATED NORMALLY****
TOTAL RUN TIME: 0 days 0 hours 0 minutes 21 seconds 376 msec
