                         Program Version 6.0.0  -   RELEASE  -
|  1> ! r2scan-3c def2/J RI DEFGRID2 scfconv6 printgap
|  2> %output
|  3>     printlevel normal
|  4> end
|  5> * xyz 0 1
|  6> C 4.7225314509 -0.5500778624 -2.2256707527
|  7> C 4.0818054143 -1.6629569644 -1.4237028478
|  8> O 3.5604036124 -1.2126975149 -0.1584836738
|  9> P 2.5461537086 -0.0058544492 0.0475015471
| 10> S 3.2264836259 1.8239921621 -0.053390774
| 11> O 2.0224803989 -0.2962048577 1.5046179458
| 12> C 1.5416449164 -1.5943037916 1.9348807403
| 13> C 0.625785977 -1.3803088244 3.1218093701
| 14> S 0.9655605203 -0.4837450171 -1.3108566774
| 15> C 0.1983881536 1.1510202187 -1.2869350866
| 16> S -0.6205556946 1.5256328064 0.2860616213
| 17> P -2.2420396382 0.1952915149 0.0105654867
| 18> S -2.9743843579 0.0449531013 -1.8058453821
| 19> O -3.2852000235 0.6070182202 1.1358439168
| 20> C -4.3304429224 1.566432131 0.9033079479
| 21> C -3.7868547189 2.9656763723 0.6980651108
| 22> O -1.6141052585 -1.1259928486 0.6178941813
| 23> C -2.1330622977 -2.4352529245 0.3013860415
| 24> C -3.5228149594 -2.6422839521 0.8651301677
| 25> H 5.4868138862 -0.0487624391 -1.6365846173
| 26> H 5.1723815962 -0.9646390174 -3.1220420361
| 27> H 3.9735044926 0.1867135564 -2.5123504847
| 28> H 4.8119927619 -2.4236763067 -1.1420228682
| 29> H 3.2627514224 -2.1217650607 -1.9844883676
| 30> H 1.0143762749 -2.0659018111 1.0999376236
| 31> H 2.4128881442 -2.1965130492 2.1993658511
| 32> H 1.1525650059 -0.8371682093 3.9011444495
| 33> H -0.2466376897 -0.8041726983 2.8233245803
| 34> H 0.3064608359 -2.3439878367 3.5055666998
| 35> H -0.5344921256 1.167862188 -2.0938860546
| 36> H 0.9683605213 1.910822726 -1.4252136557
| 37> H -4.9044374763 1.2468490018 0.0275077661
| 38> H -4.9499732975 1.5019143456 1.7987312553
| 39> H -3.2215712266 3.0136846102 -0.2320921447
| 40> H -4.6118636798 3.6687907191 0.6443303804
| 41> H -3.1295994267 3.2412615415 1.5192236848
| 42> H -2.1331625127 -2.5523110185 -0.7869881333
| 43> H -1.4105654764 -3.1195513979 0.748074838
| 44> H -4.2269605134 -1.9757701977 0.3684481743
| 45> H -3.8308842595 -3.6691583603 0.6951238634
| 46> H -3.5321049605 -2.4317460164 1.9312797333
| 47> *
| 48>
| 49>                          ****END OF INPUT****

CARTESIAN COORDINATES (ANGSTROEM)
---------------------------------
  C      4.722531   -0.550078   -2.225671
  C      4.081805   -1.662957   -1.423703
  O      3.560404   -1.212698   -0.158484
  P      2.546154   -0.005854    0.047502
  S      3.226484    1.823992   -0.053391
  O      2.022480   -0.296205    1.504618
  C      1.541645   -1.594304    1.934881
  C      0.625786   -1.380309    3.121809
  S      0.965561   -0.483745   -1.310857
  C      0.198388    1.151020   -1.286935
  S     -0.620556    1.525633    0.286062
  P     -2.242040    0.195292    0.010565
  S     -2.974384    0.044953   -1.805845
  O     -3.285200    0.607018    1.135844
  C     -4.330443    1.566432    0.903308
  C     -3.786855    2.965676    0.698065
  O     -1.614105   -1.125993    0.617894
  C     -2.133062   -2.435253    0.301386
  C     -3.522815   -2.642284    0.865130
  H      5.486814   -0.048762   -1.636585
  H      5.172382   -0.964639   -3.122042
  H      3.973504    0.186714   -2.512350
  H      4.811993   -2.423676   -1.142023
  H      3.262751   -2.121765   -1.984488
  H      1.014376   -2.065902    1.099938
  H      2.412888   -2.196513    2.199366
  H      1.152565   -0.837168    3.901144
  H     -0.246638   -0.804173    2.823325
  H      0.306461   -2.343988    3.505567
  H     -0.534492    1.167862   -2.093886
  H      0.968361    1.910823   -1.425214
  H     -4.904437    1.246849    0.027508
  H     -4.949973    1.501914    1.798731
  H     -3.221571    3.013685   -0.232092
  H     -4.611864    3.668791    0.644330
  H     -3.129599    3.241262    1.519224
  H     -2.133163   -2.552311   -0.786988
  H     -1.410565   -3.119551    0.748075
  H     -4.226961   -1.975770    0.368448
  H     -3.830884   -3.669158    0.695124
  H     -3.532105   -2.431746    1.931280

 Total Charge           Charge          ....    0
 Multiplicity           Mult            ....    1
 Number of Electrons    NEL             ....  202
 Basis Dimension        Dim             ....  539

ORBITAL ENERGIES
----------------

  NO   OCC          E(Eh)            E(eV)
   0   2.0000     -88.575293     -2410.2563
   1   2.0000     -88.574934     -2410.2465
   2   2.0000     -88.525411     -2408.8989
   3   2.0000     -88.515518     -2408.6297
   4   2.0000     -76.916826     -2093.0132
   5   2.0000     -76.911998     -2092.8819
   6   2.0000     -18.997216      -516.9405
   7   2.0000     -18.994099      -516.8557
   8   2.0000     -18.993975      -516.8523
   9   2.0000     -18.986367      -516.6453
  10   2.0000     -10.104986      -274.9707
  11   2.0000     -10.102830      -274.9120
  12   2.0000     -10.102663      -274.9074
  13   2.0000     -10.101953      -274.8881
  14   2.0000     -10.097833      -274.7760
  15   2.0000     -10.033474      -273.0247
  16   2.0000     -10.030206      -272.9358
  17   2.0000     -10.027455      -272.8609
  18   2.0000     -10.027258      -272.8556
  19   2.0000      -7.869436      -214.1382
  20   2.0000      -7.869228      -214.1326
  21   2.0000      -7.820169      -212.7976
  22   2.0000      -7.810378      -212.5312
  23   2.0000      -6.595520      -179.4732
  24   2.0000      -6.590298      -179.3311
  25   2.0000      -5.816328      -158.2703
  26   2.0000      -5.815957      -158.2602
  27   2.0000      -5.813392      -158.1904
  28   2.0000      -5.812985      -158.1794
  29   2.0000      -5.806608      -158.0058
  30   2.0000      -5.806469      -158.0021
  31   2.0000      -5.767730      -156.9479
  32   2.0000      -5.760477      -156.7506
  33   2.0000      -5.760229      -156.7438
  34   2.0000      -5.758183      -156.6881
  35   2.0000      -5.750600      -156.4818
  36   2.0000      -5.750272      -156.4729
  37   2.0000      -4.740937      -129.0075
  38   2.0000      -4.740383      -128.9924
  39   2.0000      -4.739354      -128.9644
  40   2.0000      -4.736122      -128.8764
  41   2.0000      -4.735495      -128.8594
  42   2.0000      -4.733525      -128.8058
  43   2.0000      -1.054491       -28.6942
  44   2.0000      -1.050079       -28.5741
  45   2.0000      -1.015938       -27.6451
  46   2.0000      -1.007620       -27.4187
  47   2.0000      -0.802243       -21.8302
  48   2.0000      -0.759819       -20.6757
  49   2.0000      -0.751365       -20.4457
  50   2.0000      -0.735144       -20.0043
  51   2.0000      -0.733293       -19.9539
  52   2.0000      -0.713078       -19.4038
  53   2.0000      -0.686246       -18.6737
  54   2.0000      -0.669819       -18.2267
  55   2.0000      -0.635970       -17.3056
  56   2.0000      -0.620259       -16.8781
  57   2.0000      -0.609792       -16.5933
  58   2.0000      -0.602144       -16.3852
  59   2.0000      -0.593957       -16.1624
  60   2.0000      -0.531265       -14.4565
  61   2.0000      -0.520424       -14.1615
  62   2.0000      -0.496973       -13.5233
  63   2.0000      -0.492842       -13.4109
  64   2.0000      -0.478614       -13.0238
  65   2.0000      -0.467718       -12.7272
  66   2.0000      -0.461698       -12.5634
  67   2.0000      -0.452498       -12.3131
  68   2.0000      -0.446546       -12.1511
  69   2.0000      -0.436235       -11.8706
  70   2.0000      -0.432276       -11.7628
  71   2.0000      -0.417093       -11.3497
  72   2.0000      -0.411009       -11.1841
  73   2.0000      -0.405258       -11.0276
  74   2.0000      -0.400009       -10.8848
  75   2.0000      -0.390434       -10.6242
  76   2.0000      -0.378943       -10.3116
  77   2.0000      -0.373966       -10.1761
  78   2.0000      -0.367472        -9.9994
  79   2.0000      -0.365384        -9.9426
  80   2.0000      -0.362408        -9.8616
  81   2.0000      -0.361036        -9.8243
  82   2.0000      -0.357502        -9.7281
  83   2.0000      -0.352834        -9.6011
  84   2.0000      -0.351962        -9.5774
  85   2.0000      -0.335565        -9.1312
  86   2.0000      -0.326307        -8.8793
  87   2.0000      -0.313457        -8.5296
  88   2.0000      -0.311745        -8.4830
  89   2.0000      -0.309790        -8.4298
  90   2.0000      -0.304056        -8.2738
  91   2.0000      -0.293403        -7.9839
  92   2.0000      -0.288554        -7.8520
  93   2.0000      -0.282369        -7.6837
  94   2.0000      -0.271317        -7.3829
  95   2.0000      -0.247223        -6.7273
  96   2.0000      -0.231889        -6.3100
  97   2.0000      -0.228121        -6.2075
  98   2.0000      -0.218881        -5.9560
  99   2.0000      -0.212971        -5.7952
 100   2.0000      -0.210930        -5.7397
 101   0.0000      -0.046131        -1.2553
 102   0.0000      -0.025579        -0.6961
 103   0.0000      -0.004006        -0.1090
 104   0.0000      -0.001045        -0.0284
 105   0.0000       0.014885         0.4050

MULLIKEN ATOMIC CHARGES
-----------------------
   0 C :   -0.428004
   1 C :   -0.159999
   2 O :   -0.292766
   3 P :    0.657936
   4 S :   -0.432947
   5 O :   -0.258427
   6 C :   -0.103538
   7 C :   -0.471218
   8 S :   -0.182279
   9 C :   -0.244551
  10 S :   -0.094255
  11 P :    0.668509
  12 S :   -0.487438
  13 O :   -0.307910
  14 C :   -0.148523
  15 C :   -0.453258
  16 O :   -0.264322
  17 C :   -0.144590
  18 C :   -0.450786
  19 H :    0.165511
  20 H :    0.146176
  21 H :    0.169124
  22 H :    0.149159
  23 H :    0.151620
  24 H :    0.151740
  25 H :    0.154028
  26 H :    0.155535
  27 H :    0.178103
  28 H :    0.141061
  29 H :    0.214808
  30 H :    0.218975
  31 H :    0.170122
  32 H :    0.149010
  33 H :    0.178077
  34 H :    0.148625
  35 H :    0.158077
  36 H :    0.175518
  37 H :    0.147256
  38 H :    0.169455
  39 H :    0.148542
  40 H :    0.157844
Sum of atomic charges:   -0.0000000

LOEWDIN ATOMIC CHARGES
----------------------
   0 C :   -0.406065
   1 C :    0.023836
   2 O :   -0.664077
   3 P :    0.379540
   4 S :   -0.100246
   5 O :   -0.651719
   6 C :    0.023773
   7 C :   -0.390166
   8 S :    0.134514
   9 C :   -0.425619
  10 S :    0.186110
  11 P :    0.377508
  12 S :   -0.134719
  13 O :   -0.661533
  14 C :    0.020290
  15 C :   -0.406033
  16 O :   -0.685629
  17 C :    0.017077
  18 C :   -0.398772
  19 H :    0.165956
  20 H :    0.158251
  21 H :    0.166818
  22 H :    0.181016
  23 H :    0.171422
  24 H :    0.175436
  25 H :    0.173050
  26 H :    0.162231
  27 H :    0.171091
  28 H :    0.158101
  29 H :    0.191248
  30 H :    0.194215
  31 H :    0.179253
  32 H :    0.179905
  33 H :    0.166214
  34 H :    0.159869
  35 H :    0.161347
  36 H :    0.181906
  37 H :    0.177947
  38 H :    0.165652
  39 H :    0.159789
  40 H :    0.161213

  Mayer bond orders larger than 0.100000
B(  0-C ,  1-C ) :   0.9431 B(  0-C , 19-H ) :   0.9656 B(  0-C , 20-H ) :   0.9617
B(  0-C , 21-H ) :   0.9546 B(  1-C ,  2-O ) :   0.8064 B(  1-C , 22-H ) :   0.9588
B(  1-C , 23-H ) :   0.9616 B(  2-O ,  3-P ) :   1.0381 B(  3-P ,  4-S ) :   1.8558
B(  3-P ,  5-O ) :   1.1624 B(  3-P ,  8-S ) :   0.9810 B(  5-O ,  6-C ) :   0.7345
B(  6-C ,  7-C ) :   0.9405 B(  6-C , 24-H ) :   0.9543 B(  6-C , 25-H ) :   0.9458
B(  7-C , 26-H ) :   0.9689 B(  7-C , 27-H ) :   0.9654 B(  7-C , 28-H ) :   0.9686
B(  8-S ,  9-C ) :   0.9132 B(  9-C , 10-S ) :   0.9180 B(  9-C , 29-H ) :   0.9064
B(  9-C , 30-H ) :   0.9021 B( 10-S , 11-P ) :   1.1074 B( 11-P , 12-S ) :   1.7453
B( 11-P , 13-O ) :   1.0671 B( 11-P , 16-O ) :   1.1231 B( 13-O , 14-C ) :   0.8117
B( 14-C , 15-C ) :   0.9239 B( 14-C , 31-H ) :   0.9658 B( 14-C , 32-H ) :   0.9578
B( 15-C , 33-H ) :   0.9615 B( 15-C , 34-H ) :   0.9582 B( 15-C , 35-H ) :   0.9681
B( 16-O , 17-C ) :   0.7738 B( 17-C , 18-C ) :   0.9143 B( 17-C , 36-H ) :   0.9596
B( 17-C , 37-H ) :   0.9629 B( 18-C , 38-H ) :   0.9598 B( 18-C , 39-H ) :   0.9625
B( 18-C , 40-H ) :   0.9746

Dispersion correction           -0.021803937
FINAL SINGLE POINT ENERGY     -2932.463225012059

DIPOLE MOMENT
-------------

Method             : SCF
Type of density    : Electron Density
Multiplicity       :   1
Irrep              :   0
Energy             : -2932.4878933802970096 Eh
Relativity type    :
Basis              : AO
                                X                 Y                 Z
Electronic contribution:      7.249822513       9.680321398      -5.657335193
Nuclear contribution   :     -7.943899659     -11.182509555       6.012752392
                        -----------------------------------------
Total Dipole Moment    :     -0.694077146      -1.502188157       0.355417198
                        -----------------------------------------
Magnitude (a.u.)       :      1.692522889
Magnitude (Debye)      :      4.302051293

Rotational constants in cm-1:             0.012888             0.004883             0.004607
Rotational constants in MHz :           386.360200           146.376484           138.126197

                             ****ORCA TERMINATED NORMALLY****
TOTAL RUN TIME: 0 days 0 hours 1 minutes 24 seconds 783 msec
