                         Program Version 6.0.0  -   RELEASE  -
|  1> ! r2scan-3c def2/J RI DEFGRID2 scfconv6 printgap
|  2> %output
|  3>     printlevel normal
|  4> end
|  5> %cpcm
|  6>     smd true
|  7>     smdsolvent "water"
|  8> end
|  9> * xyz 0 1
| 10> C 4.7225314509 -0.5500778624 -2.2256707527
| 11> C 4.0818054143 -1.6629569644 -1.4237028478
| 12> O 3.5604036124 -1.2126975149 -0.1584836738
| 13> P 2.5461537086 -0.0058544492 0.0475015471
| 14> S 3.2264836259 1.8239921621 -0.053390774
| 15> O 2.0224803989 -0.2962048577 1.5046179458
| 16> C 1.5416449164 -1.5943037916 1.9348807403
| 17> C 0.625785977 -1.3803088244 3.1218093701
| 18> S 0.9655605203 -0.4837450171 -1.3108566774
| 19> C 0.1983881536 1.1510202187 -1.2869350866
| 20> S -0.6205556946 1.5256328064 0.2860616213
| 21> P -2.2420396382 0.1952915149 0.0105654867
| 22> S -2.9743843579 0.0449531013 -1.8058453821
| 23> O -3.2852000235 0.6070182202 1.1358439168
| 24> C -4.3304429224 1.566432131 0.9033079479
| 25> C -3.7868547189 2.9656763723 0.6980651108
| 26> O -1.6141052585 -1.1259928486 0.6178941813
| 27> C -2.1330622977 -2.4352529245 0.3013860415
| 28> C -3.5228149594 -2.6422839521 0.8651301677
| 29> H 5.4868138862 -0.0487624391 -1.6365846173
| 30> H 5.1723815962 -0.9646390174 -3.1220420361
| 31> H 3.9735044926 0.1867135564 -2.5123504847
| 32> H 4.8119927619 -2.4236763067 -1.1420228682
| 33> H 3.2627514224 -2.1217650607 -1.9844883676
| 34> H 1.0143762749 -2.0659018111 1.0999376236
| 35> H 2.4128881442 -2.1965130492 2.1993658511
| 36> H 1.1525650059 -0.8371682093 3.9011444495
| 37> H -0.2466376897 -0.8041726983 2.8233245803
| 38> H 0.3064608359 -2.3439878367 3.5055666998
| 39> H -0.5344921256 1.167862188 -2.0938860546
| 40> H 0.9683605213 1.910822726 -1.4252136557
| 41> H -4.9044374763 1.2468490018 0.0275077661
| 42> H -4.9499732975 1.5019143456 1.7987312553
| 43> H -3.2215712266 3.0136846102 -0.2320921447
| 44> H -4.6118636798 3.6687907191 0.6443303804
| 45> H -3.1295994267 3.2412615415 1.5192236848
| 46> H -2.1331625127 -2.5523110185 -0.7869881333
| 47> H -1.4105654764 -3.1195513979 0.748074838
| 48> H -4.2269605134 -1.9757701977 0.3684481743
| 49> H -3.8308842595 -3.6691583603 0.6951238634
| 50> H -3.5321049605 -2.4317460164 1.9312797333
| 51> *
| 52>
| 53>                          ****END OF INPUT****

CARTESIAN COORDINATES (ANGSTROEM)
---------------------------------
  C      4.722531   -0.550078   -2.225671
  C      4.081805   -1.662957   -1.423703
  O      3.560404   -1.212698   -0.158484
  P      2.546154   -0.005854    0.047502
  S      3.226484    1.823992   -0.053391
  O      2.022480   -0.296205    1.504618
  C      1.541645   -1.594304    1.934881
  C      0.625786   -1.380309    3.121809
  S      0.965561   -0.483745   -1.310857
  C      0.198388    1.151020   -1.286935
  S     -0.620556    1.525633    0.286062
  P     -2.242040    0.195292    0.010565
  S     -2.974384    0.044953   -1.805845
  O     -3.285200    0.607018    1.135844
  C     -4.330443    1.566432    0.903308
  C     -3.786855    2.965676    0.698065
  O     -1.614105   -1.125993    0.617894
  C     -2.133062   -2.435253    0.301386
  C     -3.522815   -2.642284    0.865130
  H      5.486814   -0.048762   -1.636585
  H      5.172382   -0.964639   -3.122042
  H      3.973504    0.186714   -2.512350
  H      4.811993   -2.423676   -1.142023
  H      3.262751   -2.121765   -1.984488
  H      1.014376   -2.065902    1.099938
  H      2.412888   -2.196513    2.199366
  H      1.152565   -0.837168    3.901144
  H     -0.246638   -0.804173    2.823325
  H      0.306461   -2.343988    3.505567
  H     -0.534492    1.167862   -2.093886
  H      0.968361    1.910823   -1.425214
  H     -4.904437    1.246849    0.027508
  H     -4.949973    1.501914    1.798731
  H     -3.221571    3.013685   -0.232092
  H     -4.611864    3.668791    0.644330
  H     -3.129599    3.241262    1.519224
  H     -2.133163   -2.552311   -0.786988
  H     -1.410565   -3.119551    0.748075
  H     -4.226961   -1.975770    0.368448
  H     -3.830884   -3.669158    0.695124
  H     -3.532105   -2.431746    1.931280

 Total Charge           Charge          ....    0
 Multiplicity           Mult            ....    1
 Number of Electrons    NEL             ....  202
 Basis Dimension        Dim             ....  539

ORBITAL ENERGIES
----------------

  NO   OCC          E(Eh)            E(eV)
   0   2.0000     -88.579132     -2410.3607
   1   2.0000     -88.578825     -2410.3524
   2   2.0000     -88.529637     -2409.0139
   3   2.0000     -88.528135     -2408.9730
   4   2.0000     -76.920140     -2093.1034
   5   2.0000     -76.919216     -2093.0783
   6   2.0000     -18.996790      -516.9289
   7   2.0000     -18.996456      -516.9199
   8   2.0000     -18.993184      -516.8308
   9   2.0000     -18.992250      -516.8054
  10   2.0000     -10.103537      -274.9312
  11   2.0000     -10.093364      -274.6544
  12   2.0000     -10.090610      -274.5795
  13   2.0000     -10.090251      -274.5697
  14   2.0000     -10.089280      -274.5433
  15   2.0000     -10.018832      -272.6263
  16   2.0000     -10.018797      -272.6253
  17   2.0000     -10.018767      -272.6245
  18   2.0000     -10.018681      -272.6222
  19   2.0000      -7.873407      -214.2463
  20   2.0000      -7.873060      -214.2369
  21   2.0000      -7.824668      -212.9200
  22   2.0000      -7.823380      -212.8850
  23   2.0000      -6.598487      -179.5540
  24   2.0000      -6.597918      -179.5385
  25   2.0000      -5.820251      -158.3771
  26   2.0000      -5.819826      -158.3655
  27   2.0000      -5.817351      -158.2982
  28   2.0000      -5.816846      -158.2844
  29   2.0000      -5.810495      -158.1116
  30   2.0000      -5.810382      -158.1085
  31   2.0000      -5.772186      -157.0692
  32   2.0000      -5.771051      -157.0383
  33   2.0000      -5.764968      -156.8727
  34   2.0000      -5.764731      -156.8663
  35   2.0000      -5.763609      -156.8358
  36   2.0000      -5.763327      -156.8281
  37   2.0000      -4.744245      -129.0975
  38   2.0000      -4.743640      -129.0810
  39   2.0000      -4.743258      -129.0706
  40   2.0000      -4.742784      -129.0577
  41   2.0000      -4.741862      -129.0326
  42   2.0000      -4.741859      -129.0326
  43   2.0000      -1.054140       -28.6846
  44   2.0000      -1.053032       -28.6545
  45   2.0000      -1.013663       -27.5832
  46   2.0000      -1.011298       -27.5188
  47   2.0000      -0.804867       -21.9015
  48   2.0000      -0.756733       -20.5918
  49   2.0000      -0.745161       -20.2769
  50   2.0000      -0.725922       -19.7533
  51   2.0000      -0.723868       -19.6974
  52   2.0000      -0.711677       -19.3657
  53   2.0000      -0.689698       -18.7676
  54   2.0000      -0.675609       -18.3842
  55   2.0000      -0.631798       -17.1921
  56   2.0000      -0.617922       -16.8145
  57   2.0000      -0.599921       -16.3247
  58   2.0000      -0.599159       -16.3039
  59   2.0000      -0.592719       -16.1287
  60   2.0000      -0.528386       -14.3781
  61   2.0000      -0.514238       -13.9931
  62   2.0000      -0.492098       -13.3907
  63   2.0000      -0.488530       -13.2936
  64   2.0000      -0.477206       -12.9854
  65   2.0000      -0.462174       -12.5764
  66   2.0000      -0.455097       -12.3838
  67   2.0000      -0.447008       -12.1637
  68   2.0000      -0.442611       -12.0441
  69   2.0000      -0.433433       -11.7943
  70   2.0000      -0.427929       -11.6445
  71   2.0000      -0.410856       -11.1800
  72   2.0000      -0.405499       -11.0342
  73   2.0000      -0.403338       -10.9754
  74   2.0000      -0.398076       -10.8322
  75   2.0000      -0.388849       -10.5811
  76   2.0000      -0.378497       -10.2994
  77   2.0000      -0.366612        -9.9760
  78   2.0000      -0.361144        -9.8272
  79   2.0000      -0.358608        -9.7582
  80   2.0000      -0.355003        -9.6601
  81   2.0000      -0.353750        -9.6260
  82   2.0000      -0.350808        -9.5460
  83   2.0000      -0.347990        -9.4693
  84   2.0000      -0.346884        -9.4392
  85   2.0000      -0.330523        -8.9940
  86   2.0000      -0.322656        -8.7799
  87   2.0000      -0.311878        -8.4866
  88   2.0000      -0.308389        -8.3917
  89   2.0000      -0.305322        -8.3082
  90   2.0000      -0.299903        -8.1608
  91   2.0000      -0.288643        -7.8544
  92   2.0000      -0.287318        -7.8183
  93   2.0000      -0.280343        -7.6285
  94   2.0000      -0.273897        -7.4531
  95   2.0000      -0.250952        -6.8288
  96   2.0000      -0.237448        -6.4613
  97   2.0000      -0.234540        -6.3821
  98   2.0000      -0.226102        -6.1526
  99   2.0000      -0.223447        -6.0803
 100   2.0000      -0.221818        -6.0360
 101   0.0000      -0.051569        -1.4033
 102   0.0000      -0.032110        -0.8738
 103   0.0000      -0.008347        -0.2271
 104   0.0000      -0.004982        -0.1356
 105   0.0000       0.014921         0.4060

MULLIKEN ATOMIC CHARGES
-----------------------
   0 C :   -0.466482
   1 C :   -0.159519
   2 O :   -0.314354
   3 P :    0.674711
   4 S :   -0.494699
   5 O :   -0.291488
   6 C :   -0.105691
   7 C :   -0.507991
   8 S :   -0.176601
   9 C :   -0.250205
  10 S :   -0.124100
  11 P :    0.712237
  12 S :   -0.530171
  13 O :   -0.332122
  14 C :   -0.149726
  15 C :   -0.489617
  16 O :   -0.286505
  17 C :   -0.142698
  18 C :   -0.492839
  19 H :    0.170534
  20 H :    0.173501
  21 H :    0.164814
  22 H :    0.177113
  23 H :    0.172567
  24 H :    0.173499
  25 H :    0.175300
  26 H :    0.166227
  27 H :    0.171248
  28 H :    0.172666
  29 H :    0.235039
  30 H :    0.232949
  31 H :    0.177632
  32 H :    0.176137
  33 H :    0.173104
  34 H :    0.173317
  35 H :    0.169844
  36 H :    0.177453
  37 H :    0.181396
  38 H :    0.169124
  39 H :    0.173038
  40 H :    0.171358
Sum of atomic charges:   -0.0000000

LOEWDIN ATOMIC CHARGES
----------------------
   0 C :   -0.409685
   1 C :    0.031347
   2 O :   -0.671335
   3 P :    0.381978
   4 S :   -0.146894
   5 O :   -0.676507
   6 C :    0.030009
   7 C :   -0.393839
   8 S :    0.143776
   9 C :   -0.421100
  10 S :    0.168358
  11 P :    0.383888
  12 S :   -0.159946
  13 O :   -0.671329
  14 C :    0.025972
  15 C :   -0.409833
  16 O :   -0.692885
  17 C :    0.022856
  18 C :   -0.402422
  19 H :    0.164382
  20 H :    0.168618
  21 H :    0.161989
  22 H :    0.193015
  23 H :    0.179602
  24 H :    0.183445
  25 H :    0.182876
  26 H :    0.163997
  27 H :    0.166482
  28 H :    0.170808
  29 H :    0.197210
  30 H :    0.198109
  31 H :    0.181680
  32 H :    0.191369
  33 H :    0.161709
  34 H :    0.168713
  35 H :    0.163713
  36 H :    0.182402
  37 H :    0.191367
  38 H :    0.162899
  39 H :    0.168872
  40 H :    0.164335

  Mayer bond orders larger than 0.100000
B(  0-C ,  1-C ) :   0.9215 B(  0-C , 19-H ) :   0.9667 B(  0-C , 20-H ) :   0.9558
B(  0-C , 21-H ) :   0.9578 B(  1-C ,  2-O ) :   0.7948 B(  1-C , 22-H ) :   0.9491
B(  1-C , 23-H ) :   0.9574 B(  2-O ,  3-P ) :   1.0571 B(  3-P ,  4-S ) :   1.8232
B(  3-P ,  5-O ) :   1.1680 B(  3-P ,  8-S ) :   0.9964 B(  5-O ,  6-C ) :   0.7237
B(  6-C ,  7-C ) :   0.9293 B(  6-C , 24-H ) :   0.9459 B(  6-C , 25-H ) :   0.9358
B(  7-C , 26-H ) :   0.9681 B(  7-C , 27-H ) :   0.9666 B(  7-C , 28-H ) :   0.9611
B(  8-S ,  9-C ) :   0.9013 B(  9-C , 10-S ) :   0.9039 B(  9-C , 29-H ) :   0.9028
B(  9-C , 30-H ) :   0.8987 B( 10-S , 11-P ) :   1.1063 B( 11-P , 12-S ) :   1.7078
B( 11-P , 13-O ) :   1.0763 B( 11-P , 16-O ) :   1.1374 B( 13-O , 14-C ) :   0.8002
B( 14-C , 15-C ) :   0.9093 B( 14-C , 31-H ) :   0.9650 B( 14-C , 32-H ) :   0.9482
B( 15-C , 33-H ) :   0.9633 B( 15-C , 34-H ) :   0.9530 B( 15-C , 35-H ) :   0.9657
B( 16-O , 17-C ) :   0.7614 B( 17-C , 18-C ) :   0.8995 B( 17-C , 36-H ) :   0.9569
B( 17-C , 37-H ) :   0.9527 B( 18-C , 38-H ) :   0.9594 B( 18-C , 39-H ) :   0.9565
B( 18-C , 40-H ) :   0.9738

Dispersion correction           -0.021803937
FINAL SINGLE POINT ENERGY     -2932.473098845408

DIPOLE MOMENT
-------------

Method             : SCF
Type of density    : Electron Density
Multiplicity       :   1
Irrep              :   0
Energy             : -2932.4977672136469664 Eh
Relativity type    :
Basis              : AO
                                X                 Y                 Z
Electronic contribution:      6.980862616       8.893366895      -5.733146151
Nuclear contribution   :     -7.943899659     -11.182509555       6.012752392
                        -----------------------------------------
Total Dipole Moment    :     -0.963037043      -2.289142660       0.279606241
                        -----------------------------------------
Magnitude (a.u.)       :      2.499158681
Magnitude (Debye)      :      6.352356537

Rotational constants in cm-1:             0.012888             0.004883             0.004607
Rotational constants in MHz :           386.360200           146.376484           138.126197

                             ****ORCA TERMINATED NORMALLY****
TOTAL RUN TIME: 0 days 0 hours 1 minutes 50 seconds 933 msec
