                         Program Version 6.0.0  -   RELEASE  -
|  1> ! r2scan-3c def2/J RI DEFGRID2 scfconv6 printgap
|  2> %output
|  3>     printlevel normal
|  4> end
|  5> * xyz 0 1
|  6> C 5.3245034794 -1.4149678436 -0.4382590818
|  7> C 4.0723324021 -2.2243403292 -0.7081813638
|  8> O 3.0228541569 -1.4287632258 -1.3000776234
|  9> P 2.3154259202 -0.2142926895 -0.5690326525
| 10> S 3.2073985335 1.5352586439 -0.5281838553
| 11> O 2.0002602761 -0.8222437311 0.8700061477
| 12> C 1.9981327788 -0.0691267497 2.1017864191
| 13> C 0.8561599344 -0.5434392099 2.9763737539
| 14> S 0.5656064901 -0.3021329098 -1.7527766208
| 15> C -0.0019048519 1.3907707254 -1.4314221874
| 16> S -0.5143349082 1.6299523366 0.2858216225
| 17> P -2.1539461445 0.2808649472 0.2190491228
| 18> S -3.1945952088 0.3097850843 -1.4477804104
| 19> O -2.9023974569 0.575887935 1.5854109019
| 20> C -3.4600281236 1.8508080167 1.9587018992
| 21> C -4.790538764 2.1106075071 1.2796244103
| 22> O -1.4895030864 -1.1097133485 0.5783026772
| 23> C -1.9063172918 -2.3492241109 -0.020664747
| 24> C -3.1947747339 -2.8400256833 0.6051234223
| 25> H 5.1212453473 -0.639479007 0.2994549386
| 26> H 6.1037984657 -2.06971656 -0.0609685308
| 27> H 5.66792628 -0.9353086199 -1.3517120621
| 28> H 3.6891944499 -2.67281719 0.2115459
| 29> H 4.251699237 -3.0016003284 -1.4529164982
| 30> H 2.9613436034 -0.2536807332 2.5841079235
| 31> H 1.9158368972 0.9977875714 1.8733033851
| 32> H 0.891995708 -0.0084844604 3.9196750702
| 33> H -0.0999952697 -0.352247459 2.4958508851
| 34> H 0.9466925956 -1.6098587782 3.1615958989
| 35> H -0.8482509195 1.5702901937 -2.0942778828
| 36> H 0.8106826598 2.0931603493 -1.6182095342
| 37> H -3.5767141348 1.7749222695 3.041398165
| 38> H -2.7365676142 2.636340769 1.7221557232
| 39> H -5.1996513053 3.0478554298 1.6428628133
| 40> H -4.6626984854 2.1745123699 0.2013233161
| 41> H -5.4877535554 1.3063216271 1.4984930258
| 42> H -2.0259519284 -2.19998841 -1.0990111806
| 43> H -1.0740401328 -3.0299659251 0.1633458795
| 44> H -3.4620853763 -3.8016422232 0.1789102892
| 45> H -3.0775353072 -2.9371058658 1.6808695318
| 46> H -3.9920683249 -2.1261125764 0.4012700919
| 47> *
| 48>
| 49>                          ****END OF INPUT****

CARTESIAN COORDINATES (ANGSTROEM)
---------------------------------
  C      5.324503   -1.414968   -0.438259
  C      4.072332   -2.224340   -0.708181
  O      3.022854   -1.428763   -1.300078
  P      2.315426   -0.214293   -0.569033
  S      3.207399    1.535259   -0.528184
  O      2.000260   -0.822244    0.870006
  C      1.998133   -0.069127    2.101786
  C      0.856160   -0.543439    2.976374
  S      0.565606   -0.302133   -1.752777
  C     -0.001905    1.390771   -1.431422
  S     -0.514335    1.629952    0.285822
  P     -2.153946    0.280865    0.219049
  S     -3.194595    0.309785   -1.447780
  O     -2.902397    0.575888    1.585411
  C     -3.460028    1.850808    1.958702
  C     -4.790539    2.110608    1.279624
  O     -1.489503   -1.109713    0.578303
  C     -1.906317   -2.349224   -0.020665
  C     -3.194775   -2.840026    0.605123
  H      5.121245   -0.639479    0.299455
  H      6.103798   -2.069717   -0.060969
  H      5.667926   -0.935309   -1.351712
  H      3.689194   -2.672817    0.211546
  H      4.251699   -3.001600   -1.452916
  H      2.961344   -0.253681    2.584108
  H      1.915837    0.997788    1.873303
  H      0.891996   -0.008484    3.919675
  H     -0.099995   -0.352247    2.495851
  H      0.946693   -1.609859    3.161596
  H     -0.848251    1.570290   -2.094278
  H      0.810683    2.093160   -1.618210
  H     -3.576714    1.774922    3.041398
  H     -2.736568    2.636341    1.722156
  H     -5.199651    3.047855    1.642863
  H     -4.662698    2.174512    0.201323
  H     -5.487754    1.306322    1.498493
  H     -2.025952   -2.199988   -1.099011
  H     -1.074040   -3.029966    0.163346
  H     -3.462085   -3.801642    0.178910
  H     -3.077535   -2.937106    1.680870
  H     -3.992068   -2.126113    0.401270

 Total Charge           Charge          ....    0
 Multiplicity           Mult            ....    1
 Number of Electrons    NEL             ....  202
 Basis Dimension        Dim             ....  539

ORBITAL ENERGIES
----------------

  NO   OCC          E(Eh)            E(eV)
   0   2.0000     -88.577368     -2410.3127
   1   2.0000     -88.571644     -2410.1570
   2   2.0000     -88.523194     -2408.8386
   3   2.0000     -88.518571     -2408.7128
   4   2.0000     -76.917157     -2093.0222
   5   2.0000     -76.913700     -2092.9282
   6   2.0000     -18.997494      -516.9481
   7   2.0000     -18.991343      -516.7807
   8   2.0000     -18.990721      -516.7638
   9   2.0000     -18.989642      -516.7344
  10   2.0000     -10.105820      -274.9934
  11   2.0000     -10.103178      -274.9214
  12   2.0000     -10.102303      -274.8976
  13   2.0000     -10.095142      -274.7028
  14   2.0000     -10.094691      -274.6905
  15   2.0000     -10.029992      -272.9300
  16   2.0000     -10.028825      -272.8982
  17   2.0000     -10.027184      -272.8535
  18   2.0000     -10.025140      -272.7979
  19   2.0000      -7.871770      -214.2018
  20   2.0000      -7.865811      -214.0396
  21   2.0000      -7.817977      -212.7380
  22   2.0000      -7.813417      -212.6139
  23   2.0000      -6.595534      -179.4736
  24   2.0000      -6.591759      -179.3709
  25   2.0000      -5.818500      -158.3294
  26   2.0000      -5.815573      -158.2498
  27   2.0000      -5.812768      -158.1735
  28   2.0000      -5.809711      -158.0903
  29   2.0000      -5.809081      -158.0731
  30   2.0000      -5.802835      -157.9032
  31   2.0000      -5.765642      -156.8911
  32   2.0000      -5.761058      -156.7663
  33   2.0000      -5.758212      -156.6889
  34   2.0000      -5.758017      -156.6836
  35   2.0000      -5.753872      -156.5708
  36   2.0000      -5.753248      -156.5538
  37   2.0000      -4.740948      -129.0078
  38   2.0000      -4.740568      -128.9974
  39   2.0000      -4.739248      -128.9615
  40   2.0000      -4.737557      -128.9155
  41   2.0000      -4.736447      -128.8853
  42   2.0000      -4.735506      -128.8597
  43   2.0000      -1.053599       -28.6699
  44   2.0000      -1.048720       -28.5371
  45   2.0000      -1.013449       -27.5773
  46   2.0000      -1.007466       -27.4145
  47   2.0000      -0.802412       -21.8347
  48   2.0000      -0.760826       -20.7031
  49   2.0000      -0.749989       -20.4082
  50   2.0000      -0.732820       -19.9410
  51   2.0000      -0.731151       -19.8956
  52   2.0000      -0.709252       -19.2997
  53   2.0000      -0.686516       -18.6811
  54   2.0000      -0.669016       -18.2048
  55   2.0000      -0.631630       -17.1875
  56   2.0000      -0.624999       -17.0071
  57   2.0000      -0.606148       -16.4941
  58   2.0000      -0.604860       -16.4591
  59   2.0000      -0.591074       -16.0839
  60   2.0000      -0.530354       -14.4317
  61   2.0000      -0.521730       -14.1970
  62   2.0000      -0.496652       -13.5146
  63   2.0000      -0.493328       -13.4242
  64   2.0000      -0.478735       -13.0270
  65   2.0000      -0.462934       -12.5971
  66   2.0000      -0.459691       -12.5088
  67   2.0000      -0.447931       -12.1888
  68   2.0000      -0.443943       -12.0803
  69   2.0000      -0.433998       -11.8097
  70   2.0000      -0.429034       -11.6746
  71   2.0000      -0.412172       -11.2158
  72   2.0000      -0.408187       -11.1073
  73   2.0000      -0.405047       -11.0219
  74   2.0000      -0.397959       -10.8290
  75   2.0000      -0.391974       -10.6662
  76   2.0000      -0.382672       -10.4130
  77   2.0000      -0.369811       -10.0631
  78   2.0000      -0.365895        -9.9565
  79   2.0000      -0.364167        -9.9095
  80   2.0000      -0.363095        -9.8803
  81   2.0000      -0.361325        -9.8322
  82   2.0000      -0.355061        -9.6617
  83   2.0000      -0.353337        -9.6148
  84   2.0000      -0.347928        -9.4676
  85   2.0000      -0.339899        -9.2491
  86   2.0000      -0.324561        -8.8317
  87   2.0000      -0.314212        -8.5502
  88   2.0000      -0.308642        -8.3986
  89   2.0000      -0.307610        -8.3705
  90   2.0000      -0.302785        -8.2392
  91   2.0000      -0.292447        -7.9579
  92   2.0000      -0.289877        -7.8880
  93   2.0000      -0.283511        -7.7147
  94   2.0000      -0.270624        -7.3641
  95   2.0000      -0.246148        -6.6980
  96   2.0000      -0.229606        -6.2479
  97   2.0000      -0.226951        -6.1757
  98   2.0000      -0.218547        -5.9470
  99   2.0000      -0.214025        -5.8239
 100   2.0000      -0.210001        -5.7144
 101   0.0000      -0.048458        -1.3186
 102   0.0000      -0.025218        -0.6862
 103   0.0000      -0.005386        -0.1466
 104   0.0000       0.000335         0.0091
 105   0.0000       0.012750         0.3469

MULLIKEN ATOMIC CHARGES
-----------------------
   0 C :   -0.434584
   1 C :   -0.149939
   2 O :   -0.307232
   3 P :    0.682989
   4 S :   -0.463229
   5 O :   -0.294596
   6 C :   -0.101972
   7 C :   -0.469789
   8 S :   -0.120605
   9 C :   -0.218988
  10 S :   -0.173497
  11 P :    0.691064
  12 S :   -0.473719
  13 O :   -0.301831
  14 C :   -0.151645
  15 C :   -0.434094
  16 O :   -0.255920
  17 C :   -0.150276
  18 C :   -0.444263
  19 H :    0.163613
  20 H :    0.146220
  21 H :    0.163742
  22 H :    0.157840
  23 H :    0.149816
  24 H :    0.145042
  25 H :    0.172268
  26 H :    0.143981
  27 H :    0.176399
  28 H :    0.145310
  29 H :    0.213454
  30 H :    0.214286
  31 H :    0.150464
  32 H :    0.154220
  33 H :    0.145999
  34 H :    0.176564
  35 H :    0.153874
  36 H :    0.175522
  37 H :    0.155750
  38 H :    0.147229
  39 H :    0.153585
  40 H :    0.166945
Sum of atomic charges:   -0.0000000

LOEWDIN ATOMIC CHARGES
----------------------
   0 C :   -0.401357
   1 C :    0.030752
   2 O :   -0.667522
   3 P :    0.385987
   4 S :   -0.129656
   5 O :   -0.667247
   6 C :    0.011445
   7 C :   -0.395067
   8 S :    0.193962
   9 C :   -0.421880
  10 S :    0.148223
  11 P :    0.381274
  12 S :   -0.126451
  13 O :   -0.656832
  14 C :    0.024686
  15 C :   -0.402207
  16 O :   -0.680893
  17 C :    0.012546
  18 C :   -0.398138
  19 H :    0.164381
  20 H :    0.157858
  21 H :    0.165094
  22 H :    0.174615
  23 H :    0.181629
  24 H :    0.170292
  25 H :    0.182571
  26 H :    0.158375
  27 H :    0.173088
  28 H :    0.158016
  29 H :    0.191165
  30 H :    0.192071
  31 H :    0.180576
  32 H :    0.174454
  33 H :    0.158124
  34 H :    0.168813
  35 H :    0.160669
  36 H :    0.182473
  37 H :    0.180723
  38 H :    0.159661
  39 H :    0.158737
  40 H :    0.164993

  Mayer bond orders larger than 0.100000
B(  0-C ,  1-C ) :   0.9437 B(  0-C , 19-H ) :   0.9536 B(  0-C , 20-H ) :   0.9643
B(  0-C , 21-H ) :   0.9671 B(  1-C ,  2-O ) :   0.7982 B(  1-C , 22-H ) :   0.9699
B(  1-C , 23-H ) :   0.9583 B(  2-O ,  3-P ) :   1.1495 B(  3-P ,  4-S ) :   1.7799
B(  3-P ,  5-O ) :   1.0496 B(  3-P ,  8-S ) :   1.0828 B(  5-O ,  6-C ) :   0.7389
B(  6-C ,  7-C ) :   0.9385 B(  6-C , 24-H ) :   0.9514 B(  6-C , 25-H ) :   0.9565
B(  7-C , 26-H ) :   0.9700 B(  7-C , 27-H ) :   0.9618 B(  7-C , 28-H ) :   0.9686
B(  8-S ,  9-C ) :   0.8940 B(  9-C , 10-S ) :   0.8928 B(  9-C , 29-H ) :   0.9067
B(  9-C , 30-H ) :   0.9051 B( 10-S , 11-P ) :   1.0472 B( 11-P , 12-S ) :   1.7761
B( 11-P , 13-O ) :   1.0823 B( 11-P , 16-O ) :   1.1141 B( 13-O , 14-C ) :   0.7965
B( 14-C , 15-C ) :   0.9563 B( 14-C , 31-H ) :   0.9612 B( 14-C , 32-H ) :   0.9600
B( 15-C , 33-H ) :   0.9642 B( 15-C , 34-H ) :   0.9534 B( 15-C , 35-H ) :   0.9721
B( 16-O , 17-C ) :   0.7727 B( 17-C , 18-C ) :   0.9240 B( 17-C , 36-H ) :   0.9567
B( 17-C , 37-H ) :   0.9632 B( 18-C , 38-H ) :   0.9646 B( 18-C , 39-H ) :   0.9749
B( 18-C , 40-H ) :   0.9613

Dispersion correction           -0.021886031
FINAL SINGLE POINT ENERGY     -2932.461084190265

DIPOLE MOMENT
-------------

Method             : SCF
Type of density    : Electron Density
Multiplicity       :   1
Irrep              :   0
Energy             : -2932.4858698214861761 Eh
Relativity type    :
Basis              : AO
                                X                 Y                 Z
Electronic contribution:      3.719870814       8.720647388     -15.302791879
Nuclear contribution   :     -3.779613962      -9.608831370      16.761364872
                        -----------------------------------------
Total Dipole Moment    :     -0.059743147      -0.888183982       1.458572993
                        -----------------------------------------
Magnitude (a.u.)       :      1.708764234
Magnitude (Debye)      :      4.343333511

Rotational constants in cm-1:             0.013764             0.004825             0.004697
Rotational constants in MHz :           412.643154           144.658735           140.804021

                             ****ORCA TERMINATED NORMALLY****
TOTAL RUN TIME: 0 days 0 hours 1 minutes 21 seconds 99 msec
