                         Program Version 6.0.0  -   RELEASE  -
|  1> ! r2scan-3c def2/J RI DEFGRID2 scfconv6 printgap
|  2> %output
|  3>     printlevel normal
|  4> end
|  5> %cpcm
|  6>     smd true
|  7>     smdsolvent "water"
|  8> end
|  9> * xyz 0 1
| 10> C 5.3245034794 -1.4149678436 -0.4382590818
| 11> C 4.0723324021 -2.2243403292 -0.7081813638
| 12> O 3.0228541569 -1.4287632258 -1.3000776234
| 13> P 2.3154259202 -0.2142926895 -0.5690326525
| 14> S 3.2073985335 1.5352586439 -0.5281838553
| 15> O 2.0002602761 -0.8222437311 0.8700061477
| 16> C 1.9981327788 -0.0691267497 2.1017864191
| 17> C 0.8561599344 -0.5434392099 2.9763737539
| 18> S 0.5656064901 -0.3021329098 -1.7527766208
| 19> C -0.0019048519 1.3907707254 -1.4314221874
| 20> S -0.5143349082 1.6299523366 0.2858216225
| 21> P -2.1539461445 0.2808649472 0.2190491228
| 22> S -3.1945952088 0.3097850843 -1.4477804104
| 23> O -2.9023974569 0.575887935 1.5854109019
| 24> C -3.4600281236 1.8508080167 1.9587018992
| 25> C -4.790538764 2.1106075071 1.2796244103
| 26> O -1.4895030864 -1.1097133485 0.5783026772
| 27> C -1.9063172918 -2.3492241109 -0.020664747
| 28> C -3.1947747339 -2.8400256833 0.6051234223
| 29> H 5.1212453473 -0.639479007 0.2994549386
| 30> H 6.1037984657 -2.06971656 -0.0609685308
| 31> H 5.66792628 -0.9353086199 -1.3517120621
| 32> H 3.6891944499 -2.67281719 0.2115459
| 33> H 4.251699237 -3.0016003284 -1.4529164982
| 34> H 2.9613436034 -0.2536807332 2.5841079235
| 35> H 1.9158368972 0.9977875714 1.8733033851
| 36> H 0.891995708 -0.0084844604 3.9196750702
| 37> H -0.0999952697 -0.352247459 2.4958508851
| 38> H 0.9466925956 -1.6098587782 3.1615958989
| 39> H -0.8482509195 1.5702901937 -2.0942778828
| 40> H 0.8106826598 2.0931603493 -1.6182095342
| 41> H -3.5767141348 1.7749222695 3.041398165
| 42> H -2.7365676142 2.636340769 1.7221557232
| 43> H -5.1996513053 3.0478554298 1.6428628133
| 44> H -4.6626984854 2.1745123699 0.2013233161
| 45> H -5.4877535554 1.3063216271 1.4984930258
| 46> H -2.0259519284 -2.19998841 -1.0990111806
| 47> H -1.0740401328 -3.0299659251 0.1633458795
| 48> H -3.4620853763 -3.8016422232 0.1789102892
| 49> H -3.0775353072 -2.9371058658 1.6808695318
| 50> H -3.9920683249 -2.1261125764 0.4012700919
| 51> *
| 52>
| 53>                          ****END OF INPUT****

CARTESIAN COORDINATES (ANGSTROEM)
---------------------------------
  C      5.324503   -1.414968   -0.438259
  C      4.072332   -2.224340   -0.708181
  O      3.022854   -1.428763   -1.300078
  P      2.315426   -0.214293   -0.569033
  S      3.207399    1.535259   -0.528184
  O      2.000260   -0.822244    0.870006
  C      1.998133   -0.069127    2.101786
  C      0.856160   -0.543439    2.976374
  S      0.565606   -0.302133   -1.752777
  C     -0.001905    1.390771   -1.431422
  S     -0.514335    1.629952    0.285822
  P     -2.153946    0.280865    0.219049
  S     -3.194595    0.309785   -1.447780
  O     -2.902397    0.575888    1.585411
  C     -3.460028    1.850808    1.958702
  C     -4.790539    2.110608    1.279624
  O     -1.489503   -1.109713    0.578303
  C     -1.906317   -2.349224   -0.020665
  C     -3.194775   -2.840026    0.605123
  H      5.121245   -0.639479    0.299455
  H      6.103798   -2.069717   -0.060969
  H      5.667926   -0.935309   -1.351712
  H      3.689194   -2.672817    0.211546
  H      4.251699   -3.001600   -1.452916
  H      2.961344   -0.253681    2.584108
  H      1.915837    0.997788    1.873303
  H      0.891996   -0.008484    3.919675
  H     -0.099995   -0.352247    2.495851
  H      0.946693   -1.609859    3.161596
  H     -0.848251    1.570290   -2.094278
  H      0.810683    2.093160   -1.618210
  H     -3.576714    1.774922    3.041398
  H     -2.736568    2.636341    1.722156
  H     -5.199651    3.047855    1.642863
  H     -4.662698    2.174512    0.201323
  H     -5.487754    1.306322    1.498493
  H     -2.025952   -2.199988   -1.099011
  H     -1.074040   -3.029966    0.163346
  H     -3.462085   -3.801642    0.178910
  H     -3.077535   -2.937106    1.680870
  H     -3.992068   -2.126113    0.401270

 Total Charge           Charge          ....    0
 Multiplicity           Mult            ....    1
 Number of Electrons    NEL             ....  202
 Basis Dimension        Dim             ....  539

ORBITAL ENERGIES
----------------

  NO   OCC          E(Eh)            E(eV)
   0   2.0000     -88.580532     -2410.3988
   1   2.0000     -88.578669     -2410.3481
   2   2.0000     -88.529227     -2409.0027
   3   2.0000     -88.527752     -2408.9626
   4   2.0000     -76.921127     -2093.1303
   5   2.0000     -76.920469     -2093.1124
   6   2.0000     -18.997863      -516.9581
   7   2.0000     -18.994659      -516.8710
   8   2.0000     -18.994362      -516.8629
   9   2.0000     -18.992705      -516.8178
  10   2.0000     -10.103737      -274.9367
  11   2.0000     -10.093073      -274.6465
  12   2.0000     -10.091267      -274.5973
  13   2.0000     -10.088561      -274.5237
  14   2.0000     -10.088304      -274.5167
  15   2.0000     -10.018592      -272.6197
  16   2.0000     -10.017936      -272.6019
  17   2.0000     -10.017256      -272.5834
  18   2.0000     -10.016849      -272.5723
  19   2.0000      -7.874927      -214.2876
  20   2.0000      -7.872915      -214.2329
  21   2.0000      -7.824283      -212.9096
  22   2.0000      -7.822902      -212.8720
  23   2.0000      -6.599547      -179.5828
  24   2.0000      -6.598552      -179.5557
  25   2.0000      -5.821658      -158.4154
  26   2.0000      -5.819806      -158.3650
  27   2.0000      -5.818742      -158.3360
  28   2.0000      -5.816752      -158.2819
  29   2.0000      -5.812223      -158.1586
  30   2.0000      -5.810070      -158.1000
  31   2.0000      -5.771890      -157.0611
  32   2.0000      -5.770473      -157.0226
  33   2.0000      -5.764528      -156.8608
  34   2.0000      -5.764319      -156.8551
  35   2.0000      -5.763286      -156.8270
  36   2.0000      -5.762817      -156.8142
  37   2.0000      -4.744914      -129.1157
  38   2.0000      -4.744591      -129.1069
  39   2.0000      -4.744296      -129.0989
  40   2.0000      -4.743324      -129.0724
  41   2.0000      -4.743239      -129.0701
  42   2.0000      -4.742389      -129.0470
  43   2.0000      -1.054879       -28.7047
  44   2.0000      -1.051615       -28.6159
  45   2.0000      -1.014260       -27.5994
  46   2.0000      -1.009915       -27.4812
  47   2.0000      -0.805947       -21.9309
  48   2.0000      -0.758237       -20.6327
  49   2.0000      -0.744132       -20.2489
  50   2.0000      -0.725182       -19.7332
  51   2.0000      -0.722655       -19.6644
  52   2.0000      -0.708972       -19.2921
  53   2.0000      -0.689842       -18.7716
  54   2.0000      -0.675501       -18.3813
  55   2.0000      -0.630424       -17.1547
  56   2.0000      -0.621897       -16.9227
  57   2.0000      -0.600060       -16.3285
  58   2.0000      -0.598500       -16.2860
  59   2.0000      -0.590403       -16.0657
  60   2.0000      -0.527330       -14.3494
  61   2.0000      -0.517989       -14.0952
  62   2.0000      -0.493048       -13.4165
  63   2.0000      -0.489460       -13.3189
  64   2.0000      -0.478035       -13.0080
  65   2.0000      -0.458984       -12.4896
  66   2.0000      -0.455106       -12.3841
  67   2.0000      -0.444024       -12.0825
  68   2.0000      -0.439596       -11.9620
  69   2.0000      -0.432730       -11.7752
  70   2.0000      -0.424913       -11.5625
  71   2.0000      -0.410369       -11.1667
  72   2.0000      -0.404968       -11.0198
  73   2.0000      -0.401904       -10.9364
  74   2.0000      -0.397550       -10.8179
  75   2.0000      -0.390888       -10.6366
  76   2.0000      -0.380719       -10.3599
  77   2.0000      -0.364299        -9.9131
  78   2.0000      -0.361453        -9.8356
  79   2.0000      -0.358220        -9.7477
  80   2.0000      -0.356347        -9.6967
  81   2.0000      -0.353673        -9.6239
  82   2.0000      -0.349229        -9.5030
  83   2.0000      -0.346936        -9.4406
  84   2.0000      -0.343701        -9.3526
  85   2.0000      -0.336295        -9.1511
  86   2.0000      -0.323412        -8.8005
  87   2.0000      -0.308201        -8.3866
  88   2.0000      -0.306686        -8.3454
  89   2.0000      -0.303622        -8.2620
  90   2.0000      -0.300098        -8.1661
  91   2.0000      -0.291651        -7.9362
  92   2.0000      -0.288667        -7.8550
  93   2.0000      -0.284891        -7.7523
  94   2.0000      -0.272899        -7.4260
  95   2.0000      -0.249936        -6.8011
  96   2.0000      -0.237273        -6.4565
  97   2.0000      -0.234399        -6.3783
  98   2.0000      -0.225382        -6.1330
  99   2.0000      -0.221753        -6.0342
 100   2.0000      -0.218815        -5.9543
 101   0.0000      -0.054263        -1.4766
 102   0.0000      -0.031893        -0.8679
 103   0.0000      -0.009928        -0.2702
 104   0.0000      -0.003699        -0.1007
 105   0.0000       0.011411         0.3105

MULLIKEN ATOMIC CHARGES
-----------------------
   0 C :   -0.485042
   1 C :   -0.134619
   2 O :   -0.338801
   3 P :    0.705816
   4 S :   -0.509513
   5 O :   -0.316196
   6 C :   -0.089492
   7 C :   -0.513053
   8 S :   -0.144387
   9 C :   -0.231612
  10 S :   -0.174005
  11 P :    0.723943
  12 S :   -0.516967
  13 O :   -0.332037
  14 C :   -0.137717
  15 C :   -0.479447
  16 O :   -0.282800
  17 C :   -0.141215
  18 C :   -0.486063
  19 H :    0.166576
  20 H :    0.172144
  21 H :    0.170714
  22 H :    0.174746
  23 H :    0.174212
  24 H :    0.173328
  25 H :    0.168843
  26 H :    0.170017
  27 H :    0.167791
  28 H :    0.167043
  29 H :    0.233909
  30 H :    0.232136
  31 H :    0.177217
  32 H :    0.165263
  33 H :    0.170495
  34 H :    0.167978
  35 H :    0.168977
  36 H :    0.175230
  37 H :    0.180266
  38 H :    0.171836
  39 H :    0.169126
  40 H :    0.165358
Sum of atomic charges:   -0.0000000

LOEWDIN ATOMIC CHARGES
----------------------
   0 C :   -0.405033
   1 C :    0.038006
   2 O :   -0.684029
   3 P :    0.386946
   4 S :   -0.160481
   5 O :   -0.673819
   6 C :    0.016545
   7 C :   -0.398683
   8 S :    0.178007
   9 C :   -0.417413
  10 S :    0.151306
  11 P :    0.386529
  12 S :   -0.154263
  13 O :   -0.667951
  14 C :    0.032262
  15 C :   -0.406873
  16 O :   -0.694990
  17 C :    0.016016
  18 C :   -0.401513
  19 H :    0.162637
  20 H :    0.168321
  21 H :    0.163521
  22 H :    0.182964
  23 H :    0.191850
  24 H :    0.181810
  25 H :    0.181632
  26 H :    0.168717
  27 H :    0.167968
  28 H :    0.163575
  29 H :    0.197114
  30 H :    0.197116
  31 H :    0.192279
  32 H :    0.179569
  33 H :    0.167529
  34 H :    0.162910
  35 H :    0.163332
  36 H :    0.182306
  37 H :    0.190108
  38 H :    0.168656
  39 H :    0.163351
  40 H :    0.162166

  Mayer bond orders larger than 0.100000
B(  0-C ,  1-C ) :   0.9238 B(  0-C , 19-H ) :   0.9556 B(  0-C , 20-H ) :   0.9570
B(  0-C , 21-H ) :   0.9699 B(  1-C ,  2-O ) :   0.7902 B(  1-C , 22-H ) :   0.9608
B(  1-C , 23-H ) :   0.9506 B(  2-O ,  3-P ) :   1.1582 B(  3-P ,  4-S ) :   1.7491
B(  3-P ,  5-O ) :   1.0569 B(  3-P ,  8-S ) :   1.0931 B(  5-O ,  6-C ) :   0.7302
B(  6-C ,  7-C ) :   0.9301 B(  6-C , 24-H ) :   0.9424 B(  6-C , 25-H ) :   0.9539
B(  7-C , 26-H ) :   0.9628 B(  7-C , 27-H ) :   0.9631 B(  7-C , 28-H ) :   0.9668
B(  8-S ,  9-C ) :   0.8835 B(  9-C , 10-S ) :   0.8873 B(  9-C , 29-H ) :   0.9008
B(  9-C , 30-H ) :   0.9014 B( 10-S , 11-P ) :   1.0586 B( 11-P , 12-S ) :   1.7409
B( 11-P , 13-O ) :   1.0899 B( 11-P , 16-O ) :   1.1195 B( 13-O , 14-C ) :   0.7878
B( 14-C , 15-C ) :   0.9389 B( 14-C , 31-H ) :   0.9519 B( 14-C , 32-H ) :   0.9543
B( 15-C , 33-H ) :   0.9586 B( 15-C , 34-H ) :   0.9579 B( 15-C , 35-H ) :   0.9715
B( 16-O , 17-C ) :   0.7600 B( 17-C , 18-C ) :   0.9175 B( 17-C , 36-H ) :   0.9527
B( 17-C , 37-H ) :   0.9533 B( 18-C , 38-H ) :   0.9588 B( 18-C , 39-H ) :   0.9724
B( 18-C , 40-H ) :   0.9620

Dispersion correction           -0.021886031
FINAL SINGLE POINT ENERGY     -2932.469208392141

DIPOLE MOMENT
-------------

Method             : SCF
Type of density    : Electron Density
Multiplicity       :   1
Irrep              :   0
Energy             : -2932.4939940233621201 Eh
Relativity type    :
Basis              : AO
                                X                 Y                 Z
Electronic contribution:      3.786666497       8.521046641     -14.685967305
Nuclear contribution   :     -3.779613962      -9.608831370      16.761364872
                        -----------------------------------------
Total Dipole Moment    :      0.007052536      -1.087784728       2.075397567
                        -----------------------------------------
Magnitude (a.u.)       :      2.343203024
Magnitude (Debye)      :      5.955948761

Rotational constants in cm-1:             0.013764             0.004825             0.004697
Rotational constants in MHz :           412.643154           144.658735           140.804021

                             ****ORCA TERMINATED NORMALLY****
TOTAL RUN TIME: 0 days 0 hours 1 minutes 57 seconds 948 msec
