                         Program Version 6.0.0  -   RELEASE  -
|  1> ! pbe def2-sv(p) def2/J RI DEFGRID1 loosescf d4 GCP(DFT/SV(P)) printgap
|  2> %output
|  3>     printlevel normal
|  4> end
|  5> * xyz 0 1
|  6> C 5.0442295017 -0.5078924171 -1.7457213119
|  7> C 3.7444480284 -1.2642184232 -1.9198364344
|  8> O 2.9743851116 -1.2863109041 -0.7001530021
|  9> P 2.2649724583 0.0093597934 -0.1292388381
| 10> S 1.6474599417 1.2851160079 -1.4943051778
| 11> O 3.3578797772 0.6071065141 0.856993439
| 12> C 3.2858057728 1.9376836521 1.3917573992
| 13> C 2.2134424279 2.0561751967 2.4556154574
| 14> S 0.9432530557 -0.9683496375 1.2007616049
| 15> C 0.095795097 -2.0719618368 0.0377115231
| 16> S -0.8580630124 -1.2086480417 -1.2513207856
| 17> P -1.992036569 0.107089681 -0.0353800187
| 18> S -1.2700827819 1.7768037004 0.6750578009
| 19> O -2.4729511502 -0.9549163778 1.0569704273
| 20> C -2.8161656782 -0.5624308543 2.40036639
| 21> C -4.1793393047 0.096769738 2.4432769294
| 22> O -3.2265126755 0.4351538384 -0.9726459805
| 23> C -4.0806284723 -0.5922343598 -1.5387266403
| 24> C -5.4997636432 -0.0624018708 -1.5689029448
| 25> H 5.6403123207 -0.6028411005 -2.6478710189
| 26> H 4.8356694997 0.5463293329 -1.5681198354
| 27> H 5.5986441668 -0.9038658883 -0.8990798507
| 28> H 3.9152072444 -2.3185965541 -2.1410431704
| 29> H 3.1341931811 -0.8087122642 -2.7065252266
| 30> H 4.2818168099 2.1111702327 1.8017020341
| 31> H 3.0919685284 2.6356182689 0.5700419734
| 32> H 2.3444813344 1.2849864352 3.2104578199
| 33> H 2.2724300585 3.034221032 2.9219679472
| 34> H 1.2252890614 1.9463286247 2.0073860628
| 35> H -0.5776389829 -2.6796393755 0.6371354477
| 36> H 0.8235864393 -2.6872725267 -0.4860368173
| 37> H -2.7941060566 -1.4949094097 2.9654981456
| 38> H -2.0446699126 0.1183927222 2.7725572844
| 39> H -4.9386816748 -0.5750679496 2.0512600631
| 40> H -4.4229042281 0.3555946347 3.468705009
| 41> H -4.162692823 1.0068509074 1.8436816135
| 42> H -3.7098812997 -0.8011332699 -2.5446474161
| 43> H -4.0023768758 -1.4950152993 -0.9279215655
| 44> H -5.5382007973 0.8594839739 -2.142209634
| 45> H -6.1451246533 -0.8017211776 -2.0322698131
| 46> H -5.8498071049 0.1408006242 -0.560488677
| 47> *
| 48>
| 49>                          ****END OF INPUT****

CARTESIAN COORDINATES (ANGSTROEM)
---------------------------------
  C      5.044230   -0.507892   -1.745721
  C      3.744448   -1.264218   -1.919836
  O      2.974385   -1.286311   -0.700153
  P      2.264972    0.009360   -0.129239
  S      1.647460    1.285116   -1.494305
  O      3.357880    0.607107    0.856993
  C      3.285806    1.937684    1.391757
  C      2.213442    2.056175    2.455615
  S      0.943253   -0.968350    1.200762
  C      0.095795   -2.071962    0.037712
  S     -0.858063   -1.208648   -1.251321
  P     -1.992037    0.107090   -0.035380
  S     -1.270083    1.776804    0.675058
  O     -2.472951   -0.954916    1.056970
  C     -2.816166   -0.562431    2.400366
  C     -4.179339    0.096770    2.443277
  O     -3.226513    0.435154   -0.972646
  C     -4.080628   -0.592234   -1.538727
  C     -5.499764   -0.062402   -1.568903
  H      5.640312   -0.602841   -2.647871
  H      4.835669    0.546329   -1.568120
  H      5.598644   -0.903866   -0.899080
  H      3.915207   -2.318597   -2.141043
  H      3.134193   -0.808712   -2.706525
  H      4.281817    2.111170    1.801702
  H      3.091969    2.635618    0.570042
  H      2.344481    1.284986    3.210458
  H      2.272430    3.034221    2.921968
  H      1.225289    1.946329    2.007386
  H     -0.577639   -2.679639    0.637135
  H      0.823586   -2.687273   -0.486037
  H     -2.794106   -1.494909    2.965498
  H     -2.044670    0.118393    2.772557
  H     -4.938682   -0.575068    2.051260
  H     -4.422904    0.355595    3.468705
  H     -4.162693    1.006851    1.843682
  H     -3.709881   -0.801133   -2.544647
  H     -4.002377   -1.495015   -0.927922
  H     -5.538201    0.859484   -2.142210
  H     -6.145125   -0.801721   -2.032270
  H     -5.849807    0.140801   -0.560489

 Total Charge           Charge          ....    0
 Multiplicity           Mult            ....    1
 Number of Electrons    NEL             ....  202
 Basis Dimension        Dim             ....  334

ORBITAL ENERGIES
----------------

  NO   OCC          E(Eh)            E(eV)
   0   2.0000     -88.038443     -2395.6478
   1   2.0000     -88.036452     -2395.5937
   2   2.0000     -87.976081     -2393.9509
   3   2.0000     -87.975925     -2393.9466
   4   2.0000     -76.421068     -2079.5230
   5   2.0000     -76.419779     -2079.4879
   6   2.0000     -18.793238      -511.3900
   7   2.0000     -18.790505      -511.3156
   8   2.0000     -18.787490      -511.2336
   9   2.0000     -18.786376      -511.2033
  10   2.0000      -9.957400      -270.9546
  11   2.0000      -9.954902      -270.8867
  12   2.0000      -9.951042      -270.7816
  13   2.0000      -9.948001      -270.6989
  14   2.0000      -9.944854      -270.6132
  15   2.0000      -9.889928      -269.1186
  16   2.0000      -9.886023      -269.0124
  17   2.0000      -9.880200      -268.8539
  18   2.0000      -9.874814      -268.7073
  19   2.0000      -7.683478      -209.0781
  20   2.0000      -7.681678      -209.0291
  21   2.0000      -7.621102      -207.3807
  22   2.0000      -7.620723      -207.3704
  23   2.0000      -6.418564      -174.6580
  24   2.0000      -6.417304      -174.6237
  25   2.0000      -5.711511      -155.4181
  26   2.0000      -5.709794      -155.3714
  27   2.0000      -5.708066      -155.3244
  28   2.0000      -5.706123      -155.2715
  29   2.0000      -5.700171      -155.1095
  30   2.0000      -5.698418      -155.0618
  31   2.0000      -5.650172      -153.7490
  32   2.0000      -5.649677      -153.7355
  33   2.0000      -5.641532      -153.5139
  34   2.0000      -5.641223      -153.5055
  35   2.0000      -5.641206      -153.5050
  36   2.0000      -5.641050      -153.5008
  37   2.0000      -4.641752      -126.3085
  38   2.0000      -4.640073      -126.2628
  39   2.0000      -4.639901      -126.2581
  40   2.0000      -4.639112      -126.2367
  41   2.0000      -4.638725      -126.2261
  42   2.0000      -4.637669      -126.1974
  43   2.0000      -0.983783       -26.7701
  44   2.0000      -0.982108       -26.7245
  45   2.0000      -0.944353       -25.6971
  46   2.0000      -0.942498       -25.6467
  47   2.0000      -0.760599       -20.6969
  48   2.0000      -0.718651       -19.5555
  49   2.0000      -0.705585       -19.1999
  50   2.0000      -0.691533       -18.8176
  51   2.0000      -0.681486       -18.5442
  52   2.0000      -0.665716       -18.1151
  53   2.0000      -0.648055       -17.6345
  54   2.0000      -0.632921       -17.2227
  55   2.0000      -0.594358       -16.1733
  56   2.0000      -0.585847       -15.9417
  57   2.0000      -0.571558       -15.5529
  58   2.0000      -0.567575       -15.4445
  59   2.0000      -0.561450       -15.2778
  60   2.0000      -0.503383       -13.6977
  61   2.0000      -0.489036       -13.3073
  62   2.0000      -0.480568       -13.0769
  63   2.0000      -0.469538       -12.7768
  64   2.0000      -0.456094       -12.4110
  65   2.0000      -0.441884       -12.0243
  66   2.0000      -0.441187       -12.0053
  67   2.0000      -0.432387       -11.7658
  68   2.0000      -0.420870       -11.4524
  69   2.0000      -0.409474       -11.1423
  70   2.0000      -0.401697       -10.9307
  71   2.0000      -0.396284       -10.7834
  72   2.0000      -0.391666       -10.6578
  73   2.0000      -0.387903       -10.5554
  74   2.0000      -0.381883       -10.3916
  75   2.0000      -0.371995       -10.1225
  76   2.0000      -0.363121        -9.8810
  77   2.0000      -0.356977        -9.7138
  78   2.0000      -0.352337        -9.5876
  79   2.0000      -0.348622        -9.4865
  80   2.0000      -0.346937        -9.4406
  81   2.0000      -0.343324        -9.3423
  82   2.0000      -0.342470        -9.3191
  83   2.0000      -0.336019        -9.1435
  84   2.0000      -0.328278        -8.9329
  85   2.0000      -0.317775        -8.6471
  86   2.0000      -0.308928        -8.4064
  87   2.0000      -0.304822        -8.2946
  88   2.0000      -0.289498        -7.8776
  89   2.0000      -0.280252        -7.6261
  90   2.0000      -0.277962        -7.5637
  91   2.0000      -0.270574        -7.3627
  92   2.0000      -0.266272        -7.2456
  93   2.0000      -0.264106        -7.1867
  94   2.0000      -0.256804        -6.9880
  95   2.0000      -0.245889        -6.6910
  96   2.0000      -0.217850        -5.9280
  97   2.0000      -0.203782        -5.5452
  98   2.0000      -0.187062        -5.0902
  99   2.0000      -0.184004        -5.0070
 100   2.0000      -0.180694        -4.9169
 101   0.0000      -0.047183        -1.2839
 102   0.0000      -0.022473        -0.6115
 103   0.0000      -0.003923        -0.1067
 104   0.0000      -0.000519        -0.0141
 105   0.0000       0.024150         0.6572

MULLIKEN ATOMIC CHARGES
-----------------------
   0 C :   -0.303310
   1 C :   -0.004743
   2 O :   -0.377587
   3 P :    0.616568
   4 S :   -0.298839
   5 O :   -0.372078
   6 C :   -0.001476
   7 C :   -0.343933
   8 S :   -0.097350
   9 C :   -0.334459
  10 S :   -0.096033
  11 P :    0.616133
  12 S :   -0.281397
  13 O :   -0.395299
  14 C :   -0.008229
  15 C :   -0.316748
  16 O :   -0.368590
  17 C :   -0.023854
  18 C :   -0.283488
  19 H :    0.110448
  20 H :    0.123001
  21 H :    0.115992
  22 H :    0.099896
  23 H :    0.111605
  24 H :    0.101642
  25 H :    0.110488
  26 H :    0.113265
  27 H :    0.111340
  28 H :    0.158348
  29 H :    0.185180
  30 H :    0.186325
  31 H :    0.099510
  32 H :    0.115995
  33 H :    0.113540
  34 H :    0.113617
  35 H :    0.132875
  36 H :    0.113077
  37 H :    0.105622
  38 H :    0.124827
  39 H :    0.110450
  40 H :    0.117672
Sum of atomic charges:   -0.0000000

LOEWDIN ATOMIC CHARGES
----------------------
   0 C :   -0.363939
   1 C :   -0.119935
   2 O :   -0.245348
   3 P :    0.567770
   4 S :   -0.302503
   5 O :   -0.242916
   6 C :   -0.120050
   7 C :   -0.374716
   8 S :    0.088805
   9 C :   -0.471482
  10 S :    0.076611
  11 P :    0.564808
  12 S :   -0.285694
  13 O :   -0.255973
  14 C :   -0.122943
  15 C :   -0.365690
  16 O :   -0.245171
  17 C :   -0.120989
  18 C :   -0.351173
  19 H :    0.129598
  20 H :    0.123635
  21 H :    0.126215
  22 H :    0.115651
  23 H :    0.110588
  24 H :    0.116673
  25 H :    0.110053
  26 H :    0.122630
  27 H :    0.131290
  28 H :    0.121928
  29 H :    0.132986
  30 H :    0.133299
  31 H :    0.114902
  32 H :    0.110919
  33 H :    0.121052
  34 H :    0.131788
  35 H :    0.126626
  36 H :    0.115873
  37 H :    0.107320
  38 H :    0.131581
  39 H :    0.129952
  40 H :    0.125971

  Mayer bond orders larger than 0.100000
B(  0-C ,  1-C ) :   1.1668 B(  0-C , 19-H ) :   0.9394 B(  0-C , 20-H ) :   0.9363
B(  0-C , 21-H ) :   0.9462 B(  1-C ,  2-O ) :   0.9051 B(  1-C , 22-H ) :   0.9341
B(  1-C , 23-H ) :   0.9123 B(  2-O ,  3-P ) :   1.1017 B(  3-P ,  4-S ) :   1.6449
B(  3-P ,  5-O ) :   1.1066 B(  3-P ,  8-S ) :   0.9441 B(  4-S ,  8-S ) :   0.1159
B(  5-O ,  6-C ) :   0.9076 B(  6-C ,  7-C ) :   1.1655 B(  6-C , 24-H ) :   0.9333
B(  6-C , 25-H ) :   0.9109 B(  7-C , 26-H ) :   0.9445 B(  7-C , 27-H ) :   0.9382
B(  7-C , 28-H ) :   0.9197 B(  8-S ,  9-C ) :   1.0092 B(  9-C , 10-S ) :   0.9967
B(  9-C , 29-H ) :   0.9056 B(  9-C , 30-H ) :   0.9019 B( 10-S , 11-P ) :   0.9635
B( 10-S , 12-S ) :   0.1072 B( 11-P , 12-S ) :   1.6566 B( 11-P , 13-O ) :   1.0495
B( 11-P , 16-O ) :   1.1234 B( 13-O , 14-C ) :   0.9033 B( 14-C , 15-C ) :   1.1639
B( 14-C , 31-H ) :   0.9333 B( 14-C , 32-H ) :   0.9087 B( 15-C , 33-H ) :   0.9437
B( 15-C , 34-H ) :   0.9389 B( 15-C , 35-H ) :   0.9333 B( 16-O , 17-C ) :   0.8955
B( 17-C , 18-C ) :   1.1631 B( 17-C , 36-H ) :   0.9317 B( 17-C , 37-H ) :   0.9155
B( 18-C , 38-H ) :   0.9482 B( 18-C , 39-H ) :   0.9408 B( 18-C , 40-H ) :   0.9475

Dispersion correction           -0.066759764
FINAL SINGLE POINT ENERGY     -2929.514295733042

DIPOLE MOMENT
-------------

Method             : SCF
Type of density    : Electron Density
Multiplicity       :   1
Irrep              :   0
Energy             : -2929.6319127756164562 Eh
Relativity type    :
Basis              : AO
                                X                 Y                 Z
Electronic contribution:      6.405035776      -0.180841500      -5.007605626
Nuclear contribution   :     -6.836185860      -1.206615227       5.424140251
                        -----------------------------------------
Total Dipole Moment    :     -0.431150084      -1.387456726       0.416534625
                        -----------------------------------------
Magnitude (a.u.)       :      1.511432320
Magnitude (Debye)      :      3.841755647

Rotational constants in cm-1:             0.013843             0.004974             0.004490
Rotational constants in MHz :           415.005435           149.102962           134.602942

                             ****ORCA TERMINATED NORMALLY****
TOTAL RUN TIME: 0 days 0 hours 0 minutes 20 seconds 883 msec
