                         Program Version 6.0.1  -  RELEASE   -
|  1> ! pbe def2-sv(p) def2/J RI DEFGRID1 loosescf d4 GCP(DFT/SV(P)) printgap
|  2> %output
|  3>     printlevel normal
|  4> end
|  5> * xyz 0 1
|  6> C 3.3561119654 -3.14138685 0.4672061255
|  7> C 2.9810354929 -1.7334347558 0.9005299268
|  8> O 2.7256546779 -0.8902598149 -0.239089474
|  9> C 1.548044074 -0.9411976833 -0.8108822807
| 10> O 0.632585021 -1.6602177257 -0.4486200392
| 11> C 1.4268855676 0.011900633 -1.9775269155
| 12> C 0.2148504685 0.9214263528 -1.7948552607
| 13> H 0.0857437262 1.5492773266 -2.6824054622
| 14> C 0.2922458279 1.843137124 -0.5867627012
| 15> O -0.6913143847 2.3747534205 -0.1138580369
| 16> O 1.518469678 2.014651404 -0.1703321343
| 17> C 1.7336039419 2.8569037127 0.9809710177
| 18> C 3.2180760902 3.1446111631 1.0749812358
| 19> S -1.3721915398 0.0169290744 -1.7043729582
| 20> P -1.5755673984 -0.5211685043 0.3510394399
| 21> S -0.3709533332 -0.0310652576 1.8176698055
| 22> O -3.0731168603 0.0157513942 0.6259432302
| 23> C -3.4071511667 1.3879079499 0.8206395219
| 24> O -1.8916806505 -2.0676219247 0.3815967074
| 25> C -2.7651669246 -2.7161439716 -0.5597389228
| 26> H 2.51482842 -3.6154049753 -0.0334898964
| 27> H 4.2047239644 -3.1103012334 -0.2106286411
| 28> H 3.6165945518 -3.7258554855 1.3432980923
| 29> H 3.8049049432 -1.2427112636 1.4182334999
| 30> H 2.0901093105 -1.7406840835 1.5360301811
| 31> H 1.2855218122 -0.5751539407 -2.8865428334
| 32> H 2.3354538376 0.6078718824 -2.0484515608
| 33> H 1.1398087491 3.7675266872 0.8576929581
| 34> H 1.3628492876 2.3150389946 1.8576156446
| 35> H 3.5530064021 3.6849314082 0.1946967011
| 36> H 3.4077609386 3.7443767692 1.9585212672
| 37> H 3.7692132708 2.2121833723 1.1495991459
| 38> H -4.4342572238 1.390095122 1.1766314813
| 39> H -3.3182259546 1.9339400701 -0.1183943079
| 40> H -2.7421282626 1.8384872527 1.558801035
| 41> H -3.7456185881 -2.242488157 -0.5504340051
| 42> H -2.828355552 -3.746051358 -0.218102494
| 43> H -2.3312859382 -2.6679940284 -1.558283559
| 44> *
| 45>
| 46>                          ****END OF INPUT****

CARTESIAN COORDINATES (ANGSTROEM)
---------------------------------
  C      3.356112   -3.141387    0.467206
  C      2.981035   -1.733435    0.900530
  O      2.725655   -0.890260   -0.239089
  C      1.548044   -0.941198   -0.810882
  O      0.632585   -1.660218   -0.448620
  C      1.426886    0.011901   -1.977527
  C      0.214850    0.921426   -1.794855
  H      0.085744    1.549277   -2.682405
  C      0.292246    1.843137   -0.586763
  O     -0.691314    2.374753   -0.113858
  O      1.518470    2.014651   -0.170332
  C      1.733604    2.856904    0.980971
  C      3.218076    3.144611    1.074981
  S     -1.372192    0.016929   -1.704373
  P     -1.575567   -0.521169    0.351039
  S     -0.370953   -0.031065    1.817670
  O     -3.073117    0.015751    0.625943
  C     -3.407151    1.387908    0.820640
  O     -1.891681   -2.067622    0.381597
  C     -2.765167   -2.716144   -0.559739
  H      2.514828   -3.615405   -0.033490
  H      4.204724   -3.110301   -0.210629
  H      3.616595   -3.725855    1.343298
  H      3.804905   -1.242711    1.418233
  H      2.090109   -1.740684    1.536030
  H      1.285522   -0.575154   -2.886543
  H      2.335454    0.607872   -2.048452
  H      1.139809    3.767527    0.857693
  H      1.362849    2.315039    1.857616
  H      3.553006    3.684931    0.194697
  H      3.407761    3.744377    1.958521
  H      3.769213    2.212183    1.149599
  H     -4.434257    1.390095    1.176631
  H     -3.318226    1.933940   -0.118394
  H     -2.742128    1.838487    1.558801
  H     -3.745619   -2.242488   -0.550434
  H     -2.828356   -3.746051   -0.218102
  H     -2.331286   -2.667994   -1.558284

 Total Charge           Charge          ....    0
 Multiplicity           Mult            ....    1
 Number of Electrons    NEL             ....  174
 Basis Dimension        Dim             ....  316

ORBITAL ENERGIES
----------------

  NO   OCC          E(Eh)            E(eV)
   0   2.0000     -88.031366     -2395.4552
   1   2.0000     -87.969574     -2393.7738
   2   2.0000     -76.416070     -2079.3870
   3   2.0000     -18.811013      -511.8737
   4   2.0000     -18.805290      -511.7180
   5   2.0000     -18.775246      -510.9004
   6   2.0000     -18.768824      -510.7257
   7   2.0000     -18.737958      -509.8857
   8   2.0000     -18.737643      -509.8772
   9   2.0000     -10.016848      -272.5723
  10   2.0000     -10.011123      -272.4165
  11   2.0000      -9.953163      -270.8393
  12   2.0000      -9.947024      -270.6723
  13   2.0000      -9.942737      -270.5556
  14   2.0000      -9.937290      -270.4074
  15   2.0000      -9.920221      -269.9429
  16   2.0000      -9.912047      -269.7205
  17   2.0000      -9.889766      -269.1142
  18   2.0000      -9.883776      -268.9512
  19   2.0000      -7.676187      -208.8797
  20   2.0000      -7.614695      -207.2064
  21   2.0000      -6.411453      -174.4645
  22   2.0000      -5.704497      -155.2273
  23   2.0000      -5.700912      -155.1297
  24   2.0000      -5.692506      -154.9010
  25   2.0000      -5.644043      -153.5822
  26   2.0000      -5.635290      -153.3440
  27   2.0000      -5.634293      -153.3169
  28   2.0000      -4.634177      -126.1024
  29   2.0000      -4.633617      -126.0871
  30   2.0000      -4.631881      -126.0399
  31   2.0000      -1.019170       -27.7330
  32   2.0000      -1.012066       -27.5397
  33   2.0000      -0.967840       -26.3363
  34   2.0000      -0.921213       -25.0675
  35   2.0000      -0.918718       -24.9996
  36   2.0000      -0.915443       -24.9105
  37   2.0000      -0.763734       -20.7823
  38   2.0000      -0.709189       -19.2980
  39   2.0000      -0.707596       -19.2547
  40   2.0000      -0.685130       -18.6433
  41   2.0000      -0.654426       -17.8078
  42   2.0000      -0.621015       -16.8987
  43   2.0000      -0.613395       -16.6913
  44   2.0000      -0.607536       -16.5319
  45   2.0000      -0.593984       -16.1631
  46   2.0000      -0.565099       -15.3771
  47   2.0000      -0.513394       -13.9702
  48   2.0000      -0.500149       -13.6097
  49   2.0000      -0.496018       -13.4973
  50   2.0000      -0.479107       -13.0372
  51   2.0000      -0.459368       -12.5000
  52   2.0000      -0.451948       -12.2981
  53   2.0000      -0.450211       -12.2509
  54   2.0000      -0.434577       -11.8255
  55   2.0000      -0.431347       -11.7376
  56   2.0000      -0.418040       -11.3754
  57   2.0000      -0.411992       -11.2109
  58   2.0000      -0.410127       -11.1601
  59   2.0000      -0.395538       -10.7631
  60   2.0000      -0.394214       -10.7271
  61   2.0000      -0.387774       -10.5519
  62   2.0000      -0.385472       -10.4892
  63   2.0000      -0.380092       -10.3428
  64   2.0000      -0.375927       -10.2295
  65   2.0000      -0.365884        -9.9562
  66   2.0000      -0.360843        -9.8190
  67   2.0000      -0.354027        -9.6336
  68   2.0000      -0.351364        -9.5611
  69   2.0000      -0.337876        -9.1941
  70   2.0000      -0.335198        -9.1212
  71   2.0000      -0.320505        -8.7214
  72   2.0000      -0.318337        -8.6624
  73   2.0000      -0.306030        -8.3275
  74   2.0000      -0.303525        -8.2593
  75   2.0000      -0.292930        -7.9710
  76   2.0000      -0.282852        -7.6968
  77   2.0000      -0.280893        -7.6435
  78   2.0000      -0.266628        -7.2553
  79   2.0000      -0.260523        -7.0892
  80   2.0000      -0.252621        -6.8742
  81   2.0000      -0.247373        -6.7314
  82   2.0000      -0.231314        -6.2944
  83   2.0000      -0.226369        -6.1598
  84   2.0000      -0.196894        -5.3578
  85   2.0000      -0.189899        -5.1674
  86   2.0000      -0.178930        -4.8689
  87   0.0000      -0.044766        -1.2181
  88   0.0000      -0.034259        -0.9322
  89   0.0000      -0.029378        -0.7994
  90   0.0000       0.006411         0.1744
  91   0.0000       0.031524         0.8578

MULLIKEN ATOMIC CHARGES
-----------------------
   0 C :   -0.308319
   1 C :   -0.025416
   2 O :   -0.213764
   3 C :    0.101097
   4 O :   -0.209624
   5 C :    0.018430
   6 C :   -0.330784
   7 H :    0.154570
   8 C :    0.177905
   9 O :   -0.184404
  10 O :   -0.218544
  11 C :   -0.030121
  12 C :   -0.278343
  13 S :   -0.094568
  14 P :    0.631376
  15 S :   -0.328028
  16 O :   -0.394125
  17 C :   -0.091767
  18 O :   -0.355883
  19 C :   -0.106769
  20 H :    0.129373
  21 H :    0.108694
  22 H :    0.113875
  23 H :    0.098828
  24 H :    0.131700
  25 H :    0.113965
  26 H :    0.106967
  27 H :    0.107627
  28 H :    0.124510
  29 H :    0.111465
  30 H :    0.113092
  31 H :    0.119262
  32 H :    0.110043
  33 H :    0.112940
  34 H :    0.116009
  35 H :    0.119079
  36 H :    0.127402
  37 H :    0.122250
Sum of atomic charges:    0.0000000

LOEWDIN ATOMIC CHARGES
----------------------
   0 C :   -0.357248
   1 C :   -0.113855
   2 O :   -0.040727
   3 C :    0.029586
   4 O :   -0.175064
   5 C :   -0.252158
   6 C :   -0.258177
   7 H :    0.153522
   8 C :   -0.006113
   9 O :   -0.161659
  10 O :   -0.039995
  11 C :   -0.107028
  12 C :   -0.351022
  13 S :    0.103921
  14 P :    0.596378
  15 S :   -0.300372
  16 O :   -0.266849
  17 C :   -0.216318
  18 O :   -0.232545
  19 C :   -0.211593
  20 H :    0.131016
  21 H :    0.122030
  22 H :    0.131503
  23 H :    0.115823
  24 H :    0.123347
  25 H :    0.144847
  26 H :    0.138544
  27 H :    0.118141
  28 H :    0.119652
  29 H :    0.124535
  30 H :    0.131836
  31 H :    0.127821
  32 H :    0.113654
  33 H :    0.107731
  34 H :    0.109843
  35 H :    0.112433
  36 H :    0.124692
  37 H :    0.109867

  Mayer bond orders larger than 0.100000
B(  0-C ,  1-C ) :   1.1686 B(  0-C , 20-H ) :   0.9453 B(  0-C , 21-H ) :   0.9480
B(  0-C , 22-H ) :   0.9444 B(  1-C ,  2-O ) :   0.9093 B(  1-C , 23-H ) :   0.9374
B(  1-C , 24-H ) :   0.9067 B(  2-O ,  3-C ) :   1.2674 B(  3-C ,  4-O ) :   1.9387
B(  3-C ,  5-C ) :   1.0056 B(  5-C ,  6-C ) :   1.0278 B(  5-C , 25-H ) :   0.8785
B(  5-C , 26-H ) :   0.8812 B(  6-C ,  7-H ) :   0.8704 B(  6-C ,  8-C ) :   0.8924
B(  6-C , 13-S ) :   1.0440 B(  8-C ,  9-O ) :   2.0377 B(  8-C , 10-O ) :   1.2722
B( 10-O , 11-C ) :   0.8895 B( 11-C , 12-C ) :   1.1537 B( 11-C , 27-H ) :   0.9258
B( 11-C , 28-H ) :   0.9204 B( 12-C , 29-H ) :   0.9514 B( 12-C , 30-H ) :   0.9433
B( 12-C , 31-H ) :   0.9473 B( 13-S , 14-P ) :   0.9216 B( 13-S , 15-S ) :   0.1204
B( 14-P , 15-S ) :   1.5679 B( 14-P , 16-O ) :   1.0646 B( 14-P , 18-O ) :   1.1336
B( 16-O , 17-C ) :   0.9391 B( 17-C , 32-H ) :   0.9564 B( 17-C , 33-H ) :   0.9458
B( 17-C , 34-H ) :   0.9389 B( 18-O , 19-C ) :   0.9272 B( 19-C , 35-H ) :   0.9446
B( 19-C , 36-H ) :   0.9602 B( 19-C , 37-H ) :   0.9396

Dispersion correction           -0.056023767
FINAL SINGLE POINT ENERGY     -1979.004196651882

DIPOLE MOMENT
-------------

Method             : SCF
Type of density    : Electron Density
Multiplicity       :   1
Irrep              :   0
Energy             : -1979.1322821542394195 Eh
Relativity type    :
Basis              : AO
                                X                 Y                 Z
Electronic contribution:    -13.378082321      -0.609603319      -3.116213577
Nuclear contribution   :     14.365925341       0.816692574       2.258297357
                        -----------------------------------------
Total Dipole Moment    :      0.987843019       0.207089255      -0.857916219
                        -----------------------------------------
Magnitude (a.u.)       :      1.324666007
Magnitude (Debye)      :      3.367033408

Rotational constants in cm-1:             0.012429             0.009381             0.007170
Rotational constants in MHz :           372.607455           281.226737           214.961464

                             ****ORCA TERMINATED NORMALLY****
TOTAL RUN TIME: 0 days 0 hours 0 minutes 42 seconds 687 msec
