                         Program Version 6.0.0  -   RELEASE  -
|  1> ! pbe def2-sv(p) def2/J RI DEFGRID1 loosescf d4 GCP(DFT/SV(P)) printgap
|  2> %output
|  3>     printlevel normal
|  4> end
|  5> * xyz 0 1
|  6> C 3.0132262764 1.7301466733 -2.7577329306
|  7> C 3.1016243487 1.4983249056 -1.2648167566
|  8> O 2.5065797776 0.2098483041 -0.9849623548
|  9> P 2.0955415352 -0.2090544317 0.4759475716
| 10> S 1.1242958134 1.0802470456 1.5962217075
| 11> O 3.5255444772 -0.5763806123 1.0808840024
| 12> C 3.7060330209 -0.9210200336 2.468159405
| 13> C 5.1660229655 -0.7139495219 2.8175945054
| 14> S 1.1763205855 -2.0659419007 0.1252508262
| 15> C -0.4194328637 -1.8297967259 0.9872073137
| 16> S -1.8595066329 -1.9107591724 -0.1045734616
| 17> P -1.9917039087 0.0964692849 -0.7335334051
| 18> S -0.5233400564 0.9467499084 -1.7068965296
| 19> O -2.3416961523 0.7803000122 0.6695544804
| 20> C -2.162464128 2.1861271732 0.9011338686
| 21> C -3.2201973805 3.003268284 0.1897541697
| 22> O -3.279298072 0.0992679828 -1.6557974364
| 23> C -4.4519539598 -0.7340731986 -1.4973777882
| 24> C -5.2081829221 -0.4403307451 -0.2191453898
| 25> H 3.4537074592 2.6922201256 -2.9973952794
| 26> H 3.5414656636 0.9431654515 -3.2875482047
| 27> H 1.9700268527 1.7223053808 -3.0652946677
| 28> H 2.5477114076 2.2635371654 -0.7104146111
| 29> H 4.1373048885 1.4752683435 -0.9165812974
| 30> H 3.0545668307 -0.2815061345 3.0736502315
| 31> H 3.4090453106 -1.9650249828 2.5982423712
| 32> H 5.4384611585 0.3295537075 2.6866333738
| 33> H 5.3274067144 -0.9988141593 3.8519854136
| 34> H 5.7910405692 -1.3249443846 2.1728084655
| 35> H -0.402128337 -0.8691870486 1.5090960864
| 36> H -0.5349785053 -2.658042981 1.6809999853
| 37> H -2.2203318453 2.2883854551 1.9857431368
| 38> H -1.1602682071 2.4735422902 0.5668316445
| 39> H -3.0603275678 4.0564229125 0.3980395044
| 40> H -3.1468593503 2.837853698 -0.8851924333
| 41> H -4.2114807957 2.7150364152 0.5286869535
| 42> H -5.0466046256 -0.4967228746 -2.3812080149
| 43> H -4.1370972863 -1.7797724817 -1.5336390744
| 44> H -6.0931946336 -1.0678218613 -0.1821822684
| 45> H -4.5849579208 -0.6554916037 0.6459092537
| 46> H -5.5098013031 0.6033502063 -0.1898723169
| 47> *
| 48>
| 49>                          ****END OF INPUT****

CARTESIAN COORDINATES (ANGSTROEM)
---------------------------------
  C      3.013226    1.730147   -2.757733
  C      3.101624    1.498325   -1.264817
  O      2.506580    0.209848   -0.984962
  P      2.095542   -0.209054    0.475948
  S      1.124296    1.080247    1.596222
  O      3.525544   -0.576381    1.080884
  C      3.706033   -0.921020    2.468159
  C      5.166023   -0.713950    2.817595
  S      1.176321   -2.065942    0.125251
  C     -0.419433   -1.829797    0.987207
  S     -1.859507   -1.910759   -0.104573
  P     -1.991704    0.096469   -0.733533
  S     -0.523340    0.946750   -1.706897
  O     -2.341696    0.780300    0.669554
  C     -2.162464    2.186127    0.901134
  C     -3.220197    3.003268    0.189754
  O     -3.279298    0.099268   -1.655797
  C     -4.451954   -0.734073   -1.497378
  C     -5.208183   -0.440331   -0.219145
  H      3.453707    2.692220   -2.997395
  H      3.541466    0.943165   -3.287548
  H      1.970027    1.722305   -3.065295
  H      2.547711    2.263537   -0.710415
  H      4.137305    1.475268   -0.916581
  H      3.054567   -0.281506    3.073650
  H      3.409045   -1.965025    2.598242
  H      5.438461    0.329554    2.686633
  H      5.327407   -0.998814    3.851985
  H      5.791041   -1.324944    2.172808
  H     -0.402128   -0.869187    1.509096
  H     -0.534979   -2.658043    1.681000
  H     -2.220332    2.288385    1.985743
  H     -1.160268    2.473542    0.566832
  H     -3.060328    4.056423    0.398040
  H     -3.146859    2.837854   -0.885192
  H     -4.211481    2.715036    0.528687
  H     -5.046605   -0.496723   -2.381208
  H     -4.137097   -1.779772   -1.533639
  H     -6.093195   -1.067822   -0.182182
  H     -4.584958   -0.655492    0.645909
  H     -5.509801    0.603350   -0.189872

 Total Charge           Charge          ....    0
 Multiplicity           Mult            ....    1
 Number of Electrons    NEL             ....  202
 Basis Dimension        Dim             ....  334

ORBITAL ENERGIES
----------------

  NO   OCC          E(Eh)            E(eV)
   0   2.0000     -88.043005     -2395.7720
   1   2.0000     -88.040618     -2395.7070
   2   2.0000     -87.985224     -2394.1997
   3   2.0000     -87.972703     -2393.8589
   4   2.0000     -76.421939     -2079.5467
   5   2.0000     -76.419886     -2079.4908
   6   2.0000     -18.789854      -511.2979
   7   2.0000     -18.784652      -511.1564
   8   2.0000     -18.784521      -511.1528
   9   2.0000     -18.784132      -511.1422
  10   2.0000      -9.958431      -270.9827
  11   2.0000      -9.957424      -270.9553
  12   2.0000      -9.947864      -270.6951
  13   2.0000      -9.946436      -270.6563
  14   2.0000      -9.939495      -270.4674
  15   2.0000      -9.888496      -269.0797
  16   2.0000      -9.885881      -269.0085
  17   2.0000      -9.878688      -268.8128
  18   2.0000      -9.877472      -268.7797
  19   2.0000      -7.688533      -209.2156
  20   2.0000      -7.686267      -209.1540
  21   2.0000      -7.630012      -207.6232
  22   2.0000      -7.617784      -207.2904
  23   2.0000      -6.419748      -174.6902
  24   2.0000      -6.417552      -174.6305
  25   2.0000      -5.716460      -155.5528
  26   2.0000      -5.714145      -155.4898
  27   2.0000      -5.712878      -155.4553
  28   2.0000      -5.710744      -155.3972
  29   2.0000      -5.705513      -155.2549
  30   2.0000      -5.703175      -155.1913
  31   2.0000      -5.658655      -153.9798
  32   2.0000      -5.651156      -153.7758
  33   2.0000      -5.649863      -153.7406
  34   2.0000      -5.646868      -153.6591
  35   2.0000      -5.638567      -153.4332
  36   2.0000      -5.637556      -153.4057
  37   2.0000      -4.642028      -126.3160
  38   2.0000      -4.641364      -126.2979
  39   2.0000      -4.640546      -126.2757
  40   2.0000      -4.640448      -126.2730
  41   2.0000      -4.639292      -126.2416
  42   2.0000      -4.637752      -126.1996
  43   2.0000      -0.981465       -26.7070
  44   2.0000      -0.978912       -26.6375
  45   2.0000      -0.941235       -25.6123
  46   2.0000      -0.937696       -25.5160
  47   2.0000      -0.761152       -20.7120
  48   2.0000      -0.720543       -19.6070
  49   2.0000      -0.708621       -19.2826
  50   2.0000      -0.688775       -18.7425
  51   2.0000      -0.684298       -18.6207
  52   2.0000      -0.670794       -18.2532
  53   2.0000      -0.647264       -17.6129
  54   2.0000      -0.632580       -17.2134
  55   2.0000      -0.592969       -16.1355
  56   2.0000      -0.585915       -15.9436
  57   2.0000      -0.573134       -15.5958
  58   2.0000      -0.565086       -15.3768
  59   2.0000      -0.556437       -15.1414
  60   2.0000      -0.505316       -13.7503
  61   2.0000      -0.491629       -13.3779
  62   2.0000      -0.476173       -12.9573
  63   2.0000      -0.472574       -12.8594
  64   2.0000      -0.452108       -12.3025
  65   2.0000      -0.443668       -12.0728
  66   2.0000      -0.435757       -11.8575
  67   2.0000      -0.432057       -11.7569
  68   2.0000      -0.426048       -11.5934
  69   2.0000      -0.416006       -11.3201
  70   2.0000      -0.408784       -11.1236
  71   2.0000      -0.395586       -10.7644
  72   2.0000      -0.389940       -10.6108
  73   2.0000      -0.382917       -10.4197
  74   2.0000      -0.379139       -10.3169
  75   2.0000      -0.366233        -9.9657
  76   2.0000      -0.362040        -9.8516
  77   2.0000      -0.354382        -9.6432
  78   2.0000      -0.352353        -9.5880
  79   2.0000      -0.347345        -9.4517
  80   2.0000      -0.345214        -9.3937
  81   2.0000      -0.341525        -9.2934
  82   2.0000      -0.336922        -9.1681
  83   2.0000      -0.336037        -9.1440
  84   2.0000      -0.327870        -8.9218
  85   2.0000      -0.311358        -8.4725
  86   2.0000      -0.309017        -8.4088
  87   2.0000      -0.303800        -8.2668
  88   2.0000      -0.296379        -8.0649
  89   2.0000      -0.288877        -7.8607
  90   2.0000      -0.275209        -7.4888
  91   2.0000      -0.269087        -7.3222
  92   2.0000      -0.265383        -7.2214
  93   2.0000      -0.259887        -7.0719
  94   2.0000      -0.256842        -6.9890
  95   2.0000      -0.237048        -6.4504
  96   2.0000      -0.219547        -5.9742
  97   2.0000      -0.207829        -5.6553
  98   2.0000      -0.205608        -5.5949
  99   2.0000      -0.190285        -5.1779
 100   2.0000      -0.179153        -4.8750
 101   0.0000      -0.037370        -1.0169
 102   0.0000      -0.027963        -0.7609
 103   0.0000      -0.013684        -0.3724
 104   0.0000       0.008977         0.2443
 105   0.0000       0.023685         0.6445

MULLIKEN ATOMIC CHARGES
-----------------------
   0 C :   -0.285933
   1 C :   -0.005153
   2 O :   -0.359281
   3 P :    0.631848
   4 S :   -0.335987
   5 O :   -0.383163
   6 C :   -0.005296
   7 C :   -0.281097
   8 S :   -0.072870
   9 C :   -0.351294
  10 S :   -0.109723
  11 P :    0.625198
  12 S :   -0.317485
  13 O :   -0.385169
  14 C :   -0.018996
  15 C :   -0.312595
  16 O :   -0.371028
  17 C :   -0.027294
  18 C :   -0.314529
  19 H :    0.106749
  20 H :    0.114962
  21 H :    0.138471
  22 H :    0.107751
  23 H :    0.100370
  24 H :    0.100428
  25 H :    0.093413
  26 H :    0.116644
  27 H :    0.109859
  28 H :    0.116549
  29 H :    0.204296
  30 H :    0.182412
  31 H :    0.100404
  32 H :    0.131001
  33 H :    0.110251
  34 H :    0.126934
  35 H :    0.114240
  36 H :    0.114338
  37 H :    0.124518
  38 H :    0.112386
  39 H :    0.128583
  40 H :    0.125289
Sum of atomic charges:   -0.0000000

LOEWDIN ATOMIC CHARGES
----------------------
   0 C :   -0.351428
   1 C :   -0.112742
   2 O :   -0.231693
   3 P :    0.571233
   4 S :   -0.304930
   5 O :   -0.255345
   6 C :   -0.123406
   7 C :   -0.350666
   8 S :    0.088165
   9 C :   -0.476686
  10 S :    0.081161
  11 P :    0.565717
  12 S :   -0.307500
  13 O :   -0.249913
  14 C :   -0.127251
  15 C :   -0.365447
  16 O :   -0.242481
  17 C :   -0.116636
  18 C :   -0.367954
  19 H :    0.128760
  20 H :    0.126965
  21 H :    0.129827
  22 H :    0.110782
  23 H :    0.110467
  24 H :    0.103662
  25 H :    0.106934
  26 H :    0.126980
  27 H :    0.129691
  28 H :    0.126620
  29 H :    0.124915
  30 H :    0.137265
  31 H :    0.116292
  32 H :    0.108142
  33 H :    0.130220
  34 H :    0.125083
  35 H :    0.119912
  36 H :    0.124069
  37 H :    0.109607
  38 H :    0.131305
  39 H :    0.123637
  40 H :    0.126663

  Mayer bond orders larger than 0.100000
B(  0-C ,  1-C ) :   1.1645 B(  0-C , 19-H ) :   0.9406 B(  0-C , 20-H ) :   0.9493
B(  0-C , 21-H ) :   0.9445 B(  1-C ,  2-O ) :   0.8907 B(  1-C , 22-H ) :   0.9147
B(  1-C , 23-H ) :   0.9303 B(  2-O ,  3-P ) :   1.1584 B(  3-P ,  4-S ) :   1.5938
B(  3-P ,  5-O ) :   1.0885 B(  3-P ,  8-S ) :   0.9743 B(  4-S ,  8-S ) :   0.1187
B(  4-S , 29-H ) :   0.1075 B(  5-O ,  6-C ) :   0.9137 B(  6-C ,  7-C ) :   1.1613
B(  6-C , 24-H ) :   0.9052 B(  6-C , 25-H ) :   0.9272 B(  7-C , 26-H ) :   0.9516
B(  7-C , 27-H ) :   0.9424 B(  7-C , 28-H ) :   0.9510 B(  8-S ,  9-C ) :   1.0037
B(  9-C , 10-S ) :   1.0025 B(  9-C , 29-H ) :   0.8455 B(  9-C , 30-H ) :   0.9125
B( 10-S , 11-P ) :   0.9570 B( 10-S , 12-S ) :   0.1055 B( 11-P , 12-S ) :   1.6579
B( 11-P , 13-O ) :   1.0692 B( 11-P , 16-O ) :   1.1132 B( 13-O , 14-C ) :   0.9021
B( 14-C , 15-C ) :   1.1586 B( 14-C , 31-H ) :   0.9354 B( 14-C , 32-H ) :   0.9017
B( 15-C , 33-H ) :   0.9396 B( 15-C , 34-H ) :   0.9366 B( 15-C , 35-H ) :   0.9404
B( 16-O , 17-C ) :   0.9065 B( 17-C , 18-C ) :   1.1637 B( 17-C , 36-H ) :   0.9342
B( 17-C , 37-H ) :   0.9203 B( 18-C , 38-H ) :   0.9357 B( 18-C , 39-H ) :   0.9347
B( 18-C , 40-H ) :   0.9399

Dispersion correction           -0.065294662
FINAL SINGLE POINT ENERGY     -2929.517281721442

DIPOLE MOMENT
-------------

Method             : SCF
Type of density    : Electron Density
Multiplicity       :   1
Irrep              :   0
Energy             : -2929.6365707932591249 Eh
Relativity type    :
Basis              : AO
                                X                 Y                 Z
Electronic contribution:      1.080379962     -11.863662087      -4.598715533
Nuclear contribution   :     -1.432738488      11.707253038       5.425768721
                        -----------------------------------------
Total Dipole Moment    :     -0.352358527      -0.156409049       0.827053188
                        -----------------------------------------
Magnitude (a.u.)       :      0.912489615
Magnitude (Debye)      :      2.319364279

Rotational constants in cm-1:             0.012937             0.004877             0.004526
Rotational constants in MHz :           387.835436           146.215979           135.699663

                             ****ORCA TERMINATED NORMALLY****
TOTAL RUN TIME: 0 days 0 hours 0 minutes 20 seconds 803 msec
