                         Program Version 6.0.0  -   RELEASE  -
|  1> ! pbe def2-sv(p) def2/J RI DEFGRID1 loosescf d4 GCP(DFT/SV(P)) printgap
|  2> %output
|  3>     printlevel normal
|  4> end
|  5> * xyz 0 1
|  6> C 3.3689140459 -0.7184444851 -3.1593868122
|  7> C 4.1940907972 -0.5363234642 -1.9034848358
|  8> O 3.5809390503 0.3588699134 -0.954892235
|  9> P 2.0908056447 0.2499079976 -0.4167634211
| 10> S 0.6932929142 0.9744810969 -1.5828367884
| 11> O 2.1587457009 1.1175553523 0.8944196957
| 12> C 3.1647177243 1.0129870065 1.9326725147
| 13> C 2.6797939904 0.1465483242 3.0787598273
| 14> S 1.9901588972 -1.8098789537 0.1239996739
| 15> C 0.3452837663 -1.8884986919 0.873574507
| 16> S -1.0176687526 -1.7120120762 -0.3241778436
| 17> P -1.9131027997 0.0306280926 0.458731896
| 18> S -0.9822121689 1.0497838988 1.8388509506
| 19> O -3.2467237132 -0.6887989898 0.9904384283
| 20> C -4.1013774279 -0.0859120582 1.9777159325
| 21> C -4.8936503904 1.0730668152 1.4066567797
| 22> O -2.3519075165 0.929801908 -0.767141051
| 23> C -2.9035944401 0.3598106458 -1.9786793985
| 24> C -3.7886722966 1.4043049418 -2.6251644512
| 25> H 3.9147806542 -1.3392409113 -3.862330095
| 26> H 2.421871149 -1.2005989279 -2.9199248947
| 27> H 3.1555152303 0.245051944 -3.6165166171
| 28> H 5.1517429401 -0.0597274335 -2.1205027433
| 29> H 4.358108702 -1.4959168407 -1.4058221101
| 30> H 4.0880351101 0.6283864341 1.4959175603
| 31> H 3.3094461899 2.0449810664 2.2560339153
| 32> H 3.3622524733 0.2554856476 3.9155504314
| 33> H 1.6868022729 0.4690555181 3.3858130871
| 34> H 2.6430611361 -0.9003753567 2.7877763377
| 35> H 0.2455523011 -1.1049108839 1.6295304176
| 36> H 0.2761288693 -2.879796449 1.313883326
| 37> H -4.7501960367 -0.9021129439 2.298546333
| 38> H -3.4800836804 0.2476855909 2.81527045
| 39> H -5.5543556908 1.4693796744 2.1713374088
| 40> H -4.213279297 1.8609449425 1.0830986691
| 41> H -5.4845322035 0.743712922 0.5555631585
| 42> H -2.0596071129 0.0992819166 -2.623189972
| 43> H -3.4621463528 -0.5454863255 -1.7222296642
| 44> H -4.1727893634 1.0119125573 -3.5610155552
| 45> H -4.6182602902 1.6579707758 -1.9709566071
| 46> H -3.2085316827 2.3016206821 -2.8213216406
| 47> *
| 48>
| 49>                          ****END OF INPUT****

CARTESIAN COORDINATES (ANGSTROEM)
---------------------------------
  C      3.368914   -0.718444   -3.159387
  C      4.194091   -0.536323   -1.903485
  O      3.580939    0.358870   -0.954892
  P      2.090806    0.249908   -0.416763
  S      0.693293    0.974481   -1.582837
  O      2.158746    1.117555    0.894420
  C      3.164718    1.012987    1.932673
  C      2.679794    0.146548    3.078760
  S      1.990159   -1.809879    0.124000
  C      0.345284   -1.888499    0.873575
  S     -1.017669   -1.712012   -0.324178
  P     -1.913103    0.030628    0.458732
  S     -0.982212    1.049784    1.838851
  O     -3.246724   -0.688799    0.990438
  C     -4.101377   -0.085912    1.977716
  C     -4.893650    1.073067    1.406657
  O     -2.351908    0.929802   -0.767141
  C     -2.903594    0.359811   -1.978679
  C     -3.788672    1.404305   -2.625164
  H      3.914781   -1.339241   -3.862330
  H      2.421871   -1.200599   -2.919925
  H      3.155515    0.245052   -3.616517
  H      5.151743   -0.059727   -2.120503
  H      4.358109   -1.495917   -1.405822
  H      4.088035    0.628386    1.495918
  H      3.309446    2.044981    2.256034
  H      3.362252    0.255486    3.915550
  H      1.686802    0.469056    3.385813
  H      2.643061   -0.900375    2.787776
  H      0.245552   -1.104911    1.629530
  H      0.276129   -2.879796    1.313883
  H     -4.750196   -0.902113    2.298546
  H     -3.480084    0.247686    2.815270
  H     -5.554356    1.469380    2.171337
  H     -4.213279    1.860945    1.083099
  H     -5.484532    0.743713    0.555563
  H     -2.059607    0.099282   -2.623190
  H     -3.462146   -0.545486   -1.722230
  H     -4.172789    1.011913   -3.561016
  H     -4.618260    1.657971   -1.970957
  H     -3.208532    2.301621   -2.821322

 Total Charge           Charge          ....    0
 Multiplicity           Mult            ....    1
 Number of Electrons    NEL             ....  202
 Basis Dimension        Dim             ....  334

ORBITAL ENERGIES
----------------

  NO   OCC          E(Eh)            E(eV)
   0   2.0000     -88.042621     -2395.7615
   1   2.0000     -88.034568     -2395.5424
   2   2.0000     -87.981155     -2394.0889
   3   2.0000     -87.971721     -2393.8322
   4   2.0000     -76.419791     -2079.4882
   5   2.0000     -76.417728     -2079.4321
   6   2.0000     -18.788276      -511.2550
   7   2.0000     -18.785729      -511.1857
   8   2.0000     -18.780841      -511.0527
   9   2.0000     -18.778245      -510.9820
  10   2.0000      -9.957225      -270.9499
  11   2.0000      -9.956108      -270.9195
  12   2.0000      -9.951361      -270.7903
  13   2.0000      -9.949816      -270.7483
  14   2.0000      -9.944112      -270.5931
  15   2.0000      -9.886291      -269.0197
  16   2.0000      -9.881499      -268.8893
  17   2.0000      -9.880669      -268.8667
  18   2.0000      -9.880524      -268.8627
  19   2.0000      -7.687488      -209.1872
  20   2.0000      -7.680010      -208.9837
  21   2.0000      -7.626365      -207.5239
  22   2.0000      -7.616740      -207.2620
  23   2.0000      -6.416810      -174.6103
  24   2.0000      -6.415660      -174.5790
  25   2.0000      -5.715063      -155.5148
  26   2.0000      -5.711968      -155.4306
  27   2.0000      -5.707963      -155.3216
  28   2.0000      -5.704850      -155.2369
  29   2.0000      -5.704827      -155.2362
  30   2.0000      -5.696473      -155.0089
  31   2.0000      -5.655279      -153.8880
  32   2.0000      -5.647390      -153.6733
  33   2.0000      -5.645986      -153.6351
  34   2.0000      -5.645913      -153.6331
  35   2.0000      -5.637238      -153.3970
  36   2.0000      -5.636764      -153.3842
  37   2.0000      -4.639799      -126.2553
  38   2.0000      -4.638938      -126.2319
  39   2.0000      -4.638428      -126.2180
  40   2.0000      -4.637107      -126.1821
  41   2.0000      -4.636630      -126.1691
  42   2.0000      -4.636241      -126.1585
  43   2.0000      -0.982096       -26.7242
  44   2.0000      -0.976641       -26.5758
  45   2.0000      -0.938002       -25.5243
  46   2.0000      -0.935069       -25.4445
  47   2.0000      -0.759060       -20.6551
  48   2.0000      -0.716827       -19.5059
  49   2.0000      -0.708365       -19.2756
  50   2.0000      -0.687405       -18.7052
  51   2.0000      -0.686606       -18.6835
  52   2.0000      -0.670603       -18.2480
  53   2.0000      -0.646685       -17.5972
  54   2.0000      -0.632688       -17.2163
  55   2.0000      -0.589052       -16.0289
  56   2.0000      -0.581926       -15.8350
  57   2.0000      -0.572243       -15.5715
  58   2.0000      -0.568649       -15.4737
  59   2.0000      -0.560369       -15.2484
  60   2.0000      -0.502460       -13.6726
  61   2.0000      -0.496165       -13.5013
  62   2.0000      -0.471982       -12.8433
  63   2.0000      -0.466677       -12.6989
  64   2.0000      -0.450721       -12.2647
  65   2.0000      -0.444649       -12.0995
  66   2.0000      -0.437547       -11.9063
  67   2.0000      -0.434390       -11.8203
  68   2.0000      -0.430074       -11.7029
  69   2.0000      -0.413236       -11.2447
  70   2.0000      -0.402596       -10.9552
  71   2.0000      -0.394719       -10.7408
  72   2.0000      -0.391674       -10.6580
  73   2.0000      -0.385798       -10.4981
  74   2.0000      -0.380377       -10.3506
  75   2.0000      -0.364880        -9.9289
  76   2.0000      -0.354997        -9.6600
  77   2.0000      -0.351688        -9.5699
  78   2.0000      -0.350167        -9.5285
  79   2.0000      -0.344259        -9.3678
  80   2.0000      -0.342009        -9.3065
  81   2.0000      -0.341182        -9.2840
  82   2.0000      -0.338043        -9.1986
  83   2.0000      -0.336997        -9.1702
  84   2.0000      -0.332692        -9.0530
  85   2.0000      -0.315534        -8.5861
  86   2.0000      -0.312492        -8.5033
  87   2.0000      -0.303590        -8.2611
  88   2.0000      -0.293181        -7.9779
  89   2.0000      -0.287098        -7.8123
  90   2.0000      -0.272136        -7.4052
  91   2.0000      -0.270403        -7.3580
  92   2.0000      -0.266153        -7.2424
  93   2.0000      -0.259884        -7.0718
  94   2.0000      -0.255276        -6.9464
  95   2.0000      -0.237371        -6.4592
  96   2.0000      -0.213551        -5.8110
  97   2.0000      -0.204183        -5.5561
  98   2.0000      -0.197475        -5.3736
  99   2.0000      -0.180706        -4.9173
 100   2.0000      -0.179294        -4.8788
 101   0.0000      -0.039311        -1.0697
 102   0.0000      -0.028330        -0.7709
 103   0.0000      -0.009714        -0.2643
 104   0.0000       0.003522         0.0958
 105   0.0000       0.023593         0.6420

MULLIKEN ATOMIC CHARGES
-----------------------
   0 C :   -0.309630
   1 C :   -0.013282
   2 O :   -0.381524
   3 P :    0.602372
   4 S :   -0.299944
   5 O :   -0.341972
   6 C :   -0.003243
   7 C :   -0.311954
   8 S :   -0.138610
   9 C :   -0.343446
  10 S :   -0.078320
  11 P :    0.612130
  12 S :   -0.300569
  13 O :   -0.384290
  14 C :   -0.004881
  15 C :   -0.321632
  16 O :   -0.360662
  17 C :   -0.033590
  18 C :   -0.280383
  19 H :    0.109207
  20 H :    0.127880
  21 H :    0.128112
  22 H :    0.109524
  23 H :    0.113501
  24 H :    0.099920
  25 H :    0.110675
  26 H :    0.107905
  27 H :    0.138199
  28 H :    0.117510
  29 H :    0.198367
  30 H :    0.182696
  31 H :    0.100638
  32 H :    0.106575
  33 H :    0.110523
  34 H :    0.133900
  35 H :    0.114520
  36 H :    0.123460
  37 H :    0.104960
  38 H :    0.110393
  39 H :    0.116846
  40 H :    0.128120
Sum of atomic charges:   -0.0000000

LOEWDIN ATOMIC CHARGES
----------------------
   0 C :   -0.371191
   1 C :   -0.115013
   2 O :   -0.246818
   3 P :    0.561085
   4 S :   -0.300940
   5 O :   -0.225325
   6 C :   -0.109847
   7 C :   -0.367794
   8 S :    0.056491
   9 C :   -0.476793
  10 S :    0.082956
  11 P :    0.573019
  12 S :   -0.287601
  13 O :   -0.264762
  14 C :   -0.122619
  15 C :   -0.366689
  16 O :   -0.234493
  17 C :   -0.121823
  18 C :   -0.349161
  19 H :    0.128999
  20 H :    0.121960
  21 H :    0.130743
  22 H :    0.121478
  23 H :    0.107117
  24 H :    0.107981
  25 H :    0.123099
  26 H :    0.128717
  27 H :    0.130205
  28 H :    0.116376
  29 H :    0.121566
  30 H :    0.137905
  31 H :    0.116077
  32 H :    0.106628
  33 H :    0.129767
  34 H :    0.126838
  35 H :    0.121220
  36 H :    0.115672
  37 H :    0.105734
  38 H :    0.130454
  39 H :    0.125200
  40 H :    0.133580

  Mayer bond orders larger than 0.100000
B(  0-C ,  1-C ) :   1.1682 B(  0-C , 19-H ) :   0.9341 B(  0-C , 20-H ) :   0.9312
B(  0-C , 21-H ) :   0.9415 B(  1-C ,  2-O ) :   0.9142 B(  1-C , 22-H ) :   0.9334
B(  1-C , 23-H ) :   0.9259 B(  2-O ,  3-P ) :   1.0808 B(  3-P ,  4-S ) :   1.6664
B(  3-P ,  5-O ) :   1.1420 B(  3-P ,  8-S ) :   0.9311 B(  4-S ,  8-S ) :   0.1175
B(  5-O ,  6-C ) :   0.8999 B(  6-C ,  7-C ) :   1.1693 B(  6-C , 24-H ) :   0.9196
B(  6-C , 25-H ) :   0.9349 B(  7-C , 26-H ) :   0.9382 B(  7-C , 27-H ) :   0.9355
B(  7-C , 28-H ) :   0.9329 B(  8-S ,  9-C ) :   0.9884 B(  9-C , 10-S ) :   1.0181
B(  9-C , 29-H ) :   0.8470 B(  9-C , 30-H ) :   0.9120 B( 10-S , 11-P ) :   0.9544
B( 10-S , 12-S ) :   0.1094 B( 11-P , 12-S ) :   1.6207 B( 11-P , 13-O ) :   1.0664
B( 11-P , 16-O ) :   1.1183 B( 12-S , 29-H ) :   0.1069 B( 13-O , 14-C ) :   0.9249
B( 14-C , 15-C ) :   1.1592 B( 14-C , 31-H ) :   0.9350 B( 14-C , 32-H ) :   0.9109
B( 15-C , 33-H ) :   0.9386 B( 15-C , 34-H ) :   0.9368 B( 15-C , 35-H ) :   0.9439
B( 16-O , 17-C ) :   0.8980 B( 17-C , 18-C ) :   1.1683 B( 17-C , 36-H ) :   0.9183
B( 17-C , 37-H ) :   0.9161 B( 18-C , 38-H ) :   0.9404 B( 18-C , 39-H ) :   0.9487
B( 18-C , 40-H ) :   0.9478

Dispersion correction           -0.067466420
FINAL SINGLE POINT ENERGY     -2929.507165258522

DIPOLE MOMENT
-------------

Method             : SCF
Type of density    : Electron Density
Multiplicity       :   1
Irrep              :   0
Energy             : -2929.6246222905051582 Eh
Relativity type    :
Basis              : AO
                                X                 Y                 Z
Electronic contribution:      6.324666735      -3.122007616       0.981172213
Nuclear contribution   :     -6.171849293       2.264225750      -0.895589759
                        -----------------------------------------
Total Dipole Moment    :      0.152817442      -0.857781866       0.085582454
                        -----------------------------------------
Magnitude (a.u.)       :      0.875481157
Magnitude (Debye)      :      2.225296254

Rotational constants in cm-1:             0.012587             0.005441             0.004725
Rotational constants in MHz :           377.348353           163.131865           141.642109

                             ****ORCA TERMINATED NORMALLY****
TOTAL RUN TIME: 0 days 0 hours 0 minutes 21 seconds 597 msec
