                         Program Version 6.0.0  -   RELEASE  -
|  1> ! pbe def2-sv(p) def2/J RI DEFGRID1 loosescf d4 GCP(DFT/SV(P)) printgap
|  2> %output
|  3>     printlevel normal
|  4> end
|  5> * xyz 0 1
|  6> C 3.5836056217 1.6644454139 -1.8688174808
|  7> C 3.4031128913 0.1818565922 -2.118290869
|  8> O 2.2513741975 -0.3492149263 -1.4269381117
|  9> P 2.0596536813 -0.3273272785 0.1367642046
| 10> S 1.4152073417 1.2935440101 1.047176818
| 11> O 3.5099069373 -0.7946047516 0.6122774299
| 12> C 3.8953801457 -0.824414623 2.0005574797
| 13> C 4.7407632708 0.387161565 2.3428171261
| 14> S 0.8490931735 -2.0386800649 0.3996567626
| 15> C -0.4420124871 -1.3854765252 1.5128878693
| 16> S -2.1064750587 -1.4088149754 0.8035612756
| 17> P -2.0169758753 0.3292151689 -0.4253834498
| 18> S -0.7258453862 0.3824072344 -1.8949291046
| 19> O -1.808392593 1.5238971909 0.578399697
| 20> C -2.6434328519 1.7930663191 1.7326317309
| 21> C -3.7424519057 2.7764727128 1.3877197789
| 22> O -3.5323396753 0.4894427148 -0.8804866141
| 23> C -4.0566058988 -0.1441508815 -2.0604120137
| 24> C -4.0766734039 -1.65391492 -1.939234293
| 25> H 2.6728099708 2.1997456095 -2.1308080651
| 26> H 3.7991494965 1.8435814137 -0.8157957145
| 27> H 4.4066232095 2.0373392251 -2.4701470002
| 28> H 4.2831910284 -0.3824658533 -1.8019845672
| 29> H 3.1802677965 -0.0238446353 -3.1665997673
| 30> H 2.9989378338 -0.859381817 2.6256237759
| 31> H 4.458858788 -1.7519334006 2.1158478872
| 32> H 4.1520332188 1.2953605533 2.2318071919
| 33> H 5.0777440129 0.3083245874 3.3711847533
| 34> H 5.6031118925 0.4410299815 1.6843149806
| 35> H -0.1706577046 -0.3606955994 1.7873957981
| 36> H -0.4855207849 -2.0359142967 2.3820862115
| 37> H -3.0583860713 0.8498020888 2.0986010105
| 38> H -1.95113389 2.2089578089 2.467834513
| 39> H -4.4211648499 2.3429793715 0.6583206213
| 40> H -4.2928043589 3.0211755308 2.2908364615
| 41> H -3.31236217 3.683777175 0.9721622538
| 42> H -5.0630064384 0.2669361554 -2.1509642453
| 43> H -3.4484448146 0.1655826887 -2.9160176094
| 44> H -4.5953625457 -2.0756788806 -2.7941246473
| 45> H -3.0577265067 -2.0387106197 -1.9216544619
| 46> H -4.5807069981 -1.9543778878 -1.0240386649
| 47> *
| 48>
| 49>                          ****END OF INPUT****

CARTESIAN COORDINATES (ANGSTROEM)
---------------------------------
  C      3.583606    1.664445   -1.868817
  C      3.403113    0.181857   -2.118291
  O      2.251374   -0.349215   -1.426938
  P      2.059654   -0.327327    0.136764
  S      1.415207    1.293544    1.047177
  O      3.509907   -0.794605    0.612277
  C      3.895380   -0.824415    2.000557
  C      4.740763    0.387162    2.342817
  S      0.849093   -2.038680    0.399657
  C     -0.442012   -1.385477    1.512888
  S     -2.106475   -1.408815    0.803561
  P     -2.016976    0.329215   -0.425383
  S     -0.725845    0.382407   -1.894929
  O     -1.808393    1.523897    0.578400
  C     -2.643433    1.793066    1.732632
  C     -3.742452    2.776473    1.387720
  O     -3.532340    0.489443   -0.880487
  C     -4.056606   -0.144151   -2.060412
  C     -4.076673   -1.653915   -1.939234
  H      2.672810    2.199746   -2.130808
  H      3.799149    1.843581   -0.815796
  H      4.406623    2.037339   -2.470147
  H      4.283191   -0.382466   -1.801985
  H      3.180268   -0.023845   -3.166600
  H      2.998938   -0.859382    2.625624
  H      4.458859   -1.751933    2.115848
  H      4.152033    1.295361    2.231807
  H      5.077744    0.308325    3.371185
  H      5.603112    0.441030    1.684315
  H     -0.170658   -0.360696    1.787396
  H     -0.485521   -2.035914    2.382086
  H     -3.058386    0.849802    2.098601
  H     -1.951134    2.208958    2.467835
  H     -4.421165    2.342979    0.658321
  H     -4.292804    3.021176    2.290836
  H     -3.312362    3.683777    0.972162
  H     -5.063006    0.266936   -2.150964
  H     -3.448445    0.165583   -2.916018
  H     -4.595363   -2.075679   -2.794125
  H     -3.057727   -2.038711   -1.921654
  H     -4.580707   -1.954378   -1.024039

 Total Charge           Charge          ....    0
 Multiplicity           Mult            ....    1
 Number of Electrons    NEL             ....  202
 Basis Dimension        Dim             ....  334

ORBITAL ENERGIES
----------------

  NO   OCC          E(Eh)            E(eV)
   0   2.0000     -88.038378     -2395.6460
   1   2.0000     -88.034842     -2395.5498
   2   2.0000     -87.981951     -2394.1106
   3   2.0000     -87.972310     -2393.8483
   4   2.0000     -76.421797     -2079.5428
   5   2.0000     -76.417587     -2079.4283
   6   2.0000     -18.787343      -511.2296
   7   2.0000     -18.784645      -511.1562
   8   2.0000     -18.783968      -511.1378
   9   2.0000     -18.783845      -511.1344
  10   2.0000      -9.951868      -270.8041
  11   2.0000      -9.951783      -270.8018
  12   2.0000      -9.949922      -270.7511
  13   2.0000      -9.949752      -270.7465
  14   2.0000      -9.948830      -270.7214
  15   2.0000      -9.881377      -268.8859
  16   2.0000      -9.881088      -268.8781
  17   2.0000      -9.881040      -268.8768
  18   2.0000      -9.878116      -268.7972
  19   2.0000      -7.683320      -209.0738
  20   2.0000      -7.680286      -208.9912
  21   2.0000      -7.626840      -207.5369
  22   2.0000      -7.617394      -207.2798
  23   2.0000      -6.418829      -174.6652
  24   2.0000      -6.415074      -174.5630
  25   2.0000      -5.711026      -155.4049
  26   2.0000      -5.708146      -155.3266
  27   2.0000      -5.707711      -155.3147
  28   2.0000      -5.704822      -155.2361
  29   2.0000      -5.700591      -155.1210
  30   2.0000      -5.697202      -155.0288
  31   2.0000      -5.655581      -153.8962
  32   2.0000      -5.647891      -153.6869
  33   2.0000      -5.646721      -153.6551
  34   2.0000      -5.646467      -153.6482
  35   2.0000      -5.637863      -153.4141
  36   2.0000      -5.637540      -153.4053
  37   2.0000      -4.641678      -126.3065
  38   2.0000      -4.640304      -126.2691
  39   2.0000      -4.639388      -126.2442
  40   2.0000      -4.638105      -126.2092
  41   2.0000      -4.636916      -126.1769
  42   2.0000      -4.635035      -126.1257
  43   2.0000      -0.982282       -26.7293
  44   2.0000      -0.981504       -26.7081
  45   2.0000      -0.939787       -25.5729
  46   2.0000      -0.937017       -25.4975
  47   2.0000      -0.755947       -20.5704
  48   2.0000      -0.715782       -19.4774
  49   2.0000      -0.705539       -19.1987
  50   2.0000      -0.686012       -18.6673
  51   2.0000      -0.684659       -18.6305
  52   2.0000      -0.670348       -18.2411
  53   2.0000      -0.646518       -17.5927
  54   2.0000      -0.630173       -17.1479
  55   2.0000      -0.592127       -16.1126
  56   2.0000      -0.585103       -15.9215
  57   2.0000      -0.572158       -15.5692
  58   2.0000      -0.569972       -15.5097
  59   2.0000      -0.555979       -15.1290
  60   2.0000      -0.498242       -13.5578
  61   2.0000      -0.494761       -13.4631
  62   2.0000      -0.470230       -12.7956
  63   2.0000      -0.468104       -12.7378
  64   2.0000      -0.447296       -12.1715
  65   2.0000      -0.445704       -12.1282
  66   2.0000      -0.437130       -11.8949
  67   2.0000      -0.430312       -11.7094
  68   2.0000      -0.424332       -11.5467
  69   2.0000      -0.414273       -11.2729
  70   2.0000      -0.408334       -11.1113
  71   2.0000      -0.398922       -10.8552
  72   2.0000      -0.387800       -10.5526
  73   2.0000      -0.383451       -10.4342
  74   2.0000      -0.376208       -10.2371
  75   2.0000      -0.365815        -9.9543
  76   2.0000      -0.359612        -9.7855
  77   2.0000      -0.353760        -9.6263
  78   2.0000      -0.349812        -9.5189
  79   2.0000      -0.347672        -9.4606
  80   2.0000      -0.343506        -9.3473
  81   2.0000      -0.341885        -9.3032
  82   2.0000      -0.335111        -9.1188
  83   2.0000      -0.331180        -9.0119
  84   2.0000      -0.330358        -8.9895
  85   2.0000      -0.312494        -8.5034
  86   2.0000      -0.309196        -8.4136
  87   2.0000      -0.295255        -8.0343
  88   2.0000      -0.290482        -7.9044
  89   2.0000      -0.286852        -7.8056
  90   2.0000      -0.283249        -7.7076
  91   2.0000      -0.270270        -7.3544
  92   2.0000      -0.264804        -7.2057
  93   2.0000      -0.255673        -6.9572
  94   2.0000      -0.254423        -6.9232
  95   2.0000      -0.235421        -6.4061
  96   2.0000      -0.218406        -5.9431
  97   2.0000      -0.201567        -5.4849
  98   2.0000      -0.197939        -5.3862
  99   2.0000      -0.184205        -5.0125
 100   2.0000      -0.181562        -4.9405
 101   0.0000      -0.030892        -0.8406
 102   0.0000      -0.026144        -0.7114
 103   0.0000      -0.007978        -0.2171
 104   0.0000       0.008773         0.2387
 105   0.0000       0.017572         0.4782

MULLIKEN ATOMIC CHARGES
-----------------------
   0 C :   -0.322920
   1 C :    0.002893
   2 O :   -0.358779
   3 P :    0.630059
   4 S :   -0.315010
   5 O :   -0.387548
   6 C :    0.004064
   7 C :   -0.292730
   8 S :   -0.072233
   9 C :   -0.361187
  10 S :   -0.107928
  11 P :    0.597147
  12 S :   -0.297819
  13 O :   -0.346297
  14 C :   -0.015146
  15 C :   -0.287907
  16 O :   -0.382797
  17 C :    0.002286
  18 C :   -0.327501
  19 H :    0.133723
  20 H :    0.129285
  21 H :    0.108443
  22 H :    0.107570
  23 H :    0.109685
  24 H :    0.089665
  25 H :    0.104716
  26 H :    0.127391
  27 H :    0.106408
  28 H :    0.110504
  29 H :    0.196197
  30 H :    0.179029
  31 H :    0.097666
  32 H :    0.108526
  33 H :    0.121729
  34 H :    0.106502
  35 H :    0.120732
  36 H :    0.102106
  37 H :    0.111973
  38 H :    0.114106
  39 H :    0.135869
  40 H :    0.117524
Sum of atomic charges:    0.0000000

LOEWDIN ATOMIC CHARGES
----------------------
   0 C :   -0.367620
   1 C :   -0.107767
   2 O :   -0.228321
   3 P :    0.571439
   4 S :   -0.297753
   5 O :   -0.256736
   6 C :   -0.115737
   7 C :   -0.362547
   8 S :    0.082972
   9 C :   -0.488055
  10 S :    0.072537
  11 P :    0.563852
  12 S :   -0.302828
  13 O :   -0.227755
  14 C :   -0.116941
  15 C :   -0.359782
  16 O :   -0.249473
  17 C :   -0.118590
  18 C :   -0.373527
  19 H :    0.134259
  20 H :    0.121987
  21 H :    0.128486
  22 H :    0.111803
  23 H :    0.122299
  24 H :    0.104029
  25 H :    0.117225
  26 H :    0.124346
  27 H :    0.128037
  28 H :    0.123573
  29 H :    0.119249
  30 H :    0.135342
  31 H :    0.101001
  32 H :    0.119695
  33 H :    0.125902
  34 H :    0.128131
  35 H :    0.129136
  36 H :    0.116953
  37 H :    0.112259
  38 H :    0.131811
  39 H :    0.124646
  40 H :    0.122461

  Mayer bond orders larger than 0.100000
B(  0-C ,  1-C ) :   1.1674 B(  0-C , 19-H ) :   0.9431 B(  0-C , 20-H ) :   0.9348
B(  0-C , 21-H ) :   0.9360 B(  1-C ,  2-O ) :   0.9052 B(  1-C , 22-H ) :   0.9282
B(  1-C , 23-H ) :   0.9335 B(  2-O ,  3-P ) :   1.1444 B(  3-P ,  4-S ) :   1.5918
B(  3-P ,  5-O ) :   1.0626 B(  3-P ,  8-S ) :   0.9641 B(  4-S ,  8-S ) :   0.1280
B(  4-S , 29-H ) :   0.1201 B(  5-O ,  6-C ) :   0.9084 B(  6-C ,  7-C ) :   1.1676
B(  6-C , 24-H ) :   0.9123 B(  6-C , 25-H ) :   0.9357 B(  7-C , 26-H ) :   0.9326
B(  7-C , 27-H ) :   0.9403 B(  7-C , 28-H ) :   0.9473 B(  8-S ,  9-C ) :   1.0044
B(  9-C , 10-S ) :   0.9913 B(  9-C , 29-H ) :   0.8442 B(  9-C , 30-H ) :   0.9121
B( 10-S , 11-P ) :   0.9468 B( 10-S , 12-S ) :   0.1115 B( 11-P , 12-S ) :   1.6694
B( 11-P , 13-O ) :   1.1350 B( 11-P , 16-O ) :   1.0718 B( 13-O , 14-C ) :   0.8980
B( 14-C , 15-C ) :   1.1677 B( 14-C , 31-H ) :   0.9072 B( 14-C , 32-H ) :   0.9329
B( 15-C , 33-H ) :   0.9412 B( 15-C , 34-H ) :   0.9396 B( 15-C , 35-H ) :   0.9475
B( 16-O , 17-C ) :   0.9080 B( 17-C , 18-C ) :   1.1655 B( 17-C , 36-H ) :   0.9335
B( 17-C , 37-H ) :   0.9155 B( 18-C , 38-H ) :   0.9374 B( 18-C , 39-H ) :   0.9325
B( 18-C , 40-H ) :   0.9427

Dispersion correction           -0.066464494
FINAL SINGLE POINT ENERGY     -2929.514340852624

DIPOLE MOMENT
-------------

Method             : SCF
Type of density    : Electron Density
Multiplicity       :   1
Irrep              :   0
Energy             : -2929.6324790251719605 Eh
Relativity type    :
Basis              : AO
                                X                 Y                 Z
Electronic contribution:     -2.062253932      -8.905531037      -2.813925422
Nuclear contribution   :      2.044247534       8.676380209       3.508914092
                        -----------------------------------------
Total Dipole Moment    :     -0.018006398      -0.229150829       0.694988670
                        -----------------------------------------
Magnitude (a.u.)       :      0.732013377
Magnitude (Debye)      :      1.860630138

Rotational constants in cm-1:             0.012806             0.004965             0.004799
Rotational constants in MHz :           383.927324           148.855331           143.860615

                             ****ORCA TERMINATED NORMALLY****
TOTAL RUN TIME: 0 days 0 hours 0 minutes 20 seconds 649 msec
