                         Program Version 6.0.0  -   RELEASE  -
|  1> ! r2scan-3c def2/J RI DEFGRID2 scfconv6 printgap
|  2> %output
|  3>     printlevel normal
|  4> end
|  5> * xyz 0 1
|  6> C 4.114065656 -1.4508248084 -2.3637597315
|  7> C 4.455251282 -1.5080076029 -0.8886413523
|  8> O 3.2793884343 -1.5474007892 -0.062177097
|  9> P 2.2941679658 -0.3107843155 0.0812297106
| 10> S 3.1590798578 1.4512000623 0.1657168499
| 11> O 1.4378586046 -0.7310113341 1.3481045847
| 12> C 1.7769957869 -0.2969340007 2.6816393664
| 13> C 3.0604414868 -0.9350248231 3.1690396039
| 14> S 0.8494385474 -0.602308118 -1.4335473702
| 15> C 0.1249705236 1.0574401032 -1.3292857823
| 16> S -0.7599466627 1.3499170238 0.2184185744
| 17> P -2.6058816669 0.3816549903 -0.2922419509
| 18> S -2.9175357926 0.0834078529 -2.1977269443
| 19> O -3.7149460468 1.3160227602 0.311301355
| 20> C -3.7225571113 1.7383705265 1.700777141
| 21> C -4.4016814524 3.089765553 1.7735501971
| 22> O -2.7026054958 -0.8625860599 0.7015745068
| 23> C -1.8054038537 -1.9833169317 0.7652457077
| 24> C -1.9207156932 -2.8909702779 -0.4427335572
| 25> H 3.43009381 -2.2543974547 -2.6252942505
| 26> H 3.6413762964 -0.4985495608 -2.6015018089
| 27> H 5.0238047347 -1.5463078785 -2.9478621542
| 28> H 5.0531522564 -0.6377258972 -0.5990262853
| 29> H 4.9861011607 -2.4260164226 -0.6332098352
| 30> H 1.8601750703 0.7945969084 2.6780689988
| 31> H 0.9188186095 -0.5998205586 3.2827928943
| 32> H 3.8996614152 -0.5797688872 2.5721599525
| 33> H 3.2264990409 -0.6635546488 4.2068150669
| 34> H 2.9994520357 -2.0165073848 3.0808753337
| 35> H -0.5679168052 1.1482359916 -2.1666199573
| 36> H 0.9194702665 1.8014789168 -1.3791132071
| 37> H -4.2662372915 0.981214944 2.2684400138
| 38> H -2.6900065731 1.7916333189 2.0579740817
| 39> H -3.8392683237 3.8230265925 1.2021505371
| 40> H -5.4052390635 3.0225703634 1.3635276736
| 41> H -4.4557126093 3.4069091589 2.8099568246
| 42> H -0.7812083566 -1.6155637544 0.8795576118
| 43> H -2.1100103978 -2.5004108145 1.6774426594
| 44> H -2.9547049734 -3.193310928 -0.5877929965
| 45> H -1.5793995495 -2.3794811248 -1.3408068707
| 46> H -1.3054379452 -3.7712274645 -0.2866008186
| 47> *
| 48>
| 49>                          ****END OF INPUT****

CARTESIAN COORDINATES (ANGSTROEM)
---------------------------------
  C      4.114066   -1.450825   -2.363760
  C      4.455251   -1.508008   -0.888641
  O      3.279388   -1.547401   -0.062177
  P      2.294168   -0.310784    0.081230
  S      3.159080    1.451200    0.165717
  O      1.437859   -0.731011    1.348105
  C      1.776996   -0.296934    2.681639
  C      3.060441   -0.935025    3.169040
  S      0.849439   -0.602308   -1.433547
  C      0.124971    1.057440   -1.329286
  S     -0.759947    1.349917    0.218419
  P     -2.605882    0.381655   -0.292242
  S     -2.917536    0.083408   -2.197727
  O     -3.714946    1.316023    0.311301
  C     -3.722557    1.738371    1.700777
  C     -4.401681    3.089766    1.773550
  O     -2.702605   -0.862586    0.701575
  C     -1.805404   -1.983317    0.765246
  C     -1.920716   -2.890970   -0.442734
  H      3.430094   -2.254397   -2.625294
  H      3.641376   -0.498550   -2.601502
  H      5.023805   -1.546308   -2.947862
  H      5.053152   -0.637726   -0.599026
  H      4.986101   -2.426016   -0.633210
  H      1.860175    0.794597    2.678069
  H      0.918819   -0.599821    3.282793
  H      3.899661   -0.579769    2.572160
  H      3.226499   -0.663555    4.206815
  H      2.999452   -2.016507    3.080875
  H     -0.567917    1.148236   -2.166620
  H      0.919470    1.801479   -1.379113
  H     -4.266237    0.981215    2.268440
  H     -2.690007    1.791633    2.057974
  H     -3.839268    3.823027    1.202151
  H     -5.405239    3.022570    1.363528
  H     -4.455713    3.406909    2.809957
  H     -0.781208   -1.615564    0.879558
  H     -2.110010   -2.500411    1.677443
  H     -2.954705   -3.193311   -0.587793
  H     -1.579400   -2.379481   -1.340807
  H     -1.305438   -3.771227   -0.286601

 Total Charge           Charge          ....    0
 Multiplicity           Mult            ....    1
 Number of Electrons    NEL             ....  202
 Basis Dimension        Dim             ....  539

ORBITAL ENERGIES
----------------

  NO   OCC          E(Eh)            E(eV)
   0   2.0000     -88.578061     -2410.3316
   1   2.0000     -88.573516     -2410.2079
   2   2.0000     -88.527336     -2408.9513
   3   2.0000     -88.518754     -2408.7177
   4   2.0000     -76.918815     -2093.0674
   5   2.0000     -76.912607     -2092.8984
   6   2.0000     -18.998879      -516.9858
   7   2.0000     -18.994640      -516.8704
   8   2.0000     -18.990011      -516.7445
   9   2.0000     -18.988080      -516.6919
  10   2.0000     -10.105517      -274.9851
  11   2.0000     -10.103573      -274.9322
  12   2.0000     -10.103539      -274.9313
  13   2.0000     -10.102316      -274.8980
  14   2.0000     -10.093281      -274.6521
  15   2.0000     -10.034577      -273.0547
  16   2.0000     -10.033468      -273.0246
  17   2.0000     -10.032240      -272.9911
  18   2.0000     -10.019092      -272.6334
  19   2.0000      -7.872408      -214.2191
  20   2.0000      -7.867752      -214.0924
  21   2.0000      -7.822009      -212.8477
  22   2.0000      -7.813608      -212.6191
  23   2.0000      -6.597474      -179.5264
  24   2.0000      -6.590832      -179.3457
  25   2.0000      -5.819217      -158.3489
  26   2.0000      -5.816330      -158.2704
  27   2.0000      -5.814646      -158.2246
  28   2.0000      -5.811547      -158.1402
  29   2.0000      -5.809527      -158.0853
  30   2.0000      -5.804926      -157.9601
  31   2.0000      -5.769586      -156.9984
  32   2.0000      -5.762309      -156.8004
  33   2.0000      -5.762081      -156.7942
  34   2.0000      -5.761403      -156.7757
  35   2.0000      -5.753878      -156.5710
  36   2.0000      -5.753462      -156.5597
  37   2.0000      -4.742847      -129.0594
  38   2.0000      -4.742371      -129.0465
  39   2.0000      -4.741323      -129.0180
  40   2.0000      -4.736535      -128.8877
  41   2.0000      -4.735905      -128.8705
  42   2.0000      -4.734300      -128.8269
  43   2.0000      -1.055748       -28.7284
  44   2.0000      -1.049129       -28.5483
  45   2.0000      -1.017002       -27.6740
  46   2.0000      -1.006226       -27.3808
  47   2.0000      -0.802018       -21.8240
  48   2.0000      -0.761484       -20.7210
  49   2.0000      -0.753145       -20.4941
  50   2.0000      -0.736058       -20.0291
  51   2.0000      -0.729758       -19.8577
  52   2.0000      -0.712842       -19.3974
  53   2.0000      -0.687462       -18.7068
  54   2.0000      -0.671536       -18.2734
  55   2.0000      -0.637063       -17.3354
  56   2.0000      -0.614972       -16.7342
  57   2.0000      -0.610423       -16.6104
  58   2.0000      -0.607540       -16.5320
  59   2.0000      -0.594910       -16.1883
  60   2.0000      -0.532213       -14.4823
  61   2.0000      -0.521247       -14.1838
  62   2.0000      -0.498232       -13.5576
  63   2.0000      -0.492618       -13.4048
  64   2.0000      -0.479869       -13.0579
  65   2.0000      -0.465148       -12.6573
  66   2.0000      -0.463167       -12.6034
  67   2.0000      -0.452828       -12.3221
  68   2.0000      -0.447307       -12.1718
  69   2.0000      -0.436003       -11.8643
  70   2.0000      -0.423214       -11.5162
  71   2.0000      -0.417084       -11.3494
  72   2.0000      -0.414127       -11.2690
  73   2.0000      -0.406653       -11.0656
  74   2.0000      -0.403777       -10.9873
  75   2.0000      -0.390556       -10.6276
  76   2.0000      -0.379470       -10.3259
  77   2.0000      -0.374420       -10.1885
  78   2.0000      -0.373430       -10.1615
  79   2.0000      -0.367149        -9.9906
  80   2.0000      -0.363370        -9.8878
  81   2.0000      -0.358568        -9.7571
  82   2.0000      -0.356697        -9.7062
  83   2.0000      -0.353116        -9.6088
  84   2.0000      -0.348083        -9.4718
  85   2.0000      -0.336564        -9.1584
  86   2.0000      -0.329515        -8.9666
  87   2.0000      -0.315435        -8.5834
  88   2.0000      -0.311461        -8.4753
  89   2.0000      -0.308054        -8.3826
  90   2.0000      -0.301051        -8.1920
  91   2.0000      -0.293482        -7.9861
  92   2.0000      -0.288864        -7.8604
  93   2.0000      -0.283726        -7.7206
  94   2.0000      -0.271880        -7.3982
  95   2.0000      -0.248525        -6.7627
  96   2.0000      -0.231417        -6.2972
  97   2.0000      -0.229210        -6.2371
  98   2.0000      -0.220284        -5.9942
  99   2.0000      -0.217373        -5.9150
 100   2.0000      -0.212233        -5.7752
 101   0.0000      -0.049177        -1.3382
 102   0.0000      -0.029710        -0.8085
 103   0.0000      -0.005147        -0.1401
 104   0.0000      -0.002234        -0.0608
 105   0.0000       0.012044         0.3277

MULLIKEN ATOMIC CHARGES
-----------------------
   0 C :   -0.451044
   1 C :   -0.151461
   2 O :   -0.304736
   3 P :    0.675999
   4 S :   -0.478244
   5 O :   -0.275875
   6 C :   -0.151813
   7 C :   -0.440687
   8 S :   -0.121919
   9 C :   -0.245375
  10 S :   -0.174778
  11 P :    0.664408
  12 S :   -0.436253
  13 O :   -0.288063
  14 C :   -0.113711
  15 C :   -0.447833
  16 O :   -0.253560
  17 C :   -0.177282
  18 C :   -0.420278
  19 H :    0.156989
  20 H :    0.177295
  21 H :    0.149287
  22 H :    0.171377
  23 H :    0.149219
  24 H :    0.174147
  25 H :    0.150126
  26 H :    0.168016
  27 H :    0.147769
  28 H :    0.156233
  29 H :    0.218001
  30 H :    0.219047
  31 H :    0.158862
  32 H :    0.140676
  33 H :    0.161896
  34 H :    0.159325
  35 H :    0.145205
  36 H :    0.177996
  37 H :    0.143877
  38 H :    0.151728
  39 H :    0.172922
  40 H :    0.142510
Sum of atomic charges:   -0.0000000

LOEWDIN ATOMIC CHARGES
----------------------
   0 C :   -0.405660
   1 C :    0.020756
   2 O :   -0.660343
   3 P :    0.377129
   4 S :   -0.129720
   5 O :   -0.696094
   6 C :    0.017766
   7 C :   -0.398635
   8 S :    0.166393
   9 C :   -0.425687
  10 S :    0.137273
  11 P :    0.388888
  12 S :   -0.095638
  13 O :   -0.652536
  14 C :    0.026535
  15 C :   -0.384597
  16 O :   -0.665554
  17 C :    0.019395
  18 C :   -0.409873
  19 H :    0.160940
  20 H :    0.165896
  21 H :    0.160104
  22 H :    0.179582
  23 H :    0.180054
  24 H :    0.181411
  25 H :    0.179479
  26 H :    0.165081
  27 H :    0.159857
  28 H :    0.161040
  29 H :    0.195714
  30 H :    0.191214
  31 H :    0.175768
  32 H :    0.172743
  33 H :    0.163425
  34 H :    0.163588
  35 H :    0.159175
  36 H :    0.191454
  37 H :    0.177820
  38 H :    0.160651
  39 H :    0.166687
  40 H :    0.158518

  Mayer bond orders larger than 0.100000
B(  0-C ,  1-C ) :   0.9234 B(  0-C , 19-H ) :   0.9686 B(  0-C , 20-H ) :   0.9617
B(  0-C , 21-H ) :   0.9582 B(  1-C ,  2-O ) :   0.8120 B(  1-C , 22-H ) :   0.9662
B(  1-C , 23-H ) :   0.9578 B(  2-O ,  3-P ) :   1.0704 B(  3-P ,  4-S ) :   1.7518
B(  3-P ,  5-O ) :   1.1338 B(  3-P ,  8-S ) :   1.0926 B(  5-O ,  6-C ) :   0.7943
B(  6-C ,  7-C ) :   0.9248 B(  6-C , 24-H ) :   0.9640 B(  6-C , 25-H ) :   0.9613
B(  7-C , 26-H ) :   0.9597 B(  7-C , 27-H ) :   0.9617 B(  7-C , 28-H ) :   0.9714
B(  8-S ,  9-C ) :   0.9025 B(  9-C , 10-S ) :   0.9171 B(  9-C , 29-H ) :   0.8986
B(  9-C , 30-H ) :   0.9107 B( 10-S , 11-P ) :   0.9739 B( 11-P , 12-S ) :   1.8344
B( 11-P , 13-O ) :   1.1925 B( 11-P , 16-O ) :   1.0431 B( 13-O , 14-C ) :   0.7262
B( 14-C , 15-C ) :   0.9663 B( 14-C , 31-H ) :   0.9457 B( 14-C , 32-H ) :   0.9502
B( 15-C , 33-H ) :   0.9705 B( 15-C , 34-H ) :   0.9705 B( 15-C , 35-H ) :   0.9650
B( 16-O , 17-C ) :   0.8019 B( 17-C , 18-C ) :   0.9332 B( 17-C , 36-H ) :   0.9495
B( 17-C , 37-H ) :   0.9660 B( 18-C , 38-H ) :   0.9687 B( 18-C , 39-H ) :   0.9508
B( 18-C , 40-H ) :   0.9648

Dispersion correction           -0.021348796
FINAL SINGLE POINT ENERGY     -2932.462414175227

DIPOLE MOMENT
-------------

Method             : SCF
Type of density    : Electron Density
Multiplicity       :   1
Irrep              :   0
Energy             : -2932.4876980390067729 Eh
Relativity type    :
Basis              : AO
                                X                 Y                 Z
Electronic contribution:     -5.106912745       6.868710175     -10.851802411
Nuclear contribution   :      5.876032998      -7.580146964      12.430193878
                        -----------------------------------------
Total Dipole Moment    :      0.769120252      -0.711436789       1.578391467
                        -----------------------------------------
Magnitude (a.u.)       :      1.894467706
Magnitude (Debye)      :      4.815354227

Rotational constants in cm-1:             0.012379             0.004793             0.004419
Rotational constants in MHz :           371.104103           143.676508           132.468612

                             ****ORCA TERMINATED NORMALLY****
TOTAL RUN TIME: 0 days 0 hours 1 minutes 19 seconds 927 msec
