                         Program Version 6.0.0  -   RELEASE  -
|  1> ! r2scan-3c def2/J RI DEFGRID2 scfconv6 printgap
|  2> %output
|  3>     printlevel normal
|  4> end
|  5> %cpcm
|  6>     smd true
|  7>     smdsolvent "water"
|  8> end
|  9> * xyz 0 1
| 10> C 4.114065656 -1.4508248084 -2.3637597315
| 11> C 4.455251282 -1.5080076029 -0.8886413523
| 12> O 3.2793884343 -1.5474007892 -0.062177097
| 13> P 2.2941679658 -0.3107843155 0.0812297106
| 14> S 3.1590798578 1.4512000623 0.1657168499
| 15> O 1.4378586046 -0.7310113341 1.3481045847
| 16> C 1.7769957869 -0.2969340007 2.6816393664
| 17> C 3.0604414868 -0.9350248231 3.1690396039
| 18> S 0.8494385474 -0.602308118 -1.4335473702
| 19> C 0.1249705236 1.0574401032 -1.3292857823
| 20> S -0.7599466627 1.3499170238 0.2184185744
| 21> P -2.6058816669 0.3816549903 -0.2922419509
| 22> S -2.9175357926 0.0834078529 -2.1977269443
| 23> O -3.7149460468 1.3160227602 0.311301355
| 24> C -3.7225571113 1.7383705265 1.700777141
| 25> C -4.4016814524 3.089765553 1.7735501971
| 26> O -2.7026054958 -0.8625860599 0.7015745068
| 27> C -1.8054038537 -1.9833169317 0.7652457077
| 28> C -1.9207156932 -2.8909702779 -0.4427335572
| 29> H 3.43009381 -2.2543974547 -2.6252942505
| 30> H 3.6413762964 -0.4985495608 -2.6015018089
| 31> H 5.0238047347 -1.5463078785 -2.9478621542
| 32> H 5.0531522564 -0.6377258972 -0.5990262853
| 33> H 4.9861011607 -2.4260164226 -0.6332098352
| 34> H 1.8601750703 0.7945969084 2.6780689988
| 35> H 0.9188186095 -0.5998205586 3.2827928943
| 36> H 3.8996614152 -0.5797688872 2.5721599525
| 37> H 3.2264990409 -0.6635546488 4.2068150669
| 38> H 2.9994520357 -2.0165073848 3.0808753337
| 39> H -0.5679168052 1.1482359916 -2.1666199573
| 40> H 0.9194702665 1.8014789168 -1.3791132071
| 41> H -4.2662372915 0.981214944 2.2684400138
| 42> H -2.6900065731 1.7916333189 2.0579740817
| 43> H -3.8392683237 3.8230265925 1.2021505371
| 44> H -5.4052390635 3.0225703634 1.3635276736
| 45> H -4.4557126093 3.4069091589 2.8099568246
| 46> H -0.7812083566 -1.6155637544 0.8795576118
| 47> H -2.1100103978 -2.5004108145 1.6774426594
| 48> H -2.9547049734 -3.193310928 -0.5877929965
| 49> H -1.5793995495 -2.3794811248 -1.3408068707
| 50> H -1.3054379452 -3.7712274645 -0.2866008186
| 51> *
| 52>
| 53>                          ****END OF INPUT****

CARTESIAN COORDINATES (ANGSTROEM)
---------------------------------
  C      4.114066   -1.450825   -2.363760
  C      4.455251   -1.508008   -0.888641
  O      3.279388   -1.547401   -0.062177
  P      2.294168   -0.310784    0.081230
  S      3.159080    1.451200    0.165717
  O      1.437859   -0.731011    1.348105
  C      1.776996   -0.296934    2.681639
  C      3.060441   -0.935025    3.169040
  S      0.849439   -0.602308   -1.433547
  C      0.124971    1.057440   -1.329286
  S     -0.759947    1.349917    0.218419
  P     -2.605882    0.381655   -0.292242
  S     -2.917536    0.083408   -2.197727
  O     -3.714946    1.316023    0.311301
  C     -3.722557    1.738371    1.700777
  C     -4.401681    3.089766    1.773550
  O     -2.702605   -0.862586    0.701575
  C     -1.805404   -1.983317    0.765246
  C     -1.920716   -2.890970   -0.442734
  H      3.430094   -2.254397   -2.625294
  H      3.641376   -0.498550   -2.601502
  H      5.023805   -1.546308   -2.947862
  H      5.053152   -0.637726   -0.599026
  H      4.986101   -2.426016   -0.633210
  H      1.860175    0.794597    2.678069
  H      0.918819   -0.599821    3.282793
  H      3.899661   -0.579769    2.572160
  H      3.226499   -0.663555    4.206815
  H      2.999452   -2.016507    3.080875
  H     -0.567917    1.148236   -2.166620
  H      0.919470    1.801479   -1.379113
  H     -4.266237    0.981215    2.268440
  H     -2.690007    1.791633    2.057974
  H     -3.839268    3.823027    1.202151
  H     -5.405239    3.022570    1.363528
  H     -4.455713    3.406909    2.809957
  H     -0.781208   -1.615564    0.879558
  H     -2.110010   -2.500411    1.677443
  H     -2.954705   -3.193311   -0.587793
  H     -1.579400   -2.379481   -1.340807
  H     -1.305438   -3.771227   -0.286601

 Total Charge           Charge          ....    0
 Multiplicity           Mult            ....    1
 Number of Electrons    NEL             ....  202
 Basis Dimension        Dim             ....  539

ORBITAL ENERGIES
----------------

  NO   OCC          E(Eh)            E(eV)
   0   2.0000     -88.579678     -2410.3756
   1   2.0000     -88.578661     -2410.3479
   2   2.0000     -88.531854     -2409.0742
   3   2.0000     -88.530544     -2409.0386
   4   2.0000     -76.921491     -2093.1402
   5   2.0000     -76.919893     -2093.0967
   6   2.0000     -18.997265      -516.9419
   7   2.0000     -18.995954      -516.9062
   8   2.0000     -18.993859      -516.8492
   9   2.0000     -18.992417      -516.8099
  10   2.0000     -10.104110      -274.9468
  11   2.0000     -10.095346      -274.7083
  12   2.0000     -10.090528      -274.5772
  13   2.0000     -10.089270      -274.5430
  14   2.0000     -10.088459      -274.5209
  15   2.0000     -10.020936      -272.6835
  16   2.0000     -10.019047      -272.6321
  17   2.0000     -10.018779      -272.6248
  18   2.0000     -10.015623      -272.5389
  19   2.0000      -7.874092      -214.2649
  20   2.0000      -7.872837      -214.2308
  21   2.0000      -7.827058      -212.9851
  22   2.0000      -7.825491      -212.9424
  23   2.0000      -6.599805      -179.5898
  24   2.0000      -6.598580      -179.5565
  25   2.0000      -5.820889      -158.3944
  26   2.0000      -5.819750      -158.3634
  27   2.0000      -5.818025      -158.3165
  28   2.0000      -5.816619      -158.2782
  29   2.0000      -5.811205      -158.1309
  30   2.0000      -5.810018      -158.0986
  31   2.0000      -5.774729      -157.1384
  32   2.0000      -5.773014      -157.0917
  33   2.0000      -5.767323      -156.9368
  34   2.0000      -5.766972      -156.9273
  35   2.0000      -5.765781      -156.8949
  36   2.0000      -5.765578      -156.8894
  37   2.0000      -4.745477      -129.1310
  38   2.0000      -4.744806      -129.1127
  39   2.0000      -4.743890      -129.0878
  40   2.0000      -4.743469      -129.0764
  41   2.0000      -4.743402      -129.0745
  42   2.0000      -4.742531      -129.0508
  43   2.0000      -1.054722       -28.7004
  44   2.0000      -1.053482       -28.6667
  45   2.0000      -1.013953       -27.5911
  46   2.0000      -1.011077       -27.5128
  47   2.0000      -0.804070       -21.8798
  48   2.0000      -0.758379       -20.6366
  49   2.0000      -0.745863       -20.2960
  50   2.0000      -0.725075       -19.7303
  51   2.0000      -0.723719       -19.6934
  52   2.0000      -0.711284       -19.3550
  53   2.0000      -0.690969       -18.8022
  54   2.0000      -0.676814       -18.4170
  55   2.0000      -0.632192       -17.2028
  56   2.0000      -0.616384       -16.7727
  57   2.0000      -0.601196       -16.3594
  58   2.0000      -0.599761       -16.3203
  59   2.0000      -0.593966       -16.1626
  60   2.0000      -0.530090       -14.4245
  61   2.0000      -0.514509       -14.0005
  62   2.0000      -0.493528       -13.4296
  63   2.0000      -0.489920       -13.3314
  64   2.0000      -0.478267       -13.0143
  65   2.0000      -0.459670       -12.5083
  66   2.0000      -0.455068       -12.3830
  67   2.0000      -0.449017       -12.2184
  68   2.0000      -0.444524       -12.0961
  69   2.0000      -0.431404       -11.7391
  70   2.0000      -0.423035       -11.5114
  71   2.0000      -0.413059       -11.2399
  72   2.0000      -0.406045       -11.0491
  73   2.0000      -0.403738       -10.9863
  74   2.0000      -0.401391       -10.9224
  75   2.0000      -0.388053       -10.5595
  76   2.0000      -0.378167       -10.2905
  77   2.0000      -0.366368        -9.9694
  78   2.0000      -0.364059        -9.9066
  79   2.0000      -0.359138        -9.7727
  80   2.0000      -0.355340        -9.6693
  81   2.0000      -0.353156        -9.6099
  82   2.0000      -0.349627        -9.5138
  83   2.0000      -0.348026        -9.4703
  84   2.0000      -0.345842        -9.4109
  85   2.0000      -0.332475        -9.0471
  86   2.0000      -0.324265        -8.8237
  87   2.0000      -0.312658        -8.5079
  88   2.0000      -0.306531        -8.3411
  89   2.0000      -0.305286        -8.3073
  90   2.0000      -0.297991        -8.1088
  91   2.0000      -0.289590        -7.8801
  92   2.0000      -0.287402        -7.8206
  93   2.0000      -0.281159        -7.6507
  94   2.0000      -0.275912        -7.5079
  95   2.0000      -0.250634        -6.8201
  96   2.0000      -0.239023        -6.5041
  97   2.0000      -0.235180        -6.3996
  98   2.0000      -0.228146        -6.2082
  99   2.0000      -0.225551        -6.1376
 100   2.0000      -0.222336        -6.0501
 101   0.0000      -0.054143        -1.4733
 102   0.0000      -0.035284        -0.9601
 103   0.0000      -0.007600        -0.2068
 104   0.0000      -0.006964        -0.1895
 105   0.0000       0.011676         0.3177

MULLIKEN ATOMIC CHARGES
-----------------------
   0 C :   -0.487570
   1 C :   -0.152555
   2 O :   -0.328821
   3 P :    0.716490
   4 S :   -0.524959
   5 O :   -0.297857
   6 C :   -0.146221
   7 C :   -0.483010
   8 S :   -0.129649
   9 C :   -0.255721
  10 S :   -0.175561
  11 P :    0.670650
  12 S :   -0.489839
  13 O :   -0.322998
  14 C :   -0.100447
  15 C :   -0.492929
  16 O :   -0.276274
  17 C :   -0.159683
  18 C :   -0.466928
  19 H :    0.170099
  20 H :    0.172670
  21 H :    0.173428
  22 H :    0.178439
  23 H :    0.176079
  24 H :    0.176702
  25 H :    0.178105
  26 H :    0.168058
  27 H :    0.172167
  28 H :    0.170017
  29 H :    0.230004
  30 H :    0.239134
  31 H :    0.180364
  32 H :    0.158242
  33 H :    0.168667
  34 H :    0.168905
  35 H :    0.171822
  36 H :    0.175818
  37 H :    0.174952
  38 H :    0.164466
  39 H :    0.165542
  40 H :    0.170203
Sum of atomic charges:    0.0000000

LOEWDIN ATOMIC CHARGES
----------------------
   0 C :   -0.409311
   1 C :    0.026432
   2 O :   -0.670378
   3 P :    0.382960
   4 S :   -0.157718
   5 O :   -0.703187
   6 C :    0.023029
   7 C :   -0.402212
   8 S :    0.161594
   9 C :   -0.421802
  10 S :    0.141232
  11 P :    0.387935
  12 S :   -0.138126
  13 O :   -0.675811
  14 C :    0.034532
  15 C :   -0.388611
  16 O :   -0.673289
  17 C :    0.025823
  18 C :   -0.414845
  19 H :    0.163874
  20 H :    0.161627
  21 H :    0.168785
  22 H :    0.181847
  23 H :    0.191426
  24 H :    0.182088
  25 H :    0.190832
  26 H :    0.162623
  27 H :    0.168845
  28 H :    0.164370
  29 H :    0.198897
  30 H :    0.197130
  31 H :    0.185486
  32 H :    0.180389
  33 H :    0.163684
  34 H :    0.165285
  35 H :    0.170169
  36 H :    0.191589
  37 H :    0.190939
  38 H :    0.162282
  39 H :    0.161080
  40 H :    0.168505

  Mayer bond orders larger than 0.100000
B(  0-C ,  1-C ) :   0.9093 B(  0-C , 19-H ) :   0.9658 B(  0-C , 20-H ) :   0.9632
B(  0-C , 21-H ) :   0.9530 B(  1-C ,  2-O ) :   0.8005 B(  1-C , 22-H ) :   0.9653
B(  1-C , 23-H ) :   0.9482 B(  2-O ,  3-P ) :   1.0795 B(  3-P ,  4-S ) :   1.7088
B(  3-P ,  5-O ) :   1.1455 B(  3-P ,  8-S ) :   1.0978 B(  5-O ,  6-C ) :   0.7826
B(  6-C ,  7-C ) :   0.9141 B(  6-C , 24-H ) :   0.9604 B(  6-C , 25-H ) :   0.9510
B(  7-C , 26-H ) :   0.9594 B(  7-C , 27-H ) :   0.9558 B(  7-C , 28-H ) :   0.9703
B(  8-S ,  9-C ) :   0.8978 B(  9-C , 10-S ) :   0.9040 B(  9-C , 29-H ) :   0.8968
B(  9-C , 30-H ) :   0.9048 B( 10-S , 11-P ) :   0.9961 B( 11-P , 12-S ) :   1.8124
B( 11-P , 13-O ) :   1.1952 B( 11-P , 16-O ) :   1.0497 B( 13-O , 14-C ) :   0.7190
B( 14-C , 15-C ) :   0.9549 B( 14-C , 31-H ) :   0.9354 B( 14-C , 32-H ) :   0.9403
B( 15-C , 33-H ) :   0.9702 B( 15-C , 34-H ) :   0.9684 B( 15-C , 35-H ) :   0.9582
B( 16-O , 17-C ) :   0.7937 B( 17-C , 18-C ) :   0.9158 B( 17-C , 36-H ) :   0.9484
B( 17-C , 37-H ) :   0.9561 B( 18-C , 38-H ) :   0.9694 B( 18-C , 39-H ) :   0.9538
B( 18-C , 40-H ) :   0.9595

Dispersion correction           -0.021348796
FINAL SINGLE POINT ENERGY     -2932.470819963361

DIPOLE MOMENT
-------------

Method             : SCF
Type of density    : Electron Density
Multiplicity       :   1
Irrep              :   0
Energy             : -2932.4961038271403595 Eh
Relativity type    :
Basis              : AO
                                X                 Y                 Z
Electronic contribution:     -4.726682680       6.592272294     -10.175704042
Nuclear contribution   :      5.876032998      -7.580146964      12.430193878
                        -----------------------------------------
Total Dipole Moment    :      1.149350318      -0.987874670       2.254489836
                        -----------------------------------------
Magnitude (a.u.)       :      2.716546878
Magnitude (Debye)      :      6.904913421

Rotational constants in cm-1:             0.012379             0.004793             0.004419
Rotational constants in MHz :           371.104103           143.676508           132.468612

                             ****ORCA TERMINATED NORMALLY****
TOTAL RUN TIME: 0 days 0 hours 1 minutes 52 seconds 813 msec
