                         Program Version 6.0.0  -   RELEASE  -
|  1> ! pbe def2-sv(p) def2/J RI DEFGRID1 loosescf d4 GCP(DFT/SV(P)) printgap
|  2> %output
|  3>     printlevel normal
|  4> end
|  5> * xyz 0 1
|  6> C 4.1925104001 -0.1377905699 -2.3492472932
|  7> C 4.369607517 0.6013301442 -1.0385122423
|  8> O 3.6896798241 -0.0490656949 0.0477538773
|  9> P 2.1057472916 -0.150492202 0.1331145218
| 10> S 1.1540511791 1.4819638494 -0.4242278872
| 11> O 1.8884137133 -0.5954802505 1.6367629543
| 12> C 1.7227188604 0.3491147964 2.7120596026
| 13> C 3.0178608988 1.0598155332 3.0446986761
| 14> S 1.6689150177 -1.9746182312 -0.8187648455
| 15> C -0.1016868936 -1.7389266808 -1.1264423429
| 16> S -1.0511865551 -1.3696438926 0.380637477
| 17> P -2.1979708319 0.3049510569 -0.3091784682
| 18> S -1.9822899772 0.8282794322 -2.1784374218
| 19> O -1.9096482126 1.4621797238 0.7190329836
| 20> C -2.1405436071 1.320806074 2.1447945409
| 21> C -1.7223783401 2.6194632431 2.802102189
| 22> O -3.6909693497 -0.082599749 0.1019008506
| 23> C -4.5768181211 -0.8095044629 -0.7664224603
| 24> C -4.0787781694 -2.2085525682 -1.0662295456
| 25> H 4.4626690129 -1.1843460418 -2.2327260345
| 26> H 3.1537900513 -0.0776881785 -2.6730973439
| 27> H 4.8221490462 0.3172013826 -3.1072123797
| 28> H 3.9889452373 1.6246758867 -1.1212342497
| 29> H 5.4133605151 0.616572649 -0.7218795955
| 30> H 0.9523857464 1.0706777257 2.4208973692
| 31> H 1.3680441051 -0.2611876371 3.5438050224
| 32> H 2.8746570082 1.6741906906 3.9281747783
| 33> H 3.8053308548 0.3343385003 3.2298027894
| 34> H 3.3154441663 1.6968669279 2.2128746156
| 35> H -0.4495441299 -2.6831805841 -1.5384924407
| 36> H -0.2549396995 -0.9192479985 -1.8348930267
| 37> H -3.200368187 1.1114165406 2.3014196204
| 38> H -1.5488246587 0.4726017717 2.5034292782
| 39> H -1.8209326706 2.5240815461 3.878440165
| 40> H -0.690138461 2.8504941265 2.5509693731
| 41> H -2.3492892578 3.4334531137 2.4499272902
| 42> H -5.5194442936 -0.8256402997 -0.2174312144
| 43> H -4.6937666466 -0.2384388123 -1.6924385091
| 44> H -3.8485356207 -2.7362384313 -0.144112704
| 45> H -4.8449350919 -2.7504122055 -1.6113065786
| 46> H -3.1814939898 -2.1552708298 -1.6814893226
| 47> *
| 48>
| 49>                          ****END OF INPUT****

CARTESIAN COORDINATES (ANGSTROEM)
---------------------------------
  C      4.192510   -0.137791   -2.349247
  C      4.369608    0.601330   -1.038512
  O      3.689680   -0.049066    0.047754
  P      2.105747   -0.150492    0.133115
  S      1.154051    1.481964   -0.424228
  O      1.888414   -0.595480    1.636763
  C      1.722719    0.349115    2.712060
  C      3.017861    1.059816    3.044699
  S      1.668915   -1.974618   -0.818765
  C     -0.101687   -1.738927   -1.126442
  S     -1.051187   -1.369644    0.380637
  P     -2.197971    0.304951   -0.309178
  S     -1.982290    0.828279   -2.178437
  O     -1.909648    1.462180    0.719033
  C     -2.140544    1.320806    2.144795
  C     -1.722378    2.619463    2.802102
  O     -3.690969   -0.082600    0.101901
  C     -4.576818   -0.809504   -0.766422
  C     -4.078778   -2.208553   -1.066230
  H      4.462669   -1.184346   -2.232726
  H      3.153790   -0.077688   -2.673097
  H      4.822149    0.317201   -3.107212
  H      3.988945    1.624676   -1.121234
  H      5.413361    0.616573   -0.721880
  H      0.952386    1.070678    2.420897
  H      1.368044   -0.261188    3.543805
  H      2.874657    1.674191    3.928175
  H      3.805331    0.334339    3.229803
  H      3.315444    1.696867    2.212875
  H     -0.449544   -2.683181   -1.538492
  H     -0.254940   -0.919248   -1.834893
  H     -3.200368    1.111417    2.301420
  H     -1.548825    0.472602    2.503429
  H     -1.820933    2.524082    3.878440
  H     -0.690138    2.850494    2.550969
  H     -2.349289    3.433453    2.449927
  H     -5.519444   -0.825640   -0.217431
  H     -4.693767   -0.238439   -1.692439
  H     -3.848536   -2.736238   -0.144113
  H     -4.844935   -2.750412   -1.611307
  H     -3.181494   -2.155271   -1.681489

 Total Charge           Charge          ....    0
 Multiplicity           Mult            ....    1
 Number of Electrons    NEL             ....  202
 Basis Dimension        Dim             ....  334

ORBITAL ENERGIES
----------------

  NO   OCC          E(Eh)            E(eV)
   0   2.0000     -88.041170     -2395.7220
   1   2.0000     -88.038947     -2395.6615
   2   2.0000     -87.984258     -2394.1734
   3   2.0000     -87.982248     -2394.1187
   4   2.0000     -76.423002     -2079.5756
   5   2.0000     -76.422450     -2079.5606
   6   2.0000     -18.789469      -511.2875
   7   2.0000     -18.788502      -511.2611
   8   2.0000     -18.786746      -511.2133
   9   2.0000     -18.784843      -511.1616
  10   2.0000      -9.956156      -270.9208
  11   2.0000      -9.952475      -270.8206
  12   2.0000      -9.951354      -270.7901
  13   2.0000      -9.950726      -270.7730
  14   2.0000      -9.950212      -270.7590
  15   2.0000      -9.889108      -269.0963
  16   2.0000      -9.883835      -268.9528
  17   2.0000      -9.883617      -268.9469
  18   2.0000      -9.881599      -268.8920
  19   2.0000      -7.686734      -209.1667
  20   2.0000      -7.683280      -209.0727
  21   2.0000      -7.629461      -207.6082
  22   2.0000      -7.626711      -207.5333
  23   2.0000      -6.420291      -174.7050
  24   2.0000      -6.419859      -174.6933
  25   2.0000      -5.714714      -155.5053
  26   2.0000      -5.711191      -155.4094
  27   2.0000      -5.711142      -155.4081
  28   2.0000      -5.707922      -155.3205
  29   2.0000      -5.703565      -155.2019
  30   2.0000      -5.700228      -155.1111
  31   2.0000      -5.658442      -153.9740
  32   2.0000      -5.655523      -153.8946
  33   2.0000      -5.650084      -153.7466
  34   2.0000      -5.649502      -153.7308
  35   2.0000      -5.647442      -153.6747
  36   2.0000      -5.646974      -153.6620
  37   2.0000      -4.643052      -126.3439
  38   2.0000      -4.642260      -126.3223
  39   2.0000      -4.641829      -126.3106
  40   2.0000      -4.641655      -126.3058
  41   2.0000      -4.640847      -126.2839
  42   2.0000      -4.640446      -126.2730
  43   2.0000      -0.984636       -26.7933
  44   2.0000      -0.983445       -26.7609
  45   2.0000      -0.942691       -25.6519
  46   2.0000      -0.939649       -25.5692
  47   2.0000      -0.759796       -20.6751
  48   2.0000      -0.719504       -19.5787
  49   2.0000      -0.708730       -19.2855
  50   2.0000      -0.687969       -18.7206
  51   2.0000      -0.685568       -18.6553
  52   2.0000      -0.674022       -18.3411
  53   2.0000      -0.649699       -17.6792
  54   2.0000      -0.633590       -17.2408
  55   2.0000      -0.599667       -16.3178
  56   2.0000      -0.588004       -16.0004
  57   2.0000      -0.572198       -15.5703
  58   2.0000      -0.570912       -15.5353
  59   2.0000      -0.559527       -15.2255
  60   2.0000      -0.505149       -13.7458
  61   2.0000      -0.490460       -13.3461
  62   2.0000      -0.471626       -12.8336
  63   2.0000      -0.469617       -12.7789
  64   2.0000      -0.452819       -12.3218
  65   2.0000      -0.446181       -12.1412
  66   2.0000      -0.436955       -11.8901
  67   2.0000      -0.436356       -11.8738
  68   2.0000      -0.429095       -11.6763
  69   2.0000      -0.420249       -11.4356
  70   2.0000      -0.408510       -11.1161
  71   2.0000      -0.393832       -10.7167
  72   2.0000      -0.391104       -10.6425
  73   2.0000      -0.388961       -10.5842
  74   2.0000      -0.379737       -10.3332
  75   2.0000      -0.373694       -10.1687
  76   2.0000      -0.362052        -9.8519
  77   2.0000      -0.357427        -9.7261
  78   2.0000      -0.353101        -9.6084
  79   2.0000      -0.349916        -9.5217
  80   2.0000      -0.347180        -9.4472
  81   2.0000      -0.342127        -9.3097
  82   2.0000      -0.340982        -9.2786
  83   2.0000      -0.335958        -9.1419
  84   2.0000      -0.332855        -9.0574
  85   2.0000      -0.314505        -8.5581
  86   2.0000      -0.311840        -8.4856
  87   2.0000      -0.300137        -8.1671
  88   2.0000      -0.293615        -7.9897
  89   2.0000      -0.293055        -7.9744
  90   2.0000      -0.279857        -7.6153
  91   2.0000      -0.273151        -7.4328
  92   2.0000      -0.265233        -7.2173
  93   2.0000      -0.261308        -7.1106
  94   2.0000      -0.257046        -6.9946
  95   2.0000      -0.230221        -6.2646
  96   2.0000      -0.221127        -6.0172
  97   2.0000      -0.211816        -5.7638
  98   2.0000      -0.199041        -5.4162
  99   2.0000      -0.196122        -5.3368
 100   2.0000      -0.186450        -5.0736
 101   0.0000      -0.041843        -1.1386
 102   0.0000      -0.032961        -0.8969
 103   0.0000      -0.007613        -0.2072
 104   0.0000       0.010423         0.2836
 105   0.0000       0.016580         0.4512

MULLIKEN ATOMIC CHARGES
-----------------------
   0 C :   -0.318397
   1 C :   -0.002653
   2 O :   -0.371597
   3 P :    0.602927
   4 S :   -0.314302
   5 O :   -0.360549
   6 C :   -0.041542
   7 C :   -0.296047
   8 S :   -0.086385
   9 C :   -0.348401
  10 S :   -0.122231
  11 P :    0.621779
  12 S :   -0.289359
  13 O :   -0.356958
  14 C :   -0.025201
  15 C :   -0.294461
  16 O :   -0.389477
  17 C :    0.006262
  18 C :   -0.319643
  19 H :    0.117964
  20 H :    0.131427
  21 H :    0.113161
  22 H :    0.110339
  23 H :    0.104111
  24 H :    0.134751
  25 H :    0.104360
  26 H :    0.108223
  27 H :    0.118174
  28 H :    0.121386
  29 H :    0.181062
  30 H :    0.203417
  31 H :    0.111513
  32 H :    0.111867
  33 H :    0.108143
  34 H :    0.139940
  35 H :    0.121786
  36 H :    0.101868
  37 H :    0.110442
  38 H :    0.120024
  39 H :    0.111961
  40 H :    0.120319
Sum of atomic charges:   -0.0000000

LOEWDIN ATOMIC CHARGES
----------------------
   0 C :   -0.370089
   1 C :   -0.119637
   2 O :   -0.245088
   3 P :    0.562183
   4 S :   -0.308550
   5 O :   -0.239684
   6 C :   -0.120587
   7 C :   -0.362284
   8 S :    0.092057
   9 C :   -0.479626
  10 S :    0.061336
  11 P :    0.576444
  12 S :   -0.286002
  13 O :   -0.231649
  14 C :   -0.115784
  15 C :   -0.351310
  16 O :   -0.254636
  17 C :   -0.115987
  18 C :   -0.371437
  19 H :    0.123817
  20 H :    0.123055
  21 H :    0.131114
  22 H :    0.110413
  23 H :    0.118155
  24 H :    0.109766
  25 H :    0.117759
  26 H :    0.128468
  27 H :    0.127442
  28 H :    0.123826
  29 H :    0.133349
  30 H :    0.122773
  31 H :    0.114182
  32 H :    0.104994
  33 H :    0.129084
  34 H :    0.129397
  35 H :    0.131254
  36 H :    0.117310
  37 H :    0.111531
  38 H :    0.123792
  39 H :    0.130107
  40 H :    0.118737

  Mayer bond orders larger than 0.100000
B(  0-C ,  1-C ) :   1.1669 B(  0-C , 19-H ) :   0.9441 B(  0-C , 20-H ) :   0.9352
B(  0-C , 21-H ) :   0.9377 B(  1-C ,  2-O ) :   0.9089 B(  1-C , 22-H ) :   0.9152
B(  1-C , 23-H ) :   0.9339 B(  2-O ,  3-P ) :   1.1024 B(  3-P ,  4-S ) :   1.6139
B(  3-P ,  5-O ) :   1.1189 B(  3-P ,  8-S ) :   0.9592 B(  4-S ,  8-S ) :   0.1137
B(  5-O ,  6-C ) :   0.9117 B(  6-C ,  7-C ) :   1.1628 B(  6-C , 24-H ) :   0.8995
B(  6-C , 25-H ) :   0.9339 B(  7-C , 26-H ) :   0.9393 B(  7-C , 27-H ) :   0.9458
B(  7-C , 28-H ) :   0.9382 B(  8-S ,  9-C ) :   0.9984 B(  9-C , 10-S ) :   1.0040
B(  9-C , 29-H ) :   0.9068 B(  9-C , 30-H ) :   0.8497 B( 10-S , 11-P ) :   0.9364
B( 10-S , 12-S ) :   0.1182 B( 11-P , 12-S ) :   1.6305 B( 11-P , 13-O ) :   1.1348
B( 11-P , 16-O ) :   1.0694 B( 12-S , 30-H ) :   0.1090 B( 13-O , 14-C ) :   0.8997
B( 14-C , 15-C ) :   1.1630 B( 14-C , 31-H ) :   0.9235 B( 14-C , 32-H ) :   0.9132
B( 15-C , 33-H ) :   0.9407 B( 15-C , 34-H ) :   0.9406 B( 15-C , 35-H ) :   0.9471
B( 16-O , 17-C ) :   0.9178 B( 17-C , 18-C ) :   1.1645 B( 17-C , 36-H ) :   0.9347
B( 17-C , 37-H ) :   0.9190 B( 18-C , 38-H ) :   0.9411 B( 18-C , 39-H ) :   0.9368
B( 18-C , 40-H ) :   0.9363

Dispersion correction           -0.066984233
FINAL SINGLE POINT ENERGY     -2929.517618129519

DIPOLE MOMENT
-------------

Method             : SCF
Type of density    : Electron Density
Multiplicity       :   1
Irrep              :   0
Energy             : -2929.6352917880203677 Eh
Relativity type    :
Basis              : AO
                                X                 Y                 Z
Electronic contribution:     -1.794228485      -4.035259819      -8.988847408
Nuclear contribution   :      1.734243897       3.556912143      10.080171450
                        -----------------------------------------
Total Dipole Moment    :     -0.059984588      -0.478347676       1.091324042
                        -----------------------------------------
Magnitude (a.u.)       :      1.193064464
Magnitude (Debye)      :      3.032528868

Rotational constants in cm-1:             0.011709             0.005648             0.004809
Rotational constants in MHz :           351.017555           169.336830           144.180955

                             ****ORCA TERMINATED NORMALLY****
TOTAL RUN TIME: 0 days 0 hours 0 minutes 21 seconds 358 msec
