                         Program Version 6.0.0  -   RELEASE  -
|  1> ! pbe def2-sv(p) def2/J RI DEFGRID1 loosescf d4 GCP(DFT/SV(P)) printgap
|  2> %output
|  3>     printlevel normal
|  4> end
|  5> * xyz 0 1
|  6> C 2.6659685547 -1.0899849424 -2.6445305787
|  7> C 2.9082609803 0.2543046824 -1.9882479855
|  8> O 3.2241176138 0.0944132253 -0.5921157737
|  9> P 2.1902411429 0.2548001036 0.5992520237
| 10> S 1.2358950311 1.9580160501 0.7349632053
| 11> O 3.1102106188 0.0714927054 1.86702208
| 12> C 3.961427116 -1.0806370378 2.0900319275
| 13> C 5.3750197429 -0.8100805878 1.6176950065
| 14> S 1.0013784706 -1.51015547 0.5412322456
| 15> C -0.3895519035 -0.9161872365 1.5605537288
| 16> S -1.9997614564 -1.2627958542 0.8205033721
| 17> P -2.0615123737 0.3347344726 -0.5926743092
| 18> S -0.6894468205 0.3176105042 -1.9881799038
| 19> O -2.0212719554 1.6642248319 0.254649014
| 20> C -3.1439015133 2.2947943923 0.9173215438
| 21> C -3.7306895609 1.443648896 2.0237935226
| 22> O -3.5554365272 0.2969739717 -1.1292611722
| 23> C -3.9479208291 -0.5128482698 -2.252777342
| 24> C -3.8098393797 -1.9935189175 -1.9664377113
| 25> H 2.5382661905 -0.9402193428 -3.7115149208
| 26> H 3.5089473341 -1.7516609506 -2.467661872
| 27> H 1.7615727252 -1.547113124 -2.2498995007
| 28> H 2.0355983162 0.9054287198 -2.0934557483
| 29> H 3.7833701975 0.7514418985 -2.4111191449
| 30> H 3.9271753927 -1.234772221 3.1700147152
| 31> H 3.5285657622 -1.9444024046 1.5772242452
| 32> H 5.7677199549 0.0761727008 2.1086150928
| 33> H 5.9997015503 -1.6633247834 1.8629355725
| 34> H 5.3907594851 -0.6496767825 0.5432566957
| 35> H -0.2710006327 0.162659468 1.6965906727
| 36> H -0.3741569329 -1.44624124 2.508896708
| 37> H -2.7085254789 3.2174252467 1.3055341188
| 38> H -3.8967016134 2.5265921807 0.1616494953
| 39> H -4.1740362654 0.5391704572 1.6134174253
| 40> H -2.9615172878 1.1682271387 2.741278125
| 41> H -4.5001118939 2.0162010355 2.5325792794
| 42> H -4.9867933105 -0.2280761498 -2.4251506298
| 43> H -3.3343057558 -0.2290118088 -3.1133665509
| 44> H -2.7576100364 -2.2532585804 -1.8576334198
| 45> H -4.3314522821 -2.2545156455 -1.0490879114
| 46> H -4.2269432727 -2.5587241396 -2.7936094968
| 47> *
| 48>
| 49>                          ****END OF INPUT****

CARTESIAN COORDINATES (ANGSTROEM)
---------------------------------
  C      2.665969   -1.089985   -2.644531
  C      2.908261    0.254305   -1.988248
  O      3.224118    0.094413   -0.592116
  P      2.190241    0.254800    0.599252
  S      1.235895    1.958016    0.734963
  O      3.110211    0.071493    1.867022
  C      3.961427   -1.080637    2.090032
  C      5.375020   -0.810081    1.617695
  S      1.001378   -1.510155    0.541232
  C     -0.389552   -0.916187    1.560554
  S     -1.999761   -1.262796    0.820503
  P     -2.061512    0.334734   -0.592674
  S     -0.689447    0.317611   -1.988180
  O     -2.021272    1.664225    0.254649
  C     -3.143902    2.294794    0.917322
  C     -3.730690    1.443649    2.023794
  O     -3.555437    0.296974   -1.129261
  C     -3.947921   -0.512848   -2.252777
  C     -3.809839   -1.993519   -1.966438
  H      2.538266   -0.940219   -3.711515
  H      3.508947   -1.751661   -2.467662
  H      1.761573   -1.547113   -2.249900
  H      2.035598    0.905429   -2.093456
  H      3.783370    0.751442   -2.411119
  H      3.927175   -1.234772    3.170015
  H      3.528566   -1.944402    1.577224
  H      5.767720    0.076173    2.108615
  H      5.999702   -1.663325    1.862936
  H      5.390759   -0.649677    0.543257
  H     -0.271001    0.162659    1.696591
  H     -0.374157   -1.446241    2.508897
  H     -2.708525    3.217425    1.305534
  H     -3.896702    2.526592    0.161649
  H     -4.174036    0.539170    1.613417
  H     -2.961517    1.168227    2.741278
  H     -4.500112    2.016201    2.532579
  H     -4.986793   -0.228076   -2.425151
  H     -3.334306   -0.229012   -3.113367
  H     -2.757610   -2.253259   -1.857633
  H     -4.331452   -2.254516   -1.049088
  H     -4.226943   -2.558724   -2.793609

 Total Charge           Charge          ....    0
 Multiplicity           Mult            ....    1
 Number of Electrons    NEL             ....  202
 Basis Dimension        Dim             ....  334

ORBITAL ENERGIES
----------------

  NO   OCC          E(Eh)            E(eV)
   0   2.0000     -88.041280     -2395.7250
   1   2.0000     -88.034803     -2395.5488
   2   2.0000     -87.978299     -2394.0112
   3   2.0000     -87.973012     -2393.8674
   4   2.0000     -76.424730     -2079.6226
   5   2.0000     -76.416939     -2079.4106
   6   2.0000     -18.796203      -511.4707
   7   2.0000     -18.788703      -511.2666
   8   2.0000     -18.786664      -511.2111
   9   2.0000     -18.780752      -511.0502
  10   2.0000      -9.955444      -270.9014
  11   2.0000      -9.954217      -270.8680
  12   2.0000      -9.952492      -270.8211
  13   2.0000      -9.949872      -270.7498
  14   2.0000      -9.944921      -270.6151
  15   2.0000      -9.886380      -269.0221
  16   2.0000      -9.886213      -269.0175
  17   2.0000      -9.881523      -268.8899
  18   2.0000      -9.876352      -268.7492
  19   2.0000      -7.686172      -209.1514
  20   2.0000      -7.679638      -208.9736
  21   2.0000      -7.623335      -207.4415
  22   2.0000      -7.618298      -207.3044
  23   2.0000      -6.421875      -174.7481
  24   2.0000      -6.414591      -174.5499
  25   2.0000      -5.713891      -155.4829
  26   2.0000      -5.710811      -155.3991
  27   2.0000      -5.707438      -155.3073
  28   2.0000      -5.704206      -155.2193
  29   2.0000      -5.703185      -155.1915
  30   2.0000      -5.696660      -155.0140
  31   2.0000      -5.652288      -153.8066
  32   2.0000      -5.647408      -153.6738
  33   2.0000      -5.644033      -153.5819
  34   2.0000      -5.643335      -153.5629
  35   2.0000      -5.639038      -153.4460
  36   2.0000      -5.638092      -153.4203
  37   2.0000      -4.645112      -126.3999
  38   2.0000      -4.643509      -126.3563
  39   2.0000      -4.641907      -126.3127
  40   2.0000      -4.637453      -126.1915
  41   2.0000      -4.636379      -126.1623
  42   2.0000      -4.634726      -126.1173
  43   2.0000      -0.988105       -26.8877
  44   2.0000      -0.980890       -26.6914
  45   2.0000      -0.943969       -25.6867
  46   2.0000      -0.937580       -25.5128
  47   2.0000      -0.758176       -20.6310
  48   2.0000      -0.717221       -19.5166
  49   2.0000      -0.708053       -19.2671
  50   2.0000      -0.691776       -18.8242
  51   2.0000      -0.684323       -18.6214
  52   2.0000      -0.673424       -18.3248
  53   2.0000      -0.647120       -17.6090
  54   2.0000      -0.627960       -17.0876
  55   2.0000      -0.594879       -16.1875
  56   2.0000      -0.584877       -15.9153
  57   2.0000      -0.579588       -15.7714
  58   2.0000      -0.567567       -15.4443
  59   2.0000      -0.555860       -15.1257
  60   2.0000      -0.497350       -13.5336
  61   2.0000      -0.494580       -13.4582
  62   2.0000      -0.473377       -12.8812
  63   2.0000      -0.470225       -12.7955
  64   2.0000      -0.454515       -12.3680
  65   2.0000      -0.446804       -12.1582
  66   2.0000      -0.440290       -11.9809
  67   2.0000      -0.434445       -11.8219
  68   2.0000      -0.425594       -11.5810
  69   2.0000      -0.419074       -11.4036
  70   2.0000      -0.409707       -11.1487
  71   2.0000      -0.398190       -10.8353
  72   2.0000      -0.386793       -10.5252
  73   2.0000      -0.380561       -10.3556
  74   2.0000      -0.378216       -10.2918
  75   2.0000      -0.370076       -10.0703
  76   2.0000      -0.360624        -9.8131
  77   2.0000      -0.355644        -9.6776
  78   2.0000      -0.352976        -9.6050
  79   2.0000      -0.350521        -9.5382
  80   2.0000      -0.346172        -9.4198
  81   2.0000      -0.341788        -9.3005
  82   2.0000      -0.340921        -9.2769
  83   2.0000      -0.334773        -9.1096
  84   2.0000      -0.327422        -8.9096
  85   2.0000      -0.319870        -8.7041
  86   2.0000      -0.310585        -8.4514
  87   2.0000      -0.296491        -8.0679
  88   2.0000      -0.293651        -7.9907
  89   2.0000      -0.286461        -7.7950
  90   2.0000      -0.283044        -7.7020
  91   2.0000      -0.271662        -7.3923
  92   2.0000      -0.267097        -7.2681
  93   2.0000      -0.259362        -7.0576
  94   2.0000      -0.254687        -6.9304
  95   2.0000      -0.236999        -6.4491
  96   2.0000      -0.220445        -5.9986
  97   2.0000      -0.199992        -5.4420
  98   2.0000      -0.193646        -5.2694
  99   2.0000      -0.186284        -5.0691
 100   2.0000      -0.179087        -4.8732
 101   0.0000      -0.037668        -1.0250
 102   0.0000      -0.026875        -0.7313
 103   0.0000      -0.013754        -0.3743
 104   0.0000       0.003091         0.0841
 105   0.0000       0.027590         0.7508

MULLIKEN ATOMIC CHARGES
-----------------------
   0 C :   -0.310191
   1 C :   -0.011796
   2 O :   -0.382014
   3 P :    0.597442
   4 S :   -0.294411
   5 O :   -0.357790
   6 C :   -0.011217
   7 C :   -0.288953
   8 S :   -0.099648
   9 C :   -0.351789
  10 S :   -0.107055
  11 P :    0.620522
  12 S :   -0.312138
  13 O :   -0.354723
  14 C :    0.009011
  15 C :   -0.319119
  16 O :   -0.385048
  17 C :    0.001083
  18 C :   -0.327406
  19 H :    0.110156
  20 H :    0.106289
  21 H :    0.141733
  22 H :    0.130547
  23 H :    0.103702
  24 H :    0.104695
  25 H :    0.097552
  26 H :    0.118659
  27 H :    0.106197
  28 H :    0.122022
  29 H :    0.194555
  30 H :    0.180224
  31 H :    0.114226
  32 H :    0.107754
  33 H :    0.123863
  34 H :    0.122239
  35 H :    0.112378
  36 H :    0.104441
  37 H :    0.114468
  38 H :    0.134646
  39 H :    0.118570
  40 H :    0.116325
Sum of atomic charges:    0.0000000

LOEWDIN ATOMIC CHARGES
----------------------
   0 C :   -0.366049
   1 C :   -0.115586
   2 O :   -0.241228
   3 P :    0.564830
   4 S :   -0.298166
   5 O :   -0.242243
   6 C :   -0.117447
   7 C :   -0.360194
   8 S :    0.066431
   9 C :   -0.484020
  10 S :    0.077531
  11 P :    0.576620
  12 S :   -0.304933
  13 O :   -0.230739
  14 C :   -0.106463
  15 C :   -0.369208
  16 O :   -0.246738
  17 C :   -0.117489
  18 C :   -0.373336
  19 H :    0.131221
  20 H :    0.121060
  21 H :    0.122343
  22 H :    0.111995
  23 H :    0.117754
  24 H :    0.118709
  25 H :    0.100424
  26 H :    0.128322
  27 H :    0.127587
  28 H :    0.125645
  29 H :    0.121705
  30 H :    0.135189
  31 H :    0.124513
  32 H :    0.114325
  33 H :    0.118391
  34 H :    0.126345
  35 H :    0.130677
  36 H :    0.118321
  37 H :    0.113563
  38 H :    0.123970
  39 H :    0.123217
  40 H :    0.133155

  Mayer bond orders larger than 0.100000
B(  0-C ,  1-C ) :   1.1719 B(  0-C , 19-H ) :   0.9402 B(  0-C , 20-H ) :   0.9477
B(  0-C , 21-H ) :   0.9301 B(  1-C ,  2-O ) :   0.8919 B(  1-C , 22-H ) :   0.9033
B(  1-C , 23-H ) :   0.9345 B(  2-O ,  3-P ) :   1.0988 B(  3-P ,  4-S ) :   1.6557
B(  3-P ,  5-O ) :   1.1239 B(  3-P ,  8-S ) :   0.9482 B(  4-S ,  8-S ) :   0.1153
B(  4-S , 29-H ) :   0.1111 B(  5-O ,  6-C ) :   0.9029 B(  6-C ,  7-C ) :   1.1629
B(  6-C , 24-H ) :   0.9371 B(  6-C , 25-H ) :   0.9096 B(  7-C , 26-H ) :   0.9472
B(  7-C , 27-H ) :   0.9400 B(  7-C , 28-H ) :   0.9415 B(  8-S ,  9-C ) :   0.9861
B(  9-C , 10-S ) :   1.0037 B(  9-C , 29-H ) :   0.8464 B(  9-C , 30-H ) :   0.9118
B( 10-S , 11-P ) :   0.9415 B( 10-S , 12-S ) :   0.1137 B( 11-P , 12-S ) :   1.6585
B( 11-P , 13-O ) :   1.1303 B( 11-P , 16-O ) :   1.0738 B( 13-O , 14-C ) :   0.8988
B( 14-C , 15-C ) :   1.1702 B( 14-C , 31-H ) :   0.9335 B( 14-C , 32-H ) :   0.9279
B( 15-C , 33-H ) :   0.9385 B( 15-C , 34-H ) :   0.9450 B( 15-C , 35-H ) :   0.9358
B( 16-O , 17-C ) :   0.9022 B( 17-C , 18-C ) :   1.1658 B( 17-C , 36-H ) :   0.9335
B( 17-C , 37-H ) :   0.9160 B( 18-C , 38-H ) :   0.9307 B( 18-C , 39-H ) :   0.9433
B( 18-C , 40-H ) :   0.9369

Dispersion correction           -0.066562519
FINAL SINGLE POINT ENERGY     -2929.510747359589

DIPOLE MOMENT
-------------

Method             : SCF
Type of density    : Electron Density
Multiplicity       :   1
Irrep              :   0
Energy             : -2929.6294715594221998 Eh
Relativity type    :
Basis              : AO
                                X                 Y                 Z
Electronic contribution:     -0.319696032       6.455111892       2.407026589
Nuclear contribution   :     -0.354791724      -7.364856153      -2.208269659
                        -----------------------------------------
Total Dipole Moment    :     -0.674487756      -0.909744262       0.198756930
                        -----------------------------------------
Magnitude (a.u.)       :      1.149814190
Magnitude (Debye)      :      2.922595409

Rotational constants in cm-1:             0.013235             0.005033             0.004628
Rotational constants in MHz :           396.785370           150.876402           138.736694

                             ****ORCA TERMINATED NORMALLY****
TOTAL RUN TIME: 0 days 0 hours 0 minutes 20 seconds 996 msec
