                         Program Version 6.0.1  -  RELEASE   -
|  1> ! r2scan-3c def2/J RI DEFGRID2 scfconv6 printgap
|  2> %output
|  3>     printlevel normal
|  4> end
|  5> * xyz 0 1
|  6> C 4.6027226771 -3.9778331086 -1.7446485612
|  7> C 4.138661243 -2.8213040444 -0.8810741312
|  8> O 3.1965919838 -2.0420146074 -1.646608784
|  9> C 2.4073884627 -1.2116882271 -1.0067274048
| 10> O 2.411722339 -1.0488157885 0.1976205245
| 11> C 1.4878777383 -0.4607736373 -1.9461414239
| 12> C 0.4223910196 0.2671990376 -1.1382983287
| 13> H -0.1397605388 0.96083299 -1.7729390511
| 14> C 1.0817926215 1.0847190235 -0.0390752382
| 15> O 2.0314241388 1.8022270959 -0.2579738464
| 16> O 0.4734922641 0.9650084999 1.122882636
| 17> C 0.9924864351 1.708544535 2.2424171356
| 18> C 0.3614123962 3.0879177079 2.3214270647
| 19> S -0.7699094774 -0.9298939358 -0.4528762429
| 20> P -2.1735351293 0.4580711266 0.3367870518
| 21> S -2.1606637327 2.2523078953 -0.4449148361
| 22> O -3.5531975714 -0.3329056217 0.1322617771
| 23> C -4.0943077132 -0.5534816322 -1.1747801872
| 24> O -2.1021792561 0.4628628491 1.9146203152
| 25> C -2.1019729533 -0.7533779794 2.6860710118
| 26> H 5.329705665 -4.5658285909 -1.1945621542
| 27> H 3.7595635769 -4.6079673899 -2.0110943119
| 28> H 5.0601242007 -3.6002960608 -2.6539422251
| 29> H 4.9698152188 -2.1666354348 -0.6020288199
| 30> H 3.6429454487 -3.162350806 0.0329125552
| 31> H 1.0448763952 -1.1523113543 -2.6617087813
| 32> H 2.091819696 0.2709974759 -2.4875750291
| 33> H 0.7395533197 1.1030137178 3.1130614077
| 34> H 2.0775585832 1.7758671051 2.1246243177
| 35> H 0.7237094067 3.5985495956 3.2071568441
| 36> H 0.6214017065 3.6711698661 1.440491294
| 37> H -0.7217996556 3.0004450253 2.3714472279
| 38> H -5.101757795 -0.9287357585 -1.0145217171
| 39> H -3.4889964761 -1.2871457264 -1.7067657006
| 40> H -4.12106595 0.3841668202 -1.7321424956
| 41> H -1.2137355044 -1.339572781 2.4495981434
| 42> H -2.9996853572 -1.331047273 2.4744882156
| 43> H -2.0859211056 -0.4314865128 3.7241117384
| 44> *
| 45>
| 46>                          ****END OF INPUT****

CARTESIAN COORDINATES (ANGSTROEM)
---------------------------------
  C      4.602723   -3.977833   -1.744649
  C      4.138661   -2.821304   -0.881074
  O      3.196592   -2.042015   -1.646609
  C      2.407388   -1.211688   -1.006727
  O      2.411722   -1.048816    0.197621
  C      1.487878   -0.460774   -1.946141
  C      0.422391    0.267199   -1.138298
  H     -0.139761    0.960833   -1.772939
  C      1.081793    1.084719   -0.039075
  O      2.031424    1.802227   -0.257974
  O      0.473492    0.965008    1.122883
  C      0.992486    1.708545    2.242417
  C      0.361412    3.087918    2.321427
  S     -0.769909   -0.929894   -0.452876
  P     -2.173535    0.458071    0.336787
  S     -2.160664    2.252308   -0.444915
  O     -3.553198   -0.332906    0.132262
  C     -4.094308   -0.553482   -1.174780
  O     -2.102179    0.462863    1.914620
  C     -2.101973   -0.753378    2.686071
  H      5.329706   -4.565829   -1.194562
  H      3.759564   -4.607967   -2.011094
  H      5.060124   -3.600296   -2.653942
  H      4.969815   -2.166635   -0.602029
  H      3.642945   -3.162351    0.032913
  H      1.044876   -1.152311   -2.661709
  H      2.091820    0.270997   -2.487575
  H      0.739553    1.103014    3.113061
  H      2.077559    1.775867    2.124624
  H      0.723709    3.598550    3.207157
  H      0.621402    3.671170    1.440491
  H     -0.721800    3.000445    2.371447
  H     -5.101758   -0.928736   -1.014522
  H     -3.488996   -1.287146   -1.706766
  H     -4.121066    0.384167   -1.732142
  H     -1.213736   -1.339573    2.449598
  H     -2.999685   -1.331047    2.474488
  H     -2.085921   -0.431487    3.724112

 Total Charge           Charge          ....    0
 Multiplicity           Mult            ....    1
 Number of Electrons    NEL             ....  174
 Basis Dimension        Dim             ....  510

ORBITAL ENERGIES
----------------

  NO   OCC          E(Eh)            E(eV)
   0   2.0000     -88.571629     -2410.1565
   1   2.0000     -88.515909     -2408.6403
   2   2.0000     -76.912083     -2092.8842
   3   2.0000     -19.010250      -517.2952
   4   2.0000     -18.992695      -516.8175
   5   2.0000     -18.989919      -516.7420
   6   2.0000     -18.988919      -516.7148
   7   2.0000     -18.941439      -515.4228
   8   2.0000     -18.923547      -514.9359
   9   2.0000     -10.166213      -276.6367
  10   2.0000     -10.153876      -276.3010
  11   2.0000     -10.100990      -274.8619
  12   2.0000     -10.096587      -274.7421
  13   2.0000     -10.091007      -274.5903
  14   2.0000     -10.089978      -274.5623
  15   2.0000     -10.082513      -274.3591
  16   2.0000     -10.065650      -273.9002
  17   2.0000     -10.038876      -273.1717
  18   2.0000     -10.013051      -272.4690
  19   2.0000      -7.865949      -214.0433
  20   2.0000      -7.810676      -212.5393
  21   2.0000      -6.590249      -179.3298
  22   2.0000      -5.812737      -158.1726
  23   2.0000      -5.809932      -158.0963
  24   2.0000      -5.803027      -157.9084
  25   2.0000      -5.758557      -156.6983
  26   2.0000      -5.750866      -156.4890
  27   2.0000      -5.750538      -156.4801
  28   2.0000      -4.735932      -128.8713
  29   2.0000      -4.735318      -128.8545
  30   2.0000      -4.733754      -128.8120
  31   2.0000      -1.087704       -29.5979
  32   2.0000      -1.069547       -29.1038
  33   2.0000      -1.049055       -28.5462
  34   2.0000      -1.006964       -27.4009
  35   2.0000      -0.990583       -26.9551
  36   2.0000      -0.974216       -26.5098
  37   2.0000      -0.809235       -22.0204
  38   2.0000      -0.762566       -20.7505
  39   2.0000      -0.734357       -19.9829
  40   2.0000      -0.731577       -19.9072
  41   2.0000      -0.698006       -18.9937
  42   2.0000      -0.674787       -18.3619
  43   2.0000      -0.656539       -17.8653
  44   2.0000      -0.645174       -17.5561
  45   2.0000      -0.626050       -17.0357
  46   2.0000      -0.591134       -16.0856
  47   2.0000      -0.544299       -14.8111
  48   2.0000      -0.539340       -14.6762
  49   2.0000      -0.519428       -14.1344
  50   2.0000      -0.500095       -13.6083
  51   2.0000      -0.492117       -13.3912
  52   2.0000      -0.484206       -13.1759
  53   2.0000      -0.471120       -12.8198
  54   2.0000      -0.455255       -12.3881
  55   2.0000      -0.450559       -12.2603
  56   2.0000      -0.442175       -12.0322
  57   2.0000      -0.438031       -11.9194
  58   2.0000      -0.437431       -11.9031
  59   2.0000      -0.430604       -11.7173
  60   2.0000      -0.424651       -11.5553
  61   2.0000      -0.417308       -11.3555
  62   2.0000      -0.405428       -11.0323
  63   2.0000      -0.400208       -10.8902
  64   2.0000      -0.387179       -10.5357
  65   2.0000      -0.382463       -10.4073
  66   2.0000      -0.375256       -10.2112
  67   2.0000      -0.364007        -9.9051
  68   2.0000      -0.361009        -9.8236
  69   2.0000      -0.354354        -9.6425
  70   2.0000      -0.344757        -9.3813
  71   2.0000      -0.335139        -9.1196
  72   2.0000      -0.332657        -9.0521
  73   2.0000      -0.330155        -8.9840
  74   2.0000      -0.324555        -8.8316
  75   2.0000      -0.320322        -8.7164
  76   2.0000      -0.313643        -8.5346
  77   2.0000      -0.300983        -8.1902
  78   2.0000      -0.285002        -7.7553
  79   2.0000      -0.283769        -7.7218
  80   2.0000      -0.274938        -7.4814
  81   2.0000      -0.264314        -7.1923
  82   2.0000      -0.254911        -6.9365
  83   2.0000      -0.247539        -6.7359
  84   2.0000      -0.221478        -6.0267
  85   2.0000      -0.214937        -5.8487
  86   2.0000      -0.210666        -5.7325
  87   0.0000      -0.041462        -1.1282
  88   0.0000      -0.022557        -0.6138
  89   0.0000      -0.008552        -0.2327
  90   0.0000       0.008163         0.2221
  91   0.0000       0.017914         0.4875

MULLIKEN ATOMIC CHARGES
-----------------------
   0 C :   -0.440690
   1 C :   -0.152016
   2 O :   -0.144084
   3 C :    0.376556
   4 O :   -0.387434
   5 C :   -0.468471
   6 C :    0.038896
   7 H :    0.246482
   8 C :    0.234546
   9 O :   -0.385233
  10 O :   -0.119674
  11 C :   -0.127499
  12 C :   -0.482952
  13 S :   -0.227142
  14 P :    0.780877
  15 S :   -0.444006
  16 O :   -0.347890
  17 C :   -0.297464
  18 O :   -0.310550
  19 C :   -0.302247
  20 H :    0.149918
  21 H :    0.153165
  22 H :    0.154463
  23 H :    0.153769
  24 H :    0.169197
  25 H :    0.190583
  26 H :    0.201925
  27 H :    0.141712
  28 H :    0.171828
  29 H :    0.142655
  30 H :    0.172471
  31 H :    0.172705
  32 H :    0.151029
  33 H :    0.157910
  34 H :    0.174619
  35 H :    0.178044
  36 H :    0.167984
  37 H :    0.156017
Sum of atomic charges:    0.0000000

LOEWDIN ATOMIC CHARGES
----------------------
   0 C :   -0.384549
   1 C :    0.037584
   2 O :   -0.576457
   3 C :    0.366598
   4 O :   -0.422119
   5 C :   -0.207471
   6 C :   -0.197960
   7 H :    0.208456
   8 C :    0.349607
   9 O :   -0.419687
  10 O :   -0.620788
  11 C :    0.036769
  12 C :   -0.392530
  13 S :    0.209541
  14 P :    0.398238
  15 S :   -0.086291
  16 O :   -0.687348
  17 C :   -0.061755
  18 O :   -0.649598
  19 C :   -0.052936
  20 H :    0.160790
  21 H :    0.159630
  22 H :    0.160584
  23 H :    0.178513
  24 H :    0.186285
  25 H :    0.189622
  26 H :    0.205550
  27 H :    0.177916
  28 H :    0.193213
  29 H :    0.155378
  30 H :    0.167177
  31 H :    0.166183
  32 H :    0.176537
  33 H :    0.168510
  34 H :    0.176380
  35 H :    0.176104
  36 H :    0.174381
  37 H :    0.179945

  Mayer bond orders larger than 0.100000
B(  0-C ,  1-C ) :   0.9486 B(  0-C , 20-H ) :   0.9677 B(  0-C , 21-H ) :   0.9741
B(  0-C , 22-H ) :   0.9687 B(  1-C ,  2-O ) :   0.7720 B(  1-C , 23-H ) :   0.9435
B(  1-C , 24-H ) :   0.9603 B(  2-O ,  3-C ) :   1.1726 B(  3-C ,  4-O ) :   1.7785
B(  3-C ,  5-C ) :   0.9696 B(  4-O ,  8-C ) :   0.1235 B(  5-C ,  6-C ) :   0.9091
B(  5-C ,  9-O ) :   0.1117 B(  5-C , 25-H ) :   0.9768 B(  5-C , 26-H ) :   0.9175
B(  6-C ,  7-H ) :   0.9151 B(  6-C ,  8-C ) :   0.8161 B(  6-C , 13-S ) :   0.8684
B(  8-C ,  9-O ) :   1.8959 B(  8-C , 10-O ) :   1.1436 B( 10-O , 11-C ) :   0.7752
B( 11-C , 12-C ) :   0.9222 B( 11-C , 27-H ) :   0.9643 B( 11-C , 28-H ) :   0.9660
B( 12-C , 29-H ) :   0.9691 B( 12-C , 30-H ) :   0.9697 B( 12-C , 31-H ) :   0.9653
B( 13-S , 14-P ) :   0.9877 B( 14-P , 15-S ) :   1.7963 B( 14-P , 16-O ) :   1.0325
B( 14-P , 18-O ) :   1.1512 B( 16-O , 17-C ) :   0.8336 B( 17-C , 32-H ) :   0.9673
B( 17-C , 33-H ) :   0.9570 B( 17-C , 34-H ) :   0.9595 B( 18-O , 19-C ) :   0.7923
B( 19-C , 35-H ) :   0.9559 B( 19-C , 36-H ) :   0.9610 B( 19-C , 37-H ) :   0.9652

Dispersion correction           -0.017549857
FINAL SINGLE POINT ENERGY     -1981.454469984347

DIPOLE MOMENT
-------------

Method             : SCF
Type of density    : Electron Density
Multiplicity       :   1
Irrep              :   0
Energy             : -1981.4743710312241092 Eh
Relativity type    :
Basis              : AO
                                X                 Y                 Z
Electronic contribution:    -11.414257719       7.628433179      -2.600180522
Nuclear contribution   :     11.621723583      -9.652338338       2.655637572
                        -----------------------------------------
Total Dipole Moment    :      0.207465865      -2.023905159       0.055457050
                        -----------------------------------------
Magnitude (a.u.)       :      2.035266484
Magnitude (Debye)      :      5.173236279

Rotational constants in cm-1:             0.015008             0.006202             0.005404
Rotational constants in MHz :           449.926967           185.936792           162.015903

                             ****ORCA TERMINATED NORMALLY****
TOTAL RUN TIME: 0 days 0 hours 1 minutes 34 seconds 848 msec
