                         Program Version 6.0.1  -  RELEASE   -
|  1> ! r2scan-3c def2/J RI DEFGRID2 scfconv6 printgap
|  2> %output
|  3>     printlevel normal
|  4> end
|  5> %cpcm
|  6>     smd true
|  7>     smdsolvent "water"
|  8> end
|  9> * xyz 0 1
| 10> C 4.6027226771 -3.9778331086 -1.7446485612
| 11> C 4.138661243 -2.8213040444 -0.8810741312
| 12> O 3.1965919838 -2.0420146074 -1.646608784
| 13> C 2.4073884627 -1.2116882271 -1.0067274048
| 14> O 2.411722339 -1.0488157885 0.1976205245
| 15> C 1.4878777383 -0.4607736373 -1.9461414239
| 16> C 0.4223910196 0.2671990376 -1.1382983287
| 17> H -0.1397605388 0.96083299 -1.7729390511
| 18> C 1.0817926215 1.0847190235 -0.0390752382
| 19> O 2.0314241388 1.8022270959 -0.2579738464
| 20> O 0.4734922641 0.9650084999 1.122882636
| 21> C 0.9924864351 1.708544535 2.2424171356
| 22> C 0.3614123962 3.0879177079 2.3214270647
| 23> S -0.7699094774 -0.9298939358 -0.4528762429
| 24> P -2.1735351293 0.4580711266 0.3367870518
| 25> S -2.1606637327 2.2523078953 -0.4449148361
| 26> O -3.5531975714 -0.3329056217 0.1322617771
| 27> C -4.0943077132 -0.5534816322 -1.1747801872
| 28> O -2.1021792561 0.4628628491 1.9146203152
| 29> C -2.1019729533 -0.7533779794 2.6860710118
| 30> H 5.329705665 -4.5658285909 -1.1945621542
| 31> H 3.7595635769 -4.6079673899 -2.0110943119
| 32> H 5.0601242007 -3.6002960608 -2.6539422251
| 33> H 4.9698152188 -2.1666354348 -0.6020288199
| 34> H 3.6429454487 -3.162350806 0.0329125552
| 35> H 1.0448763952 -1.1523113543 -2.6617087813
| 36> H 2.091819696 0.2709974759 -2.4875750291
| 37> H 0.7395533197 1.1030137178 3.1130614077
| 38> H 2.0775585832 1.7758671051 2.1246243177
| 39> H 0.7237094067 3.5985495956 3.2071568441
| 40> H 0.6214017065 3.6711698661 1.440491294
| 41> H -0.7217996556 3.0004450253 2.3714472279
| 42> H -5.101757795 -0.9287357585 -1.0145217171
| 43> H -3.4889964761 -1.2871457264 -1.7067657006
| 44> H -4.12106595 0.3841668202 -1.7321424956
| 45> H -1.2137355044 -1.339572781 2.4495981434
| 46> H -2.9996853572 -1.331047273 2.4744882156
| 47> H -2.0859211056 -0.4314865128 3.7241117384
| 48> *
| 49>
| 50>                          ****END OF INPUT****

CARTESIAN COORDINATES (ANGSTROEM)
---------------------------------
  C      4.602723   -3.977833   -1.744649
  C      4.138661   -2.821304   -0.881074
  O      3.196592   -2.042015   -1.646609
  C      2.407388   -1.211688   -1.006727
  O      2.411722   -1.048816    0.197621
  C      1.487878   -0.460774   -1.946141
  C      0.422391    0.267199   -1.138298
  H     -0.139761    0.960833   -1.772939
  C      1.081793    1.084719   -0.039075
  O      2.031424    1.802227   -0.257974
  O      0.473492    0.965008    1.122883
  C      0.992486    1.708545    2.242417
  C      0.361412    3.087918    2.321427
  S     -0.769909   -0.929894   -0.452876
  P     -2.173535    0.458071    0.336787
  S     -2.160664    2.252308   -0.444915
  O     -3.553198   -0.332906    0.132262
  C     -4.094308   -0.553482   -1.174780
  O     -2.102179    0.462863    1.914620
  C     -2.101973   -0.753378    2.686071
  H      5.329706   -4.565829   -1.194562
  H      3.759564   -4.607967   -2.011094
  H      5.060124   -3.600296   -2.653942
  H      4.969815   -2.166635   -0.602029
  H      3.642945   -3.162351    0.032913
  H      1.044876   -1.152311   -2.661709
  H      2.091820    0.270997   -2.487575
  H      0.739553    1.103014    3.113061
  H      2.077559    1.775867    2.124624
  H      0.723709    3.598550    3.207157
  H      0.621402    3.671170    1.440491
  H     -0.721800    3.000445    2.371447
  H     -5.101758   -0.928736   -1.014522
  H     -3.488996   -1.287146   -1.706766
  H     -4.121066    0.384167   -1.732142
  H     -1.213736   -1.339573    2.449598
  H     -2.999685   -1.331047    2.474488
  H     -2.085921   -0.431487    3.724112

 Total Charge           Charge          ....    0
 Multiplicity           Mult            ....    1
 Number of Electrons    NEL             ....  174
 Basis Dimension        Dim             ....  510

ORBITAL ENERGIES
----------------

  NO   OCC          E(Eh)            E(eV)
   0   2.0000     -88.577536     -2410.3173
   1   2.0000     -88.528282     -2408.9770
   2   2.0000     -76.920013     -2093.1000
   3   2.0000     -19.010467      -517.3011
   4   2.0000     -19.005220      -517.1583
   5   2.0000     -18.997032      -516.9355
   6   2.0000     -18.992937      -516.8241
   7   2.0000     -18.952244      -515.7168
   8   2.0000     -18.947310      -515.5825
   9   2.0000     -10.173204      -276.8270
  10   2.0000     -10.172919      -276.8192
  11   2.0000     -10.095440      -274.7109
  12   2.0000     -10.087432      -274.4930
  13   2.0000     -10.085821      -274.4491
  14   2.0000     -10.084628      -274.4167
  15   2.0000     -10.080873      -274.3145
  16   2.0000     -10.060898      -273.7710
  17   2.0000     -10.019936      -272.6563
  18   2.0000     -10.017485      -272.5896
  19   2.0000      -7.871811      -214.2029
  20   2.0000      -7.823399      -212.8855
  21   2.0000      -6.598275      -179.5482
  22   2.0000      -5.818644      -158.3334
  23   2.0000      -5.815823      -158.2566
  24   2.0000      -5.808822      -158.0661
  25   2.0000      -5.771156      -157.0411
  26   2.0000      -5.763635      -156.8365
  27   2.0000      -5.763272      -156.8266
  28   2.0000      -4.743902      -129.0881
  29   2.0000      -4.743305      -129.0719
  30   2.0000      -4.741907      -129.0338
  31   2.0000      -1.090943       -29.6861
  32   2.0000      -1.085554       -29.5394
  33   2.0000      -1.053118       -28.6568
  34   2.0000      -1.010169       -27.4881
  35   2.0000      -1.000212       -27.2171
  36   2.0000      -0.995210       -27.0810
  37   2.0000      -0.813070       -22.1248
  38   2.0000      -0.755516       -20.5586
  39   2.0000      -0.737583       -20.0707
  40   2.0000      -0.732648       -19.9364
  41   2.0000      -0.696034       -18.9401
  42   2.0000      -0.669581       -18.2202
  43   2.0000      -0.659467       -17.9450
  44   2.0000      -0.650597       -17.7036
  45   2.0000      -0.623608       -16.9692
  46   2.0000      -0.589844       -16.0505
  47   2.0000      -0.540367       -14.7041
  48   2.0000      -0.538111       -14.6428
  49   2.0000      -0.526401       -14.3241
  50   2.0000      -0.505351       -13.7513
  51   2.0000      -0.491278       -13.3684
  52   2.0000      -0.485279       -13.2051
  53   2.0000      -0.467365       -12.7176
  54   2.0000      -0.466186       -12.6856
  55   2.0000      -0.457346       -12.4450
  56   2.0000      -0.448832       -12.2134
  57   2.0000      -0.444857       -12.1052
  58   2.0000      -0.436997       -11.8913
  59   2.0000      -0.428340       -11.6557
  60   2.0000      -0.426060       -11.5937
  61   2.0000      -0.411908       -11.2086
  62   2.0000      -0.410288       -11.1645
  63   2.0000      -0.400565       -10.8999
  64   2.0000      -0.389227       -10.5914
  65   2.0000      -0.377164       -10.2631
  66   2.0000      -0.368402       -10.0247
  67   2.0000      -0.364420        -9.9164
  68   2.0000      -0.359422        -9.7804
  69   2.0000      -0.354157        -9.6371
  70   2.0000      -0.349155        -9.5010
  71   2.0000      -0.340823        -9.2743
  72   2.0000      -0.334453        -9.1009
  73   2.0000      -0.329890        -8.9768
  74   2.0000      -0.322997        -8.7892
  75   2.0000      -0.318300        -8.6614
  76   2.0000      -0.315351        -8.5811
  77   2.0000      -0.306615        -8.3434
  78   2.0000      -0.287691        -7.8285
  79   2.0000      -0.285698        -7.7742
  80   2.0000      -0.279801        -7.6138
  81   2.0000      -0.278402        -7.5757
  82   2.0000      -0.270033        -7.3480
  83   2.0000      -0.260074        -7.0770
  84   2.0000      -0.235516        -6.4087
  85   2.0000      -0.228619        -6.2210
  86   2.0000      -0.222764        -6.0617
  87   0.0000      -0.048457        -1.3186
  88   0.0000      -0.027812        -0.7568
  89   0.0000      -0.025225        -0.6864
  90   0.0000       0.004173         0.1136
  91   0.0000       0.010984         0.2989

MULLIKEN ATOMIC CHARGES
-----------------------
   0 C :   -0.488563
   1 C :   -0.150665
   2 O :   -0.150848
   3 C :    0.412508
   4 O :   -0.458024
   5 C :   -0.503574
   6 C :    0.053346
   7 H :    0.270643
   8 C :    0.225476
   9 O :   -0.453203
  10 O :   -0.134280
  11 C :   -0.132291
  12 C :   -0.510112
  13 S :   -0.219813
  14 P :    0.801752
  15 S :   -0.497346
  16 O :   -0.376037
  17 C :   -0.307032
  18 O :   -0.348429
  19 C :   -0.301721
  20 H :    0.171037
  21 H :    0.166667
  22 H :    0.165540
  23 H :    0.176255
  24 H :    0.176521
  25 H :    0.226976
  26 H :    0.236273
  27 H :    0.179445
  28 H :    0.176361
  29 H :    0.171935
  30 H :    0.170559
  31 H :    0.169679
  32 H :    0.179037
  33 H :    0.174993
  34 H :    0.176413
  35 H :    0.181763
  36 H :    0.184907
  37 H :    0.183852
Sum of atomic charges:    0.0000000

LOEWDIN ATOMIC CHARGES
----------------------
   0 C :   -0.387786
   1 C :    0.041646
   2 O :   -0.574140
   3 C :    0.374525
   4 O :   -0.471837
   5 C :   -0.198648
   6 C :   -0.194158
   7 H :    0.216801
   8 C :    0.349894
   9 O :   -0.471845
  10 O :   -0.625944
  11 C :    0.040229
  12 C :   -0.394864
  13 S :    0.221083
  14 P :    0.399734
  15 S :   -0.126290
  16 O :   -0.697588
  17 C :   -0.056425
  18 O :   -0.668766
  19 C :   -0.043777
  20 H :    0.169185
  21 H :    0.162966
  22 H :    0.163349
  23 H :    0.186178
  24 H :    0.189581
  25 H :    0.205147
  26 H :    0.215991
  27 H :    0.192204
  28 H :    0.194693
  29 H :    0.166700
  30 H :    0.163140
  31 H :    0.163645
  32 H :    0.188451
  33 H :    0.175894
  34 H :    0.177146
  35 H :    0.179864
  36 H :    0.181988
  37 H :    0.192030

  Mayer bond orders larger than 0.100000
B(  0-C ,  1-C ) :   0.9437 B(  0-C , 20-H ) :   0.9615 B(  0-C , 21-H ) :   0.9728
B(  0-C , 22-H ) :   0.9665 B(  1-C ,  2-O ) :   0.7608 B(  1-C , 23-H ) :   0.9351
B(  1-C , 24-H ) :   0.9547 B(  2-O ,  3-C ) :   1.1918 B(  3-C ,  4-O ) :   1.7244
B(  3-C ,  5-C ) :   0.9435 B(  4-O ,  8-C ) :   0.1219 B(  5-C ,  6-C ) :   0.8823
B(  5-C , 25-H ) :   0.9646 B(  5-C , 26-H ) :   0.9258 B(  6-C ,  7-H ) :   0.9032
B(  6-C ,  8-C ) :   0.8203 B(  6-C , 13-S ) :   0.8658 B(  8-C ,  9-O ) :   1.8337
B(  8-C , 10-O ) :   1.1537 B( 10-O , 11-C ) :   0.7590 B( 11-C , 12-C ) :   0.9125
B( 11-C , 27-H ) :   0.9538 B( 11-C , 28-H ) :   0.9567 B( 12-C , 29-H ) :   0.9622
B( 12-C , 30-H ) :   0.9708 B( 12-C , 31-H ) :   0.9669 B( 13-S , 14-P ) :   1.0020
B( 14-P , 15-S ) :   1.7684 B( 14-P , 16-O ) :   1.0401 B( 14-P , 18-O ) :   1.1550
B( 16-O , 17-C ) :   0.8257 B( 17-C , 32-H ) :   0.9571 B( 17-C , 33-H ) :   0.9504
B( 17-C , 34-H ) :   0.9556 B( 18-O , 19-C ) :   0.7858 B( 19-C , 35-H ) :   0.9490
B( 19-C , 36-H ) :   0.9524 B( 19-C , 37-H ) :   0.9542

Dispersion correction           -0.017549857
FINAL SINGLE POINT ENERGY     -1981.469749341920

DIPOLE MOMENT
-------------

Method             : SCF
Type of density    : Electron Density
Multiplicity       :   1
Irrep              :   0
Energy             : -1981.4896503887969175 Eh
Relativity type    :
Basis              : AO
                                X                 Y                 Z
Electronic contribution:    -11.506327458       6.834897882      -2.744498947
Nuclear contribution   :     11.621723583      -9.652338338       2.655637572
                        -----------------------------------------
Total Dipole Moment    :      0.115396126      -2.817440455      -0.088861375
                        -----------------------------------------
Magnitude (a.u.)       :      2.821202462
Magnitude (Debye)      :      7.170926775

Rotational constants in cm-1:             0.015008             0.006202             0.005404
Rotational constants in MHz :           449.926967           185.936792           162.015903

                             ****ORCA TERMINATED NORMALLY****
TOTAL RUN TIME: 0 days 0 hours 1 minutes 59 seconds 579 msec
