                         Program Version 6.0.0  -   RELEASE  -
|  1> ! r2scan-3c def2/J RI DEFGRID2 scfconv6 printgap
|  2> %output
|  3>     printlevel normal
|  4> end
|  5> * xyz 0 1
|  6> C 3.9184622847 -1.163899579 -2.7186177584
|  7> C 4.2343047402 -1.5839436842 -1.2976227312
|  8> O 3.0470825079 -1.716254731 -0.496570611
|  9> P 2.1644965775 -0.463610555 -0.061819732
| 10> S 3.2168565097 1.1243638809 0.4153867272
| 11> O 1.2807988366 -1.1164057591 1.0787231953
| 12> C 1.7018097729 -1.1569926007 2.4602398129
| 13> C 0.9920348598 -0.0811548648 3.2583854222
| 14> S 0.7208613474 -0.2744744451 -1.5825875545
| 15> C 0.2280787263 1.4320107597 -1.2150239304
| 16> S -0.5056212166 1.6314946329 0.4317910976
| 17> P -2.1761872527 0.3870230379 0.1270470643
| 18> S -2.9819695588 0.344056058 -1.663451938
| 19> O -3.1951933942 0.7881638885 1.2836108333
| 20> C -4.2011251726 1.8012868563 1.1089497961
| 21> C -3.599632931 3.1872698457 0.9967373724
| 22> O -1.6119561513 -0.9770122583 0.7009399469
| 23> C -2.2414353878 -2.2503851391 0.4369830551
| 24> C -1.4840560469 -2.9984416647 -0.6424066084
| 25> H 4.8259532978 -1.1963524291 -3.3129211105
| 26> H 3.1765443904 -1.8289508285 -3.1534730863
| 27> H 3.5260123011 -0.1479367586 -2.7283229542
| 28> H 4.8940432171 -0.8536112635 -0.8180866462
| 29> H 4.6871924289 -2.5755752318 -1.2605683288
| 30> H 1.4317136143 -2.155973371 2.806401095
| 31> H 2.7871639007 -1.0308777248 2.5121775463
| 32> H 1.304044141 0.9053324948 2.9211065056
| 33> H -0.0835855522 -0.1684701985 3.1242117116
| 34> H 1.2365761847 -0.192839019 4.3097857762
| 35> H -0.4973734064 1.7087579893 -1.9790784438
| 36> H 1.1016278895 2.0824489096 -1.2382579757
| 37> H -4.7813713011 1.5599046965 0.2124934067
| 38> H -4.8282779234 1.703488069 1.9960200977
| 39> H -3.030356037 3.2725760068 0.0721060164
| 40> H -4.3957476495 3.9247762807 0.9892116717
| 41> H -2.9349309471 3.3800478135 1.8350836861
| 42> H -2.2092670622 -2.7815422433 1.3896522798
| 43> H -3.2820729037 -2.0860956299 0.1426319081
| 44> H -0.433577185 -3.0766021863 -0.3723124337
| 45> H -1.9047407322 -3.9925685588 -0.7540292108
| 46> H -1.5592000049 -2.4695028846 -1.5904497315
| 47> *
| 48>
| 49>                          ****END OF INPUT****

CARTESIAN COORDINATES (ANGSTROEM)
---------------------------------
  C      3.918462   -1.163900   -2.718618
  C      4.234305   -1.583944   -1.297623
  O      3.047083   -1.716255   -0.496571
  P      2.164497   -0.463611   -0.061820
  S      3.216857    1.124364    0.415387
  O      1.280799   -1.116406    1.078723
  C      1.701810   -1.156993    2.460240
  C      0.992035   -0.081155    3.258385
  S      0.720861   -0.274474   -1.582588
  C      0.228079    1.432011   -1.215024
  S     -0.505621    1.631495    0.431791
  P     -2.176187    0.387023    0.127047
  S     -2.981970    0.344056   -1.663452
  O     -3.195193    0.788164    1.283611
  C     -4.201125    1.801287    1.108950
  C     -3.599633    3.187270    0.996737
  O     -1.611956   -0.977012    0.700940
  C     -2.241435   -2.250385    0.436983
  C     -1.484056   -2.998442   -0.642407
  H      4.825953   -1.196352   -3.312921
  H      3.176544   -1.828951   -3.153473
  H      3.526012   -0.147937   -2.728323
  H      4.894043   -0.853611   -0.818087
  H      4.687192   -2.575575   -1.260568
  H      1.431714   -2.155973    2.806401
  H      2.787164   -1.030878    2.512178
  H      1.304044    0.905332    2.921107
  H     -0.083586   -0.168470    3.124212
  H      1.236576   -0.192839    4.309786
  H     -0.497373    1.708758   -1.979078
  H      1.101628    2.082449   -1.238258
  H     -4.781371    1.559905    0.212493
  H     -4.828278    1.703488    1.996020
  H     -3.030356    3.272576    0.072106
  H     -4.395748    3.924776    0.989212
  H     -2.934931    3.380048    1.835084
  H     -2.209267   -2.781542    1.389652
  H     -3.282073   -2.086096    0.142632
  H     -0.433577   -3.076602   -0.372312
  H     -1.904741   -3.992569   -0.754029
  H     -1.559200   -2.469503   -1.590450

 Total Charge           Charge          ....    0
 Multiplicity           Mult            ....    1
 Number of Electrons    NEL             ....  202
 Basis Dimension        Dim             ....  539

ORBITAL ENERGIES
----------------

  NO   OCC          E(Eh)            E(eV)
   0   2.0000     -88.575282     -2410.2560
   1   2.0000     -88.575280     -2410.2559
   2   2.0000     -88.520929     -2408.7769
   3   2.0000     -88.520906     -2408.7763
   4   2.0000     -76.912780     -2092.9032
   5   2.0000     -76.912757     -2092.9025
   6   2.0000     -18.991138      -516.7751
   7   2.0000     -18.991104      -516.7742
   8   2.0000     -18.984100      -516.5836
   9   2.0000     -18.984060      -516.5825
  10   2.0000     -10.107166      -275.0300
  11   2.0000     -10.096991      -274.7531
  12   2.0000     -10.096986      -274.7529
  13   2.0000     -10.095736      -274.7189
  14   2.0000     -10.095723      -274.7186
  15   2.0000     -10.027913      -272.8734
  16   2.0000     -10.027907      -272.8732
  17   2.0000     -10.020653      -272.6758
  18   2.0000     -10.020638      -272.6754
  19   2.0000      -7.869777      -214.1475
  20   2.0000      -7.869773      -214.1474
  21   2.0000      -7.815719      -212.6765
  22   2.0000      -7.815699      -212.6760
  23   2.0000      -6.591289      -179.3581
  24   2.0000      -6.591270      -179.3576
  25   2.0000      -5.816697      -158.2804
  26   2.0000      -5.816690      -158.2802
  27   2.0000      -5.813701      -158.1988
  28   2.0000      -5.813698      -158.1988
  29   2.0000      -5.806734      -158.0093
  30   2.0000      -5.806725      -158.0090
  31   2.0000      -5.763318      -156.8279
  32   2.0000      -5.763316      -156.8278
  33   2.0000      -5.756117      -156.6319
  34   2.0000      -5.756086      -156.6311
  35   2.0000      -5.755657      -156.6194
  36   2.0000      -5.755629      -156.6186
  37   2.0000      -4.736724      -128.8928
  38   2.0000      -4.736698      -128.8921
  39   2.0000      -4.736130      -128.8766
  40   2.0000      -4.736105      -128.8760
  41   2.0000      -4.735174      -128.8506
  42   2.0000      -4.735169      -128.8505
  43   2.0000      -1.047358       -28.5001
  44   2.0000      -1.046300       -28.4713
  45   2.0000      -1.007433       -27.4136
  46   2.0000      -1.006017       -27.3751
  47   2.0000      -0.803579       -21.8665
  48   2.0000      -0.756878       -20.5957
  49   2.0000      -0.746257       -20.3067
  50   2.0000      -0.728248       -19.8166
  51   2.0000      -0.726774       -19.7765
  52   2.0000      -0.709551       -19.3079
  53   2.0000      -0.685471       -18.6526
  54   2.0000      -0.669879       -18.2283
  55   2.0000      -0.632956       -17.2236
  56   2.0000      -0.621374       -16.9085
  57   2.0000      -0.605662       -16.4809
  58   2.0000      -0.602488       -16.3945
  59   2.0000      -0.586070       -15.9478
  60   2.0000      -0.524386       -14.2693
  61   2.0000      -0.522586       -14.2203
  62   2.0000      -0.488060       -13.2808
  63   2.0000      -0.487150       -13.2560
  64   2.0000      -0.476973       -12.9791
  65   2.0000      -0.457471       -12.4484
  66   2.0000      -0.455377       -12.3914
  67   2.0000      -0.453968       -12.3531
  68   2.0000      -0.443966       -12.0809
  69   2.0000      -0.432840       -11.7782
  70   2.0000      -0.425079       -11.5670
  71   2.0000      -0.413385       -11.2488
  72   2.0000      -0.408005       -11.1024
  73   2.0000      -0.396805       -10.7976
  74   2.0000      -0.394817       -10.7435
  75   2.0000      -0.391242       -10.6462
  76   2.0000      -0.381716       -10.3870
  77   2.0000      -0.370468       -10.0809
  78   2.0000      -0.365260        -9.9392
  79   2.0000      -0.365006        -9.9323
  80   2.0000      -0.363286        -9.8855
  81   2.0000      -0.355699        -9.6791
  82   2.0000      -0.354699        -9.6519
  83   2.0000      -0.351655        -9.5690
  84   2.0000      -0.347852        -9.4655
  85   2.0000      -0.329185        -8.9576
  86   2.0000      -0.313589        -8.5332
  87   2.0000      -0.310164        -8.4400
  88   2.0000      -0.309192        -8.4135
  89   2.0000      -0.304765        -8.2931
  90   2.0000      -0.294333        -8.0092
  91   2.0000      -0.292455        -7.9581
  92   2.0000      -0.279135        -7.5957
  93   2.0000      -0.278327        -7.5737
  94   2.0000      -0.277728        -7.5574
  95   2.0000      -0.243268        -6.6197
  96   2.0000      -0.228963        -6.2304
  97   2.0000      -0.228070        -6.2061
  98   2.0000      -0.219834        -5.9820
  99   2.0000      -0.214559        -5.8384
 100   2.0000      -0.213132        -5.7996
 101   0.0000      -0.048164        -1.3106
 102   0.0000      -0.026638        -0.7248
 103   0.0000      -0.000920        -0.0250
 104   0.0000       0.000088         0.0024
 105   0.0000       0.009750         0.2653

MULLIKEN ATOMIC CHARGES
-----------------------
   0 C :   -0.447156
   1 C :   -0.155418
   2 O :   -0.298136
   3 P :    0.674446
   4 S :   -0.481454
   5 O :   -0.256963
   6 C :   -0.123647
   7 C :   -0.470419
   8 S :   -0.103999
   9 C :   -0.258755
  10 S :   -0.104082
  11 P :    0.674945
  12 S :   -0.481527
  13 O :   -0.298623
  14 C :   -0.155128
  15 C :   -0.447294
  16 O :   -0.256492
  17 C :   -0.123557
  18 C :   -0.470499
  19 H :    0.147826
  20 H :    0.155517
  21 H :    0.174002
  22 H :    0.172970
  23 H :    0.147517
  24 H :    0.146951
  25 H :    0.154860
  26 H :    0.177847
  27 H :    0.163721
  28 H :    0.141180
  29 H :    0.209559
  30 H :    0.209615
  31 H :    0.172910
  32 H :    0.147522
  33 H :    0.174043
  34 H :    0.147778
  35 H :    0.155565
  36 H :    0.146934
  37 H :    0.154625
  38 H :    0.163704
  39 H :    0.141189
  40 H :    0.177924
Sum of atomic charges:   -0.0000000

LOEWDIN ATOMIC CHARGES
----------------------
   0 C :   -0.406973
   1 C :    0.018341
   2 O :   -0.661301
   3 P :    0.377845
   4 S :   -0.131544
   5 O :   -0.669597
   6 C :    0.026993
   7 C :   -0.403259
   8 S :    0.186763
   9 C :   -0.417878
  10 S :    0.186724
  11 P :    0.377903
  12 S :   -0.131505
  13 O :   -0.661291
  14 C :    0.018308
  15 C :   -0.406952
  16 O :   -0.669725
  17 C :    0.027017
  18 C :   -0.403317
  19 H :    0.159067
  20 H :    0.160337
  21 H :    0.164587
  22 H :    0.179701
  23 H :    0.179089
  24 H :    0.176808
  25 H :    0.176328
  26 H :    0.166760
  27 H :    0.163526
  28 H :    0.155632
  29 H :    0.189893
  30 H :    0.189939
  31 H :    0.179714
  32 H :    0.179077
  33 H :    0.164609
  34 H :    0.159067
  35 H :    0.160332
  36 H :    0.176861
  37 H :    0.176248
  38 H :    0.163465
  39 H :    0.155637
  40 H :    0.166771

  Mayer bond orders larger than 0.100000
B(  0-C ,  1-C ) :   0.9221 B(  0-C , 19-H ) :   0.9592 B(  0-C , 20-H ) :   0.9683
B(  0-C , 21-H ) :   0.9633 B(  1-C ,  2-O ) :   0.8192 B(  1-C , 22-H ) :   0.9675
B(  1-C , 23-H ) :   0.9585 B(  2-O ,  3-P ) :   1.0626 B(  3-P ,  4-S ) :   1.7463
B(  3-P ,  5-O ) :   1.1550 B(  3-P ,  8-S ) :   1.0986 B(  5-O ,  6-C ) :   0.7591
B(  6-C ,  7-C ) :   0.9437 B(  6-C , 24-H ) :   0.9617 B(  6-C , 25-H ) :   0.9639
B(  7-C , 26-H ) :   0.9629 B(  7-C , 27-H ) :   0.9694 B(  7-C , 28-H ) :   0.9637
B(  8-S ,  9-C ) :   0.8987 B(  9-C , 10-S ) :   0.8986 B(  9-C , 29-H ) :   0.9108
B(  9-C , 30-H ) :   0.9107 B( 10-S , 11-P ) :   1.0989 B( 11-P , 12-S ) :   1.7460
B( 11-P , 13-O ) :   1.0627 B( 11-P , 16-O ) :   1.1542 B( 13-O , 14-C ) :   0.8193
B( 14-C , 15-C ) :   0.9221 B( 14-C , 31-H ) :   0.9674 B( 14-C , 32-H ) :   0.9585
B( 15-C , 33-H ) :   0.9632 B( 15-C , 34-H ) :   0.9592 B( 15-C , 35-H ) :   0.9683
B( 16-O , 17-C ) :   0.7594 B( 17-C , 18-C ) :   0.9435 B( 17-C , 36-H ) :   0.9618
B( 17-C , 37-H ) :   0.9640 B( 18-C , 38-H ) :   0.9694 B( 18-C , 39-H ) :   0.9637
B( 18-C , 40-H ) :   0.9629

Dispersion correction           -0.022395838
FINAL SINGLE POINT ENERGY     -2932.463689563342

DIPOLE MOMENT
-------------

Method             : SCF
Type of density    : Electron Density
Multiplicity       :   1
Irrep              :   0
Energy             : -2932.4876782747301149 Eh
Relativity type    :
Basis              : AO
                                X                 Y                 Z
Electronic contribution:      0.816838546       5.067724144      -4.295691185
Nuclear contribution   :     -0.919361215      -5.705493612       4.837021707
                        -----------------------------------------
Total Dipole Moment    :     -0.102522669      -0.637769467       0.541330522
                        -----------------------------------------
Magnitude (a.u.)       :      0.842792694
Magnitude (Debye)      :      2.142208785

Rotational constants in cm-1:             0.012751             0.005346             0.005088
Rotational constants in MHz :           382.268474           160.274480           152.547190

                             ****ORCA TERMINATED NORMALLY****
TOTAL RUN TIME: 0 days 0 hours 1 minutes 21 seconds 802 msec
