                         Program Version 6.0.0  -   RELEASE  -
|  1> ! r2scan-3c def2/J RI DEFGRID2 scfconv6 printgap
|  2> %output
|  3>     printlevel normal
|  4> end
|  5> %cpcm
|  6>     smd true
|  7>     smdsolvent "water"
|  8> end
|  9> * xyz 0 1
| 10> C 3.9184622847 -1.163899579 -2.7186177584
| 11> C 4.2343047402 -1.5839436842 -1.2976227312
| 12> O 3.0470825079 -1.716254731 -0.496570611
| 13> P 2.1644965775 -0.463610555 -0.061819732
| 14> S 3.2168565097 1.1243638809 0.4153867272
| 15> O 1.2807988366 -1.1164057591 1.0787231953
| 16> C 1.7018097729 -1.1569926007 2.4602398129
| 17> C 0.9920348598 -0.0811548648 3.2583854222
| 18> S 0.7208613474 -0.2744744451 -1.5825875545
| 19> C 0.2280787263 1.4320107597 -1.2150239304
| 20> S -0.5056212166 1.6314946329 0.4317910976
| 21> P -2.1761872527 0.3870230379 0.1270470643
| 22> S -2.9819695588 0.344056058 -1.663451938
| 23> O -3.1951933942 0.7881638885 1.2836108333
| 24> C -4.2011251726 1.8012868563 1.1089497961
| 25> C -3.599632931 3.1872698457 0.9967373724
| 26> O -1.6119561513 -0.9770122583 0.7009399469
| 27> C -2.2414353878 -2.2503851391 0.4369830551
| 28> C -1.4840560469 -2.9984416647 -0.6424066084
| 29> H 4.8259532978 -1.1963524291 -3.3129211105
| 30> H 3.1765443904 -1.8289508285 -3.1534730863
| 31> H 3.5260123011 -0.1479367586 -2.7283229542
| 32> H 4.8940432171 -0.8536112635 -0.8180866462
| 33> H 4.6871924289 -2.5755752318 -1.2605683288
| 34> H 1.4317136143 -2.155973371 2.806401095
| 35> H 2.7871639007 -1.0308777248 2.5121775463
| 36> H 1.304044141 0.9053324948 2.9211065056
| 37> H -0.0835855522 -0.1684701985 3.1242117116
| 38> H 1.2365761847 -0.192839019 4.3097857762
| 39> H -0.4973734064 1.7087579893 -1.9790784438
| 40> H 1.1016278895 2.0824489096 -1.2382579757
| 41> H -4.7813713011 1.5599046965 0.2124934067
| 42> H -4.8282779234 1.703488069 1.9960200977
| 43> H -3.030356037 3.2725760068 0.0721060164
| 44> H -4.3957476495 3.9247762807 0.9892116717
| 45> H -2.9349309471 3.3800478135 1.8350836861
| 46> H -2.2092670622 -2.7815422433 1.3896522798
| 47> H -3.2820729037 -2.0860956299 0.1426319081
| 48> H -0.433577185 -3.0766021863 -0.3723124337
| 49> H -1.9047407322 -3.9925685588 -0.7540292108
| 50> H -1.5592000049 -2.4695028846 -1.5904497315
| 51> *
| 52>
| 53>                          ****END OF INPUT****

CARTESIAN COORDINATES (ANGSTROEM)
---------------------------------
  C      3.918462   -1.163900   -2.718618
  C      4.234305   -1.583944   -1.297623
  O      3.047083   -1.716255   -0.496571
  P      2.164497   -0.463611   -0.061820
  S      3.216857    1.124364    0.415387
  O      1.280799   -1.116406    1.078723
  C      1.701810   -1.156993    2.460240
  C      0.992035   -0.081155    3.258385
  S      0.720861   -0.274474   -1.582588
  C      0.228079    1.432011   -1.215024
  S     -0.505621    1.631495    0.431791
  P     -2.176187    0.387023    0.127047
  S     -2.981970    0.344056   -1.663452
  O     -3.195193    0.788164    1.283611
  C     -4.201125    1.801287    1.108950
  C     -3.599633    3.187270    0.996737
  O     -1.611956   -0.977012    0.700940
  C     -2.241435   -2.250385    0.436983
  C     -1.484056   -2.998442   -0.642407
  H      4.825953   -1.196352   -3.312921
  H      3.176544   -1.828951   -3.153473
  H      3.526012   -0.147937   -2.728323
  H      4.894043   -0.853611   -0.818087
  H      4.687192   -2.575575   -1.260568
  H      1.431714   -2.155973    2.806401
  H      2.787164   -1.030878    2.512178
  H      1.304044    0.905332    2.921107
  H     -0.083586   -0.168470    3.124212
  H      1.236576   -0.192839    4.309786
  H     -0.497373    1.708758   -1.979078
  H      1.101628    2.082449   -1.238258
  H     -4.781371    1.559905    0.212493
  H     -4.828278    1.703488    1.996020
  H     -3.030356    3.272576    0.072106
  H     -4.395748    3.924776    0.989212
  H     -2.934931    3.380048    1.835084
  H     -2.209267   -2.781542    1.389652
  H     -3.282073   -2.086096    0.142632
  H     -0.433577   -3.076602   -0.372312
  H     -1.904741   -3.992569   -0.754029
  H     -1.559200   -2.469503   -1.590450

 Total Charge           Charge          ....    0
 Multiplicity           Mult            ....    1
 Number of Electrons    NEL             ....  202
 Basis Dimension        Dim             ....  539

ORBITAL ENERGIES
----------------

  NO   OCC          E(Eh)            E(eV)
   0   2.0000     -88.578098     -2410.3326
   1   2.0000     -88.578090     -2410.3324
   2   2.0000     -88.527267     -2408.9494
   3   2.0000     -88.527240     -2408.9487
   4   2.0000     -76.917642     -2093.0355
   5   2.0000     -76.917621     -2093.0349
   6   2.0000     -18.993776      -516.8469
   7   2.0000     -18.993745      -516.8461
   8   2.0000     -18.988238      -516.6962
   9   2.0000     -18.988142      -516.6936
  10   2.0000     -10.105516      -274.9851
  11   2.0000     -10.088929      -274.5337
  12   2.0000     -10.088857      -274.5318
  13   2.0000     -10.088369      -274.5185
  14   2.0000     -10.088335      -274.5176
  15   2.0000     -10.018037      -272.6047
  16   2.0000     -10.018020      -272.6042
  17   2.0000     -10.015272      -272.5294
  18   2.0000     -10.015188      -272.5271
  19   2.0000      -7.872615      -214.2247
  20   2.0000      -7.872604      -214.2244
  21   2.0000      -7.822335      -212.8565
  22   2.0000      -7.822306      -212.8558
  23   2.0000      -6.596187      -179.4914
  24   2.0000      -6.596161      -179.4907
  25   2.0000      -5.819535      -158.3576
  26   2.0000      -5.819523      -158.3573
  27   2.0000      -5.816525      -158.2757
  28   2.0000      -5.816521      -158.2756
  29   2.0000      -5.809589      -158.0870
  30   2.0000      -5.809572      -158.0865
  31   2.0000      -5.769906      -157.0071
  32   2.0000      -5.769855      -157.0057
  33   2.0000      -5.762710      -156.8113
  34   2.0000      -5.762693      -156.8108
  35   2.0000      -5.762271      -156.7994
  36   2.0000      -5.762251      -156.7988
  37   2.0000      -4.741581      -129.0250
  38   2.0000      -4.741562      -129.0245
  39   2.0000      -4.741037      -129.0102
  40   2.0000      -4.741016      -129.0096
  41   2.0000      -4.740128      -128.9854
  42   2.0000      -4.740089      -128.9844
  43   2.0000      -1.050400       -28.5828
  44   2.0000      -1.049249       -28.5515
  45   2.0000      -1.009991       -27.4833
  46   2.0000      -1.008558       -27.4443
  47   2.0000      -0.804844       -21.9009
  48   2.0000      -0.755265       -20.5518
  49   2.0000      -0.741803       -20.1855
  50   2.0000      -0.721514       -19.6334
  51   2.0000      -0.720408       -19.6033
  52   2.0000      -0.709183       -19.2978
  53   2.0000      -0.688835       -18.7442
  54   2.0000      -0.674946       -18.3662
  55   2.0000      -0.632747       -17.2179
  56   2.0000      -0.618478       -16.8296
  57   2.0000      -0.600987       -16.3537
  58   2.0000      -0.598139       -16.2762
  59   2.0000      -0.583998       -15.8914
  60   2.0000      -0.521120       -14.1804
  61   2.0000      -0.520056       -14.1515
  62   2.0000      -0.485927       -13.2227
  63   2.0000      -0.484631       -13.1875
  64   2.0000      -0.477730       -12.9997
  65   2.0000      -0.454870       -12.3776
  66   2.0000      -0.452869       -12.3232
  67   2.0000      -0.451740       -12.2925
  68   2.0000      -0.439939       -11.9713
  69   2.0000      -0.429282       -11.6813
  70   2.0000      -0.421756       -11.4766
  71   2.0000      -0.412938       -11.2366
  72   2.0000      -0.406538       -11.0625
  73   2.0000      -0.396279       -10.7833
  74   2.0000      -0.393073       -10.6961
  75   2.0000      -0.388600       -10.5743
  76   2.0000      -0.379694       -10.3320
  77   2.0000      -0.367717       -10.0061
  78   2.0000      -0.362008        -9.8507
  79   2.0000      -0.361582        -9.8391
  80   2.0000      -0.356112        -9.6903
  81   2.0000      -0.350922        -9.5491
  82   2.0000      -0.347888        -9.4665
  83   2.0000      -0.347737        -9.4624
  84   2.0000      -0.344775        -9.3818
  85   2.0000      -0.328655        -8.9432
  86   2.0000      -0.312368        -8.5000
  87   2.0000      -0.306390        -8.3373
  88   2.0000      -0.304937        -8.2978
  89   2.0000      -0.303614        -8.2618
  90   2.0000      -0.293984        -7.9997
  91   2.0000      -0.292300        -7.9539
  92   2.0000      -0.280264        -7.6264
  93   2.0000      -0.279036        -7.5929
  94   2.0000      -0.278852        -7.5879
  95   2.0000      -0.245938        -6.6923
  96   2.0000      -0.234890        -6.3917
  97   2.0000      -0.233775        -6.3613
  98   2.0000      -0.226122        -6.1531
  99   2.0000      -0.221315        -6.0223
 100   2.0000      -0.218675        -5.9504
 101   0.0000      -0.052090        -1.4175
 102   0.0000      -0.031914        -0.8684
 103   0.0000      -0.004067        -0.1107
 104   0.0000      -0.004020        -0.1094
 105   0.0000       0.009261         0.2520

MULLIKEN ATOMIC CHARGES
-----------------------
   0 C :   -0.483716
   1 C :   -0.155284
   2 O :   -0.327352
   3 P :    0.710213
   4 S :   -0.524823
   5 O :   -0.285943
   6 C :   -0.130639
   7 C :   -0.495091
   8 S :   -0.113933
   9 C :   -0.271591
  10 S :   -0.114225
  11 P :    0.711180
  12 S :   -0.525012
  13 O :   -0.327560
  14 C :   -0.154840
  15 C :   -0.483998
  16 O :   -0.285120
  17 C :   -0.131608
  18 C :   -0.494674
  19 H :    0.172335
  20 H :    0.168558
  21 H :    0.171488
  22 H :    0.177621
  23 H :    0.174020
  24 H :    0.174667
  25 H :    0.168650
  26 H :    0.171041
  27 H :    0.164700
  28 H :    0.166894
  29 H :    0.232321
  30 H :    0.232069
  31 H :    0.177277
  32 H :    0.174023
  33 H :    0.171666
  34 H :    0.172196
  35 H :    0.168568
  36 H :    0.174786
  37 H :    0.168736
  38 H :    0.164655
  39 H :    0.166746
  40 H :    0.171000
Sum of atomic charges:   -0.0000000

LOEWDIN ATOMIC CHARGES
----------------------
   0 C :   -0.410232
   1 C :    0.023423
   2 O :   -0.674016
   3 P :    0.383199
   4 S :   -0.158052
   5 O :   -0.685984
   6 C :    0.030729
   7 C :   -0.405994
   8 S :    0.182308
   9 C :   -0.410678
  10 S :    0.182068
  11 P :    0.383300
  12 S :   -0.158024
  13 O :   -0.673860
  14 C :    0.023441
  15 C :   -0.410252
  16 O :   -0.686074
  17 C :    0.030695
  18 C :   -0.406006
  19 H :    0.168006
  20 H :    0.163419
  21 H :    0.161194
  22 H :    0.181176
  23 H :    0.190238
  24 H :    0.188135
  25 H :    0.180945
  26 H :    0.162265
  27 H :    0.162652
  28 H :    0.164900
  29 H :    0.197153
  30 H :    0.197080
  31 H :    0.181098
  32 H :    0.190231
  33 H :    0.161271
  34 H :    0.167944
  35 H :    0.163426
  36 H :    0.188195
  37 H :    0.180971
  38 H :    0.162621
  39 H :    0.164827
  40 H :    0.162264

  Mayer bond orders larger than 0.100000
B(  0-C ,  1-C ) :   0.9106 B(  0-C , 19-H ) :   0.9538 B(  0-C , 20-H ) :   0.9658
B(  0-C , 21-H ) :   0.9638 B(  1-C ,  2-O ) :   0.8074 B(  1-C , 22-H ) :   0.9655
B(  1-C , 23-H ) :   0.9490 B(  2-O ,  3-P ) :   1.0689 B(  3-P ,  4-S ) :   1.7094
B(  3-P ,  5-O ) :   1.1583 B(  3-P ,  8-S ) :   1.1098 B(  5-O ,  6-C ) :   0.7463
B(  6-C ,  7-C ) :   0.9333 B(  6-C , 24-H ) :   0.9515 B(  6-C , 25-H ) :   0.9602
B(  7-C , 26-H ) :   0.9654 B(  7-C , 27-H ) :   0.9677 B(  7-C , 28-H ) :   0.9595
B(  8-S ,  9-C ) :   0.8904 B(  9-C , 10-S ) :   0.8903 B(  9-C , 29-H ) :   0.9047
B(  9-C , 30-H ) :   0.9047 B( 10-S , 11-P ) :   1.1099 B( 11-P , 12-S ) :   1.7088
B( 11-P , 13-O ) :   1.0691 B( 11-P , 16-O ) :   1.1574 B( 13-O , 14-C ) :   0.8076
B( 14-C , 15-C ) :   0.9106 B( 14-C , 31-H ) :   0.9655 B( 14-C , 32-H ) :   0.9490
B( 15-C , 33-H ) :   0.9638 B( 15-C , 34-H ) :   0.9539 B( 15-C , 35-H ) :   0.9658
B( 16-O , 17-C ) :   0.7464 B( 17-C , 18-C ) :   0.9334 B( 17-C , 36-H ) :   0.9515
B( 17-C , 37-H ) :   0.9603 B( 18-C , 38-H ) :   0.9677 B( 18-C , 39-H ) :   0.9595
B( 18-C , 40-H ) :   0.9655

Dispersion correction           -0.022395838
FINAL SINGLE POINT ENERGY     -2932.470550519337

DIPOLE MOMENT
-------------

Method             : SCF
Type of density    : Electron Density
Multiplicity       :   1
Irrep              :   0
Energy             : -2932.4945392307258771 Eh
Relativity type    :
Basis              : AO
                                X                 Y                 Z
Electronic contribution:      0.791127532       4.906824953      -4.160628037
Nuclear contribution   :     -0.919361215      -5.705493612       4.837021707
                        -----------------------------------------
Total Dipole Moment    :     -0.128233683      -0.798668659       0.676393670
                        -----------------------------------------
Magnitude (a.u.)       :      1.054430605
Magnitude (Debye)      :      2.680149602

Rotational constants in cm-1:             0.012751             0.005346             0.005088
Rotational constants in MHz :           382.268474           160.274480           152.547190

                             ****ORCA TERMINATED NORMALLY****
TOTAL RUN TIME: 0 days 0 hours 1 minutes 59 seconds 572 msec
