                         Program Version 6.0.0  -   RELEASE  -
|  1> ! r2scan-3c def2/J RI DEFGRID2 scfconv6 printgap
|  2> %output
|  3>     printlevel normal
|  4> end
|  5> * xyz 0 1
|  6> C -0.6839365022 -0.609375459 -0.3172189149
|  7> C 0.6941439576 -0.5694545614 0.3430202402
|  8> O 1.4793986139 0.5013253781 -0.1264041636
|  9> O -1.4081384894 0.5256914635 0.1187170176
| 10> H -1.1934344725 -1.5339217541 -0.0215272956
| 11> H -0.5617236358 -0.5929800939 -1.407197599
| 12> H 1.2454295447 -1.480358654 0.1046734084
| 13> H 0.5640012636 -0.4974648068 1.4306684976
| 14> H 0.9744761727 1.3179279499 0.0020847783
| 15> H -2.281519571 0.5316625582 -0.2941324726
| 16> *
| 17>
| 18>                          ****END OF INPUT****

CARTESIAN COORDINATES (ANGSTROEM)
---------------------------------
  C     -0.683937   -0.609375   -0.317219
  C      0.694144   -0.569455    0.343020
  O      1.479399    0.501325   -0.126404
  O     -1.408138    0.525691    0.118717
  H     -1.193434   -1.533922   -0.021527
  H     -0.561724   -0.592980   -1.407198
  H      1.245430   -1.480359    0.104673
  H      0.564001   -0.497465    1.430668
  H      0.974476    1.317928    0.002085
  H     -2.281520    0.531663   -0.294132

 Total Charge           Charge          ....    0
 Multiplicity           Mult            ....    1
 Number of Electrons    NEL             ....   34
 Basis Dimension        Dim             ....  116

ORBITAL ENERGIES
----------------

  NO   OCC          E(Eh)            E(eV)
   0   2.0000     -18.959812      -515.9227
   1   2.0000     -18.943702      -515.4843
   2   2.0000     -10.081163      -274.3224
   3   2.0000     -10.076191      -274.1871
   4   2.0000      -1.000320       -27.2201
   5   2.0000      -0.976807       -26.5803
   6   2.0000      -0.704528       -19.1712
   7   2.0000      -0.587139       -15.9769
   8   2.0000      -0.500668       -13.6239
   9   2.0000      -0.467154       -12.7119
  10   2.0000      -0.427312       -11.6278
  11   2.0000      -0.392365       -10.6768
  12   2.0000      -0.377774       -10.2797
  13   2.0000      -0.325126        -8.8471
  14   2.0000      -0.295805        -8.0493
  15   2.0000      -0.249444        -6.7877
  16   2.0000      -0.234179        -6.3723
  17   0.0000       0.046779         1.2729
  18   0.0000       0.091118         2.4794
  19   0.0000       0.111830         3.0430
  20   0.0000       0.134531         3.6608
  21   0.0000       0.145727         3.9654

MULLIKEN ATOMIC CHARGES
-----------------------
   0 C :   -0.107960
   1 C :   -0.136485
   2 O :   -0.428466
   3 O :   -0.447264
   4 H :    0.115974
   5 H :    0.128470
   6 H :    0.132158
   7 H :    0.132343
   8 H :    0.313732
   9 H :    0.297498
Sum of atomic charges:   -0.0000000

LOEWDIN ATOMIC CHARGES
----------------------
   0 C :    0.008900
   1 C :    0.017285
   2 O :   -0.602752
   3 O :   -0.628938
   4 H :    0.158694
   5 H :    0.162315
   6 H :    0.178352
   7 H :    0.163707
   8 H :    0.273183
   9 H :    0.269254

  Mayer bond orders larger than 0.100000
B(  0-C ,  1-C ) :   0.9715 B(  0-C ,  3-O ) :   0.9264 B(  0-C ,  4-H ) :   0.9526
B(  0-C ,  5-H ) :   0.9613 B(  1-C ,  2-O ) :   0.9537 B(  1-C ,  6-H ) :   0.9667
B(  1-C ,  7-H ) :   0.9673 B(  2-O ,  8-H ) :   0.8798 B(  3-O ,  9-H ) :   0.8992

Dispersion correction           -0.001567227
FINAL SINGLE POINT ENERGY      -230.210465623839

DIPOLE MOMENT
-------------

Method             : SCF
Type of density    : Electron Density
Multiplicity       :   1
Irrep              :   0
Energy             :  -230.2163527427954079 Eh
Relativity type    :
Basis              : AO
                                X                 Y                 Z
Electronic contribution:      0.329196196       1.762621497       0.015109263
Nuclear contribution   :     -1.174256885      -2.100446949      -0.174080285
                        -----------------------------------------
Total Dipole Moment    :     -0.845060689      -0.337825452      -0.158971021
                        -----------------------------------------
Magnitude (a.u.)       :      0.923864378
Magnitude (Debye)      :      2.348276629

Rotational constants in cm-1:             0.540067             0.176987             0.150421
Rotational constants in MHz :         16190.801053          5305.933211          4509.504986

                             ****ORCA TERMINATED NORMALLY****
TOTAL RUN TIME: 0 days 0 hours 0 minutes 10 seconds 347 msec
