                         Program Version 6.0.0  -   RELEASE  -
|  1> ! r2scan-3c def2/J RI DEFGRID2 scfconv6 printgap
|  2> %output
|  3>     printlevel normal
|  4> end
|  5> %cpcm
|  6>     smd true
|  7>     smdsolvent "water"
|  8> end
|  9> * xyz 0 1
| 10> C -0.6839365022 -0.609375459 -0.3172189149
| 11> C 0.6941439576 -0.5694545614 0.3430202402
| 12> O 1.4793986139 0.5013253781 -0.1264041636
| 13> O -1.4081384894 0.5256914635 0.1187170176
| 14> H -1.1934344725 -1.5339217541 -0.0215272956
| 15> H -0.5617236358 -0.5929800939 -1.407197599
| 16> H 1.2454295447 -1.480358654 0.1046734084
| 17> H 0.5640012636 -0.4974648068 1.4306684976
| 18> H 0.9744761727 1.3179279499 0.0020847783
| 19> H -2.281519571 0.5316625582 -0.2941324726
| 20> *
| 21>
| 22>                          ****END OF INPUT****

CARTESIAN COORDINATES (ANGSTROEM)
---------------------------------
  C     -0.683937   -0.609375   -0.317219
  C      0.694144   -0.569455    0.343020
  O      1.479399    0.501325   -0.126404
  O     -1.408138    0.525691    0.118717
  H     -1.193434   -1.533922   -0.021527
  H     -0.561724   -0.592980   -1.407198
  H      1.245430   -1.480359    0.104673
  H      0.564001   -0.497465    1.430668
  H      0.974476    1.317928    0.002085
  H     -2.281520    0.531663   -0.294132

 Total Charge           Charge          ....    0
 Multiplicity           Mult            ....    1
 Number of Electrons    NEL             ....   34
 Basis Dimension        Dim             ....  116

ORBITAL ENERGIES
----------------

  NO   OCC          E(Eh)            E(eV)
   0   2.0000     -18.953650      -515.7550
   1   2.0000     -18.952740      -515.7303
   2   2.0000     -10.071616      -274.0626
   3   2.0000     -10.071052      -274.0473
   4   2.0000      -0.998744       -27.1772
   5   2.0000      -0.979271       -26.6473
   6   2.0000      -0.698305       -19.0018
   7   2.0000      -0.582764       -15.8578
   8   2.0000      -0.492741       -13.4082
   9   2.0000      -0.464979       -12.6527
  10   2.0000      -0.423664       -11.5285
  11   2.0000      -0.392292       -10.6748
  12   2.0000      -0.374071       -10.1790
  13   2.0000      -0.324989        -8.8434
  14   2.0000      -0.299914        -8.1611
  15   2.0000      -0.245710        -6.6861
  16   2.0000      -0.241904        -6.5825
  17   0.0000       0.063532         1.7288
  18   0.0000       0.103253         2.8097
  19   0.0000       0.124128         3.3777
  20   0.0000       0.144274         3.9259
  21   0.0000       0.152948         4.1619

MULLIKEN ATOMIC CHARGES
-----------------------
   0 C :   -0.123112
   1 C :   -0.140171
   2 O :   -0.506442
   3 O :   -0.514241
   4 H :    0.141890
   5 H :    0.142490
   6 H :    0.154762
   7 H :    0.142070
   8 H :    0.354016
   9 H :    0.348739
Sum of atomic charges:   -0.0000000

LOEWDIN ATOMIC CHARGES
----------------------
   0 C :    0.014957
   1 C :    0.014151
   2 O :   -0.642063
   3 O :   -0.653780
   4 H :    0.170573
   5 H :    0.167962
   6 H :    0.186557
   7 H :    0.168476
   8 H :    0.285815
   9 H :    0.287351

  Mayer bond orders larger than 0.100000
B(  0-C ,  1-C ) :   0.9708 B(  0-C ,  3-O ) :   0.9140 B(  0-C ,  4-H ) :   0.9532
B(  0-C ,  5-H ) :   0.9619 B(  1-C ,  2-O ) :   0.9299 B(  1-C ,  6-H ) :   0.9609
B(  1-C ,  7-H ) :   0.9606 B(  2-O ,  8-H ) :   0.8591 B(  3-O ,  9-H ) :   0.8730

Dispersion correction           -0.001567227
FINAL SINGLE POINT ENERGY      -230.224075887132

DIPOLE MOMENT
-------------

Method             : SCF
Type of density    : Electron Density
Multiplicity       :   1
Irrep              :   0
Energy             :  -230.2299630060884965 Eh
Relativity type    :
Basis              : AO
                                X                 Y                 Z
Electronic contribution:      0.050010835       1.602740345      -0.041171718
Nuclear contribution   :     -1.174256885      -2.100446949      -0.174080285
                        -----------------------------------------
Total Dipole Moment    :     -1.124246050      -0.497706604      -0.215252003
                        -----------------------------------------
Magnitude (a.u.)       :      1.248188475
Magnitude (Debye)      :      3.172642969

Rotational constants in cm-1:             0.540067             0.176987             0.150421
Rotational constants in MHz :         16190.801053          5305.933211          4509.504986

                             ****ORCA TERMINATED NORMALLY****
TOTAL RUN TIME: 0 days 0 hours 0 minutes 11 seconds 645 msec
