                         Program Version 6.0.0  -   RELEASE  -
|  1> ! pbe def2-sv(p) def2/J RI DEFGRID1 loosescf d4 GCP(DFT/SV(P)) printgap
|  2> %output
|  3>     printlevel normal
|  4> end
|  5> * xyz 0 1
|  6> C 1.7972068989 -1.0098221145 -2.832027879
|  7> C 2.6898659556 -0.0605890459 -2.0573367403
|  8> O 1.9609895064 0.5466060945 -0.9608855826
|  9> P 2.0798325088 0.1251639488 0.5515877571
| 10> S 0.9763730635 1.3020804124 1.6596451834
| 11> O 3.6532285391 0.162439547 0.7625235017
| 12> C 4.3672577793 -0.4874120282 1.8331836764
| 13> C 3.8600915044 -0.0909634143 3.2033115935
| 14> S 1.6189656119 -1.9397590554 0.7297354785
| 15> C -0.1663975165 -1.763776672 0.9369435398
| 16> S -1.0690294543 -1.5812611775 -0.6389975716
| 17> P -1.8285500285 0.3886041038 -0.6451396179
| 18> S -0.8702446921 1.9073843752 -1.4168092143
| 19> O -2.2420842252 0.4901807869 0.8982723522
| 20> C -2.4893027636 1.7584157446 1.5287631455
| 21> C -3.7893675835 2.3707794283 1.0514323418
| 22> O -3.1653484912 0.2055414003 -1.4833722745
| 23> C -4.1830294937 -0.7769622244 -1.1743210903
| 24> C -4.1864700767 -1.8755556026 -2.2186563274
| 25> H 2.3193719387 -1.3350228278 -3.7260457827
| 26> H 1.5380702713 -1.8811822033 -2.2347835769
| 27> H 0.8809544697 -0.4986543855 -3.1213451892
| 28> H 2.9939325127 0.7858181814 -2.6753008072
| 29> H 3.5727374426 -0.5673281444 -1.6626203238
| 30> H 4.2874186602 -1.5681591105 1.6881185987
| 31> H 5.3991138912 -0.1660959217 1.6807471267
| 32> H 4.4891714856 -0.5424172338 3.9635681692
| 33> H 3.8772272253 0.9906210603 3.3161990282
| 34> H 2.8352729221 -0.4329402536 3.3394731024
| 35> H -0.3695232391 -0.8993790033 1.5709515732
| 36> H -0.5157489993 -2.687960675 1.3888974144
| 37> H -2.509253469 1.5254565026 2.5944420937
| 38> H -1.6434913886 2.4220047272 1.3216326356
| 39> H -4.6181720367 1.6925604113 1.2375607715
| 40> H -3.9600924455 3.3033599688 1.5797425453
| 41> H -3.7269941991 2.5762190471 -0.0171678508
| 42> H -4.004946039 -1.1777097923 -0.1731015795
| 43> H -5.1222170698 -0.220744364 -1.1857304682
| 44> H -4.3185024529 -1.4445437816 -3.2070266665
| 45> H -3.246742983 -2.4227091395 -2.1979718573
| 46> H -5.0036903614 -2.5592169613 -2.0121319443
| 47> *
| 48>
| 49>                          ****END OF INPUT****

CARTESIAN COORDINATES (ANGSTROEM)
---------------------------------
  C      1.797207   -1.009822   -2.832028
  C      2.689866   -0.060589   -2.057337
  O      1.960990    0.546606   -0.960886
  P      2.079833    0.125164    0.551588
  S      0.976373    1.302080    1.659645
  O      3.653229    0.162440    0.762524
  C      4.367258   -0.487412    1.833184
  C      3.860092   -0.090963    3.203312
  S      1.618966   -1.939759    0.729735
  C     -0.166398   -1.763777    0.936944
  S     -1.069029   -1.581261   -0.638998
  P     -1.828550    0.388604   -0.645140
  S     -0.870245    1.907384   -1.416809
  O     -2.242084    0.490181    0.898272
  C     -2.489303    1.758416    1.528763
  C     -3.789368    2.370779    1.051432
  O     -3.165348    0.205541   -1.483372
  C     -4.183029   -0.776962   -1.174321
  C     -4.186470   -1.875556   -2.218656
  H      2.319372   -1.335023   -3.726046
  H      1.538070   -1.881182   -2.234784
  H      0.880954   -0.498654   -3.121345
  H      2.993933    0.785818   -2.675301
  H      3.572737   -0.567328   -1.662620
  H      4.287419   -1.568159    1.688119
  H      5.399114   -0.166096    1.680747
  H      4.489171   -0.542417    3.963568
  H      3.877227    0.990621    3.316199
  H      2.835273   -0.432940    3.339473
  H     -0.369523   -0.899379    1.570952
  H     -0.515749   -2.687961    1.388897
  H     -2.509253    1.525457    2.594442
  H     -1.643491    2.422005    1.321633
  H     -4.618172    1.692560    1.237561
  H     -3.960092    3.303360    1.579743
  H     -3.726994    2.576219   -0.017168
  H     -4.004946   -1.177710   -0.173102
  H     -5.122217   -0.220744   -1.185730
  H     -4.318502   -1.444544   -3.207027
  H     -3.246743   -2.422709   -2.197972
  H     -5.003690   -2.559217   -2.012132

 Total Charge           Charge          ....    0
 Multiplicity           Mult            ....    1
 Number of Electrons    NEL             ....  202
 Basis Dimension        Dim             ....  334

ORBITAL ENERGIES
----------------

  NO   OCC          E(Eh)            E(eV)
   0   2.0000     -88.047254     -2395.8876
   1   2.0000     -88.040680     -2395.7087
   2   2.0000     -87.981046     -2394.0860
   3   2.0000     -87.969096     -2393.7608
   4   2.0000     -76.424445     -2079.6149
   5   2.0000     -76.415992     -2079.3849
   6   2.0000     -18.794260      -511.4178
   7   2.0000     -18.785019      -511.1664
   8   2.0000     -18.783842      -511.1343
   9   2.0000     -18.781244      -511.0636
  10   2.0000      -9.960360      -271.0352
  11   2.0000      -9.959002      -270.9982
  12   2.0000      -9.951484      -270.7936
  13   2.0000      -9.948056      -270.7004
  14   2.0000      -9.941778      -270.5295
  15   2.0000      -9.884774      -268.9784
  16   2.0000      -9.884463      -268.9699
  17   2.0000      -9.879020      -268.8218
  18   2.0000      -9.873641      -268.6754
  19   2.0000      -7.692342      -209.3193
  20   2.0000      -7.685781      -209.1407
  21   2.0000      -7.626054      -207.5155
  22   2.0000      -7.614326      -207.1963
  23   2.0000      -6.421728      -174.7441
  24   2.0000      -6.413646      -174.5242
  25   2.0000      -5.719973      -155.6484
  26   2.0000      -5.716725      -155.5600
  27   2.0000      -5.713942      -155.4843
  28   2.0000      -5.709867      -155.3734
  29   2.0000      -5.709677      -155.3682
  30   2.0000      -5.702802      -155.1811
  31   2.0000      -5.655094      -153.8829
  32   2.0000      -5.646682      -153.6540
  33   2.0000      -5.646027      -153.6362
  34   2.0000      -5.643615      -153.5706
  35   2.0000      -5.634916      -153.3339
  36   2.0000      -5.634112      -153.3120
  37   2.0000      -4.644483      -126.3828
  38   2.0000      -4.643786      -126.3638
  39   2.0000      -4.641789      -126.3095
  40   2.0000      -4.636617      -126.1688
  41   2.0000      -4.635402      -126.1357
  42   2.0000      -4.633757      -126.0909
  43   2.0000      -0.985640       -26.8206
  44   2.0000      -0.977009       -26.5858
  45   2.0000      -0.939936       -25.5770
  46   2.0000      -0.937386       -25.5076
  47   2.0000      -0.762909       -20.7598
  48   2.0000      -0.718012       -19.5381
  49   2.0000      -0.708206       -19.2713
  50   2.0000      -0.688598       -18.7377
  51   2.0000      -0.685973       -18.6663
  52   2.0000      -0.671663       -18.2769
  53   2.0000      -0.647032       -17.6066
  54   2.0000      -0.630748       -17.1635
  55   2.0000      -0.591408       -16.0930
  56   2.0000      -0.582127       -15.8405
  57   2.0000      -0.572221       -15.5709
  58   2.0000      -0.570102       -15.5133
  59   2.0000      -0.562178       -15.2977
  60   2.0000      -0.501811       -13.6550
  61   2.0000      -0.494084       -13.4447
  62   2.0000      -0.472663       -12.8618
  63   2.0000      -0.469013       -12.7625
  64   2.0000      -0.454030       -12.3548
  65   2.0000      -0.447524       -12.1778
  66   2.0000      -0.437354       -11.9010
  67   2.0000      -0.433240       -11.7891
  68   2.0000      -0.426041       -11.5932
  69   2.0000      -0.417579       -11.3629
  70   2.0000      -0.410364       -11.1666
  71   2.0000      -0.397321       -10.8117
  72   2.0000      -0.395308       -10.7569
  73   2.0000      -0.382947       -10.4205
  74   2.0000      -0.377324       -10.2675
  75   2.0000      -0.363213        -9.8835
  76   2.0000      -0.354837        -9.6556
  77   2.0000      -0.353969        -9.6320
  78   2.0000      -0.350976        -9.5506
  79   2.0000      -0.346739        -9.4352
  80   2.0000      -0.342554        -9.3214
  81   2.0000      -0.342122        -9.3096
  82   2.0000      -0.338745        -9.2177
  83   2.0000      -0.336973        -9.1695
  84   2.0000      -0.328934        -8.9508
  85   2.0000      -0.313963        -8.5434
  86   2.0000      -0.308328        -8.3900
  87   2.0000      -0.298497        -8.1225
  88   2.0000      -0.297420        -8.0932
  89   2.0000      -0.287971        -7.8361
  90   2.0000      -0.273539        -7.4434
  91   2.0000      -0.271355        -7.3840
  92   2.0000      -0.267862        -7.2889
  93   2.0000      -0.262478        -7.1424
  94   2.0000      -0.256461        -6.9787
  95   2.0000      -0.236025        -6.4226
  96   2.0000      -0.221788        -6.0352
  97   2.0000      -0.206989        -5.6324
  98   2.0000      -0.199266        -5.4223
  99   2.0000      -0.185935        -5.0596
 100   2.0000      -0.173094        -4.7101
 101   0.0000      -0.040429        -1.1001
 102   0.0000      -0.025232        -0.6866
 103   0.0000      -0.020074        -0.5462
 104   0.0000       0.003136         0.0853
 105   0.0000       0.016473         0.4483

MULLIKEN ATOMIC CHARGES
-----------------------
   0 C :   -0.296085
   1 C :   -0.005822
   2 O :   -0.331844
   3 P :    0.607993
   4 S :   -0.303314
   5 O :   -0.378659
   6 C :   -0.011591
   7 C :   -0.306487
   8 S :   -0.124356
   9 C :   -0.344403
  10 S :   -0.111020
  11 P :    0.609377
  12 S :   -0.284053
  13 O :   -0.390076
  14 C :   -0.014564
  15 C :   -0.309564
  16 O :   -0.368692
  17 C :   -0.023434
  18 C :   -0.286280
  19 H :    0.101920
  20 H :    0.120768
  21 H :    0.127186
  22 H :    0.111637
  23 H :    0.094442
  24 H :    0.112111
  25 H :    0.110371
  26 H :    0.110482
  27 H :    0.128331
  28 H :    0.122139
  29 H :    0.209769
  30 H :    0.181689
  31 H :    0.099961
  32 H :    0.130765
  33 H :    0.106749
  34 H :    0.112217
  35 H :    0.131601
  36 H :    0.102011
  37 H :    0.108068
  38 H :    0.120147
  39 H :    0.123241
  40 H :    0.107271
Sum of atomic charges:    0.0000000

LOEWDIN ATOMIC CHARGES
----------------------
   0 C :   -0.366404
   1 C :   -0.109482
   2 O :   -0.220539
   3 P :    0.568226
   4 S :   -0.288684
   5 O :   -0.243468
   6 C :   -0.114655
   7 C :   -0.369432
   8 S :    0.063039
   9 C :   -0.476931
  10 S :    0.085654
  11 P :    0.556744
  12 S :   -0.291947
  13 O :   -0.252636
  14 C :   -0.124248
  15 C :   -0.366134
  16 O :   -0.244561
  17 C :   -0.123403
  18 C :   -0.359658
  19 H :    0.125860
  20 H :    0.113108
  21 H :    0.128246
  22 H :    0.123593
  23 H :    0.104641
  24 H :    0.107082
  25 H :    0.121863
  26 H :    0.129701
  27 H :    0.131372
  28 H :    0.119975
  29 H :    0.129492
  30 H :    0.137632
  31 H :    0.115777
  32 H :    0.111555
  33 H :    0.119886
  34 H :    0.131075
  35 H :    0.126519
  36 H :    0.105362
  37 H :    0.118679
  38 H :    0.129130
  39 H :    0.119313
  40 H :    0.128660

  Mayer bond orders larger than 0.100000
B(  0-C ,  1-C ) :   1.1685 B(  0-C , 19-H ) :   0.9373 B(  0-C , 20-H ) :   0.9334
B(  0-C , 21-H ) :   0.9387 B(  1-C ,  2-O ) :   0.8905 B(  1-C , 22-H ) :   0.9337
B(  1-C , 23-H ) :   0.9200 B(  2-O ,  3-P ) :   1.1652 B(  3-P ,  4-S ) :   1.6331
B(  3-P ,  5-O ) :   1.0927 B(  3-P ,  8-S ) :   0.9237 B(  4-S ,  8-S ) :   0.1072
B(  5-O ,  6-C ) :   0.9108 B(  6-C ,  7-C ) :   1.1674 B(  6-C , 24-H ) :   0.9263
B(  6-C , 25-H ) :   0.9333 B(  7-C , 26-H ) :   0.9347 B(  7-C , 27-H ) :   0.9430
B(  7-C , 28-H ) :   0.9321 B(  8-S ,  9-C ) :   1.0143 B(  9-C , 10-S ) :   0.9920
B(  9-C , 29-H ) :   0.8514 B(  9-C , 30-H ) :   0.9106 B( 10-S , 11-P ) :   0.9501
B( 10-S , 12-S ) :   0.1033 B( 11-P , 12-S ) :   1.6804 B( 11-P , 13-O ) :   1.0658
B( 11-P , 16-O ) :   1.0980 B( 13-O , 14-C ) :   0.8993 B( 14-C , 15-C ) :   1.1606
B( 14-C , 31-H ) :   0.9357 B( 14-C , 32-H ) :   0.9071 B( 15-C , 33-H ) :   0.9455
B( 15-C , 34-H ) :   0.9404 B( 15-C , 35-H ) :   0.9339 B( 16-O , 17-C ) :   0.9009
B( 17-C , 18-C ) :   1.1658 B( 17-C , 36-H ) :   0.9134 B( 17-C , 37-H ) :   0.9311
B( 18-C , 38-H ) :   0.9460 B( 18-C , 39-H ) :   0.9396 B( 18-C , 40-H ) :   0.9404

Dispersion correction           -0.068162222
FINAL SINGLE POINT ENERGY     -2929.511036012210

DIPOLE MOMENT
-------------

Method             : SCF
Type of density    : Electron Density
Multiplicity       :   1
Irrep              :   0
Energy             : -2929.6288516630356753 Eh
Relativity type    :
Basis              : AO
                                X                 Y                 Z
Electronic contribution:      6.709915172       3.756686784      -0.813378432
Nuclear contribution   :     -6.663272351      -5.221434908       1.439666416
                        -----------------------------------------
Total Dipole Moment    :      0.046642821      -1.464748124       0.626287984
                        -----------------------------------------
Magnitude (a.u.)       :      1.593706139
Magnitude (Debye)      :      4.050879078

Rotational constants in cm-1:             0.012675             0.005476             0.004960
Rotational constants in MHz :           379.974723           164.161784           148.689951

                             ****ORCA TERMINATED NORMALLY****
TOTAL RUN TIME: 0 days 0 hours 0 minutes 21 seconds 446 msec
