                         Program Version 6.0.0  -   RELEASE  -
|  1> ! pbe def2-sv(p) def2/J RI DEFGRID1 loosescf d4 GCP(DFT/SV(P)) printgap
|  2> %output
|  3>     printlevel normal
|  4> end
|  5> * xyz 0 1
|  6> C 3.3500324025 -1.6023172203 -2.7974609702
|  7> C 4.1041349711 -0.4768700644 -2.116799346
|  8> O 3.7845906417 -0.3832329391 -0.7195689863
|  9> P 2.3996616632 0.170539653 -0.1839168216
| 10> S 1.5863433005 1.5254402275 -1.3518507687
| 11> O 2.9817402775 0.6007451402 1.2200991804
| 12> C 2.24883302 1.0572640686 2.3669105752
| 13> C 1.655152542 2.4354125897 2.1549861842
| 14> S 1.1964530257 -1.5342026131 0.2345896041
| 15> C -0.0216868984 -1.3789733994 -1.1217998935
| 16> S -1.7324447375 -1.652012386 -0.6193787401
| 17> P -2.0801115587 0.1029930642 0.548426408
| 18> S -1.1760467839 0.201017782 2.2833100058
| 19> O -3.6661211625 0.1827642176 0.5696812549
| 20> C -4.5446469107 -0.9251588447 0.8415653023
| 21> C -4.2261417753 -1.6198939597 2.1484355078
| 22> O -1.6888819982 1.3692326592 -0.3051711737
| 23> C -2.4204903357 1.9079753902 -1.4347785316
| 24> C -2.0073984286 1.266166701 -2.7437529257
| 25> H 3.4650247137 -2.5249852239 -2.2342690732
| 26> H 2.2926401929 -1.3518942833 -2.8626909487
| 27> H 3.7409719877 -1.7415043975 -3.8002837614
| 28> H 3.8802382645 0.48269479 -2.5944287504
| 29> H 5.1808794396 -0.6513196111 -2.12536232
| 30> H 1.4648824611 0.3358195986 2.6149355499
| 31> H 2.9980570463 1.0672685095 3.1606805998
| 32> H 1.2195428397 2.7799335676 3.0874005681
| 33> H 2.422507686 3.132973127 1.8284937303
| 34> H 0.8681435603 2.3975178014 1.4028227952
| 35> H 0.1774439971 -2.157453903 -1.8545176558
| 36> H 0.082496567 -0.3792291148 -1.5529208577
| 37> H -5.534773493 -0.4663562686 0.8648633955
| 38> H -4.4769192362 -1.6264518537 0.0053589539
| 39> H -4.9637645203 -2.3937484776 2.334548133
| 40> H -3.2380016765 -2.0760449993 2.1002313847
| 41> H -4.2347299016 -0.9074209101 2.9701468833
| 42> H -3.4879800777 1.78394426 -1.2473505918
| 43> H -2.1603016702 2.9675667672 -1.4199839634
| 44> H -2.5219910959 1.7715631314 -3.5549951089
| 45> H -0.9346544555 1.3751462548 -2.8890195185
| 46> H -2.2733036025 0.2117719107 -2.7608967304
| 47> *
| 48>
| 49>                          ****END OF INPUT****

CARTESIAN COORDINATES (ANGSTROEM)
---------------------------------
  C      3.350032   -1.602317   -2.797461
  C      4.104135   -0.476870   -2.116799
  O      3.784591   -0.383233   -0.719569
  P      2.399662    0.170540   -0.183917
  S      1.586343    1.525440   -1.351851
  O      2.981740    0.600745    1.220099
  C      2.248833    1.057264    2.366911
  C      1.655153    2.435413    2.154986
  S      1.196453   -1.534203    0.234590
  C     -0.021687   -1.378973   -1.121800
  S     -1.732445   -1.652012   -0.619379
  P     -2.080112    0.102993    0.548426
  S     -1.176047    0.201018    2.283310
  O     -3.666121    0.182764    0.569681
  C     -4.544647   -0.925159    0.841565
  C     -4.226142   -1.619894    2.148436
  O     -1.688882    1.369233   -0.305171
  C     -2.420490    1.907975   -1.434779
  C     -2.007398    1.266167   -2.743753
  H      3.465025   -2.524985   -2.234269
  H      2.292640   -1.351894   -2.862691
  H      3.740972   -1.741504   -3.800284
  H      3.880238    0.482695   -2.594429
  H      5.180879   -0.651320   -2.125362
  H      1.464882    0.335820    2.614936
  H      2.998057    1.067269    3.160681
  H      1.219543    2.779934    3.087401
  H      2.422508    3.132973    1.828494
  H      0.868144    2.397518    1.402823
  H      0.177444   -2.157454   -1.854518
  H      0.082497   -0.379229   -1.552921
  H     -5.534773   -0.466356    0.864863
  H     -4.476919   -1.626452    0.005359
  H     -4.963765   -2.393748    2.334548
  H     -3.238002   -2.076045    2.100231
  H     -4.234730   -0.907421    2.970147
  H     -3.487980    1.783944   -1.247351
  H     -2.160302    2.967567   -1.419984
  H     -2.521991    1.771563   -3.554995
  H     -0.934654    1.375146   -2.889020
  H     -2.273304    0.211772   -2.760897

 Total Charge           Charge          ....    0
 Multiplicity           Mult            ....    1
 Number of Electrons    NEL             ....  202
 Basis Dimension        Dim             ....  334

ORBITAL ENERGIES
----------------

  NO   OCC          E(Eh)            E(eV)
   0   2.0000     -88.048014     -2395.9083
   1   2.0000     -88.039759     -2395.6836
   2   2.0000     -87.988564     -2394.2905
   3   2.0000     -87.978460     -2394.0156
   4   2.0000     -76.427697     -2079.7034
   5   2.0000     -76.424435     -2079.6146
   6   2.0000     -18.797384      -511.5028
   7   2.0000     -18.791436      -511.3410
   8   2.0000     -18.784922      -511.1637
   9   2.0000     -18.781487      -511.0703
  10   2.0000      -9.963509      -271.1209
  11   2.0000      -9.959017      -270.9986
  12   2.0000      -9.954164      -270.8666
  13   2.0000      -9.949338      -270.7353
  14   2.0000      -9.939826      -270.4764
  15   2.0000      -9.886571      -269.0273
  16   2.0000      -9.885947      -269.0103
  17   2.0000      -9.884845      -268.9803
  18   2.0000      -9.865223      -268.4464
  19   2.0000      -7.692893      -209.3343
  20   2.0000      -7.684650      -209.1100
  21   2.0000      -7.633290      -207.7124
  22   2.0000      -7.623568      -207.4478
  23   2.0000      -6.424796      -174.8276
  24   2.0000      -6.421584      -174.7402
  25   2.0000      -5.720675      -155.6675
  26   2.0000      -5.717337      -155.5767
  27   2.0000      -5.712517      -155.4455
  28   2.0000      -5.710052      -155.3784
  29   2.0000      -5.709260      -155.3569
  30   2.0000      -5.701578      -155.1478
  31   2.0000      -5.661953      -154.0696
  32   2.0000      -5.654047      -153.8544
  33   2.0000      -5.653544      -153.8408
  34   2.0000      -5.652632      -153.8159
  35   2.0000      -5.644192      -153.5863
  36   2.0000      -5.643537      -153.5684
  37   2.0000      -4.647975      -126.4778
  38   2.0000      -4.646877      -126.4480
  39   2.0000      -4.644468      -126.3824
  40   2.0000      -4.643804      -126.3643
  41   2.0000      -4.643590      -126.3585
  42   2.0000      -4.642197      -126.3206
  43   2.0000      -0.990362       -26.9491
  44   2.0000      -0.983009       -26.7490
  45   2.0000      -0.946290       -25.7499
  46   2.0000      -0.937435       -25.5089
  47   2.0000      -0.761921       -20.7329
  48   2.0000      -0.720671       -19.6104
  49   2.0000      -0.710927       -19.3453
  50   2.0000      -0.693190       -18.8627
  51   2.0000      -0.681106       -18.5338
  52   2.0000      -0.672863       -18.3095
  53   2.0000      -0.651813       -17.7367
  54   2.0000      -0.636670       -17.3247
  55   2.0000      -0.595691       -16.2096
  56   2.0000      -0.589252       -16.0344
  57   2.0000      -0.579926       -15.7806
  58   2.0000      -0.568230       -15.4623
  59   2.0000      -0.562136       -15.2965
  60   2.0000      -0.502989       -13.6870
  61   2.0000      -0.490604       -13.3500
  62   2.0000      -0.474425       -12.9098
  63   2.0000      -0.462835       -12.5944
  64   2.0000      -0.455423       -12.3927
  65   2.0000      -0.446702       -12.1554
  66   2.0000      -0.439493       -11.9592
  67   2.0000      -0.436784       -11.8855
  68   2.0000      -0.426562       -11.6073
  69   2.0000      -0.415075       -11.2948
  70   2.0000      -0.412057       -11.2126
  71   2.0000      -0.402970       -10.9654
  72   2.0000      -0.400673       -10.9029
  73   2.0000      -0.389061       -10.5869
  74   2.0000      -0.385625       -10.4934
  75   2.0000      -0.366941        -9.9850
  76   2.0000      -0.358057        -9.7432
  77   2.0000      -0.355483        -9.6732
  78   2.0000      -0.352722        -9.5981
  79   2.0000      -0.347207        -9.4480
  80   2.0000      -0.345704        -9.4071
  81   2.0000      -0.344608        -9.3773
  82   2.0000      -0.337973        -9.1967
  83   2.0000      -0.331867        -9.0306
  84   2.0000      -0.325729        -8.8635
  85   2.0000      -0.322582        -8.7779
  86   2.0000      -0.308518        -8.3952
  87   2.0000      -0.301623        -8.2076
  88   2.0000      -0.293171        -7.9776
  89   2.0000      -0.292162        -7.9501
  90   2.0000      -0.281041        -7.6475
  91   2.0000      -0.277372        -7.5477
  92   2.0000      -0.264949        -7.2096
  93   2.0000      -0.260596        -7.0912
  94   2.0000      -0.256681        -6.9846
  95   2.0000      -0.242616        -6.6019
  96   2.0000      -0.220398        -5.9973
  97   2.0000      -0.206229        -5.6118
  98   2.0000      -0.202826        -5.5192
  99   2.0000      -0.194194        -5.2843
 100   2.0000      -0.185483        -5.0472
 101   0.0000      -0.043249        -1.1769
 102   0.0000      -0.034246        -0.9319
 103   0.0000      -0.020640        -0.5616
 104   0.0000      -0.000942        -0.0256
 105   0.0000       0.014981         0.4076

MULLIKEN ATOMIC CHARGES
-----------------------
   0 C :   -0.323738
   1 C :    0.002110
   2 O :   -0.357829
   3 P :    0.611861
   4 S :   -0.335598
   5 O :   -0.355557
   6 C :   -0.016861
   7 C :   -0.308029
   8 S :   -0.078256
   9 C :   -0.387059
  10 S :   -0.124891
  11 P :    0.616956
  12 S :   -0.308926
  13 O :   -0.382961
  14 C :   -0.017087
  15 C :   -0.311001
  16 O :   -0.350078
  17 C :   -0.002567
  18 C :   -0.328976
  19 H :    0.121678
  20 H :    0.118672
  21 H :    0.111905
  22 H :    0.111088
  23 H :    0.106352
  24 H :    0.130834
  25 H :    0.100406
  26 H :    0.106067
  27 H :    0.109118
  28 H :    0.139430
  29 H :    0.190461
  30 H :    0.216671
  31 H :    0.111959
  32 H :    0.116139
  33 H :    0.112701
  34 H :    0.130435
  35 H :    0.129799
  36 H :    0.107790
  37 H :    0.113390
  38 H :    0.110960
  39 H :    0.146073
  40 H :    0.116559
Sum of atomic charges:   -0.0000000

LOEWDIN ATOMIC CHARGES
----------------------
   0 C :   -0.367489
   1 C :   -0.118672
   2 O :   -0.238109
   3 P :    0.570267
   4 S :   -0.302673
   5 O :   -0.225542
   6 C :   -0.118469
   7 C :   -0.368787
   8 S :    0.078456
   9 C :   -0.484681
  10 S :    0.065797
  11 P :    0.568044
  12 S :   -0.298931
  13 O :   -0.244321
  14 C :   -0.115715
  15 C :   -0.369892
  16 O :   -0.229364
  17 C :   -0.108984
  18 C :   -0.372193
  19 H :    0.127118
  20 H :    0.118190
  21 H :    0.130446
  22 H :    0.108548
  23 H :    0.119774
  24 H :    0.105013
  25 H :    0.117077
  26 H :    0.129044
  27 H :    0.122523
  28 H :    0.122946
  29 H :    0.134841
  30 H :    0.119816
  31 H :    0.122558
  32 H :    0.107803
  33 H :    0.130816
  34 H :    0.123037
  35 H :    0.131960
  36 H :    0.111411
  37 H :    0.124502
  38 H :    0.130901
  39 H :    0.126813
  40 H :    0.116120

  Mayer bond orders larger than 0.100000
B(  0-C ,  1-C ) :   1.1599 B(  0-C , 19-H ) :   0.9450 B(  0-C , 20-H ) :   0.9342
B(  0-C , 21-H ) :   0.9385 B(  1-C ,  2-O ) :   0.9262 B(  1-C , 22-H ) :   0.9130
B(  1-C , 23-H ) :   0.9339 B(  2-O ,  3-P ) :   1.1096 B(  3-P ,  4-S ) :   1.5803
B(  3-P ,  5-O ) :   1.1563 B(  3-P ,  8-S ) :   0.9600 B(  4-S ,  8-S ) :   0.1245
B(  4-S , 30-H ) :   0.1081 B(  5-O ,  6-C ) :   0.9035 B(  6-C ,  7-C ) :   1.1715
B(  6-C , 24-H ) :   0.9102 B(  6-C , 25-H ) :   0.9336 B(  7-C , 26-H ) :   0.9374
B(  7-C , 27-H ) :   0.9445 B(  7-C , 28-H ) :   0.9291 B(  8-S ,  9-C ) :   1.0058
B(  9-C , 10-S ) :   1.0056 B(  9-C , 29-H ) :   0.9014 B(  9-C , 30-H ) :   0.8314
B( 10-S , 11-P ) :   0.9280 B( 10-S , 12-S ) :   0.1111 B( 11-P , 12-S ) :   1.6730
B( 11-P , 13-O ) :   1.0758 B( 11-P , 16-O ) :   1.1381 B( 13-O , 14-C ) :   0.9128
B( 14-C , 15-C ) :   1.1670 B( 14-C , 31-H ) :   0.9330 B( 14-C , 32-H ) :   0.9239
B( 15-C , 33-H ) :   0.9342 B( 15-C , 34-H ) :   0.9319 B( 15-C , 35-H ) :   0.9419
B( 16-O , 17-C ) :   0.8947 B( 17-C , 18-C ) :   1.1746 B( 17-C , 36-H ) :   0.9222
B( 17-C , 37-H ) :   0.9328 B( 18-C , 38-H ) :   0.9359 B( 18-C , 39-H ) :   0.9257
B( 18-C , 40-H ) :   0.9330

Dispersion correction           -0.067493360
FINAL SINGLE POINT ENERGY     -2929.511576856961

DIPOLE MOMENT
-------------

Method             : SCF
Type of density    : Electron Density
Multiplicity       :   1
Irrep              :   0
Energy             : -2929.6296606593123215 Eh
Relativity type    :
Basis              : AO
                                X                 Y                 Z
Electronic contribution:      4.992864971      -2.241305784       7.255237700
Nuclear contribution   :     -5.921524134       1.728352098      -8.330198910
                        -----------------------------------------
Total Dipole Moment    :     -0.928659163      -0.512953686      -1.074961210
                        -----------------------------------------
Magnitude (a.u.)       :      1.510321465
Magnitude (Debye)      :      3.838932080

Rotational constants in cm-1:             0.012094             0.005423             0.005017
Rotational constants in MHz :           362.576044           162.581692           150.408981

                             ****ORCA TERMINATED NORMALLY****
TOTAL RUN TIME: 0 days 0 hours 0 minutes 21 seconds 471 msec
