                         Program Version 6.0.0  -   RELEASE  -
|  1> ! pbe def2-sv(p) def2/J RI DEFGRID1 loosescf d4 GCP(DFT/SV(P)) printgap
|  2> %output
|  3>     printlevel normal
|  4> end
|  5> * xyz 0 1
|  6> C 5.4340177047 -1.3406016074 0.4703295298
|  7> C 4.1287243367 -1.7909576885 -0.1524462465
|  8> O 3.5765157613 -0.7645644948 -1.0154316495
|  9> P 2.5567127537 0.3432603151 -0.5437497183
| 10> S 2.085644296 1.5265820173 -2.0275425036
| 11> O 3.2942440849 1.0195145109 0.6906885453
| 12> C 2.9200178596 2.3076962483 1.2107353681
| 13> C 1.5712804174 2.2774163663 1.8996050535
| 14> S 0.9726040292 -0.7686721252 0.343687332
| 15> C 0.0577332311 -1.0575344648 -1.2086348288
| 16> S -1.5883905723 -1.6960933392 -0.8839463202
| 17> P -2.5115751156 0.0814351056 -0.1206219374
| 18> S -1.5283889591 1.7395602417 -0.4717562162
| 19> O -2.8182525221 -0.2249130848 1.4087683144
| 20> C -1.8090723133 -0.1533502565 2.4347920651
| 21> C -2.5146738426 -0.1774002096 3.7753274971
| 22> O -3.9530821873 0.1167706026 -0.7460157564
| 23> C -5.0721891803 -0.7082460785 -0.3310015107
| 24> C -4.8094976782 -2.1850186187 -0.5303425788
| 25> H 5.8611489399 -2.1664526217 1.0307152311
| 26> H 6.1306226184 -1.035412592 -0.3057696362
| 27> H 5.2654120222 -0.5016477574 1.1394575628
| 28> H 3.389597825 -2.042279121 0.6137920283
| 29> H 4.2804115713 -2.6431117198 -0.8174358916
| 30> H 3.7227965886 2.5477439932 1.9095829034
| 31> H 2.9153179234 3.0272729728 0.386264192
| 32> H 1.4094495057 3.2202621367 2.4120531944
| 33> H 0.7777406511 2.1445786729 1.1643614567
| 34> H 1.5334951089 1.4622754391 2.6183140107
| 35> H 0.573713949 -1.8090089359 -1.8021591537
| 36> H -0.0090453756 -0.1063747117 -1.7434792214
| 37> H -1.1348542396 -1.0071151461 2.3187631569
| 38> H -1.2374062801 0.7696119415 2.296556013
| 39> H -3.0921440874 -1.0914717424 3.8762206099
| 40> H -1.773563279 -0.1318146631 4.566184248
| 41> H -3.1828780523 0.6748032693 3.8609333034
| 42> H -5.288275905 -0.4849371074 0.7148636334
| 43> H -5.8863497927 -0.3538223207 -0.9648548585
| 44> H -4.5346631246 -2.3872777177 -1.5623412519
| 45> H -3.999157225 -2.516655437 0.1163222249
| 46> H -5.7088389292 -2.7408335196 -0.28380989
| 47> *
| 48>
| 49>                          ****END OF INPUT****

CARTESIAN COORDINATES (ANGSTROEM)
---------------------------------
  C      5.434018   -1.340602    0.470330
  C      4.128724   -1.790958   -0.152446
  O      3.576516   -0.764564   -1.015432
  P      2.556713    0.343260   -0.543750
  S      2.085644    1.526582   -2.027543
  O      3.294244    1.019515    0.690689
  C      2.920018    2.307696    1.210735
  C      1.571280    2.277416    1.899605
  S      0.972604   -0.768672    0.343687
  C      0.057733   -1.057534   -1.208635
  S     -1.588391   -1.696093   -0.883946
  P     -2.511575    0.081435   -0.120622
  S     -1.528389    1.739560   -0.471756
  O     -2.818253   -0.224913    1.408768
  C     -1.809072   -0.153350    2.434792
  C     -2.514674   -0.177400    3.775327
  O     -3.953082    0.116771   -0.746016
  C     -5.072189   -0.708246   -0.331002
  C     -4.809498   -2.185019   -0.530343
  H      5.861149   -2.166453    1.030715
  H      6.130623   -1.035413   -0.305770
  H      5.265412   -0.501648    1.139458
  H      3.389598   -2.042279    0.613792
  H      4.280412   -2.643112   -0.817436
  H      3.722797    2.547744    1.909583
  H      2.915318    3.027273    0.386264
  H      1.409450    3.220262    2.412053
  H      0.777741    2.144579    1.164361
  H      1.533495    1.462275    2.618314
  H      0.573714   -1.809009   -1.802159
  H     -0.009045   -0.106375   -1.743479
  H     -1.134854   -1.007115    2.318763
  H     -1.237406    0.769612    2.296556
  H     -3.092144   -1.091472    3.876221
  H     -1.773563   -0.131815    4.566184
  H     -3.182878    0.674803    3.860933
  H     -5.288276   -0.484937    0.714864
  H     -5.886350   -0.353822   -0.964855
  H     -4.534663   -2.387278   -1.562341
  H     -3.999157   -2.516655    0.116322
  H     -5.708839   -2.740834   -0.283810

 Total Charge           Charge          ....    0
 Multiplicity           Mult            ....    1
 Number of Electrons    NEL             ....  202
 Basis Dimension        Dim             ....  334

ORBITAL ENERGIES
----------------

  NO   OCC          E(Eh)            E(eV)
   0   2.0000     -88.045739     -2395.8464
   1   2.0000     -88.038738     -2395.6558
   2   2.0000     -87.981950     -2394.1106
   3   2.0000     -87.979446     -2394.0424
   4   2.0000     -76.425896     -2079.6543
   5   2.0000     -76.422278     -2079.5559
   6   2.0000     -18.794287      -511.4185
   7   2.0000     -18.794056      -511.4123
   8   2.0000     -18.793391      -511.3942
   9   2.0000     -18.788333      -511.2565
  10   2.0000      -9.960892      -271.0496
  11   2.0000      -9.954152      -270.8663
  12   2.0000      -9.953862      -270.8584
  13   2.0000      -9.951109      -270.7835
  14   2.0000      -9.949668      -270.7442
  15   2.0000      -9.894518      -269.2435
  16   2.0000      -9.891191      -269.1530
  17   2.0000      -9.885116      -268.9877
  18   2.0000      -9.879206      -268.8269
  19   2.0000      -7.690445      -209.2677
  20   2.0000      -7.683281      -209.0727
  21   2.0000      -7.626660      -207.5320
  22   2.0000      -7.624706      -207.4788
  23   2.0000      -6.423445      -174.7908
  24   2.0000      -6.419812      -174.6920
  25   2.0000      -5.718405      -155.6057
  26   2.0000      -5.714770      -155.5068
  27   2.0000      -5.711045      -155.4054
  28   2.0000      -5.708019      -155.3231
  29   2.0000      -5.707647      -155.3130
  30   2.0000      -5.700234      -155.1113
  31   2.0000      -5.655809      -153.9024
  32   2.0000      -5.653733      -153.8459
  33   2.0000      -5.647062      -153.6644
  34   2.0000      -5.646815      -153.6576
  35   2.0000      -5.645214      -153.6141
  36   2.0000      -5.644836      -153.6038
  37   2.0000      -4.646377      -126.4344
  38   2.0000      -4.645032      -126.3977
  39   2.0000      -4.643708      -126.3617
  40   2.0000      -4.642786      -126.3366
  41   2.0000      -4.641509      -126.3019
  42   2.0000      -4.639953      -126.2596
  43   2.0000      -0.990615       -26.9560
  44   2.0000      -0.985922       -26.8283
  45   2.0000      -0.946288       -25.7498
  46   2.0000      -0.944034       -25.6885
  47   2.0000      -0.761135       -20.7115
  48   2.0000      -0.722535       -19.6612
  49   2.0000      -0.712390       -19.3851
  50   2.0000      -0.697057       -18.9679
  51   2.0000      -0.688190       -18.7266
  52   2.0000      -0.675903       -18.3922
  53   2.0000      -0.648381       -17.6434
  54   2.0000      -0.632652       -17.2153
  55   2.0000      -0.596308       -16.2264
  56   2.0000      -0.590581       -16.0705
  57   2.0000      -0.576743       -15.6940
  58   2.0000      -0.573831       -15.6147
  59   2.0000      -0.558328       -15.1929
  60   2.0000      -0.507832       -13.8188
  61   2.0000      -0.497211       -13.5298
  62   2.0000      -0.477969       -13.0062
  63   2.0000      -0.473431       -12.8827
  64   2.0000      -0.449065       -12.2197
  65   2.0000      -0.447610       -12.1801
  66   2.0000      -0.446966       -12.1626
  67   2.0000      -0.439633       -11.9630
  68   2.0000      -0.431583       -11.7440
  69   2.0000      -0.425221       -11.5708
  70   2.0000      -0.413612       -11.2550
  71   2.0000      -0.397482       -10.8160
  72   2.0000      -0.393655       -10.7119
  73   2.0000      -0.387497       -10.5443
  74   2.0000      -0.379014       -10.3135
  75   2.0000      -0.369008       -10.0412
  76   2.0000      -0.364413        -9.9162
  77   2.0000      -0.361100        -9.8260
  78   2.0000      -0.356414        -9.6985
  79   2.0000      -0.352914        -9.6033
  80   2.0000      -0.351283        -9.5589
  81   2.0000      -0.347113        -9.4454
  82   2.0000      -0.345251        -9.3948
  83   2.0000      -0.341433        -9.2909
  84   2.0000      -0.333569        -9.0769
  85   2.0000      -0.316848        -8.6219
  86   2.0000      -0.310802        -8.4573
  87   2.0000      -0.304323        -8.2811
  88   2.0000      -0.297587        -8.0977
  89   2.0000      -0.293621        -7.9898
  90   2.0000      -0.288403        -7.8478
  91   2.0000      -0.276718        -7.5299
  92   2.0000      -0.269355        -7.3295
  93   2.0000      -0.262986        -7.1562
  94   2.0000      -0.257798        -7.0150
  95   2.0000      -0.233221        -6.3463
  96   2.0000      -0.219012        -5.9596
  97   2.0000      -0.205606        -5.5948
  98   2.0000      -0.199009        -5.4153
  99   2.0000      -0.195256        -5.3132
 100   2.0000      -0.190001        -5.1702
 101   0.0000      -0.043397        -1.1809
 102   0.0000      -0.031157        -0.8478
 103   0.0000      -0.009069        -0.2468
 104   0.0000       0.007721         0.2101
 105   0.0000       0.012903         0.3511

MULLIKEN ATOMIC CHARGES
-----------------------
   0 C :   -0.292393
   1 C :   -0.011454
   2 O :   -0.359852
   3 P :    0.607881
   4 S :   -0.299760
   5 O :   -0.381776
   6 C :    0.009703
   7 C :   -0.362679
   8 S :   -0.129049
   9 C :   -0.335281
  10 S :   -0.124947
  11 P :    0.604487
  12 S :   -0.285664
  13 O :   -0.388680
  14 C :   -0.032216
  15 C :   -0.273184
  16 O :   -0.359275
  17 C :    0.006582
  18 C :   -0.337729
  19 H :    0.107792
  20 H :    0.120023
  21 H :    0.123138
  22 H :    0.099046
  23 H :    0.107030
  24 H :    0.101378
  25 H :    0.113995
  26 H :    0.112343
  27 H :    0.173784
  28 H :    0.108267
  29 H :    0.178374
  30 H :    0.215949
  31 H :    0.108275
  32 H :    0.123397
  33 H :    0.112689
  34 H :    0.111413
  35 H :    0.118893
  36 H :    0.111839
  37 H :    0.114123
  38 H :    0.132432
  39 H :    0.131303
  40 H :    0.119800
Sum of atomic charges:   -0.0000000

LOEWDIN ATOMIC CHARGES
----------------------
   0 C :   -0.360906
   1 C :   -0.117183
   2 O :   -0.241008
   3 P :    0.569119
   4 S :   -0.294285
   5 O :   -0.246231
   6 C :   -0.115245
   7 C :   -0.378715
   8 S :    0.061407
   9 C :   -0.482876
  10 S :    0.072708
  11 P :    0.565116
  12 S :   -0.281236
  13 O :   -0.251709
  14 C :   -0.122602
  15 C :   -0.350195
  16 O :   -0.235060
  17 C :   -0.107410
  18 C :   -0.372911
  19 H :    0.128508
  20 H :    0.128939
  21 H :    0.125811
  22 H :    0.100843
  23 H :    0.119904
  24 H :    0.116508
  25 H :    0.114492
  26 H :    0.131183
  27 H :    0.123114
  28 H :    0.118447
  29 H :    0.133262
  30 H :    0.124987
  31 H :    0.103024
  32 H :    0.113079
  33 H :    0.124877
  34 H :    0.130925
  35 H :    0.128165
  36 H :    0.115575
  37 H :    0.124519
  38 H :    0.130063
  39 H :    0.118082
  40 H :    0.134918

  Mayer bond orders larger than 0.100000
B(  0-C ,  1-C ) :   1.1638 B(  0-C , 19-H ) :   0.9395 B(  0-C , 20-H ) :   0.9472
B(  0-C , 21-H ) :   0.9410 B(  1-C ,  2-O ) :   0.9012 B(  1-C , 22-H ) :   0.9080
B(  1-C , 23-H ) :   0.9369 B(  2-O ,  3-P ) :   1.1296 B(  3-P ,  4-S ) :   1.6582
B(  3-P ,  5-O ) :   1.0863 B(  3-P ,  8-S ) :   0.9462 B(  4-S ,  8-S ) :   0.1128
B(  5-O ,  6-C ) :   0.9046 B(  6-C ,  7-C ) :   1.1636 B(  6-C , 24-H ) :   0.9334
B(  6-C , 25-H ) :   0.9168 B(  7-C , 26-H ) :   0.9365 B(  7-C , 27-H ) :   0.9129
B(  7-C , 28-H ) :   0.9428 B(  8-S ,  9-C ) :   0.9724 B(  9-C , 10-S ) :   1.0202
B(  9-C , 29-H ) :   0.9054 B(  9-C , 30-H ) :   0.8485 B( 10-S , 11-P ) :   0.9212
B( 10-S , 12-S ) :   0.1155 B( 11-P , 12-S ) :   1.6740 B( 11-P , 13-O ) :   1.0655
B( 11-P , 16-O ) :   1.1481 B( 13-O , 14-C ) :   0.9018 B( 14-C , 15-C ) :   1.1569
B( 14-C , 31-H ) :   0.9198 B( 14-C , 32-H ) :   0.9121 B( 15-C , 33-H ) :   0.9509
B( 15-C , 34-H ) :   0.9420 B( 15-C , 35-H ) :   0.9502 B( 16-O , 17-C ) :   0.8971
B( 17-C , 18-C ) :   1.1701 B( 17-C , 36-H ) :   0.9271 B( 17-C , 37-H ) :   0.9335
B( 18-C , 38-H ) :   0.9416 B( 18-C , 39-H ) :   0.9305 B( 18-C , 40-H ) :   0.9350

Dispersion correction           -0.064054465
FINAL SINGLE POINT ENERGY     -2929.514415002435

DIPOLE MOMENT
-------------

Method             : SCF
Type of density    : Electron Density
Multiplicity       :   1
Irrep              :   0
Energy             : -2929.6353143346173056 Eh
Relativity type    :
Basis              : AO
                                X                 Y                 Z
Electronic contribution:     -0.297975694       5.708950783     -19.083703850
Nuclear contribution   :     -0.025408248      -7.128746440      20.899086521
                        -----------------------------------------
Total Dipole Moment    :     -0.323383941      -1.419795656       1.815382671
                        -----------------------------------------
Magnitude (a.u.)       :      2.327232503
Magnitude (Debye)      :      5.915354921

Rotational constants in cm-1:             0.013134             0.004436             0.004286
Rotational constants in MHz :           393.752924           132.974043           128.500379

                             ****ORCA TERMINATED NORMALLY****
TOTAL RUN TIME: 0 days 0 hours 0 minutes 20 seconds 911 msec
