                         Program Version 6.0.0  -   RELEASE  -
|  1> ! pbe def2-sv(p) def2/J RI DEFGRID1 loosescf d4 GCP(DFT/SV(P)) printgap
|  2> %output
|  3>     printlevel normal
|  4> end
|  5> * xyz 0 1
|  6> C 5.3842102719 -0.2649595109 -0.9717215334
|  7> C 4.0317953617 0.2961036511 -1.3582510643
|  8> O 3.2848197853 0.6933971803 -0.1775867781
|  9> P 2.2417696405 -0.2363331961 0.5454756059
| 10> S 1.6205558965 0.5242578425 2.2375697913
| 11> O 2.9909162811 -1.6293457993 0.6726192442
| 12> C 2.3729952204 -2.7429764778 1.350974323
| 13> C 3.4605558634 -3.7394152372 1.6973704066
| 14> S 0.7663929445 -0.6903860239 -0.9375487866
| 15> C 0.1848395682 0.9958451052 -1.2616366542
| 16> S -0.8540236992 1.696922713 0.0528348685
| 17> P -2.6248269554 0.5546167771 -0.2859587827
| 18> S -2.7206348495 -0.3832738782 -2.0090316041
| 19> O -3.8198344384 1.5535617707 -0.0149690495
| 20> C -4.4342888721 2.3044006165 -1.0763854868
| 21> C -3.5281404595 3.4056240565 -1.5904794956
| 22> O -2.8415751391 -0.278826096 1.0435970129
| 23> C -1.8994614375 -1.1912942146 1.6271608371
| 24> C -1.854299215 -2.5143251151 0.8871109502
| 25> H 5.9310586222 0.4594274696 -0.3743683884
| 26> H 5.2628539456 -1.1762092401 -0.392812021
| 27> H 5.9474408386 -0.4843895832 -1.8734566318
| 28> H 3.4456006204 -0.4352150038 -1.9208672605
| 29> H 4.1351670306 1.2164106592 -1.9360453322
| 30> H 1.8707865657 -2.3679291249 2.2489537351
| 31> H 1.6303994629 -3.1785356681 0.6770656859
| 32> H 4.1935623888 -3.2787660048 2.3536178069
| 33> H 3.0150474843 -4.5905678756 2.2014900572
| 34> H 3.9577494849 -4.0782225821 0.7932205689
| 35> H -0.3935274368 0.9281887921 -2.1831291434
| 36> H 1.0339019103 1.6665782174 -1.367114647
| 37> H -4.7001678424 1.6148061134 -1.8844924139
| 38> H -5.3397999664 2.7079720971 -0.6214441436
| 39> H -2.6673725042 2.9722943673 -2.0978655784
| 40> H -4.0769166491 4.0241241079 -2.2933736862
| 41> H -3.1768623381 4.0200484532 -0.7652236582
| 42> H -0.9107208342 -0.7190766659 1.6648993358
| 43> H -2.2628270233 -1.3217278087 2.6484116532
| 44> H -1.2112145699 -3.2024641115 1.4268139898
| 45> H -2.85453886 -2.9338884386 0.8189646893
| 46> H -1.4655291972 -2.3780447259 -0.1204898801
| 47> *
| 48>
| 49>                          ****END OF INPUT****

CARTESIAN COORDINATES (ANGSTROEM)
---------------------------------
  C      5.384210   -0.264960   -0.971722
  C      4.031795    0.296104   -1.358251
  O      3.284820    0.693397   -0.177587
  P      2.241770   -0.236333    0.545476
  S      1.620556    0.524258    2.237570
  O      2.990916   -1.629346    0.672619
  C      2.372995   -2.742976    1.350974
  C      3.460556   -3.739415    1.697370
  S      0.766393   -0.690386   -0.937549
  C      0.184840    0.995845   -1.261637
  S     -0.854024    1.696923    0.052835
  P     -2.624827    0.554617   -0.285959
  S     -2.720635   -0.383274   -2.009032
  O     -3.819834    1.553562   -0.014969
  C     -4.434289    2.304401   -1.076385
  C     -3.528140    3.405624   -1.590479
  O     -2.841575   -0.278826    1.043597
  C     -1.899461   -1.191294    1.627161
  C     -1.854299   -2.514325    0.887111
  H      5.931059    0.459427   -0.374368
  H      5.262854   -1.176209   -0.392812
  H      5.947441   -0.484390   -1.873457
  H      3.445601   -0.435215   -1.920867
  H      4.135167    1.216411   -1.936045
  H      1.870787   -2.367929    2.248954
  H      1.630399   -3.178536    0.677066
  H      4.193562   -3.278766    2.353618
  H      3.015047   -4.590568    2.201490
  H      3.957749   -4.078223    0.793221
  H     -0.393527    0.928189   -2.183129
  H      1.033902    1.666578   -1.367115
  H     -4.700168    1.614806   -1.884492
  H     -5.339800    2.707972   -0.621444
  H     -2.667373    2.972294   -2.097866
  H     -4.076917    4.024124   -2.293374
  H     -3.176862    4.020048   -0.765224
  H     -0.910721   -0.719077    1.664899
  H     -2.262827   -1.321728    2.648412
  H     -1.211215   -3.202464    1.426814
  H     -2.854539   -2.933888    0.818965
  H     -1.465529   -2.378045   -0.120490

 Total Charge           Charge          ....    0
 Multiplicity           Mult            ....    1
 Number of Electrons    NEL             ....  202
 Basis Dimension        Dim             ....  334

ORBITAL ENERGIES
----------------

  NO   OCC          E(Eh)            E(eV)
   0   2.0000     -88.046108     -2395.8564
   1   2.0000     -88.040226     -2395.6963
   2   2.0000     -87.988056     -2394.2767
   3   2.0000     -87.987374     -2394.2582
   4   2.0000     -76.430638     -2079.7834
   5   2.0000     -76.423894     -2079.5999
   6   2.0000     -18.802700      -511.6475
   7   2.0000     -18.801842      -511.6241
   8   2.0000     -18.785732      -511.1857
   9   2.0000     -18.783301      -511.1196
  10   2.0000      -9.963780      -271.1282
  11   2.0000      -9.962346      -271.0892
  12   2.0000      -9.959822      -271.0205
  13   2.0000      -9.948175      -270.7036
  14   2.0000      -9.941635      -270.5257
  15   2.0000      -9.895889      -269.2808
  16   2.0000      -9.892118      -269.1782
  17   2.0000      -9.881398      -268.8865
  18   2.0000      -9.873834      -268.6807
  19   2.0000      -7.690553      -209.2706
  20   2.0000      -7.684973      -209.1187
  21   2.0000      -7.632997      -207.7044
  22   2.0000      -7.632297      -207.6853
  23   2.0000      -6.428233      -174.9211
  24   2.0000      -6.421107      -174.7272
  25   2.0000      -5.718180      -155.5996
  26   2.0000      -5.715126      -155.5165
  27   2.0000      -5.712870      -155.4551
  28   2.0000      -5.709473      -155.3627
  29   2.0000      -5.707804      -155.3173
  30   2.0000      -5.701953      -155.1580
  31   2.0000      -5.661733      -154.0636
  32   2.0000      -5.661330      -154.0526
  33   2.0000      -5.653570      -153.8415
  34   2.0000      -5.653399      -153.8368
  35   2.0000      -5.652909      -153.8235
  36   2.0000      -5.652364      -153.8086
  37   2.0000      -4.651385      -126.5706
  38   2.0000      -4.650050      -126.5343
  39   2.0000      -4.648048      -126.4798
  40   2.0000      -4.643353      -126.3521
  41   2.0000      -4.643170      -126.3471
  42   2.0000      -4.641600      -126.3044
  43   2.0000      -0.997680       -27.1483
  44   2.0000      -0.983875       -26.7726
  45   2.0000      -0.955748       -26.0072
  46   2.0000      -0.938726       -25.5440
  47   2.0000      -0.763336       -20.7714
  48   2.0000      -0.725249       -19.7350
  49   2.0000      -0.710544       -19.3349
  50   2.0000      -0.700724       -19.0677
  51   2.0000      -0.678738       -18.4694
  52   2.0000      -0.672927       -18.3113
  53   2.0000      -0.651841       -17.7375
  54   2.0000      -0.640881       -17.4393
  55   2.0000      -0.596533       -16.2325
  56   2.0000      -0.594042       -16.1647
  57   2.0000      -0.578366       -15.7381
  58   2.0000      -0.568612       -15.4727
  59   2.0000      -0.561903       -15.2901
  60   2.0000      -0.517267       -14.0756
  61   2.0000      -0.491601       -13.3771
  62   2.0000      -0.490459       -13.3461
  63   2.0000      -0.465099       -12.6560
  64   2.0000      -0.457763       -12.4564
  65   2.0000      -0.452928       -12.3248
  66   2.0000      -0.443451       -12.0669
  67   2.0000      -0.436436       -11.8760
  68   2.0000      -0.422832       -11.5058
  69   2.0000      -0.415480       -11.3058
  70   2.0000      -0.409643       -11.1470
  71   2.0000      -0.401693       -10.9306
  72   2.0000      -0.398511       -10.8440
  73   2.0000      -0.387699       -10.5498
  74   2.0000      -0.379389       -10.3237
  75   2.0000      -0.374905       -10.2017
  76   2.0000      -0.367495       -10.0000
  77   2.0000      -0.363729        -9.8976
  78   2.0000      -0.360578        -9.8118
  79   2.0000      -0.356424        -9.6988
  80   2.0000      -0.351897        -9.5756
  81   2.0000      -0.344968        -9.3870
  82   2.0000      -0.340553        -9.2669
  83   2.0000      -0.336644        -9.1605
  84   2.0000      -0.329789        -8.9740
  85   2.0000      -0.324493        -8.8299
  86   2.0000      -0.310525        -8.4498
  87   2.0000      -0.308287        -8.3889
  88   2.0000      -0.302114        -8.2210
  89   2.0000      -0.293239        -7.9795
  90   2.0000      -0.283832        -7.7235
  91   2.0000      -0.280700        -7.6382
  92   2.0000      -0.266216        -7.2441
  93   2.0000      -0.264987        -7.2107
  94   2.0000      -0.256413        -6.9774
  95   2.0000      -0.246388        -6.7046
  96   2.0000      -0.216736        -5.8977
  97   2.0000      -0.209832        -5.7098
  98   2.0000      -0.205252        -5.5852
  99   2.0000      -0.203080        -5.5261
 100   2.0000      -0.192136        -5.2283
 101   0.0000      -0.044924        -1.2224
 102   0.0000      -0.029928        -0.8144
 103   0.0000      -0.011164        -0.3038
 104   0.0000       0.000940         0.0256
 105   0.0000       0.012428         0.3382

MULLIKEN ATOMIC CHARGES
-----------------------
   0 C :   -0.291870
   1 C :   -0.016124
   2 O :   -0.360069
   3 P :    0.589571
   4 S :   -0.286242
   5 O :   -0.383718
   6 C :   -0.027851
   7 C :   -0.281566
   8 S :   -0.100826
   9 C :   -0.345298
  10 S :   -0.073684
  11 P :    0.603701
  12 S :   -0.340582
  13 O :   -0.356379
  14 C :   -0.004249
  15 C :   -0.309676
  16 O :   -0.351814
  17 C :   -0.025685
  18 C :   -0.315894
  19 H :    0.122189
  20 H :    0.125808
  21 H :    0.112004
  22 H :    0.104680
  23 H :    0.110219
  24 H :    0.110082
  25 H :    0.114293
  26 H :    0.124651
  27 H :    0.115393
  28 H :    0.118279
  29 H :    0.194554
  30 H :    0.180840
  31 H :    0.113172
  32 H :    0.106750
  33 H :    0.117495
  34 H :    0.110651
  35 H :    0.119437
  36 H :    0.121571
  37 H :    0.103055
  38 H :    0.100576
  39 H :    0.113707
  40 H :    0.138852
Sum of atomic charges:    0.0000000

LOEWDIN ATOMIC CHARGES
----------------------
   0 C :   -0.359092
   1 C :   -0.115585
   2 O :   -0.235799
   3 P :    0.559763
   4 S :   -0.297018
   5 O :   -0.249185
   6 C :   -0.121303
   7 C :   -0.350031
   8 S :    0.077496
   9 C :   -0.481074
  10 S :    0.093978
  11 P :    0.569407
  12 S :   -0.318749
  13 O :   -0.233932
  14 C :   -0.119528
  15 C :   -0.367506
  16 O :   -0.229431
  17 C :   -0.123721
  18 C :   -0.369857
  19 H :    0.129916
  20 H :    0.126942
  21 H :    0.130982
  22 H :    0.106002
  23 H :    0.120564
  24 H :    0.110129
  25 H :    0.111666
  26 H :    0.130757
  27 H :    0.132877
  28 H :    0.126797
  29 H :    0.129239
  30 H :    0.132036
  31 H :    0.109624
  32 H :    0.119641
  33 H :    0.117837
  34 H :    0.129495
  35 H :    0.125873
  36 H :    0.096863
  37 H :    0.119005
  38 H :    0.122940
  39 H :    0.125792
  40 H :    0.116191

  Mayer bond orders larger than 0.100000
B(  0-C ,  1-C ) :   1.1696 B(  0-C , 19-H ) :   0.9467 B(  0-C , 20-H ) :   0.9409
B(  0-C , 21-H ) :   0.9392 B(  1-C ,  2-O ) :   0.8863 B(  1-C , 22-H ) :   0.9092
B(  1-C , 23-H ) :   0.9345 B(  2-O ,  3-P ) :   1.1292 B(  3-P ,  4-S ) :   1.6804
B(  3-P ,  5-O ) :   1.0713 B(  3-P ,  8-S ) :   0.9498 B(  4-S ,  8-S ) :   0.1113
B(  5-O ,  6-C ) :   0.9049 B(  6-C ,  7-C ) :   1.1613 B(  6-C , 24-H ) :   0.9076
B(  6-C , 25-H ) :   0.9259 B(  7-C , 26-H ) :   0.9503 B(  7-C , 27-H ) :   0.9410
B(  7-C , 28-H ) :   0.9504 B(  8-S ,  9-C ) :   0.9925 B(  9-C , 10-S ) :   1.0148
B(  9-C , 29-H ) :   0.8762 B(  9-C , 30-H ) :   0.8981 B( 10-S , 11-P ) :   0.9431
B( 10-S , 12-S ) :   0.1205 B( 11-P , 12-S ) :   1.5889 B( 11-P , 13-O ) :   1.1293
B( 11-P , 16-O ) :   1.1422 B( 13-O , 14-C ) :   0.9150 B( 14-C , 15-C ) :   1.1624
B( 14-C , 31-H ) :   0.9140 B( 14-C , 32-H ) :   0.9340 B( 15-C , 33-H ) :   0.9387
B( 15-C , 34-H ) :   0.9388 B( 15-C , 35-H ) :   0.9448 B( 16-O , 17-C ) :   0.9137
B( 17-C , 18-C ) :   1.1608 B( 17-C , 36-H ) :   0.8945 B( 17-C , 37-H ) :   0.9356
B( 18-C , 38-H ) :   0.9371 B( 18-C , 39-H ) :   0.9435 B( 18-C , 40-H ) :   0.9310

Dispersion correction           -0.064903019
FINAL SINGLE POINT ENERGY     -2929.521995129521

DIPOLE MOMENT
-------------

Method             : SCF
Type of density    : Electron Density
Multiplicity       :   1
Irrep              :   0
Energy             : -2929.6410281842277072 Eh
Relativity type    :
Basis              : AO
                                X                 Y                 Z
Electronic contribution:     -9.949948547       9.735413766       2.371954377
Nuclear contribution   :     11.032402526     -10.196403051      -3.002250429
                        -----------------------------------------
Total Dipole Moment    :      1.082453979      -0.460989285      -0.630296052
                        -----------------------------------------
Magnitude (a.u.)       :      1.334725009
Magnitude (Debye)      :      3.392601359

Rotational constants in cm-1:             0.013428             0.004620             0.004176
Rotational constants in MHz :           402.546975           138.492256           125.205129

                             ****ORCA TERMINATED NORMALLY****
TOTAL RUN TIME: 0 days 0 hours 0 minutes 20 seconds 895 msec
