                         Program Version 6.0.1  -  RELEASE   -
|  1> ! pbe def2-sv(p) def2/J RI DEFGRID1 loosescf d4 GCP(DFT/SV(P)) printgap
|  2> %output
|  3>     printlevel normal
|  4> end
|  5> * xyz 0 1
|  6> C 2.8235640172 -3.4742470227 0.8062520406
|  7> C 3.3225697372 -2.0393136583 0.8492829187
|  8> O 3.0385021192 -1.3594899521 -0.3901843001
|  9> C 1.9012624899 -0.7307772422 -0.5307940059
| 10> O 1.0502821305 -0.6394932263 0.3415737585
| 11> C 1.7385136139 -0.1024123334 -1.8897806526
| 12> C 0.6035883221 0.9068348635 -1.8516349519
| 13> H 0.5074265586 1.4199969796 -2.8130509241
| 14> C 0.806699561 1.9661762306 -0.7771892506
| 15> O 1.8326751615 2.0751713949 -0.1433918201
| 16> O -0.2287548166 2.7698167905 -0.6903113017
| 17> C -0.1311311987 3.9430423021 0.1442857129
| 18> C -0.3761223598 3.6393344501 1.6120381521
| 19> S -1.0500558895 0.127662406 -1.7050474043
| 20> P -1.3857802788 -0.7562851209 0.1930813474
| 21> S -0.9569194019 -2.6139511861 0.6472918237
| 22> O -1.1972217804 0.377552947 1.3175478446
| 23> C -0.4495388851 0.1776575357 2.5155794574
| 24> O -2.9881303421 -0.7839963039 0.0569535332
| 25> C -3.8088320704 0.3799077563 -0.1303256552
| 26> H 1.7374264851 -3.4975394596 0.7292907835
| 27> H 3.2494004507 -3.9933757729 -0.0475288433
| 28> H 3.1178571966 -3.9822024447 1.7184681436
| 29> H 4.4085727624 -1.9972939925 0.9353591378
| 30> H 2.8523645865 -1.4885826092 1.6682992309
| 31> H 1.5219344899 -0.8862530405 -2.6180040876
| 32> H 2.6780035047 0.3791730361 -2.1637341402
| 33> H 0.8630889638 4.377579288 0.0056677743
| 34> H -0.8980248832 4.6056898343 -0.2570623192
| 35> H -1.311574678 3.1000022085 1.7342669565
| 36> H 0.4339047223 3.0346996894 2.0121038623
| 37> H -0.4247644355 4.5720138499 2.1643457066
| 38> H 0.5392775898 0.6197451805 2.3996844954
| 39> H -0.3456634958 -0.8887751721 2.7234241828
| 40> H -1.0051325868 0.6690214788 3.3113439625
| 41> H -4.7801085154 0.1197550256 0.2840814844
| 42> H -3.8922310245 0.5971860721 -1.1941909913
| 43> H -3.3859937862 1.234126254 0.3961138915
| 44> *
| 45>
| 46>                          ****END OF INPUT****

CARTESIAN COORDINATES (ANGSTROEM)
---------------------------------
  C      2.823564   -3.474247    0.806252
  C      3.322570   -2.039314    0.849283
  O      3.038502   -1.359490   -0.390184
  C      1.901262   -0.730777   -0.530794
  O      1.050282   -0.639493    0.341574
  C      1.738514   -0.102412   -1.889781
  C      0.603588    0.906835   -1.851635
  H      0.507427    1.419997   -2.813051
  C      0.806700    1.966176   -0.777189
  O      1.832675    2.075171   -0.143392
  O     -0.228755    2.769817   -0.690311
  C     -0.131131    3.943042    0.144286
  C     -0.376122    3.639334    1.612038
  S     -1.050056    0.127662   -1.705047
  P     -1.385780   -0.756285    0.193081
  S     -0.956919   -2.613951    0.647292
  O     -1.197222    0.377553    1.317548
  C     -0.449539    0.177658    2.515579
  O     -2.988130   -0.783996    0.056954
  C     -3.808832    0.379908   -0.130326
  H      1.737426   -3.497539    0.729291
  H      3.249400   -3.993376   -0.047529
  H      3.117857   -3.982202    1.718468
  H      4.408573   -1.997294    0.935359
  H      2.852365   -1.488583    1.668299
  H      1.521934   -0.886253   -2.618004
  H      2.678004    0.379173   -2.163734
  H      0.863089    4.377579    0.005668
  H     -0.898025    4.605690   -0.257062
  H     -1.311575    3.100002    1.734267
  H      0.433905    3.034700    2.012104
  H     -0.424764    4.572014    2.164346
  H      0.539278    0.619745    2.399684
  H     -0.345663   -0.888775    2.723424
  H     -1.005133    0.669021    3.311344
  H     -4.780109    0.119755    0.284081
  H     -3.892231    0.597186   -1.194191
  H     -3.385994    1.234126    0.396114

 Total Charge           Charge          ....    0
 Multiplicity           Mult            ....    1
 Number of Electrons    NEL             ....  174
 Basis Dimension        Dim             ....  316

ORBITAL ENERGIES
----------------

  NO   OCC          E(Eh)            E(eV)
   0   2.0000     -88.035101     -2395.5569
   1   2.0000     -87.961264     -2393.5477
   2   2.0000     -76.416677     -2079.4035
   3   2.0000     -18.812874      -511.9243
   4   2.0000     -18.810829      -511.8687
   5   2.0000     -18.782577      -511.0999
   6   2.0000     -18.770044      -510.7589
   7   2.0000     -18.756370      -510.3868
   8   2.0000     -18.748455      -510.1714
   9   2.0000     -10.024306      -272.7752
  10   2.0000     -10.021206      -272.6909
  11   2.0000      -9.956487      -270.9298
  12   2.0000      -9.955401      -270.9002
  13   2.0000      -9.949288      -270.7339
  14   2.0000      -9.933182      -270.2956
  15   2.0000      -9.931146      -270.2402
  16   2.0000      -9.917909      -269.8800
  17   2.0000      -9.889368      -269.1034
  18   2.0000      -9.878530      -268.8085
  19   2.0000      -7.679774      -208.9773
  20   2.0000      -7.606736      -206.9898
  21   2.0000      -6.412085      -174.4817
  22   2.0000      -5.708426      -155.3342
  23   2.0000      -5.703743      -155.2067
  24   2.0000      -5.696536      -155.0106
  25   2.0000      -5.636186      -153.3684
  26   2.0000      -5.627380      -153.1288
  27   2.0000      -5.626205      -153.0968
  28   2.0000      -4.635347      -126.1342
  29   2.0000      -4.633897      -126.0947
  30   2.0000      -4.632361      -126.0529
  31   2.0000      -1.022993       -27.8371
  32   2.0000      -1.019838       -27.7512
  33   2.0000      -0.967438       -26.3253
  34   2.0000      -0.932824       -25.3834
  35   2.0000      -0.925961       -25.1967
  36   2.0000      -0.922742       -25.1091
  37   2.0000      -0.766209       -20.8496
  38   2.0000      -0.716932       -19.5087
  39   2.0000      -0.704830       -19.1794
  40   2.0000      -0.688300       -18.7296
  41   2.0000      -0.655571       -17.8390
  42   2.0000      -0.627498       -17.0751
  43   2.0000      -0.619551       -16.8588
  44   2.0000      -0.602306       -16.3896
  45   2.0000      -0.599680       -16.3181
  46   2.0000      -0.570409       -15.5216
  47   2.0000      -0.511121       -13.9083
  48   2.0000      -0.504125       -13.7179
  49   2.0000      -0.498040       -13.5524
  50   2.0000      -0.489702       -13.3255
  51   2.0000      -0.469942       -12.7878
  52   2.0000      -0.458323       -12.4716
  53   2.0000      -0.444359       -12.0916
  54   2.0000      -0.443683       -12.0732
  55   2.0000      -0.433382       -11.7929
  56   2.0000      -0.431482       -11.7412
  57   2.0000      -0.417026       -11.3478
  58   2.0000      -0.410362       -11.1665
  59   2.0000      -0.405953       -11.0465
  60   2.0000      -0.400234       -10.8909
  61   2.0000      -0.397307       -10.8113
  62   2.0000      -0.389189       -10.5904
  63   2.0000      -0.383051       -10.4233
  64   2.0000      -0.381799       -10.3893
  65   2.0000      -0.373663       -10.1679
  66   2.0000      -0.359756        -9.7895
  67   2.0000      -0.352530        -9.5928
  68   2.0000      -0.345713        -9.4073
  69   2.0000      -0.335597        -9.1321
  70   2.0000      -0.333476        -9.0744
  71   2.0000      -0.331914        -9.0318
  72   2.0000      -0.320102        -8.7104
  73   2.0000      -0.305668        -8.3177
  74   2.0000      -0.303116        -8.2482
  75   2.0000      -0.298036        -8.1100
  76   2.0000      -0.291990        -7.9455
  77   2.0000      -0.281509        -7.6602
  78   2.0000      -0.272152        -7.4056
  79   2.0000      -0.266525        -7.2525
  80   2.0000      -0.256625        -6.9831
  81   2.0000      -0.248888        -6.7726
  82   2.0000      -0.244358        -6.6493
  83   2.0000      -0.234418        -6.3788
  84   2.0000      -0.214588        -5.8392
  85   2.0000      -0.182224        -4.9586
  86   2.0000      -0.171589        -4.6692
  87   0.0000      -0.047111        -1.2820
  88   0.0000      -0.041606        -1.1322
  89   0.0000      -0.019498        -0.5306
  90   0.0000      -0.000651        -0.0177
  91   0.0000       0.030607         0.8329

MULLIKEN ATOMIC CHARGES
-----------------------
   0 C :   -0.318283
   1 C :   -0.015537
   2 O :   -0.216874
   3 C :    0.158178
   4 O :   -0.225942
   5 C :   -0.050985
   6 C :   -0.316149
   7 H :    0.151531
   8 C :    0.208411
   9 O :   -0.197558
  10 O :   -0.217133
  11 C :   -0.009963
  12 C :   -0.320881
  13 S :   -0.102941
  14 P :    0.648019
  15 S :   -0.320830
  16 O :   -0.403609
  17 C :   -0.107597
  18 O :   -0.381124
  19 C :   -0.115560
  20 H :    0.151134
  21 H :    0.109494
  22 H :    0.109375
  23 H :    0.104372
  24 H :    0.113564
  25 H :    0.133337
  26 H :    0.122930
  27 H :    0.104146
  28 H :    0.104334
  29 H :    0.134644
  30 H :    0.132232
  31 H :    0.110438
  32 H :    0.131513
  33 H :    0.120986
  34 H :    0.111370
  35 H :    0.121906
  36 H :    0.119996
  37 H :    0.119055
Sum of atomic charges:   -0.0000000

LOEWDIN ATOMIC CHARGES
----------------------
   0 C :   -0.362589
   1 C :   -0.105685
   2 O :   -0.038651
   3 C :    0.054167
   4 O :   -0.165259
   5 C :   -0.249659
   6 C :   -0.265551
   7 H :    0.153278
   8 C :    0.018935
   9 O :   -0.158831
  10 O :   -0.050581
  11 C :   -0.103698
  12 C :   -0.358803
  13 S :    0.109035
  14 P :    0.584755
  15 S :   -0.318857
  16 O :   -0.259168
  17 C :   -0.217911
  18 O :   -0.263183
  19 C :   -0.219208
  20 H :    0.127955
  21 H :    0.123604
  22 H :    0.130385
  23 H :    0.118651
  24 H :    0.121228
  25 H :    0.151375
  26 H :    0.149079
  27 H :    0.117953
  28 H :    0.119291
  29 H :    0.128360
  30 H :    0.129773
  31 H :    0.130047
  32 H :    0.110817
  33 H :    0.109051
  34 H :    0.112915
  35 H :    0.120255
  36 H :    0.109101
  37 H :    0.107623

  Mayer bond orders larger than 0.100000
B(  0-C ,  1-C ) :   1.1771 B(  0-C , 20-H ) :   0.9217 B(  0-C , 21-H ) :   0.9471
B(  0-C , 22-H ) :   0.9414 B(  1-C ,  2-O ) :   0.9005 B(  1-C , 23-H ) :   0.9368
B(  1-C , 24-H ) :   0.9143 B(  2-O ,  3-C ) :   1.2831 B(  3-C ,  4-O ) :   1.8481
B(  3-C ,  5-C ) :   1.0197 B(  4-O , 14-P ) :   0.1345 B(  5-C ,  6-C ) :   1.0299
B(  5-C , 25-H ) :   0.8799 B(  5-C , 26-H ) :   0.8806 B(  6-C ,  7-H ) :   0.8720
B(  6-C ,  8-C ) :   0.8889 B(  6-C , 13-S ) :   1.0207 B(  8-C ,  9-O ) :   2.0402
B(  8-C , 10-O ) :   1.2646 B( 10-O , 11-C ) :   0.9167 B( 11-C , 12-C ) :   1.1773
B( 11-C , 27-H ) :   0.9212 B( 11-C , 28-H ) :   0.9379 B( 12-C , 29-H ) :   0.9380
B( 12-C , 30-H ) :   0.9370 B( 12-C , 31-H ) :   0.9386 B( 13-S , 14-P ) :   0.9585
B( 14-P , 15-S ) :   1.5924 B( 14-P , 16-O ) :   1.0491 B( 14-P , 18-O ) :   1.0703
B( 16-O , 17-C ) :   0.9237 B( 17-C , 32-H ) :   0.9379 B( 17-C , 33-H ) :   0.9266
B( 17-C , 34-H ) :   0.9526 B( 18-O , 19-C ) :   0.9318 B( 19-C , 35-H ) :   0.9580
B( 19-C , 36-H ) :   0.9501 B( 19-C , 37-H ) :   0.9413

Dispersion correction           -0.055232358
FINAL SINGLE POINT ENERGY     -1979.005513088710

DIPOLE MOMENT
-------------

Method             : SCF
Type of density    : Electron Density
Multiplicity       :   1
Irrep              :   0
Energy             : -1979.1363781011655192 Eh
Relativity type    :
Basis              : AO
                                X                 Y                 Z
Electronic contribution:     -6.138184732      -6.619452544     -10.226100049
Nuclear contribution   :      6.821718585       8.284499048      10.174841132
                        -----------------------------------------
Total Dipole Moment    :      0.683533853       1.665046504      -0.051258917
                        -----------------------------------------
Magnitude (a.u.)       :      1.800618190
Magnitude (Debye)      :      4.576807714

Rotational constants in cm-1:             0.011889             0.009492             0.007142
Rotational constants in MHz :           356.423899           284.566112           214.126284

                             ****ORCA TERMINATED NORMALLY****
TOTAL RUN TIME: 0 days 0 hours 0 minutes 40 seconds 698 msec
