                         Program Version 6.0.0  -   RELEASE  -
|  1> ! pbe def2-sv(p) def2/J RI DEFGRID1 loosescf d4 GCP(DFT/SV(P)) printgap
|  2> %output
|  3>     printlevel normal
|  4> end
|  5> * xyz 0 1
|  6> C 3.275759702 -1.9917387165 -2.5804160563
|  7> C 3.8550229341 -0.6362616976 -2.2247993908
|  8> O 3.6709711787 -0.3250486227 -0.8360992341
|  9> P 2.3007905327 0.1845939318 -0.224778625
| 10> S 1.2004867918 1.1912299693 -1.504353236
| 11> O 2.9805313604 0.9185995962 0.9946208703
| 12> C 2.3281095294 1.5458720954 2.1108152035
| 13> C 1.9711022906 2.9845515847 1.7940829549
| 14> S 1.3715599517 -1.5103554236 0.6663931432
| 15> C 0.0912876349 -1.8690152896 -0.5879904228
| 16> S -1.5634015224 -2.0994025056 0.1122833943
| 17> P -2.1427941513 -0.0895792788 0.3156307324
| 18> S -1.1069118831 1.1260770017 1.4614237372
| 19> O -3.678245476 -0.1660477134 0.7235473591
| 20> C -4.1081830521 -0.1977894314 2.0949829092
| 21> C -3.7022105977 -1.4858521425 2.7812109486
| 22> O -2.2282767211 0.2962903249 -1.2158774236
| 23> C -2.4837917892 1.6510755727 -1.6475513435
| 24> C -2.1207228186 1.7468739339 -3.1139426307
| 25> H 3.6324773723 -2.7451097254 -1.8828465802
| 26> H 2.1886387923 -1.9547019209 -2.540611532
| 27> H 3.5814049693 -2.2596125497 -3.5867541605
| 28> H 3.3956734366 0.1534856004 -2.8290457182
| 29> H 4.9378917756 -0.6171728862 -2.3557532527
| 30> H 1.4360538869 0.978774197 2.3896477852
| 31> H 3.0644617309 1.4870771424 2.9145386212
| 32> H 2.8532390338 3.5277336285 1.4664129691
| 33> H 1.220660503 3.0190828996 1.0066424796
| 34> H 1.5600454405 3.4537240568 2.6818377456
| 35> H 0.3362339658 -2.8154309982 -1.0626274955
| 36> H 0.0659776332 -1.0444409642 -1.3056673954
| 37> H -3.6792165611 0.6668885876 2.6121652446
| 38> H -5.1922284874 -0.0947073935 2.0330130726
| 39> H -2.6165471654 -1.5354095589 2.8630574255
| 40> H -4.1320711989 -1.5158728467 3.7772082772
| 41> H -4.0478611943 -2.3435697919 2.2097339092
| 42> H -3.5416999132 1.8645203397 -1.4766455994
| 43> H -1.8750100123 2.3312145113 -1.0420158265
| 44> H -2.6737261608 1.0043689537 -3.6814176133
| 45> H -2.3659899336 2.7394979865 -3.4765717042
| 46> H -1.0546559636 1.5741897439 -3.2414791862
| 47> *
| 48>
| 49>                          ****END OF INPUT****

CARTESIAN COORDINATES (ANGSTROEM)
---------------------------------
  C      3.275760   -1.991739   -2.580416
  C      3.855023   -0.636262   -2.224799
  O      3.670971   -0.325049   -0.836099
  P      2.300791    0.184594   -0.224779
  S      1.200487    1.191230   -1.504353
  O      2.980531    0.918600    0.994621
  C      2.328110    1.545872    2.110815
  C      1.971102    2.984552    1.794083
  S      1.371560   -1.510355    0.666393
  C      0.091288   -1.869015   -0.587990
  S     -1.563402   -2.099403    0.112283
  P     -2.142794   -0.089579    0.315631
  S     -1.106912    1.126077    1.461424
  O     -3.678245   -0.166048    0.723547
  C     -4.108183   -0.197789    2.094983
  C     -3.702211   -1.485852    2.781211
  O     -2.228277    0.296290   -1.215877
  C     -2.483792    1.651076   -1.647551
  C     -2.120723    1.746874   -3.113943
  H      3.632477   -2.745110   -1.882847
  H      2.188639   -1.954702   -2.540612
  H      3.581405   -2.259613   -3.586754
  H      3.395673    0.153486   -2.829046
  H      4.937892   -0.617173   -2.355753
  H      1.436054    0.978774    2.389648
  H      3.064462    1.487077    2.914539
  H      2.853239    3.527734    1.466413
  H      1.220661    3.019083    1.006642
  H      1.560045    3.453724    2.681838
  H      0.336234   -2.815431   -1.062627
  H      0.065978   -1.044441   -1.305667
  H     -3.679217    0.666889    2.612165
  H     -5.192228   -0.094707    2.033013
  H     -2.616547   -1.535410    2.863057
  H     -4.132071   -1.515873    3.777208
  H     -4.047861   -2.343570    2.209734
  H     -3.541700    1.864520   -1.476646
  H     -1.875010    2.331215   -1.042016
  H     -2.673726    1.004369   -3.681418
  H     -2.365990    2.739498   -3.476572
  H     -1.054656    1.574190   -3.241479

 Total Charge           Charge          ....    0
 Multiplicity           Mult            ....    1
 Number of Electrons    NEL             ....  202
 Basis Dimension        Dim             ....  334

ORBITAL ENERGIES
----------------

  NO   OCC          E(Eh)            E(eV)
   0   2.0000     -88.045100     -2395.8290
   1   2.0000     -88.039289     -2395.6709
   2   2.0000     -87.987987     -2394.2749
   3   2.0000     -87.983492     -2394.1525
   4   2.0000     -76.425248     -2079.6367
   5   2.0000     -76.424931     -2079.6281
   6   2.0000     -18.792728      -511.3761
   7   2.0000     -18.788546      -511.2623
   8   2.0000     -18.788460      -511.2600
   9   2.0000     -18.782203      -511.0897
  10   2.0000      -9.957363      -270.9536
  11   2.0000      -9.952023      -270.8083
  12   2.0000      -9.949084      -270.7283
  13   2.0000      -9.946092      -270.6469
  14   2.0000      -9.945557      -270.6324
  15   2.0000      -9.886529      -269.0261
  16   2.0000      -9.885284      -268.9923
  17   2.0000      -9.879700      -268.8403
  18   2.0000      -9.872921      -268.6558
  19   2.0000      -7.690754      -209.2761
  20   2.0000      -7.684398      -209.1031
  21   2.0000      -7.632620      -207.6941
  22   2.0000      -7.628339      -207.5777
  23   2.0000      -6.422772      -174.7725
  24   2.0000      -6.422420      -174.7629
  25   2.0000      -5.718674      -155.6130
  26   2.0000      -5.715246      -155.5197
  27   2.0000      -5.712321      -155.4402
  28   2.0000      -5.708938      -155.3481
  29   2.0000      -5.707586      -155.3113
  30   2.0000      -5.701322      -155.1408
  31   2.0000      -5.661307      -154.0520
  32   2.0000      -5.657062      -153.9365
  33   2.0000      -5.653553      -153.8410
  34   2.0000      -5.652690      -153.8175
  35   2.0000      -5.648953      -153.7158
  36   2.0000      -5.648677      -153.7083
  37   2.0000      -4.645345      -126.4063
  38   2.0000      -4.644692      -126.3885
  39   2.0000      -4.644514      -126.3837
  40   2.0000      -4.644406      -126.3807
  41   2.0000      -4.643206      -126.3481
  42   2.0000      -4.642976      -126.3418
  43   2.0000      -0.985918       -26.8282
  44   2.0000      -0.985230       -26.8095
  45   2.0000      -0.944393       -25.6982
  46   2.0000      -0.939599       -25.5678
  47   2.0000      -0.761913       -20.7327
  48   2.0000      -0.721013       -19.6198
  49   2.0000      -0.708992       -19.2927
  50   2.0000      -0.686501       -18.6806
  51   2.0000      -0.680103       -18.5065
  52   2.0000      -0.673792       -18.3348
  53   2.0000      -0.651716       -17.7341
  54   2.0000      -0.634991       -17.2790
  55   2.0000      -0.599070       -16.3015
  56   2.0000      -0.592605       -16.1256
  57   2.0000      -0.569393       -15.4940
  58   2.0000      -0.563933       -15.3454
  59   2.0000      -0.560003       -15.2385
  60   2.0000      -0.502489       -13.6734
  61   2.0000      -0.494364       -13.4523
  62   2.0000      -0.472955       -12.8698
  63   2.0000      -0.467115       -12.7109
  64   2.0000      -0.452100       -12.3023
  65   2.0000      -0.445428       -12.1207
  66   2.0000      -0.435682       -11.8555
  67   2.0000      -0.430138       -11.7046
  68   2.0000      -0.425874       -11.5886
  69   2.0000      -0.417833       -11.3698
  70   2.0000      -0.414258       -11.2725
  71   2.0000      -0.400915       -10.9095
  72   2.0000      -0.390252       -10.6193
  73   2.0000      -0.387845       -10.5538
  74   2.0000      -0.382657       -10.4126
  75   2.0000      -0.371695       -10.1143
  76   2.0000      -0.366193        -9.9646
  77   2.0000      -0.353801        -9.6274
  78   2.0000      -0.351161        -9.5556
  79   2.0000      -0.349694        -9.5157
  80   2.0000      -0.344542        -9.3755
  81   2.0000      -0.339268        -9.2319
  82   2.0000      -0.336749        -9.1634
  83   2.0000      -0.332675        -9.0526
  84   2.0000      -0.326093        -8.8734
  85   2.0000      -0.316154        -8.6030
  86   2.0000      -0.309458        -8.4208
  87   2.0000      -0.296836        -8.0773
  88   2.0000      -0.292136        -7.9494
  89   2.0000      -0.288196        -7.8422
  90   2.0000      -0.284169        -7.7326
  91   2.0000      -0.271846        -7.3973
  92   2.0000      -0.267207        -7.2711
  93   2.0000      -0.261021        -7.1027
  94   2.0000      -0.258764        -7.0413
  95   2.0000      -0.241525        -6.5722
  96   2.0000      -0.224009        -6.0956
  97   2.0000      -0.207340        -5.6420
  98   2.0000      -0.205523        -5.5926
  99   2.0000      -0.195318        -5.3149
 100   2.0000      -0.190078        -5.1723
 101   0.0000      -0.039688        -1.0800
 102   0.0000      -0.033841        -0.9209
 103   0.0000      -0.017253        -0.4695
 104   0.0000       0.000322         0.0088
 105   0.0000       0.015595         0.4243

MULLIKEN ATOMIC CHARGES
-----------------------
   0 C :   -0.320681
   1 C :   -0.001651
   2 O :   -0.357918
   3 P :    0.620380
   4 S :   -0.337230
   5 O :   -0.356836
   6 C :   -0.019311
   7 C :   -0.302813
   8 S :   -0.087951
   9 C :   -0.385638
  10 S :   -0.071484
  11 P :    0.622728
  12 S :   -0.336114
  13 O :   -0.376270
  14 C :   -0.002568
  15 C :   -0.326575
  16 O :   -0.370760
  17 C :   -0.004644
  18 C :   -0.289672
  19 H :    0.120697
  20 H :    0.120657
  21 H :    0.111955
  22 H :    0.110797
  23 H :    0.105592
  24 H :    0.129279
  25 H :    0.102784
  26 H :    0.111826
  27 H :    0.137662
  28 H :    0.106621
  29 H :    0.191116
  30 H :    0.206343
  31 H :    0.111585
  32 H :    0.105116
  33 H :    0.131323
  34 H :    0.115444
  35 H :    0.120157
  36 H :    0.099711
  37 H :    0.112741
  38 H :    0.112521
  39 H :    0.107859
  40 H :    0.133219
Sum of atomic charges:   -0.0000000

LOEWDIN ATOMIC CHARGES
----------------------
   0 C :   -0.365253
   1 C :   -0.119967
   2 O :   -0.237946
   3 P :    0.570286
   4 S :   -0.303450
   5 O :   -0.225874
   6 C :   -0.117874
   7 C :   -0.363829
   8 S :    0.068783
   9 C :   -0.484167
  10 S :    0.096452
  11 P :    0.572602
  12 S :   -0.313119
  13 O :   -0.245246
  14 C :   -0.120947
  15 C :   -0.371431
  16 O :   -0.241491
  17 C :   -0.116667
  18 C :   -0.353438
  19 H :    0.127328
  20 H :    0.119606
  21 H :    0.130681
  22 H :    0.107304
  23 H :    0.119366
  24 H :    0.105790
  25 H :    0.117391
  26 H :    0.124569
  27 H :    0.124408
  28 H :    0.129021
  29 H :    0.135513
  30 H :    0.122570
  31 H :    0.110091
  32 H :    0.118689
  33 H :    0.122733
  34 H :    0.132455
  35 H :    0.124767
  36 H :    0.110751
  37 H :    0.110300
  38 H :    0.125395
  39 H :    0.129593
  40 H :    0.124257

  Mayer bond orders larger than 0.100000
B(  0-C ,  1-C ) :   1.1598 B(  0-C , 19-H ) :   0.9459 B(  0-C , 20-H ) :   0.9354
B(  0-C , 21-H ) :   0.9390 B(  1-C ,  2-O ) :   0.9268 B(  1-C , 22-H ) :   0.9096
B(  1-C , 23-H ) :   0.9335 B(  2-O ,  3-P ) :   1.1086 B(  3-P ,  4-S ) :   1.5823
B(  3-P ,  5-O ) :   1.1533 B(  3-P ,  8-S ) :   0.9581 B(  4-S ,  8-S ) :   0.1219
B(  4-S , 30-H ) :   0.1033 B(  5-O ,  6-C ) :   0.9027 B(  6-C ,  7-C ) :   1.1710
B(  6-C , 24-H ) :   0.9074 B(  6-C , 25-H ) :   0.9342 B(  7-C , 26-H ) :   0.9467
B(  7-C , 27-H ) :   0.9332 B(  7-C , 28-H ) :   0.9398 B(  8-S ,  9-C ) :   0.9965
B(  9-C , 10-S ) :   1.0001 B(  9-C , 29-H ) :   0.9024 B(  9-C , 30-H ) :   0.8418
B( 10-S , 11-P ) :   0.9701 B( 10-S , 12-S ) :   0.1151 B( 11-P , 12-S ) :   1.6211
B( 11-P , 13-O ) :   1.1043 B( 11-P , 16-O ) :   1.1258 B( 13-O , 14-C ) :   0.9084
B( 14-C , 15-C ) :   1.1635 B( 14-C , 31-H ) :   0.9132 B( 14-C , 32-H ) :   0.9328
B( 15-C , 33-H ) :   0.9332 B( 15-C , 34-H ) :   0.9381 B( 15-C , 35-H ) :   0.9444
B( 16-O , 17-C ) :   0.8912 B( 17-C , 18-C ) :   1.1651 B( 17-C , 36-H ) :   0.9312
B( 17-C , 37-H ) :   0.9102 B( 18-C , 38-H ) :   0.9492 B( 18-C , 39-H ) :   0.9408
B( 18-C , 40-H ) :   0.9430

Dispersion correction           -0.066402406
FINAL SINGLE POINT ENERGY     -2929.520859093490

DIPOLE MOMENT
-------------

Method             : SCF
Type of density    : Electron Density
Multiplicity       :   1
Irrep              :   0
Energy             : -2929.6385938978232844 Eh
Relativity type    :
Basis              : AO
                                X                 Y                 Z
Electronic contribution:      2.451218093      -5.792248427       4.205907142
Nuclear contribution   :     -2.853852770       5.474553789      -4.354689521
                        -----------------------------------------
Total Dipole Moment    :     -0.402634676      -0.317694638      -0.148782379
                        -----------------------------------------
Magnitude (a.u.)       :      0.534023185
Magnitude (Debye)      :      1.357379063

Rotational constants in cm-1:             0.010977             0.005405             0.005249
Rotational constants in MHz :           329.085237           162.025592           157.373605

                             ****ORCA TERMINATED NORMALLY****
TOTAL RUN TIME: 0 days 0 hours 0 minutes 21 seconds 140 msec
