                         Program Version 6.0.1  -  RELEASE   -
|  1> ! pbe def2-sv(p) def2/J RI DEFGRID1 loosescf d4 GCP(DFT/SV(P)) printgap
|  2> %output
|  3>     printlevel normal
|  4> end
|  5> * xyz 0 1
|  6> C 4.027411816 -2.6179476062 0.7124806419
|  7> C 2.5130012088 -2.5933686774 0.5852687289
|  8> O 2.1095026206 -1.8878588906 -0.6031379283
|  9> C 2.0088098972 -0.5773740504 -0.5610982157
| 10> O 2.197954296 0.1108020729 0.4201459284
| 11> C 1.6219030873 0.0033075613 -1.9096314283
| 12> C 0.3188264302 0.7993691904 -1.7958032101
| 13> H 0.1839692939 1.4143365502 -2.6889545809
| 14> C 0.3191807627 1.6936718055 -0.5711952651
| 15> O -0.4876849368 1.5507417161 0.3323932703
| 16> O 1.214381672 2.628043093 -0.6491545996
| 17> C 1.4203820441 3.5258160092 0.4658915862
| 18> C 2.8469989066 3.3743477018 0.9620613885
| 19> S -1.1470983527 -0.2827992193 -1.7398178212
| 20> P -1.710486821 -0.5450741919 0.3029030021
| 21> S -0.5395368165 -0.9931825053 1.8080194311
| 22> O -2.9301654816 0.4602265081 0.586646099
| 23> C -2.9448458027 1.5192912782 1.5407549223
| 24> O -2.5527552176 -1.8876919387 0.0562698012
| 25> C -3.653574712 -2.0079239316 -0.8591957269
| 26> H 4.470334827 -3.0490084679 -0.1811781818
| 27> H 4.4072862905 -1.6082461189 0.8498496005
| 28> H 4.3009015616 -3.2164309534 1.5748907886
| 29> H 2.0487293144 -2.1123427689 1.4519247394
| 30> H 2.1039036012 -3.5954266939 0.4557910424
| 31> H 1.5071916446 -0.7988553736 -2.6366368059
| 32> H 2.4183838412 0.6832962116 -2.2179188206
| 33> H 1.2353769139 4.5284722166 0.0752411577
| 34> H 0.6994075683 3.2842897753 1.2502440506
| 35> H 3.0174466822 2.3457180888 1.271463706
| 36> H 3.5481062242 3.6275205827 0.1727902779
| 37> H 3.0033093911 4.0330789752 1.8096106291
| 38> H -3.9391643956 1.5119985899 1.9829334738
| 39> H -2.7521450535 2.4638032194 1.0348513165
| 40> H -2.1869865018 1.349334082 2.3067354665
| 41> H -4.3461485696 -1.1786021642 -0.727289502
| 42> H -4.1310759445 -2.9509935572 -0.6045948246
| 43> H -3.2826925381 -2.0303126445 -1.8835631116
| 44> *
| 45>
| 46>                          ****END OF INPUT****

CARTESIAN COORDINATES (ANGSTROEM)
---------------------------------
  C      4.027412   -2.617948    0.712481
  C      2.513001   -2.593369    0.585269
  O      2.109503   -1.887859   -0.603138
  C      2.008810   -0.577374   -0.561098
  O      2.197954    0.110802    0.420146
  C      1.621903    0.003308   -1.909631
  C      0.318826    0.799369   -1.795803
  H      0.183969    1.414337   -2.688955
  C      0.319181    1.693672   -0.571195
  O     -0.487685    1.550742    0.332393
  O      1.214382    2.628043   -0.649155
  C      1.420382    3.525816    0.465892
  C      2.846999    3.374348    0.962061
  S     -1.147098   -0.282799   -1.739818
  P     -1.710487   -0.545074    0.302903
  S     -0.539537   -0.993183    1.808019
  O     -2.930165    0.460227    0.586646
  C     -2.944846    1.519291    1.540755
  O     -2.552755   -1.887692    0.056270
  C     -3.653575   -2.007924   -0.859196
  H      4.470335   -3.049008   -0.181178
  H      4.407286   -1.608246    0.849850
  H      4.300902   -3.216431    1.574891
  H      2.048729   -2.112343    1.451925
  H      2.103904   -3.595427    0.455791
  H      1.507192   -0.798855   -2.636637
  H      2.418384    0.683296   -2.217919
  H      1.235377    4.528472    0.075241
  H      0.699408    3.284290    1.250244
  H      3.017447    2.345718    1.271464
  H      3.548106    3.627521    0.172790
  H      3.003309    4.033079    1.809611
  H     -3.939164    1.511999    1.982933
  H     -2.752145    2.463803    1.034851
  H     -2.186987    1.349334    2.306735
  H     -4.346149   -1.178602   -0.727290
  H     -4.131076   -2.950994   -0.604595
  H     -3.282693   -2.030313   -1.883563

 Total Charge           Charge          ....    0
 Multiplicity           Mult            ....    1
 Number of Electrons    NEL             ....  174
 Basis Dimension        Dim             ....  316

ORBITAL ENERGIES
----------------

  NO   OCC          E(Eh)            E(eV)
   0   2.0000     -88.030948     -2395.4439
   1   2.0000     -87.957214     -2393.4375
   2   2.0000     -76.413359     -2079.3132
   3   2.0000     -18.819426      -512.1026
   4   2.0000     -18.801579      -511.6170
   5   2.0000     -18.771066      -510.7867
   6   2.0000     -18.763353      -510.5768
   7   2.0000     -18.762615      -510.5567
   8   2.0000     -18.740047      -509.9426
   9   2.0000     -10.032232      -272.9909
  10   2.0000     -10.012206      -272.4460
  11   2.0000      -9.956676      -270.9349
  12   2.0000      -9.955018      -270.8898
  13   2.0000      -9.937115      -270.4026
  14   2.0000      -9.931026      -270.2370
  15   2.0000      -9.927737      -270.1474
  16   2.0000      -9.916453      -269.8404
  17   2.0000      -9.885650      -269.0022
  18   2.0000      -9.882284      -268.9106
  19   2.0000      -7.676088      -208.8770
  20   2.0000      -7.602571      -206.8765
  21   2.0000      -6.408086      -174.3729
  22   2.0000      -5.704368      -155.2237
  23   2.0000      -5.700266      -155.1121
  24   2.0000      -5.692935      -154.9126
  25   2.0000      -5.632041      -153.2556
  26   2.0000      -5.623396      -153.0204
  27   2.0000      -5.621864      -152.9787
  28   2.0000      -4.631163      -126.0204
  29   2.0000      -4.629983      -125.9882
  30   2.0000      -4.628596      -125.9505
  31   2.0000      -1.031923       -28.0801
  32   2.0000      -1.008766       -27.4499
  33   2.0000      -0.961350       -26.1597
  34   2.0000      -0.938750       -25.5447
  35   2.0000      -0.917456       -24.9652
  36   2.0000      -0.916167       -24.9302
  37   2.0000      -0.767841       -20.8940
  38   2.0000      -0.713668       -19.4199
  39   2.0000      -0.703862       -19.1531
  40   2.0000      -0.683376       -18.5956
  41   2.0000      -0.652903       -17.7664
  42   2.0000      -0.623167       -16.9572
  43   2.0000      -0.620826       -16.8935
  44   2.0000      -0.597346       -16.2546
  45   2.0000      -0.593523       -16.1506
  46   2.0000      -0.564549       -15.3622
  47   2.0000      -0.514447       -13.9988
  48   2.0000      -0.501488       -13.6462
  49   2.0000      -0.497848       -13.5471
  50   2.0000      -0.484794       -13.1919
  51   2.0000      -0.465540       -12.6680
  52   2.0000      -0.460167       -12.5218
  53   2.0000      -0.446772       -12.1573
  54   2.0000      -0.436991       -11.8911
  55   2.0000      -0.430882       -11.7249
  56   2.0000      -0.423023       -11.5110
  57   2.0000      -0.413537       -11.2529
  58   2.0000      -0.409005       -11.1296
  59   2.0000      -0.402058       -10.9406
  60   2.0000      -0.395978       -10.7751
  61   2.0000      -0.391768       -10.6606
  62   2.0000      -0.385481       -10.4895
  63   2.0000      -0.381350       -10.3771
  64   2.0000      -0.378425       -10.2975
  65   2.0000      -0.365150        -9.9362
  66   2.0000      -0.358305        -9.7500
  67   2.0000      -0.354488        -9.6461
  68   2.0000      -0.350242        -9.5306
  69   2.0000      -0.334404        -9.0996
  70   2.0000      -0.331330        -9.0159
  71   2.0000      -0.328365        -8.9353
  72   2.0000      -0.320491        -8.7210
  73   2.0000      -0.305913        -8.3243
  74   2.0000      -0.297316        -8.0904
  75   2.0000      -0.288553        -7.8519
  76   2.0000      -0.285375        -7.7654
  77   2.0000      -0.280782        -7.6405
  78   2.0000      -0.275486        -7.4964
  79   2.0000      -0.257617        -7.0101
  80   2.0000      -0.255634        -6.9562
  81   2.0000      -0.246134        -6.6977
  82   2.0000      -0.240246        -6.5374
  83   2.0000      -0.226016        -6.1502
  84   2.0000      -0.210768        -5.7353
  85   2.0000      -0.179257        -4.8778
  86   2.0000      -0.167512        -4.5582
  87   0.0000      -0.043146        -1.1741
  88   0.0000      -0.032885        -0.8949
  89   0.0000      -0.027536        -0.7493
  90   0.0000      -0.001168        -0.0318
  91   0.0000       0.038141         1.0379

MULLIKEN ATOMIC CHARGES
-----------------------
   0 C :   -0.304950
   1 C :   -0.023003
   2 O :   -0.215197
   3 C :    0.106953
   4 O :   -0.199769
   5 C :   -0.028041
   6 C :   -0.290748
   7 H :    0.149159
   8 C :    0.226116
   9 O :   -0.201812
  10 O :   -0.218482
  11 C :   -0.024552
  12 C :   -0.302621
  13 S :   -0.131250
  14 P :    0.648305
  15 S :   -0.325602
  16 O :   -0.403277
  17 C :   -0.081388
  18 O :   -0.381351
  19 C :   -0.116070
  20 H :    0.108987
  21 H :    0.120703
  22 H :    0.114488
  23 H :    0.135023
  24 H :    0.105924
  25 H :    0.116481
  26 H :    0.121482
  27 H :    0.107018
  28 H :    0.126109
  29 H :    0.148143
  30 H :    0.108392
  31 H :    0.111088
  32 H :    0.112484
  33 H :    0.102784
  34 H :    0.118200
  35 H :    0.117038
  36 H :    0.123780
  37 H :    0.119453
Sum of atomic charges:    0.0000000

LOEWDIN ATOMIC CHARGES
----------------------
   0 C :   -0.357144
   1 C :   -0.112986
   2 O :   -0.040719
   3 C :    0.030990
   4 O :   -0.157588
   5 C :   -0.246087
   6 C :   -0.257190
   7 H :    0.147983
   8 C :    0.030599
   9 O :   -0.146049
  10 O :   -0.032880
  11 C :   -0.102727
  12 C :   -0.356058
  13 S :    0.085126
  14 P :    0.579646
  15 S :   -0.319571
  16 O :   -0.262475
  17 C :   -0.210519
  18 O :   -0.263563
  19 C :   -0.218354
  20 H :    0.122026
  21 H :    0.127181
  22 H :    0.131626
  23 H :    0.121553
  24 H :    0.120909
  25 H :    0.136713
  26 H :    0.145661
  27 H :    0.118275
  28 H :    0.126318
  29 H :    0.138439
  30 H :    0.123044
  31 H :    0.130031
  32 H :    0.113828
  33 H :    0.106770
  34 H :    0.110323
  35 H :    0.110601
  36 H :    0.121808
  37 H :    0.104459

  Mayer bond orders larger than 0.100000
B(  0-C ,  1-C ) :   1.1635 B(  0-C , 20-H ) :   0.9477 B(  0-C , 21-H ) :   0.9468
B(  0-C , 22-H ) :   0.9451 B(  1-C ,  2-O ) :   0.9049 B(  1-C , 23-H ) :   0.9055
B(  1-C , 24-H ) :   0.9388 B(  2-O ,  3-C ) :   1.2706 B(  2-O ,  4-O ) :   0.1009
B(  3-C ,  4-O ) :   1.9408 B(  3-C ,  5-C ) :   0.9974 B(  5-C ,  6-C ) :   1.0271
B(  5-C , 25-H ) :   0.9031 B(  5-C , 26-H ) :   0.8777 B(  6-C ,  7-H ) :   0.8778
B(  6-C ,  8-C ) :   0.9076 B(  6-C , 13-S ) :   1.0493 B(  8-C ,  9-O ) :   1.8891
B(  8-C , 10-O ) :   1.2779 B(  9-O , 14-P ) :   0.1514 B( 10-O , 11-C ) :   0.8882
B( 11-C , 12-C ) :   1.1775 B( 11-C , 27-H ) :   0.9366 B( 11-C , 28-H ) :   0.9089
B( 12-C , 29-H ) :   0.9326 B( 12-C , 30-H ) :   0.9500 B( 12-C , 31-H ) :   0.9419
B( 13-S , 14-P ) :   0.9203 B( 13-S , 15-S ) :   0.1105 B( 14-P , 15-S ) :   1.5974
B( 14-P , 16-O ) :   1.0647 B( 14-P , 18-O ) :   1.0735 B( 16-O , 17-C ) :   0.9352
B( 17-C , 32-H ) :   0.9545 B( 17-C , 33-H ) :   0.9551 B( 17-C , 34-H ) :   0.9345
B( 18-O , 19-C ) :   0.9388 B( 19-C , 35-H ) :   0.9425 B( 19-C , 36-H ) :   0.9607
B( 19-C , 37-H ) :   0.9418

Dispersion correction           -0.053770198
FINAL SINGLE POINT ENERGY     -1979.002667459893

DIPOLE MOMENT
-------------

Method             : SCF
Type of density    : Electron Density
Multiplicity       :   1
Irrep              :   0
Energy             : -1979.1333771123963743 Eh
Relativity type    :
Basis              : AO
                                X                 Y                 Z
Electronic contribution:    -12.587512069      -3.867949518      -3.845802816
Nuclear contribution   :     13.115772873       4.949328380       2.821891316
                        -----------------------------------------
Total Dipole Moment    :      0.528260804       1.081378862      -1.023911501
                        -----------------------------------------
Magnitude (a.u.)       :      1.580137488
Magnitude (Debye)      :      4.016390307

Rotational constants in cm-1:             0.011849             0.008755             0.006747
Rotational constants in MHz :           355.224937           262.459980           202.261192

                             ****ORCA TERMINATED NORMALLY****
TOTAL RUN TIME: 0 days 0 hours 0 minutes 40 seconds 875 msec
