                         Program Version 6.0.0  -   RELEASE  -
|  1> ! wb97x-v def2-tzvp def2/J RIJCOSX DEFGRID2 scfconv7 GCP(DFT/TZ) printgap
|  2> %output
|  3>     printlevel normal
|  4> end
|  5> * xyz 0 1
|  6> C 1.2503064590249735 -0.17913445796293748 3.82651135663805e-06
|  7> C -0.10656987910465561 0.44454619308316656 6.1284838601647676e-06
|  8> C -1.2568219413648427 -0.22806826123140142 -3.835046757499957e-06
|  9> H 1.8257779561574075 0.14042690745351716 0.877616666993426
| 10> H 1.8257368674220218 0.14035009570516668 -0.8776647557553877
| 11> H 1.1915022492913128 -1.2715358660266471 5.0984579120774886e-05
| 12> H -0.13199847568199724 1.5349702162044712 4.263249172177352e-06
| 13> H -2.2142696639166566 0.2859165495771348 1.953312969680047e-06
| 14> H -1.2748211056139847 -1.3164395679279384 6.682718162104291e-06
| 15> *
| 16>
| 17>                          ****END OF INPUT****

CARTESIAN COORDINATES (ANGSTROEM)
---------------------------------
  C      1.250306   -0.179134    0.000004
  C     -0.106570    0.444546    0.000006
  C     -1.256822   -0.228068   -0.000004
  H      1.825778    0.140427    0.877617
  H      1.825737    0.140350   -0.877665
  H      1.191502   -1.271536    0.000051
  H     -0.131998    1.534970    0.000004
  H     -2.214270    0.285917    0.000002
  H     -1.274821   -1.316440    0.000007

 Total Charge           Charge          ....    0
 Multiplicity           Mult            ....    1
 Number of Electrons    NEL             ....   24
 Basis Dimension        Dim             ....  129

ORBITAL ENERGIES
----------------

  NO   OCC          E(Eh)            E(eV)
   0   2.0000     -12.052104      -327.9544
   1   2.0000     -12.042325      -327.6883
   2   2.0000     -12.036237      -327.5227
   3   2.0000      -1.305285       -35.5186
   4   2.0000      -1.187623       -32.3169
   5   2.0000      -1.016443       -27.6588
   6   2.0000      -0.906679       -24.6720
   7   2.0000      -0.881033       -23.9741
   8   2.0000      -0.830936       -22.6109
   9   2.0000      -0.809505       -22.0278
  10   2.0000      -0.776454       -21.1284
  11   2.0000      -0.646519       -17.5927
  12   0.0000      -0.189406        -5.1540
  13   0.0000      -0.008539        -0.2324
  14   0.0000       0.008524         0.2320
  15   0.0000       0.019696         0.5360
  16   0.0000       0.038881         1.0580

MULLIKEN ATOMIC CHARGES
-----------------------
   0 C :   -0.293550
   1 C :   -0.099675
   2 C :   -0.283483
   3 H :    0.115373
   4 H :    0.115374
   5 H :    0.107679
   6 H :    0.107256
   7 H :    0.118629
   8 H :    0.112398
Sum of atomic charges:    0.0000000

LOEWDIN ATOMIC CHARGES
----------------------
   0 C :   -0.290999
   1 C :   -0.227718
   2 C :   -0.223190
   3 H :    0.124196
   4 H :    0.124197
   5 H :    0.122320
   6 H :    0.135186
   7 H :    0.118353
   8 H :    0.117655

  Mayer bond orders larger than 0.100000
B(  0-C ,  1-C ) :   0.9729 B(  0-C ,  3-H ) :   0.9696 B(  0-C ,  4-H ) :   0.9696
B(  0-C ,  5-H ) :   0.9817 B(  1-C ,  2-C ) :   1.9694 B(  1-C ,  6-H ) :   0.9607
B(  2-C ,  7-H ) :   0.9701 B(  2-C ,  8-H ) :   0.9667

FINAL SINGLE POINT ENERGY      -117.905272116034

DIPOLE MOMENT
-------------

Method             : SCF
Type of density    : Electron Density
Multiplicity       :   1
Irrep              :   0
Energy             :  -117.9104772166339075 Eh
Relativity type    :
Basis              : AO
                                X                 Y                 Z
Electronic contribution:     -1.006868898       0.483185885      -0.000000712
Nuclear contribution   :      1.163314122      -0.450672096       0.000002856
                        -----------------------------------------
Total Dipole Moment    :      0.156445224       0.032513790       0.000002144
                        -----------------------------------------
Magnitude (a.u.)       :      0.159788156
Magnitude (Debye)      :      0.406149215

Rotational constants in cm-1:             1.559403             0.311102             0.272374
Rotational constants in MHz :         46749.736725          9326.589924          8165.557425

                             ****ORCA TERMINATED NORMALLY****
TOTAL RUN TIME: 0 days 0 hours 0 minutes 26 seconds 437 msec
