                         Program Version 6.0.0  -   RELEASE  -
|  1> ! wb97x-v def2-tzvp def2/J RIJCOSX DEFGRID2 scfconv7 GCP(DFT/TZ) printgap
|  2> %output
|  3>     printlevel normal
|  4> end
|  5> %cpcm
|  6>     smd true
|  7>     smdsolvent "water"
|  8> end
|  9> * xyz 0 1
| 10> C 1.2503064590249735 -0.17913445796293748 3.82651135663805e-06
| 11> C -0.10656987910465561 0.44454619308316656 6.1284838601647676e-06
| 12> C -1.2568219413648427 -0.22806826123140142 -3.835046757499957e-06
| 13> H 1.8257779561574075 0.14042690745351716 0.877616666993426
| 14> H 1.8257368674220218 0.14035009570516668 -0.8776647557553877
| 15> H 1.1915022492913128 -1.2715358660266471 5.0984579120774886e-05
| 16> H -0.13199847568199724 1.5349702162044712 4.263249172177352e-06
| 17> H -2.2142696639166566 0.2859165495771348 1.953312969680047e-06
| 18> H -1.2748211056139847 -1.3164395679279384 6.682718162104291e-06
| 19> *
| 20>
| 21>                          ****END OF INPUT****

CARTESIAN COORDINATES (ANGSTROEM)
---------------------------------
  C      1.250306   -0.179134    0.000004
  C     -0.106570    0.444546    0.000006
  C     -1.256822   -0.228068   -0.000004
  H      1.825778    0.140427    0.877617
  H      1.825737    0.140350   -0.877665
  H      1.191502   -1.271536    0.000051
  H     -0.131998    1.534970    0.000004
  H     -2.214270    0.285917    0.000002
  H     -1.274821   -1.316440    0.000007

 Total Charge           Charge          ....    0
 Multiplicity           Mult            ....    1
 Number of Electrons    NEL             ....   24
 Basis Dimension        Dim             ....  129

ORBITAL ENERGIES
----------------

  NO   OCC          E(Eh)            E(eV)
   0   2.0000     -12.049152      -327.8741
   1   2.0000     -12.033000      -327.4346
   2   2.0000     -12.031983      -327.4069
   3   2.0000      -1.301840       -35.4249
   4   2.0000      -1.181619       -32.1535
   5   2.0000      -1.011329       -27.5197
   6   2.0000      -0.901975       -24.5440
   7   2.0000      -0.875881       -23.8339
   8   2.0000      -0.822730       -22.3876
   9   2.0000      -0.801703       -21.8154
  10   2.0000      -0.770535       -20.9673
  11   2.0000      -0.645192       -17.5566
  12   0.0000      -0.187869        -5.1122
  13   0.0000      -0.000950        -0.0258
  14   0.0000       0.017779         0.4838
  15   0.0000       0.030704         0.8355
  16   0.0000       0.048206         1.3118

MULLIKEN ATOMIC CHARGES
-----------------------
   0 C :   -0.334388
   1 C :   -0.140054
   2 C :   -0.375747
   3 H :    0.135033
   4 H :    0.135034
   5 H :    0.129500
   6 H :    0.144159
   7 H :    0.155240
   8 H :    0.151224
Sum of atomic charges:    0.0000000

LOEWDIN ATOMIC CHARGES
----------------------
   0 C :   -0.295069
   1 C :   -0.234597
   2 C :   -0.245396
   3 H :    0.129321
   4 H :    0.129322
   5 H :    0.126249
   6 H :    0.142542
   7 H :    0.123659
   8 H :    0.123970

  Mayer bond orders larger than 0.100000
B(  0-C ,  1-C ) :   0.9697 B(  0-C ,  3-H ) :   0.9641 B(  0-C ,  4-H ) :   0.9641
B(  0-C ,  5-H ) :   0.9791 B(  1-C ,  2-C ) :   1.9435 B(  1-C ,  6-H ) :   0.9579
B(  2-C ,  7-H ) :   0.9672 B(  2-C ,  8-H ) :   0.9631

FINAL SINGLE POINT ENERGY      -117.903815813717

DIPOLE MOMENT
-------------

Method             : SCF
Type of density    : Electron Density
Multiplicity       :   1
Irrep              :   0
Energy             :  -117.9090209143167129 Eh
Relativity type    :
Basis              : AO
                                X                 Y                 Z
Electronic contribution:     -0.933374527       0.502632037       0.000000382
Nuclear contribution   :      1.163314122      -0.450672096       0.000002856
                        -----------------------------------------
Total Dipole Moment    :      0.229939595       0.051959941       0.000003238
                        -----------------------------------------
Magnitude (a.u.)       :      0.235737254
Magnitude (Debye)      :      0.599196481

Rotational constants in cm-1:             1.559403             0.311102             0.272374
Rotational constants in MHz :         46749.736725          9326.589924          8165.557425

                             ****ORCA TERMINATED NORMALLY****
TOTAL RUN TIME: 0 days 0 hours 0 minutes 27 seconds 988 msec
