                         Program Version 6.0.0  -   RELEASE  -
|  1> ! r2scan-3c def2/J RI DEFGRID2 scfconv6 printgap
|  2> %output
|  3>     printlevel normal
|  4> end
|  5> * xyz 0 1
|  6> C 0.2255295603 -2.2148531313 2.5415748037
|  7> C 1.5345243167 -1.8743813741 1.8596830958
|  8> O 1.524616024 -0.4778552272 1.4956284211
|  9> P 2.2893672394 0.1233941686 0.2451007581
| 10> S 3.2248233649 -1.2129910289 -0.8512217835
| 11> O 3.163050157 1.1946655434 1.0212192456
| 12> C 3.761934704 2.3673515212 0.4388807068
| 13> C 4.6386783282 2.0489505172 -0.7548108767
| 14> S 0.8798432452 1.3324951561 -0.7822704766
| 15> C 0.2859031779 0.0527436492 -1.9123401861
| 16> S -0.5187519394 -1.3202769267 -1.0445416195
| 17> P -2.128283139 -0.2098268105 -0.2446868383
| 18> S -2.8737802851 1.1987621973 -1.391531388
| 19> O -1.5637397222 0.2505069705 1.1549171496
| 20> C -2.0576571259 1.3910198497 1.8928475563
| 21> C -0.9106760197 2.3364813398 2.1905253064
| 22> O -3.136734084 -1.353592558 0.2101577431
| 23> C -3.9660434969 -2.0682192417 -0.7296554614
| 24> C -5.3554224267 -1.463322991 -0.7835466658
| 25> H 0.2538519043 -3.2527231924 2.8572108387
| 26> H 0.0813669929 -1.5765081844 3.4083509715
| 27> H -0.6095311976 -2.0723663655 1.8600304261
| 28> H 1.6872316298 -2.4789301655 0.9591174529
| 29> H 2.3799746576 -2.0260507514 2.5352911759
| 30> H 2.9615225363 3.0578268604 0.1584598441
| 31> H 4.3438328181 2.7902182396 1.25980358
| 32> H 4.0349508494 1.6578414788 -1.5725038949
| 33> H 5.1384169916 2.9535516813 -1.086029695
| 34> H 5.383595686 1.3022942863 -0.4897380207
| 35> H 1.1256649109 -0.3778896192 -2.457578231
| 36> H -0.4263535129 0.5338032558 -2.5821934883
| 37> H -2.8360465775 1.888562556 1.3055980227
| 38> H -2.4920542632 0.9883192203 2.8097279161
| 39> H -0.5652191826 2.8119513179 1.27561563
| 40> H -1.2482575951 3.0997330944 2.8840830006
| 41> H -0.0825340469 1.7867154293 2.6314321372
| 42> H -3.4925465356 -2.0524172755 -1.7154083153
| 43> H -3.9910359859 -3.0930739327 -0.3550726353
| 44> H -5.9766001914 -2.0531426262 -1.4497279886
| 45> H -5.7972079155 -1.4549911588 0.2088241558
| 46> H -5.3065680049 -0.4422476703 -1.1555459374
| 47> *
| 48>
| 49>                          ****END OF INPUT****

CARTESIAN COORDINATES (ANGSTROEM)
---------------------------------
  C      0.225530   -2.214853    2.541575
  C      1.534524   -1.874381    1.859683
  O      1.524616   -0.477855    1.495628
  P      2.289367    0.123394    0.245101
  S      3.224823   -1.212991   -0.851222
  O      3.163050    1.194666    1.021219
  C      3.761935    2.367352    0.438881
  C      4.638678    2.048951   -0.754811
  S      0.879843    1.332495   -0.782270
  C      0.285903    0.052744   -1.912340
  S     -0.518752   -1.320277   -1.044542
  P     -2.128283   -0.209827   -0.244687
  S     -2.873780    1.198762   -1.391531
  O     -1.563740    0.250507    1.154917
  C     -2.057657    1.391020    1.892848
  C     -0.910676    2.336481    2.190525
  O     -3.136734   -1.353593    0.210158
  C     -3.966043   -2.068219   -0.729655
  C     -5.355422   -1.463323   -0.783547
  H      0.253852   -3.252723    2.857211
  H      0.081367   -1.576508    3.408351
  H     -0.609531   -2.072366    1.860030
  H      1.687232   -2.478930    0.959117
  H      2.379975   -2.026051    2.535291
  H      2.961523    3.057827    0.158460
  H      4.343833    2.790218    1.259804
  H      4.034951    1.657841   -1.572504
  H      5.138417    2.953552   -1.086030
  H      5.383596    1.302294   -0.489738
  H      1.125665   -0.377890   -2.457578
  H     -0.426354    0.533803   -2.582193
  H     -2.836047    1.888563    1.305598
  H     -2.492054    0.988319    2.809728
  H     -0.565219    2.811951    1.275616
  H     -1.248258    3.099733    2.884083
  H     -0.082534    1.786715    2.631432
  H     -3.492547   -2.052417   -1.715408
  H     -3.991036   -3.093074   -0.355073
  H     -5.976600   -2.053143   -1.449728
  H     -5.797208   -1.454991    0.208824
  H     -5.306568   -0.442248   -1.155546

 Total Charge           Charge          ....    0
 Multiplicity           Mult            ....    1
 Number of Electrons    NEL             ....  202
 Basis Dimension        Dim             ....  539

ORBITAL ENERGIES
----------------

  NO   OCC          E(Eh)            E(eV)
   0   2.0000     -88.579044     -2410.3583
   1   2.0000     -88.576525     -2410.2898
   2   2.0000     -88.523004     -2408.8334
   3   2.0000     -88.517796     -2408.6917
   4   2.0000     -76.916378     -2093.0010
   5   2.0000     -76.913635     -2092.9264
   6   2.0000     -18.993782      -516.8471
   7   2.0000     -18.991577      -516.7871
   8   2.0000     -18.989332      -516.7260
   9   2.0000     -18.984166      -516.5854
  10   2.0000     -10.107314      -275.0340
  11   2.0000     -10.103474      -274.9295
  12   2.0000     -10.102060      -274.8910
  13   2.0000     -10.097655      -274.7712
  14   2.0000     -10.090299      -274.5710
  15   2.0000     -10.027536      -272.8631
  16   2.0000     -10.027114      -272.8516
  17   2.0000     -10.025494      -272.8076
  18   2.0000     -10.022590      -272.7285
  19   2.0000      -7.873319      -214.2439
  20   2.0000      -7.871003      -214.1809
  21   2.0000      -7.817830      -212.7340
  22   2.0000      -7.812653      -212.5931
  23   2.0000      -6.594743      -179.4521
  24   2.0000      -6.591767      -179.3711
  25   2.0000      -5.820183      -158.3752
  26   2.0000      -5.817852      -158.3118
  27   2.0000      -5.817116      -158.2918
  28   2.0000      -5.814770      -158.2279
  29   2.0000      -5.810523      -158.1124
  30   2.0000      -5.808202      -158.0492
  31   2.0000      -5.765376      -156.8839
  32   2.0000      -5.760338      -156.7468
  33   2.0000      -5.758139      -156.6869
  34   2.0000      -5.757901      -156.6804
  35   2.0000      -5.752963      -156.5461
  36   2.0000      -5.752583      -156.5357
  37   2.0000      -4.740189      -128.9871
  38   2.0000      -4.739677      -128.9732
  39   2.0000      -4.738531      -128.9420
  40   2.0000      -4.737217      -128.9062
  41   2.0000      -4.736851      -128.8963
  42   2.0000      -4.735431      -128.8576
  43   2.0000      -1.050516       -28.5860
  44   2.0000      -1.047529       -28.5047
  45   2.0000      -1.010709       -27.5028
  46   2.0000      -1.005817       -27.3697
  47   2.0000      -0.805397       -21.9160
  48   2.0000      -0.759737       -20.6735
  49   2.0000      -0.750154       -20.4127
  50   2.0000      -0.730409       -19.8754
  51   2.0000      -0.727596       -19.7989
  52   2.0000      -0.710190       -19.3253
  53   2.0000      -0.685032       -18.6407
  54   2.0000      -0.670835       -18.2544
  55   2.0000      -0.629988       -17.1429
  56   2.0000      -0.623000       -16.9527
  57   2.0000      -0.607614       -16.5340
  58   2.0000      -0.599760       -16.3203
  59   2.0000      -0.589411       -16.0387
  60   2.0000      -0.532358       -14.4862
  61   2.0000      -0.523304       -14.2398
  62   2.0000      -0.498875       -13.5751
  63   2.0000      -0.489025       -13.3071
  64   2.0000      -0.477141       -12.9837
  65   2.0000      -0.460986       -12.5441
  66   2.0000      -0.455605       -12.3976
  67   2.0000      -0.447907       -12.1882
  68   2.0000      -0.442390       -12.0381
  69   2.0000      -0.435445       -11.8491
  70   2.0000      -0.426195       -11.5973
  71   2.0000      -0.418013       -11.3747
  72   2.0000      -0.410680       -11.1752
  73   2.0000      -0.401890       -10.9360
  74   2.0000      -0.398991       -10.8571
  75   2.0000      -0.391975       -10.6662
  76   2.0000      -0.379012       -10.3134
  77   2.0000      -0.369112       -10.0441
  78   2.0000      -0.364781        -9.9262
  79   2.0000      -0.363004        -9.8778
  80   2.0000      -0.361257        -9.8303
  81   2.0000      -0.358611        -9.7583
  82   2.0000      -0.354913        -9.6577
  83   2.0000      -0.350263        -9.5312
  84   2.0000      -0.344344        -9.3701
  85   2.0000      -0.337118        -9.1735
  86   2.0000      -0.321592        -8.7510
  87   2.0000      -0.314078        -8.5465
  88   2.0000      -0.311437        -8.4746
  89   2.0000      -0.306126        -8.3301
  90   2.0000      -0.298198        -8.1144
  91   2.0000      -0.293372        -7.9831
  92   2.0000      -0.286912        -7.8073
  93   2.0000      -0.281314        -7.6549
  94   2.0000      -0.268300        -7.3008
  95   2.0000      -0.246550        -6.7090
  96   2.0000      -0.232658        -6.3309
  97   2.0000      -0.226399        -6.1606
  98   2.0000      -0.220901        -6.0110
  99   2.0000      -0.212679        -5.7873
 100   2.0000      -0.211637        -5.7589
 101   0.0000      -0.050619        -1.3774
 102   0.0000      -0.026874        -0.7313
 103   0.0000      -0.003873        -0.1054
 104   0.0000      -0.002340        -0.0637
 105   0.0000       0.007811         0.2125

MULLIKEN ATOMIC CHARGES
-----------------------
   0 C :   -0.464070
   1 C :   -0.109064
   2 O :   -0.271602
   3 P :    0.686225
   4 S :   -0.469545
   5 O :   -0.302626
   6 C :   -0.150811
   7 C :   -0.426262
   8 S :   -0.146429
   9 C :   -0.235352
  10 S :   -0.140018
  11 P :    0.691300
  12 S :   -0.486094
  13 O :   -0.238177
  14 C :   -0.126801
  15 C :   -0.478877
  16 O :   -0.305847
  17 C :   -0.129707
  18 C :   -0.452102
  19 H :    0.143113
  20 H :    0.145862
  21 H :    0.167827
  22 H :    0.172047
  23 H :    0.146247
  24 H :    0.151276
  25 H :    0.150540
  26 H :    0.168688
  27 H :    0.146683
  28 H :    0.164489
  29 H :    0.211583
  30 H :    0.213363
  31 H :    0.165553
  32 H :    0.148871
  33 H :    0.166754
  34 H :    0.141953
  35 H :    0.169885
  36 H :    0.153626
  37 H :    0.150519
  38 H :    0.145422
  39 H :    0.151363
  40 H :    0.180193
Sum of atomic charges:   -0.0000000

LOEWDIN ATOMIC CHARGES
----------------------
   0 C :   -0.392184
   1 C :    0.014982
   2 O :   -0.657981
   3 P :    0.385037
   4 S :   -0.129751
   5 O :   -0.652945
   6 C :    0.023000
   7 C :   -0.406579
   8 S :    0.157926
   9 C :   -0.420660
  10 S :    0.174995
  11 P :    0.372211
  12 S :   -0.131171
  13 O :   -0.669041
  14 C :    0.028255
  15 C :   -0.398686
  16 O :   -0.662925
  17 C :    0.021160
  18 C :   -0.399787
  19 H :    0.157633
  20 H :    0.158485
  21 H :    0.167878
  22 H :    0.182779
  23 H :    0.171987
  24 H :    0.171469
  25 H :    0.181747
  26 H :    0.165868
  27 H :    0.157928
  28 H :    0.165554
  29 H :    0.191185
  30 H :    0.190731
  31 H :    0.181168
  32 H :    0.174059
  33 H :    0.162913
  34 H :    0.156538
  35 H :    0.166744
  36 H :    0.176233
  37 H :    0.178161
  38 H :    0.158378
  39 H :    0.158253
  40 H :    0.168452

  Mayer bond orders larger than 0.100000
B(  0-C ,  1-C ) :   0.9406 B(  0-C , 19-H ) :   0.9670 B(  0-C , 20-H ) :   0.9676
B(  0-C , 21-H ) :   0.9664 B(  1-C ,  2-O ) :   0.7598 B(  1-C , 22-H ) :   0.9601
B(  1-C , 23-H ) :   0.9451 B(  2-O ,  3-P ) :   1.1459 B(  3-P ,  4-S ) :   1.7800
B(  3-P ,  5-O ) :   1.1103 B(  3-P ,  8-S ) :   1.0154 B(  5-O ,  6-C ) :   0.8059
B(  6-C ,  7-C ) :   0.9404 B(  6-C , 24-H ) :   0.9626 B(  6-C , 25-H ) :   0.9583
B(  7-C , 26-H ) :   0.9548 B(  7-C , 27-H ) :   0.9629 B(  7-C , 28-H ) :   0.9659
B(  8-S ,  9-C ) :   0.9016 B(  9-C , 10-S ) :   0.8971 B(  9-C , 29-H ) :   0.9079
B(  9-C , 30-H ) :   0.9106 B( 10-S , 11-P ) :   1.0877 B( 11-P , 12-S ) :   1.7537
B( 11-P , 13-O ) :   1.1547 B( 11-P , 16-O ) :   1.0537 B( 13-O , 14-C ) :   0.7485
B( 14-C , 15-C ) :   0.9505 B( 14-C , 31-H ) :   0.9573 B( 14-C , 32-H ) :   0.9561
B( 15-C , 33-H ) :   0.9670 B( 15-C , 34-H ) :   0.9643 B( 15-C , 35-H ) :   0.9682
B( 16-O , 17-C ) :   0.7738 B( 17-C , 18-C ) :   0.9596 B( 17-C , 36-H ) :   0.9624
B( 17-C , 37-H ) :   0.9629 B( 18-C , 38-H ) :   0.9649 B( 18-C , 39-H ) :   0.9746
B( 18-C , 40-H ) :   0.9577

Dispersion correction           -0.022257201
FINAL SINGLE POINT ENERGY     -2932.461193231919

DIPOLE MOMENT
-------------

Method             : SCF
Type of density    : Electron Density
Multiplicity       :   1
Irrep              :   0
Energy             : -2932.4854695128010462 Eh
Relativity type    :
Basis              : AO
                                X                 Y                 Z
Electronic contribution:      4.852677722      -1.774655808      -9.964712674
Nuclear contribution   :     -5.262333157       1.938974318      10.766647038
                        -----------------------------------------
Total Dipole Moment    :     -0.409655434       0.164318511       0.801934363
                        -----------------------------------------
Magnitude (a.u.)       :      0.915377993
Magnitude (Debye)      :      2.326705953

Rotational constants in cm-1:             0.013259             0.005141             0.004958
Rotational constants in MHz :           397.487061           154.114398           148.623924

                             ****ORCA TERMINATED NORMALLY****
TOTAL RUN TIME: 0 days 0 hours 1 minutes 27 seconds 257 msec
