                         Program Version 6.0.0  -   RELEASE  -
|  1> ! r2scan-3c def2/J RI DEFGRID2 scfconv6 printgap
|  2> %output
|  3>     printlevel normal
|  4> end
|  5> %cpcm
|  6>     smd true
|  7>     smdsolvent "water"
|  8> end
|  9> * xyz 0 1
| 10> C 0.2255295603 -2.2148531313 2.5415748037
| 11> C 1.5345243167 -1.8743813741 1.8596830958
| 12> O 1.524616024 -0.4778552272 1.4956284211
| 13> P 2.2893672394 0.1233941686 0.2451007581
| 14> S 3.2248233649 -1.2129910289 -0.8512217835
| 15> O 3.163050157 1.1946655434 1.0212192456
| 16> C 3.761934704 2.3673515212 0.4388807068
| 17> C 4.6386783282 2.0489505172 -0.7548108767
| 18> S 0.8798432452 1.3324951561 -0.7822704766
| 19> C 0.2859031779 0.0527436492 -1.9123401861
| 20> S -0.5187519394 -1.3202769267 -1.0445416195
| 21> P -2.128283139 -0.2098268105 -0.2446868383
| 22> S -2.8737802851 1.1987621973 -1.391531388
| 23> O -1.5637397222 0.2505069705 1.1549171496
| 24> C -2.0576571259 1.3910198497 1.8928475563
| 25> C -0.9106760197 2.3364813398 2.1905253064
| 26> O -3.136734084 -1.353592558 0.2101577431
| 27> C -3.9660434969 -2.0682192417 -0.7296554614
| 28> C -5.3554224267 -1.463322991 -0.7835466658
| 29> H 0.2538519043 -3.2527231924 2.8572108387
| 30> H 0.0813669929 -1.5765081844 3.4083509715
| 31> H -0.6095311976 -2.0723663655 1.8600304261
| 32> H 1.6872316298 -2.4789301655 0.9591174529
| 33> H 2.3799746576 -2.0260507514 2.5352911759
| 34> H 2.9615225363 3.0578268604 0.1584598441
| 35> H 4.3438328181 2.7902182396 1.25980358
| 36> H 4.0349508494 1.6578414788 -1.5725038949
| 37> H 5.1384169916 2.9535516813 -1.086029695
| 38> H 5.383595686 1.3022942863 -0.4897380207
| 39> H 1.1256649109 -0.3778896192 -2.457578231
| 40> H -0.4263535129 0.5338032558 -2.5821934883
| 41> H -2.8360465775 1.888562556 1.3055980227
| 42> H -2.4920542632 0.9883192203 2.8097279161
| 43> H -0.5652191826 2.8119513179 1.27561563
| 44> H -1.2482575951 3.0997330944 2.8840830006
| 45> H -0.0825340469 1.7867154293 2.6314321372
| 46> H -3.4925465356 -2.0524172755 -1.7154083153
| 47> H -3.9910359859 -3.0930739327 -0.3550726353
| 48> H -5.9766001914 -2.0531426262 -1.4497279886
| 49> H -5.7972079155 -1.4549911588 0.2088241558
| 50> H -5.3065680049 -0.4422476703 -1.1555459374
| 51> *
| 52>
| 53>                          ****END OF INPUT****

CARTESIAN COORDINATES (ANGSTROEM)
---------------------------------
  C      0.225530   -2.214853    2.541575
  C      1.534524   -1.874381    1.859683
  O      1.524616   -0.477855    1.495628
  P      2.289367    0.123394    0.245101
  S      3.224823   -1.212991   -0.851222
  O      3.163050    1.194666    1.021219
  C      3.761935    2.367352    0.438881
  C      4.638678    2.048951   -0.754811
  S      0.879843    1.332495   -0.782270
  C      0.285903    0.052744   -1.912340
  S     -0.518752   -1.320277   -1.044542
  P     -2.128283   -0.209827   -0.244687
  S     -2.873780    1.198762   -1.391531
  O     -1.563740    0.250507    1.154917
  C     -2.057657    1.391020    1.892848
  C     -0.910676    2.336481    2.190525
  O     -3.136734   -1.353593    0.210158
  C     -3.966043   -2.068219   -0.729655
  C     -5.355422   -1.463323   -0.783547
  H      0.253852   -3.252723    2.857211
  H      0.081367   -1.576508    3.408351
  H     -0.609531   -2.072366    1.860030
  H      1.687232   -2.478930    0.959117
  H      2.379975   -2.026051    2.535291
  H      2.961523    3.057827    0.158460
  H      4.343833    2.790218    1.259804
  H      4.034951    1.657841   -1.572504
  H      5.138417    2.953552   -1.086030
  H      5.383596    1.302294   -0.489738
  H      1.125665   -0.377890   -2.457578
  H     -0.426354    0.533803   -2.582193
  H     -2.836047    1.888563    1.305598
  H     -2.492054    0.988319    2.809728
  H     -0.565219    2.811951    1.275616
  H     -1.248258    3.099733    2.884083
  H     -0.082534    1.786715    2.631432
  H     -3.492547   -2.052417   -1.715408
  H     -3.991036   -3.093074   -0.355073
  H     -5.976600   -2.053143   -1.449728
  H     -5.797208   -1.454991    0.208824
  H     -5.306568   -0.442248   -1.155546

 Total Charge           Charge          ....    0
 Multiplicity           Mult            ....    1
 Number of Electrons    NEL             ....  202
 Basis Dimension        Dim             ....  539

ORBITAL ENERGIES
----------------

  NO   OCC          E(Eh)            E(eV)
   0   2.0000     -88.581555     -2410.4267
   1   2.0000     -88.579640     -2410.3746
   2   2.0000     -88.528679     -2408.9878
   3   2.0000     -88.526365     -2408.9249
   4   2.0000     -76.920343     -2093.1089
   5   2.0000     -76.920185     -2093.1046
   6   2.0000     -18.995391      -516.8909
   7   2.0000     -18.994847      -516.8761
   8   2.0000     -18.992107      -516.8015
   9   2.0000     -18.991309      -516.7798
  10   2.0000     -10.105801      -274.9928
  11   2.0000     -10.093123      -274.6478
  12   2.0000     -10.091233      -274.5964
  13   2.0000     -10.089741      -274.5558
  14   2.0000     -10.087587      -274.4972
  15   2.0000     -10.018539      -272.6183
  16   2.0000     -10.017063      -272.5781
  17   2.0000     -10.016962      -272.5754
  18   2.0000     -10.016916      -272.5741
  19   2.0000      -7.875864      -214.3131
  20   2.0000      -7.874071      -214.2644
  21   2.0000      -7.823771      -212.8956
  22   2.0000      -7.821518      -212.8343
  23   2.0000      -6.598717      -179.5602
  24   2.0000      -6.598398      -179.5515
  25   2.0000      -5.822714      -158.4441
  26   2.0000      -5.820936      -158.3957
  27   2.0000      -5.819650      -158.3607
  28   2.0000      -5.817835      -158.3114
  29   2.0000      -5.813096      -158.1824
  30   2.0000      -5.811267      -158.1326
  31   2.0000      -5.771269      -157.0442
  32   2.0000      -5.769135      -156.9862
  33   2.0000      -5.764074      -156.8484
  34   2.0000      -5.763847      -156.8423
  35   2.0000      -5.761858      -156.7881
  36   2.0000      -5.761427      -156.7764
  37   2.0000      -4.744131      -129.0944
  38   2.0000      -4.743822      -129.0860
  39   2.0000      -4.743657      -129.0815
  40   2.0000      -4.743493      -129.0770
  41   2.0000      -4.742562      -129.0517
  42   2.0000      -4.742097      -129.0390
  43   2.0000      -1.052761       -28.6471
  44   2.0000      -1.051839       -28.6220
  45   2.0000      -1.011829       -27.5333
  46   2.0000      -1.010489       -27.4968
  47   2.0000      -0.806779       -21.9536
  48   2.0000      -0.757669       -20.6172
  49   2.0000      -0.745821       -20.2948
  50   2.0000      -0.722368       -19.6566
  51   2.0000      -0.721716       -19.6389
  52   2.0000      -0.710336       -19.3292
  53   2.0000      -0.688823       -18.7438
  54   2.0000      -0.676061       -18.3965
  55   2.0000      -0.629796       -17.1376
  56   2.0000      -0.620002       -16.8711
  57   2.0000      -0.602306       -16.3896
  58   2.0000      -0.595221       -16.1968
  59   2.0000      -0.587388       -15.9836
  60   2.0000      -0.528728       -14.3874
  61   2.0000      -0.521730       -14.1970
  62   2.0000      -0.495714       -13.4891
  63   2.0000      -0.488152       -13.2833
  64   2.0000      -0.477137       -12.9836
  65   2.0000      -0.457195       -12.4409
  66   2.0000      -0.453179       -12.3316
  67   2.0000      -0.442406       -12.0385
  68   2.0000      -0.439998       -11.9730
  69   2.0000      -0.434382       -11.8201
  70   2.0000      -0.424262       -11.5448
  71   2.0000      -0.416708       -11.3392
  72   2.0000      -0.409410       -11.1406
  73   2.0000      -0.400718       -10.9041
  74   2.0000      -0.398227       -10.8363
  75   2.0000      -0.388194       -10.5633
  76   2.0000      -0.376614       -10.2482
  77   2.0000      -0.365256        -9.9391
  78   2.0000      -0.358627        -9.7587
  79   2.0000      -0.357055        -9.7160
  80   2.0000      -0.355598        -9.6763
  81   2.0000      -0.354306        -9.6411
  82   2.0000      -0.350731        -9.5439
  83   2.0000      -0.344883        -9.3847
  84   2.0000      -0.341390        -9.2897
  85   2.0000      -0.335643        -9.1333
  86   2.0000      -0.320361        -8.7175
  87   2.0000      -0.310285        -8.4433
  88   2.0000      -0.307702        -8.3730
  89   2.0000      -0.305641        -8.3169
  90   2.0000      -0.299559        -8.1514
  91   2.0000      -0.292185        -7.9508
  92   2.0000      -0.287691        -7.8285
  93   2.0000      -0.281326        -7.6553
  94   2.0000      -0.270459        -7.3596
  95   2.0000      -0.249401        -6.7866
  96   2.0000      -0.237580        -6.4649
  97   2.0000      -0.233429        -6.3519
  98   2.0000      -0.226761        -6.1705
  99   2.0000      -0.220285        -5.9943
 100   2.0000      -0.219229        -5.9655
 101   0.0000      -0.054429        -1.4811
 102   0.0000      -0.032146        -0.8747
 103   0.0000      -0.008038        -0.2187
 104   0.0000      -0.005600        -0.1524
 105   0.0000       0.007747         0.2108

MULLIKEN ATOMIC CHARGES
-----------------------
   0 C :   -0.512369
   1 C :   -0.102739
   2 O :   -0.304777
   3 P :    0.717701
   4 S :   -0.514704
   5 O :   -0.335687
   6 C :   -0.152141
   7 C :   -0.466390
   8 S :   -0.147851
   9 C :   -0.245039
  10 S :   -0.150771
  11 P :    0.717573
  12 S :   -0.526176
  13 O :   -0.265687
  14 C :   -0.124835
  15 C :   -0.507294
  16 O :   -0.332408
  17 C :   -0.125371
  18 C :   -0.490689
  19 H :    0.168749
  20 H :    0.166865
  21 H :    0.165991
  22 H :    0.172674
  23 H :    0.170029
  24 H :    0.171894
  25 H :    0.177295
  26 H :    0.166322
  27 H :    0.173298
  28 H :    0.169922
  29 H :    0.231786
  30 H :    0.235560
  31 H :    0.169659
  32 H :    0.174581
  33 H :    0.169659
  34 H :    0.167373
  35 H :    0.169223
  36 H :    0.164603
  37 H :    0.176804
  38 H :    0.169784
  39 H :    0.166750
  40 H :    0.170831
Sum of atomic charges:    0.0000000

LOEWDIN ATOMIC CHARGES
----------------------
   0 C :   -0.396292
   1 C :    0.017422
   2 O :   -0.676500
   3 P :    0.388034
   4 S :   -0.159694
   5 O :   -0.668734
   6 C :    0.029343
   7 C :   -0.410147
   8 S :    0.160789
   9 C :   -0.414180
  10 S :    0.170423
  11 P :    0.376997
  12 S :   -0.156941
  13 O :   -0.684827
  14 C :    0.032838
  15 C :   -0.400851
  16 O :   -0.674751
  17 C :    0.026371
  18 C :   -0.404226
  19 H :    0.167821
  20 H :    0.163310
  21 H :    0.164738
  22 H :    0.183033
  23 H :    0.181013
  24 H :    0.179402
  25 H :    0.193140
  26 H :    0.161903
  27 H :    0.168087
  28 H :    0.164350
  29 H :    0.197490
  30 H :    0.197735
  31 H :    0.183077
  32 H :    0.184704
  33 H :    0.161940
  34 H :    0.166165
  35 H :    0.164967
  36 H :    0.180161
  37 H :    0.189395
  38 H :    0.167499
  39 H :    0.162426
  40 H :    0.162570

  Mayer bond orders larger than 0.100000
B(  0-C ,  1-C ) :   0.9294 B(  0-C , 19-H ) :   0.9600 B(  0-C , 20-H ) :   0.9656
B(  0-C , 21-H ) :   0.9666 B(  1-C ,  2-O ) :   0.7533 B(  1-C , 22-H ) :   0.9572
B(  1-C , 23-H ) :   0.9364 B(  2-O ,  3-P ) :   1.1415 B(  3-P ,  4-S ) :   1.7462
B(  3-P ,  5-O ) :   1.1158 B(  3-P ,  8-S ) :   1.0339 B(  5-O ,  6-C ) :   0.7965
B(  6-C ,  7-C ) :   0.9218 B(  6-C , 24-H ) :   0.9571 B(  6-C , 25-H ) :   0.9484
B(  7-C , 26-H ) :   0.9571 B(  7-C , 27-H ) :   0.9566 B(  7-C , 28-H ) :   0.9669
B(  8-S ,  9-C ) :   0.8893 B(  9-C , 10-S ) :   0.8874 B(  9-C , 29-H ) :   0.9025
B(  9-C , 30-H ) :   0.9044 B( 10-S , 11-P ) :   1.0958 B( 11-P , 12-S ) :   1.7233
B( 11-P , 13-O ) :   1.1605 B( 11-P , 16-O ) :   1.0588 B( 13-O , 14-C ) :   0.7403
B( 14-C , 15-C ) :   0.9411 B( 14-C , 31-H ) :   0.9548 B( 14-C , 32-H ) :   0.9462
B( 15-C , 33-H ) :   0.9657 B( 15-C , 34-H ) :   0.9595 B( 15-C , 35-H ) :   0.9683
B( 16-O , 17-C ) :   0.7608 B( 17-C , 18-C ) :   0.9486 B( 17-C , 36-H ) :   0.9560
B( 17-C , 37-H ) :   0.9527 B( 18-C , 38-H ) :   0.9598 B( 18-C , 39-H ) :   0.9719
B( 18-C , 40-H ) :   0.9620

Dispersion correction           -0.022257201
FINAL SINGLE POINT ENERGY     -2932.469071959865

DIPOLE MOMENT
-------------

Method             : SCF
Type of density    : Electron Density
Multiplicity       :   1
Irrep              :   0
Energy             : -2932.4933482407477641 Eh
Relativity type    :
Basis              : AO
                                X                 Y                 Z
Electronic contribution:      4.712223698      -1.716200674      -9.837640892
Nuclear contribution   :     -5.262333157       1.938974318      10.766647038
                        -----------------------------------------
Total Dipole Moment    :     -0.550109459       0.222773644       0.929006145
                        -----------------------------------------
Magnitude (a.u.)       :      1.102406881
Magnitude (Debye)      :      2.802095605

Rotational constants in cm-1:             0.013259             0.005141             0.004958
Rotational constants in MHz :           397.487061           154.114398           148.623924

                             ****ORCA TERMINATED NORMALLY****
TOTAL RUN TIME: 0 days 0 hours 1 minutes 51 seconds 867 msec
