                         Program Version 6.0.0  -   RELEASE  -
|  1> ! pbe def2-sv(p) def2/J RI DEFGRID1 loosescf d4 GCP(DFT/SV(P)) printgap
|  2> %output
|  3>     printlevel normal
|  4> end
|  5> * xyz 0 1
|  6> C 5.0078131173 -2.594182018 -1.1069747758
|  7> C 3.9903393969 -1.5434990048 -1.5037826891
|  8> O 2.9976502197 -1.470165295 -0.4607996991
|  9> P 2.1066183797 -0.1752938896 -0.2268500786
| 10> S 3.1013255297 1.5186556808 -0.2263233479
| 11> O 1.3569328561 -0.5568348512 1.1074108299
| 12> C 1.8207305233 -0.1634647753 2.4203999298
| 13> C 0.617731245 0.2032843217 3.264522307
| 14> S 0.5769179385 -0.3673641832 -1.6688824651
| 15> C -0.0301205947 1.3350871278 -1.5458838217
| 16> S -0.7941256287 1.6936962621 0.0509867892
| 17> P -2.4423406507 0.3660461592 -0.1554281221
| 18> S -3.1813876082 0.2016536072 -1.9554815988
| 19> O -3.5085435612 0.917238237 0.8708491772
| 20> C -3.299018658 0.9935032044 2.3058250089
| 21> C -2.9110965278 2.3985588709 2.7196531021
| 22> O -1.9312697103 -0.992723323 0.5134766556
| 23> C -1.9342307673 -2.2762075373 -0.1475448082
| 24> C -0.8246944427 -3.124596229 0.4383816835
| 25> H 4.5143680478 -3.5506232682 -0.9612598865
| 26> H 5.7486396658 -2.6870772264 -1.8942542182
| 27> H 5.5011365189 -2.3069320139 -0.1826854677
| 28> H 3.4835587907 -1.8084221743 -2.4352563953
| 29> H 4.4544520582 -0.5576212865 -1.6145385317
| 30> H 2.3599821564 -1.0164071541 2.837656764
| 31> H 2.5062436003 0.6839496275 2.3136653447
| 32> H 0.9471701131 0.4355165748 4.2719077873
| 33> H 0.116028203 1.0701460243 2.8423447792
| 34> H -0.0785310543 -0.6301830143 3.2953458496
| 35> H -0.7673989391 1.4608544215 -2.3386894813
| 36> H 0.80333898 2.0286315396 -1.6578445805
| 37> H -4.262857951 0.7098635103 2.7318355377
| 38> H -2.5380266174 0.2657480243 2.5926521548
| 39> H -2.828124018 2.4386024929 3.8011905221
| 40> H -1.957857638 2.6805925641 2.2771429664
| 41> H -3.6672775112 3.1056651503 2.3904372377
| 42> H -2.9131523831 -2.7307344071 0.0248809134
| 43> H -1.8003886227 -2.1254955337 -1.2230878523
| 44> H -0.9671373684 -3.2389726781 1.5090128349
| 45> H -0.8436452184 -4.1012930071 -0.0339324941
| 46> H 0.1424808164 -2.6612341651 0.2596877002
| 47> *
| 48>
| 49>                          ****END OF INPUT****

CARTESIAN COORDINATES (ANGSTROEM)
---------------------------------
  C      5.007813   -2.594182   -1.106975
  C      3.990339   -1.543499   -1.503783
  O      2.997650   -1.470165   -0.460800
  P      2.106618   -0.175294   -0.226850
  S      3.101326    1.518656   -0.226323
  O      1.356933   -0.556835    1.107411
  C      1.820731   -0.163465    2.420400
  C      0.617731    0.203284    3.264522
  S      0.576918   -0.367364   -1.668882
  C     -0.030121    1.335087   -1.545884
  S     -0.794126    1.693696    0.050987
  P     -2.442341    0.366046   -0.155428
  S     -3.181388    0.201654   -1.955482
  O     -3.508544    0.917238    0.870849
  C     -3.299019    0.993503    2.305825
  C     -2.911097    2.398559    2.719653
  O     -1.931270   -0.992723    0.513477
  C     -1.934231   -2.276208   -0.147545
  C     -0.824694   -3.124596    0.438382
  H      4.514368   -3.550623   -0.961260
  H      5.748640   -2.687077   -1.894254
  H      5.501137   -2.306932   -0.182685
  H      3.483559   -1.808422   -2.435256
  H      4.454452   -0.557621   -1.614539
  H      2.359982   -1.016407    2.837657
  H      2.506244    0.683950    2.313665
  H      0.947170    0.435517    4.271908
  H      0.116028    1.070146    2.842345
  H     -0.078531   -0.630183    3.295346
  H     -0.767399    1.460854   -2.338689
  H      0.803339    2.028632   -1.657845
  H     -4.262858    0.709864    2.731836
  H     -2.538027    0.265748    2.592652
  H     -2.828124    2.438602    3.801191
  H     -1.957858    2.680593    2.277143
  H     -3.667278    3.105665    2.390437
  H     -2.913152   -2.730734    0.024881
  H     -1.800389   -2.125496   -1.223088
  H     -0.967137   -3.238973    1.509013
  H     -0.843645   -4.101293   -0.033932
  H      0.142481   -2.661234    0.259688

 Total Charge           Charge          ....    0
 Multiplicity           Mult            ....    1
 Number of Electrons    NEL             ....  202
 Basis Dimension        Dim             ....  334

ORBITAL ENERGIES
----------------

  NO   OCC          E(Eh)            E(eV)
   0   2.0000     -88.046176     -2395.8583
   1   2.0000     -88.040369     -2395.7002
   2   2.0000     -87.991063     -2394.3586
   3   2.0000     -87.984334     -2394.1754
   4   2.0000     -76.429858     -2079.7622
   5   2.0000     -76.425329     -2079.6389
   6   2.0000     -18.797390      -511.5030
   7   2.0000     -18.794331      -511.4198
   8   2.0000     -18.793733      -511.4035
   9   2.0000     -18.786407      -511.2041
  10   2.0000      -9.960246      -271.0321
  11   2.0000      -9.955779      -270.9105
  12   2.0000      -9.955519      -270.9035
  13   2.0000      -9.953719      -270.8545
  14   2.0000      -9.946335      -270.6535
  15   2.0000      -9.891470      -269.1606
  16   2.0000      -9.891121      -269.1511
  17   2.0000      -9.889137      -269.0971
  18   2.0000      -9.879572      -268.8368
  19   2.0000      -7.691161      -209.2871
  20   2.0000      -7.685377      -209.1297
  21   2.0000      -7.636024      -207.7868
  22   2.0000      -7.629674      -207.6140
  23   2.0000      -6.427452      -174.8999
  24   2.0000      -6.422836      -174.7743
  25   2.0000      -5.718961      -155.6209
  26   2.0000      -5.715734      -155.5330
  27   2.0000      -5.713179      -155.4635
  28   2.0000      -5.710003      -155.3771
  29   2.0000      -5.708152      -155.3267
  30   2.0000      -5.702282      -155.1670
  31   2.0000      -5.664746      -154.1456
  32   2.0000      -5.658717      -153.9815
  33   2.0000      -5.656632      -153.9248
  34   2.0000      -5.656392      -153.9182
  35   2.0000      -5.650223      -153.7504
  36   2.0000      -5.649713      -153.7365
  37   2.0000      -4.649908      -126.5304
  38   2.0000      -4.649240      -126.5123
  39   2.0000      -4.647934      -126.4767
  40   2.0000      -4.645688      -126.4156
  41   2.0000      -4.644236      -126.3761
  42   2.0000      -4.643425      -126.3540
  43   2.0000      -0.990814       -26.9614
  44   2.0000      -0.983633       -26.7660
  45   2.0000      -0.949289       -25.8315
  46   2.0000      -0.939998       -25.5786
  47   2.0000      -0.767096       -20.8738
  48   2.0000      -0.726070       -19.7574
  49   2.0000      -0.714075       -19.4310
  50   2.0000      -0.692709       -18.8496
  51   2.0000      -0.690225       -18.7820
  52   2.0000      -0.674326       -18.3493
  53   2.0000      -0.649594       -17.6764
  54   2.0000      -0.638905       -17.3855
  55   2.0000      -0.600527       -16.3412
  56   2.0000      -0.587386       -15.9836
  57   2.0000      -0.575145       -15.6505
  58   2.0000      -0.570781       -15.5318
  59   2.0000      -0.557671       -15.1750
  60   2.0000      -0.512536       -13.9468
  61   2.0000      -0.504400       -13.7254
  62   2.0000      -0.485193       -13.2028
  63   2.0000      -0.478906       -13.0317
  64   2.0000      -0.459164       -12.4945
  65   2.0000      -0.446604       -12.1527
  66   2.0000      -0.444661       -12.0998
  67   2.0000      -0.437631       -11.9085
  68   2.0000      -0.428910       -11.6712
  69   2.0000      -0.417772       -11.3681
  70   2.0000      -0.405278       -11.0282
  71   2.0000      -0.395831       -10.7711
  72   2.0000      -0.390662       -10.6305
  73   2.0000      -0.384328       -10.4581
  74   2.0000      -0.380827       -10.3628
  75   2.0000      -0.376502       -10.2452
  76   2.0000      -0.364629        -9.9221
  77   2.0000      -0.361664        -9.8414
  78   2.0000      -0.360409        -9.8072
  79   2.0000      -0.356403        -9.6982
  80   2.0000      -0.353496        -9.6191
  81   2.0000      -0.348588        -9.4856
  82   2.0000      -0.344077        -9.3628
  83   2.0000      -0.340207        -9.2575
  84   2.0000      -0.330929        -9.0050
  85   2.0000      -0.324457        -8.8289
  86   2.0000      -0.311126        -8.4662
  87   2.0000      -0.305743        -8.3197
  88   2.0000      -0.302584        -8.2337
  89   2.0000      -0.291240        -7.9250
  90   2.0000      -0.283629        -7.7179
  91   2.0000      -0.280316        -7.6278
  92   2.0000      -0.272172        -7.4062
  93   2.0000      -0.267006        -7.2656
  94   2.0000      -0.257028        -6.9941
  95   2.0000      -0.234408        -6.3786
  96   2.0000      -0.216624        -5.8947
  97   2.0000      -0.214623        -5.8402
  98   2.0000      -0.208191        -5.6652
  99   2.0000      -0.201998        -5.4966
 100   2.0000      -0.198548        -5.4028
 101   0.0000      -0.047746        -1.2992
 102   0.0000      -0.024295        -0.6611
 103   0.0000      -0.004268        -0.1161
 104   0.0000       0.000502         0.0137
 105   0.0000       0.004866         0.1324

MULLIKEN ATOMIC CHARGES
-----------------------
   0 C :   -0.281477
   1 C :   -0.012097
   2 O :   -0.383453
   3 P :    0.621852
   4 S :   -0.331302
   5 O :   -0.360266
   6 C :   -0.006319
   7 C :   -0.307998
   8 S :   -0.084384
   9 C :   -0.354794
  10 S :   -0.111525
  11 P :    0.627169
  12 S :   -0.315701
  13 O :   -0.363212
  14 C :   -0.035920
  15 C :   -0.305718
  16 O :   -0.392442
  17 C :   -0.000242
  18 C :   -0.295102
  19 H :    0.117020
  20 H :    0.113779
  21 H :    0.118142
  22 H :    0.103912
  23 H :    0.107981
  24 H :    0.103744
  25 H :    0.110013
  26 H :    0.108072
  27 H :    0.131038
  28 H :    0.127697
  29 H :    0.195115
  30 H :    0.193524
  31 H :    0.112117
  32 H :    0.120951
  33 H :    0.111832
  34 H :    0.141188
  35 H :    0.125234
  36 H :    0.100074
  37 H :    0.112634
  38 H :    0.105970
  39 H :    0.104627
  40 H :    0.128268
Sum of atomic charges:    0.0000000

LOEWDIN ATOMIC CHARGES
----------------------
   0 C :   -0.350548
   1 C :   -0.119898
   2 O :   -0.250595
   3 P :    0.567468
   4 S :   -0.321892
   5 O :   -0.231390
   6 C :   -0.112904
   7 C :   -0.357511
   8 S :    0.095026
   9 C :   -0.482772
  10 S :    0.080726
  11 P :    0.572762
  12 S :   -0.307583
  13 O :   -0.242210
  14 C :   -0.114720
  15 C :   -0.360908
  16 O :   -0.257398
  17 C :   -0.117307
  18 C :   -0.357088
  19 H :    0.126960
  20 H :    0.131674
  21 H :    0.128023
  22 H :    0.111694
  23 H :    0.108607
  24 H :    0.114581
  25 H :    0.108505
  26 H :    0.129107
  27 H :    0.122198
  28 H :    0.125694
  29 H :    0.131440
  30 H :    0.130648
  31 H :    0.122871
  32 H :    0.112673
  33 H :    0.131115
  34 H :    0.119036
  35 H :    0.132044
  36 H :    0.110773
  37 H :    0.103437
  38 H :    0.121329
  39 H :    0.127826
  40 H :    0.118506

  Mayer bond orders larger than 0.100000
B(  0-C ,  1-C ) :   1.1614 B(  0-C , 19-H ) :   0.9508 B(  0-C , 20-H ) :   0.9418
B(  0-C , 21-H ) :   0.9511 B(  1-C ,  2-O ) :   0.9046 B(  1-C , 22-H ) :   0.9303
B(  1-C , 23-H ) :   0.9082 B(  2-O ,  3-P ) :   1.0997 B(  3-P ,  4-S ) :   1.6078
B(  3-P ,  5-O ) :   1.1229 B(  3-P ,  8-S ) :   0.9674 B(  4-S ,  8-S ) :   0.1049
B(  5-O ,  6-C ) :   0.8955 B(  6-C ,  7-C ) :   1.1660 B(  6-C , 24-H ) :   0.9337
B(  6-C , 25-H ) :   0.9034 B(  7-C , 26-H ) :   0.9373 B(  7-C , 27-H ) :   0.9387
B(  7-C , 28-H ) :   0.9415 B(  8-S ,  9-C ) :   0.9978 B(  9-C , 10-S ) :   1.0159
B(  9-C , 29-H ) :   0.8773 B(  9-C , 30-H ) :   0.8779 B( 10-S , 11-P ) :   0.9407
B( 10-S , 12-S ) :   0.1038 B( 11-P , 12-S ) :   1.6437 B( 11-P , 13-O ) :   1.1412
B( 11-P , 16-O ) :   1.0810 B( 13-O , 14-C ) :   0.8968 B( 14-C , 15-C ) :   1.1666
B( 14-C , 31-H ) :   0.9334 B( 14-C , 32-H ) :   0.9128 B( 15-C , 33-H ) :   0.9388
B( 15-C , 34-H ) :   0.9298 B( 15-C , 35-H ) :   0.9442 B( 16-O , 17-C ) :   0.8924
B( 17-C , 18-C ) :   1.1634 B( 17-C , 36-H ) :   0.9354 B( 17-C , 37-H ) :   0.9056
B( 18-C , 38-H ) :   0.9480 B( 18-C , 39-H ) :   0.9397 B( 18-C , 40-H ) :   0.9357

Dispersion correction           -0.065914832
FINAL SINGLE POINT ENERGY     -2929.522948638950

DIPOLE MOMENT
-------------

Method             : SCF
Type of density    : Electron Density
Multiplicity       :   1
Irrep              :   0
Energy             : -2929.6423576951374343 Eh
Relativity type    :
Basis              : AO
                                X                 Y                 Z
Electronic contribution:     -7.099098240      11.057900959     -16.766058773
Nuclear contribution   :      7.753784136     -12.050151396      18.125094246
                        -----------------------------------------
Total Dipole Moment    :      0.654685896      -0.992250437       1.359035472
                        -----------------------------------------
Magnitude (a.u.)       :      1.805589092
Magnitude (Debye)      :      4.589442742

Rotational constants in cm-1:             0.011907             0.005367             0.004969
Rotational constants in MHz :           356.962311           160.883641           148.963149

                             ****ORCA TERMINATED NORMALLY****
TOTAL RUN TIME: 0 days 0 hours 0 minutes 21 seconds 644 msec
