                         Program Version 6.0.0  -   RELEASE  -
|  1> ! pbe def2-sv(p) def2/J RI DEFGRID1 loosescf d4 GCP(DFT/SV(P)) printgap
|  2> %output
|  3>     printlevel normal
|  4> end
|  5> * xyz 0 1
|  6> C 2.6274873348 1.2088414769 -2.4323813187
|  7> C 3.3187494627 0.159506112 -1.5865341982
|  8> O 2.380755709 -0.614123402 -0.8088502114
|  9> P 1.9619591745 -0.1720074486 0.6732925939
| 10> S 1.0441588712 1.5436738733 0.8795631992
| 11> O 3.2934566143 -0.1407472778 1.5318246459
| 12> C 4.174870848 -1.2899686769 1.6443049349
| 13> C 5.5917694642 -0.7836650269 1.8220373382
| 14> S 1.017015269 -1.94409493 1.2898195174
| 15> C -0.5074473945 -1.8929946711 0.3085020463
| 16> S -1.7624548234 -0.7508100871 0.9612264747
| 17> P -2.0125497056 0.5409494898 -0.7181296465
| 18> S -0.8152437243 0.2297726887 -2.2321394569
| 19> O -1.9623431199 2.0185384521 -0.1858529977
| 20> C -2.3673545074 2.4895719203 1.1195884281
| 21> C -3.7802051363 2.0827656683 1.4754167007
| 22> O -3.5553233508 0.4133821284 -1.1083378456
| 23> C -4.0575140399 -0.5644407121 -2.0310419564
| 24> C -3.960320688 -1.9769539156 -1.4894881456
| 25> H 1.8689309681 0.7465588391 -3.0595630524
| 26> H 2.1395627398 1.9483012087 -1.8000017472
| 27> H 3.3618175179 1.7058546578 -3.0582122099
| 28> H 4.0424620263 0.6253243647 -0.9098862461
| 29> H 3.8171152891 -0.582566694 -2.2133608483
| 30> H 3.8445010897 -1.8636845978 2.512532282
| 31> H 4.0767982611 -1.9063303984 0.7469686351
| 32> H 5.9130366902 -0.2276742218 0.9451916018
| 33> H 5.6443548661 -0.1300696613 2.6880087447
| 34> H 6.253780483 -1.6307323794 1.9698775402
| 35> H -0.9106089632 -2.9009716969 0.3644881225
| 36> H -0.2689684281 -1.6069951608 -0.720228285
| 37> H -1.6447639932 2.1167568312 1.8510717437
| 38> H -2.2633443154 3.5721049117 1.0328971944
| 39> H -4.471212514 2.4147950058 0.7049524385
| 40> H -3.8476889114 0.9998648884 1.5690998872
| 41> H -4.0495168878 2.5361987976 2.4242624815
| 42> H -5.094848336 -0.2644739024 -2.1863200263
| 43> H -3.5008727219 -0.4734669208 -2.9695091981
| 44> H -4.4887683194 -2.6511546555 -2.1557948917
| 45> H -2.9168803183 -2.2829133308 -1.4356359471
| 46> H -4.3991740999 -2.0328712649 -0.4967189221
| 47> *
| 48>
| 49>                          ****END OF INPUT****

CARTESIAN COORDINATES (ANGSTROEM)
---------------------------------
  C      2.627487    1.208841   -2.432381
  C      3.318749    0.159506   -1.586534
  O      2.380756   -0.614123   -0.808850
  P      1.961959   -0.172007    0.673293
  S      1.044159    1.543674    0.879563
  O      3.293457   -0.140747    1.531825
  C      4.174871   -1.289969    1.644305
  C      5.591769   -0.783665    1.822037
  S      1.017015   -1.944095    1.289820
  C     -0.507447   -1.892995    0.308502
  S     -1.762455   -0.750810    0.961226
  P     -2.012550    0.540949   -0.718130
  S     -0.815244    0.229773   -2.232139
  O     -1.962343    2.018538   -0.185853
  C     -2.367355    2.489572    1.119588
  C     -3.780205    2.082766    1.475417
  O     -3.555323    0.413382   -1.108338
  C     -4.057514   -0.564441   -2.031042
  C     -3.960321   -1.976954   -1.489488
  H      1.868931    0.746559   -3.059563
  H      2.139563    1.948301   -1.800002
  H      3.361818    1.705855   -3.058212
  H      4.042462    0.625324   -0.909886
  H      3.817115   -0.582567   -2.213361
  H      3.844501   -1.863685    2.512532
  H      4.076798   -1.906330    0.746969
  H      5.913037   -0.227674    0.945192
  H      5.644355   -0.130070    2.688009
  H      6.253780   -1.630732    1.969878
  H     -0.910609   -2.900972    0.364488
  H     -0.268968   -1.606995   -0.720228
  H     -1.644764    2.116757    1.851072
  H     -2.263344    3.572105    1.032897
  H     -4.471213    2.414795    0.704952
  H     -3.847689    0.999865    1.569100
  H     -4.049517    2.536199    2.424262
  H     -5.094848   -0.264474   -2.186320
  H     -3.500873   -0.473467   -2.969509
  H     -4.488768   -2.651155   -2.155795
  H     -2.916880   -2.282913   -1.435636
  H     -4.399174   -2.032871   -0.496719

 Total Charge           Charge          ....    0
 Multiplicity           Mult            ....    1
 Number of Electrons    NEL             ....  202
 Basis Dimension        Dim             ....  334

ORBITAL ENERGIES
----------------

  NO   OCC          E(Eh)            E(eV)
   0   2.0000     -88.040710     -2395.7095
   1   2.0000     -88.039382     -2395.6734
   2   2.0000     -87.980524     -2394.0718
   3   2.0000     -87.975214     -2393.9273
   4   2.0000     -76.421332     -2079.5302
   5   2.0000     -76.419022     -2079.4673
   6   2.0000     -18.791532      -511.3436
   7   2.0000     -18.783364      -511.1213
   8   2.0000     -18.783084      -511.1137
   9   2.0000     -18.780831      -511.0524
  10   2.0000      -9.959210      -271.0039
  11   2.0000      -9.955773      -270.9104
  12   2.0000      -9.949091      -270.7285
  13   2.0000      -9.948484      -270.7120
  14   2.0000      -9.947420      -270.6831
  15   2.0000      -9.893941      -269.2278
  16   2.0000      -9.884171      -268.9620
  17   2.0000      -9.883503      -268.9438
  18   2.0000      -9.867683      -268.5133
  19   2.0000      -7.686516      -209.1607
  20   2.0000      -7.684056      -209.0938
  21   2.0000      -7.625613      -207.5035
  22   2.0000      -7.620182      -207.3557
  23   2.0000      -6.418452      -174.6550
  24   2.0000      -6.417121      -174.6188
  25   2.0000      -5.714382      -155.4962
  26   2.0000      -5.711971      -155.4306
  27   2.0000      -5.711005      -155.4044
  28   2.0000      -5.708611      -155.3392
  29   2.0000      -5.703380      -155.1969
  30   2.0000      -5.701014      -155.1325
  31   2.0000      -5.654428      -153.8648
  32   2.0000      -5.649277      -153.7247
  33   2.0000      -5.646538      -153.6501
  34   2.0000      -5.645458      -153.6207
  35   2.0000      -5.640952      -153.4981
  36   2.0000      -5.639983      -153.4717
  37   2.0000      -4.641059      -126.2896
  38   2.0000      -4.640376      -126.2711
  39   2.0000      -4.640190      -126.2660
  40   2.0000      -4.638984      -126.2332
  41   2.0000      -4.638685      -126.2250
  42   2.0000      -4.637121      -126.1825
  43   2.0000      -0.982052       -26.7230
  44   2.0000      -0.978983       -26.6395
  45   2.0000      -0.938178       -25.5291
  46   2.0000      -0.936525       -25.4841
  47   2.0000      -0.759943       -20.6791
  48   2.0000      -0.719128       -19.5685
  49   2.0000      -0.709176       -19.2977
  50   2.0000      -0.688540       -18.7361
  51   2.0000      -0.685449       -18.6520
  52   2.0000      -0.671604       -18.2753
  53   2.0000      -0.646938       -17.6041
  54   2.0000      -0.632508       -17.2114
  55   2.0000      -0.596042       -16.2191
  56   2.0000      -0.577241       -15.7075
  57   2.0000      -0.573485       -15.6053
  58   2.0000      -0.569777       -15.5044
  59   2.0000      -0.560227       -15.2446
  60   2.0000      -0.509683       -13.8692
  61   2.0000      -0.487499       -13.2655
  62   2.0000      -0.476488       -12.9659
  63   2.0000      -0.464842       -12.6490
  64   2.0000      -0.452693       -12.3184
  65   2.0000      -0.447667       -12.1816
  66   2.0000      -0.438694       -11.9375
  67   2.0000      -0.435488       -11.8502
  68   2.0000      -0.427117       -11.6224
  69   2.0000      -0.415147       -11.2967
  70   2.0000      -0.404519       -11.0075
  71   2.0000      -0.396059       -10.7773
  72   2.0000      -0.390561       -10.6277
  73   2.0000      -0.383605       -10.4384
  74   2.0000      -0.377866       -10.2823
  75   2.0000      -0.366530        -9.9738
  76   2.0000      -0.363595        -9.8939
  77   2.0000      -0.353894        -9.6299
  78   2.0000      -0.352734        -9.5984
  79   2.0000      -0.349377        -9.5070
  80   2.0000      -0.344908        -9.3854
  81   2.0000      -0.343088        -9.3359
  82   2.0000      -0.338008        -9.1977
  83   2.0000      -0.335298        -9.1239
  84   2.0000      -0.329705        -8.9717
  85   2.0000      -0.315254        -8.5785
  86   2.0000      -0.305412        -8.3107
  87   2.0000      -0.302389        -8.2284
  88   2.0000      -0.288403        -7.8478
  89   2.0000      -0.285273        -7.7627
  90   2.0000      -0.276662        -7.5284
  91   2.0000      -0.272471        -7.4143
  92   2.0000      -0.268252        -7.2995
  93   2.0000      -0.260588        -7.0909
  94   2.0000      -0.255771        -6.9599
  95   2.0000      -0.237152        -6.4532
  96   2.0000      -0.215068        -5.8523
  97   2.0000      -0.203169        -5.5285
  98   2.0000      -0.197753        -5.3811
  99   2.0000      -0.189781        -5.1642
 100   2.0000      -0.181673        -4.9436
 101   0.0000      -0.039115        -1.0644
 102   0.0000      -0.030609        -0.8329
 103   0.0000      -0.012465        -0.3392
 104   0.0000       0.007103         0.1933
 105   0.0000       0.022797         0.6203

MULLIKEN ATOMIC CHARGES
-----------------------
   0 C :   -0.284440
   1 C :   -0.035410
   2 O :   -0.380098
   3 P :    0.611487
   4 S :   -0.302014
   5 O :   -0.373935
   6 C :   -0.037702
   7 C :   -0.279606
   8 S :   -0.098849
   9 C :   -0.351438
  10 S :   -0.105828
  11 P :    0.608729
  12 S :   -0.310155
  13 O :   -0.351876
  14 C :   -0.007991
  15 C :   -0.315917
  16 O :   -0.374849
  17 C :    0.003280
  18 C :   -0.318576
  19 H :    0.129095
  20 H :    0.133576
  21 H :    0.098200
  22 H :    0.103093
  23 H :    0.102274
  24 H :    0.116712
  25 H :    0.113010
  26 H :    0.120403
  27 H :    0.126252
  28 H :    0.112637
  29 H :    0.184109
  30 H :    0.203622
  31 H :    0.128160
  32 H :    0.110325
  33 H :    0.122984
  34 H :    0.125172
  35 H :    0.114788
  36 H :    0.102116
  37 H :    0.109762
  38 H :    0.110808
  39 H :    0.120090
  40 H :    0.118004
Sum of atomic charges:   -0.0000000

LOEWDIN ATOMIC CHARGES
----------------------
   0 C :   -0.364405
   1 C :   -0.116612
   2 O :   -0.256936
   3 P :    0.559649
   4 S :   -0.296791
   5 O :   -0.246436
   6 C :   -0.122876
   7 C :   -0.349797
   8 S :    0.077100
   9 C :   -0.480847
  10 S :    0.071935
  11 P :    0.576912
  12 S :   -0.290546
  13 O :   -0.224071
  14 C :   -0.115285
  15 C :   -0.367213
  16 O :   -0.249522
  17 C :   -0.118960
  18 C :   -0.369493
  19 H :    0.123586
  20 H :    0.126741
  21 H :    0.124171
  22 H :    0.105578
  23 H :    0.115905
  24 H :    0.116438
  25 H :    0.109867
  26 H :    0.125930
  27 H :    0.132350
  28 H :    0.131327
  29 H :    0.135838
  30 H :    0.124256
  31 H :    0.111718
  32 H :    0.123766
  33 H :    0.129077
  34 H :    0.115855
  35 H :    0.132288
  36 H :    0.117521
  37 H :    0.109703
  38 H :    0.129546
  39 H :    0.118617
  40 H :    0.124115

  Mayer bond orders larger than 0.100000
B(  0-C ,  1-C ) :   1.1779 B(  0-C , 19-H ) :   0.9369 B(  0-C , 20-H ) :   0.9310
B(  0-C , 21-H ) :   0.9365 B(  1-C ,  2-O ) :   0.9046 B(  1-C , 22-H ) :   0.9133
B(  1-C , 23-H ) :   0.9350 B(  2-O ,  3-P ) :   1.0719 B(  3-P ,  4-S ) :   1.6844
B(  3-P ,  5-O ) :   1.1028 B(  3-P ,  8-S ) :   0.9716 B(  4-S ,  8-S ) :   0.1151
B(  5-O ,  6-C ) :   0.8944 B(  6-C ,  7-C ) :   1.1650 B(  6-C , 24-H ) :   0.9307
B(  6-C , 25-H ) :   0.9148 B(  7-C , 26-H ) :   0.9501 B(  7-C , 27-H ) :   0.9478
B(  7-C , 28-H ) :   0.9404 B(  8-S ,  9-C ) :   1.0009 B(  9-C , 10-S ) :   1.0047
B(  9-C , 29-H ) :   0.9081 B(  9-C , 30-H ) :   0.8418 B( 10-S , 11-P ) :   0.9405
B( 10-S , 12-S ) :   0.1125 B( 11-P , 12-S ) :   1.6059 B( 11-P , 13-O ) :   1.1594
B( 11-P , 16-O ) :   1.0733 B( 12-S , 30-H ) :   0.1185 B( 13-O , 14-C ) :   0.8970
B( 14-C , 15-C ) :   1.1667 B( 14-C , 31-H ) :   0.9139 B( 14-C , 32-H ) :   0.9343
B( 15-C , 33-H ) :   0.9418 B( 15-C , 34-H ) :   0.9368 B( 15-C , 35-H ) :   0.9354
B( 16-O , 17-C ) :   0.9234 B( 17-C , 18-C ) :   1.1626 B( 17-C , 36-H ) :   0.9344
B( 17-C , 37-H ) :   0.9144 B( 18-C , 38-H ) :   0.9378 B( 18-C , 39-H ) :   0.9381
B( 18-C , 40-H ) :   0.9432

Dispersion correction           -0.067011730
FINAL SINGLE POINT ENERGY     -2929.509979812927

DIPOLE MOMENT
-------------

Method             : SCF
Type of density    : Electron Density
Multiplicity       :   1
Irrep              :   0
Energy             : -2929.6285443940978439 Eh
Relativity type    :
Basis              : AO
                                X                 Y                 Z
Electronic contribution:     -2.754070769       1.048353124       4.111071788
Nuclear contribution   :      2.976164874      -2.049545280      -3.930862748
                        -----------------------------------------
Total Dipole Moment    :      0.222094105      -1.001192156       0.180209041
                        -----------------------------------------
Magnitude (a.u.)       :      1.041242922
Magnitude (Debye)      :      2.646629177

Rotational constants in cm-1:             0.013406             0.004868             0.004818
Rotational constants in MHz :           401.905285           145.934271           144.425028

                             ****ORCA TERMINATED NORMALLY****
TOTAL RUN TIME: 0 days 0 hours 0 minutes 21 seconds 102 msec
