                         Program Version 6.0.0  -   RELEASE  -
|  1> ! r2scan-3c def2/J RI DEFGRID2 scfconv6 printgap
|  2> %output
|  3>     printlevel normal
|  4> end
|  5> * xyz 0 1
|  6> C -2.9271091155 -0.3473404666 0.0001830719
|  7> C -2.6775817568 1.0346951024 5.53398e-05
|  8> C -1.3952585275 1.5069950878 -0.0001201715
|  9> C -0.2987441447 0.6180476538 -0.000183528
| 10> C 1.0311382193 1.0761336473 -0.0001330875
| 11> C 2.0803017277 0.1887718776 -2.2827e-06
| 12> C 1.8276966088 -1.1978786971 -4.54127e-05
| 13> C 0.5446147109 -1.6649675249 -0.0001353269
| 14> C -0.5523606259 -0.7793921932 -0.0001351941
| 15> C -1.8870574703 -1.2341937443 5.11508e-05
| 16> O 3.3502647496 0.6777710836 0.0002684618
| 17> H -3.9471089999 -0.7014718144 0.0003342017
| 18> H -3.5104789745 1.7220932436 8.74639e-05
| 19> H -1.1995119634 2.5694173815 -0.0001968514
| 20> H 1.2371493167 2.1355975226 -7.8841e-05
| 21> H 2.6594370347 -1.8878718493 6.7171e-05
| 22> H 0.3544942382 -2.728177883 -0.0001223231
| 23> H -2.0716386458 -2.2988134729 0.0001128105
| 24> H 3.9941741358 -0.0465992662 0.0010814016
| 25> *
| 26>
| 27>                          ****END OF INPUT****

CARTESIAN COORDINATES (ANGSTROEM)
---------------------------------
  C     -2.927109   -0.347340    0.000183
  C     -2.677582    1.034695    0.000055
  C     -1.395259    1.506995   -0.000120
  C     -0.298744    0.618048   -0.000184
  C      1.031138    1.076134   -0.000133
  C      2.080302    0.188772   -0.000002
  C      1.827697   -1.197879   -0.000045
  C      0.544615   -1.664968   -0.000135
  C     -0.552361   -0.779392   -0.000135
  C     -1.887057   -1.234194    0.000051
  O      3.350265    0.677771    0.000268
  H     -3.947109   -0.701472    0.000334
  H     -3.510479    1.722093    0.000087
  H     -1.199512    2.569417   -0.000197
  H      1.237149    2.135598   -0.000079
  H      2.659437   -1.887872    0.000067
  H      0.354494   -2.728178   -0.000122
  H     -2.071639   -2.298813    0.000113
  H      3.994174   -0.046599    0.001081

 Total Charge           Charge          ....    0
 Multiplicity           Mult            ....    1
 Number of Electrons    NEL             ....   76
 Basis Dimension        Dim             ....  254

ORBITAL ENERGIES
----------------

  NO   OCC          E(Eh)            E(eV)
   0   2.0000     -18.989661      -516.7349
   1   2.0000     -10.101006      -274.8623
   2   2.0000     -10.046890      -273.3898
   3   2.0000     -10.043971      -273.3103
   4   2.0000     -10.043303      -273.2922
   5   2.0000     -10.042527      -273.2711
   6   2.0000     -10.035807      -273.0882
   7   2.0000     -10.034715      -273.0585
   8   2.0000     -10.033297      -273.0199
   9   2.0000     -10.032117      -272.9878
  10   2.0000     -10.030104      -272.9330
  11   2.0000      -1.033176       -28.1142
  12   2.0000      -0.846073       -23.0228
  13   2.0000      -0.791520       -21.5384
  14   2.0000      -0.745655       -20.2903
  15   2.0000      -0.710727       -19.3399
  16   2.0000      -0.692202       -18.8358
  17   2.0000      -0.602032       -16.3821
  18   2.0000      -0.593847       -16.1594
  19   2.0000      -0.570326       -15.5193
  20   2.0000      -0.526422       -14.3247
  21   2.0000      -0.487696       -13.2709
  22   2.0000      -0.474217       -12.9041
  23   2.0000      -0.443694       -12.0735
  24   2.0000      -0.419513       -11.4155
  25   2.0000      -0.398959       -10.8562
  26   2.0000      -0.396227       -10.7819
  27   2.0000      -0.390385       -10.6229
  28   2.0000      -0.384947       -10.4749
  29   2.0000      -0.366139        -9.9631
  30   2.0000      -0.351822        -9.5736
  31   2.0000      -0.332266        -9.0414
  32   2.0000      -0.317069        -8.6279
  33   2.0000      -0.300864        -8.1869
  34   2.0000      -0.291285        -7.9263
  35   2.0000      -0.264996        -7.2109
  36   2.0000      -0.222747        -6.0613
  37   2.0000      -0.193664        -5.2699
  38   0.0000      -0.065781        -1.7900
  39   0.0000      -0.029316        -0.7977
  40   0.0000      -0.003141        -0.0855
  41   0.0000       0.052895         1.4394
  42   0.0000       0.072480         1.9723

MULLIKEN ATOMIC CHARGES
-----------------------
   0 C :   -0.162522
   1 C :   -0.138094
   2 C :   -0.252820
   3 C :    0.214780
   4 C :   -0.405998
   5 C :    0.438144
   6 C :   -0.335068
   7 C :   -0.209998
   8 C :    0.157880
   9 C :   -0.221121
  10 O :   -0.409792
  11 H :    0.145059
  12 H :    0.145328
  13 H :    0.143175
  14 H :    0.153597
  15 H :    0.136868
  16 H :    0.145084
  17 H :    0.142102
  18 H :    0.313397
Sum of atomic charges:   -0.0000000

LOEWDIN ATOMIC CHARGES
----------------------
   0 C :   -0.175209
   1 C :   -0.160804
   2 C :   -0.151053
   3 C :   -0.047532
   4 C :   -0.132233
   5 C :    0.182359
   6 C :   -0.161121
   7 C :   -0.130192
   8 C :   -0.071751
   9 C :   -0.142524
  10 O :   -0.494425
  11 H :    0.167118
  12 H :    0.167597
  13 H :    0.170597
  14 H :    0.183305
  15 H :    0.169445
  16 H :    0.172216
  17 H :    0.169712
  18 H :    0.284495

  Mayer bond orders larger than 0.100000
B(  0-C ,  1-C ) :   1.2724 B(  0-C ,  9-C ) :   1.5143 B(  0-C , 11-H ) :   0.9489
B(  1-C ,  2-C ) :   1.5137 B(  1-C , 12-H ) :   0.9479 B(  2-C ,  3-C ) :   1.1958
B(  2-C , 13-H ) :   0.9558 B(  3-C ,  4-C ) :   1.1827 B(  3-C ,  8-C ) :   1.4658
B(  4-C ,  5-C ) :   1.5229 B(  4-C , 10-O ) :   0.1324 B(  4-C , 14-H ) :   0.9467
B(  5-C ,  6-C ) :   1.2019 B(  5-C , 10-O ) :   0.9016 B(  6-C ,  7-C ) :   1.5173
B(  6-C , 15-H ) :   0.9287 B(  7-C ,  8-C ) :   1.2298 B(  7-C , 16-H ) :   0.9403
B(  8-C ,  9-C ) :   1.2074 B(  9-C , 17-H ) :   0.9518 B( 10-O , 18-H ) :   0.8808

Dispersion correction           -0.007419709
FINAL SINGLE POINT ENERGY      -461.004493373659

DIPOLE MOMENT
-------------

Method             : SCF
Type of density    : Electron Density
Multiplicity       :   1
Irrep              :   0
Energy             :  -461.0019007528474049 Eh
Relativity type    :
Basis              : AO
                                X                 Y                 Z
Electronic contribution:      2.572194662       0.611685621      -0.000644591
Nuclear contribution   :     -2.280315068      -1.149378592       0.001209557
                        -----------------------------------------
Total Dipole Moment    :      0.291879594      -0.537692971       0.000564966
                        -----------------------------------------
Magnitude (a.u.)       :      0.611806953
Magnitude (Debye)      :      1.555089689

Rotational constants in cm-1:             0.096265             0.027784             0.021561
Rotational constants in MHz :          2885.941724           832.951980           646.388709

                             ****ORCA TERMINATED NORMALLY****
TOTAL RUN TIME: 0 days 0 hours 0 minutes 32 seconds 813 msec
