                         Program Version 6.0.0  -   RELEASE  -
|  1> ! r2scan-3c def2/J RI DEFGRID2 scfconv6 printgap
|  2> %output
|  3>     printlevel normal
|  4> end
|  5> %cpcm
|  6>     smd true
|  7>     smdsolvent "water"
|  8> end
|  9> * xyz 0 1
| 10> C -2.9271091155 -0.3473404666 0.0001830719
| 11> C -2.6775817568 1.0346951024 5.53398e-05
| 12> C -1.3952585275 1.5069950878 -0.0001201715
| 13> C -0.2987441447 0.6180476538 -0.000183528
| 14> C 1.0311382193 1.0761336473 -0.0001330875
| 15> C 2.0803017277 0.1887718776 -2.2827e-06
| 16> C 1.8276966088 -1.1978786971 -4.54127e-05
| 17> C 0.5446147109 -1.6649675249 -0.0001353269
| 18> C -0.5523606259 -0.7793921932 -0.0001351941
| 19> C -1.8870574703 -1.2341937443 5.11508e-05
| 20> O 3.3502647496 0.6777710836 0.0002684618
| 21> H -3.9471089999 -0.7014718144 0.0003342017
| 22> H -3.5104789745 1.7220932436 8.74639e-05
| 23> H -1.1995119634 2.5694173815 -0.0001968514
| 24> H 1.2371493167 2.1355975226 -7.8841e-05
| 25> H 2.6594370347 -1.8878718493 6.7171e-05
| 26> H 0.3544942382 -2.728177883 -0.0001223231
| 27> H -2.0716386458 -2.2988134729 0.0001128105
| 28> H 3.9941741358 -0.0465992662 0.0010814016
| 29> *
| 30>
| 31>                          ****END OF INPUT****

CARTESIAN COORDINATES (ANGSTROEM)
---------------------------------
  C     -2.927109   -0.347340    0.000183
  C     -2.677582    1.034695    0.000055
  C     -1.395259    1.506995   -0.000120
  C     -0.298744    0.618048   -0.000184
  C      1.031138    1.076134   -0.000133
  C      2.080302    0.188772   -0.000002
  C      1.827697   -1.197879   -0.000045
  C      0.544615   -1.664968   -0.000135
  C     -0.552361   -0.779392   -0.000135
  C     -1.887057   -1.234194    0.000051
  O      3.350265    0.677771    0.000268
  H     -3.947109   -0.701472    0.000334
  H     -3.510479    1.722093    0.000087
  H     -1.199512    2.569417   -0.000197
  H      1.237149    2.135598   -0.000079
  H      2.659437   -1.887872    0.000067
  H      0.354494   -2.728178   -0.000122
  H     -2.071639   -2.298813    0.000113
  H      3.994174   -0.046599    0.001081

 Total Charge           Charge          ....    0
 Multiplicity           Mult            ....    1
 Number of Electrons    NEL             ....   76
 Basis Dimension        Dim             ....  254

ORBITAL ENERGIES
----------------

  NO   OCC          E(Eh)            E(eV)
   0   2.0000     -18.985021      -516.6087
   1   2.0000     -10.100165      -274.8395
   2   2.0000     -10.048470      -273.4328
   3   2.0000     -10.043116      -273.2871
   4   2.0000     -10.039772      -273.1961
   5   2.0000     -10.037402      -273.1316
   6   2.0000     -10.034578      -273.0547
   7   2.0000     -10.033765      -273.0326
   8   2.0000     -10.032807      -273.0066
   9   2.0000     -10.030934      -272.9556
  10   2.0000     -10.029704      -272.9221
  11   2.0000      -1.028438       -27.9852
  12   2.0000      -0.847180       -23.0529
  13   2.0000      -0.791103       -21.5270
  14   2.0000      -0.745397       -20.2833
  15   2.0000      -0.709664       -19.3109
  16   2.0000      -0.691133       -18.8067
  17   2.0000      -0.598878       -16.2963
  18   2.0000      -0.591217       -16.0878
  19   2.0000      -0.568195       -15.4614
  20   2.0000      -0.521901       -14.2016
  21   2.0000      -0.483691       -13.1619
  22   2.0000      -0.470836       -12.8121
  23   2.0000      -0.440285       -11.9808
  24   2.0000      -0.414931       -11.2908
  25   2.0000      -0.397353       -10.8125
  26   2.0000      -0.392182       -10.6718
  27   2.0000      -0.391920       -10.6647
  28   2.0000      -0.381987       -10.3944
  29   2.0000      -0.362475        -9.8635
  30   2.0000      -0.354763        -9.6536
  31   2.0000      -0.329995        -8.9796
  32   2.0000      -0.314214        -8.5502
  33   2.0000      -0.297222        -8.0878
  34   2.0000      -0.292882        -7.9697
  35   2.0000      -0.268409        -7.3038
  36   2.0000      -0.224271        -6.1027
  37   2.0000      -0.196184        -5.3384
  38   0.0000      -0.066788        -1.8174
  39   0.0000      -0.031555        -0.8586
  40   0.0000      -0.005132        -0.1397
  41   0.0000       0.072278         1.9668
  42   0.0000       0.080860         2.2003

MULLIKEN ATOMIC CHARGES
-----------------------
   0 C :   -0.200269
   1 C :   -0.172426
   2 C :   -0.273871
   3 C :    0.161535
   4 C :   -0.425799
   5 C :    0.395526
   6 C :   -0.327704
   7 C :   -0.220609
   8 C :    0.116834
   9 C :   -0.235871
  10 O :   -0.452386
  11 H :    0.177334
  12 H :    0.178051
  13 H :    0.177239
  14 H :    0.183534
  15 H :    0.186000
  16 H :    0.181570
  17 H :    0.177782
  18 H :    0.373529
Sum of atomic charges:   -0.0000000

LOEWDIN ATOMIC CHARGES
----------------------
   0 C :   -0.187139
   1 C :   -0.171884
   2 C :   -0.162057
   3 C :   -0.063899
   4 C :   -0.149168
   5 C :    0.174205
   6 C :   -0.152251
   7 C :   -0.136362
   8 C :   -0.087201
   9 C :   -0.150355
  10 O :   -0.508324
  11 H :    0.177743
  12 H :    0.178464
  13 H :    0.182078
  14 H :    0.192229
  15 H :    0.188997
  16 H :    0.185494
  17 H :    0.182441
  18 H :    0.306989

  Mayer bond orders larger than 0.100000
B(  0-C ,  1-C ) :   1.2361 B(  0-C ,  9-C ) :   1.4742 B(  0-C , 11-H ) :   0.9621
B(  1-C ,  2-C ) :   1.4763 B(  1-C , 12-H ) :   0.9596 B(  2-C ,  3-C ) :   1.1870
B(  2-C , 13-H ) :   0.9654 B(  3-C ,  4-C ) :   1.2036 B(  3-C ,  8-C ) :   1.3739
B(  4-C ,  5-C ) :   1.4611 B(  4-C , 10-O ) :   0.1228 B(  4-C , 14-H ) :   0.9535
B(  5-C ,  6-C ) :   1.2006 B(  5-C , 10-O ) :   0.9185 B(  6-C ,  7-C ) :   1.4699
B(  6-C , 15-H ) :   0.9529 B(  7-C ,  8-C ) :   1.2101 B(  7-C , 16-H ) :   0.9577
B(  8-C ,  9-C ) :   1.2045 B(  9-C , 17-H ) :   0.9605 B( 10-O , 18-H ) :   0.8482

Dispersion correction           -0.007419709
FINAL SINGLE POINT ENERGY      -461.015633409660

DIPOLE MOMENT
-------------

Method             : SCF
Type of density    : Electron Density
Multiplicity       :   1
Irrep              :   0
Energy             :  -461.0130407888476611 Eh
Relativity type    :
Basis              : AO
                                X                 Y                 Z
Electronic contribution:      2.768267516       0.314585039      -0.000415432
Nuclear contribution   :     -2.280315068      -1.149378592       0.001209557
                        -----------------------------------------
Total Dipole Moment    :      0.487952448      -0.834793553       0.000794125
                        -----------------------------------------
Magnitude (a.u.)       :      0.966942862
Magnitude (Debye)      :      2.457773432

Rotational constants in cm-1:             0.096265             0.027784             0.021561
Rotational constants in MHz :          2885.941724           832.951980           646.388709

                             ****ORCA TERMINATED NORMALLY****
TOTAL RUN TIME: 0 days 0 hours 0 minutes 40 seconds 432 msec
