                         Program Version 6.0.0  -   RELEASE  -
|  1> ! pbe def2-sv(p) def2/J RI DEFGRID1 loosescf d4 GCP(DFT/SV(P)) printgap
|  2> %output
|  3>     printlevel normal
|  4> end
|  5> * xyz 0 1
|  6> C 5.6900431862 -0.9433718296 0.0646912641
|  7> C 4.9358812049 -0.7558411992 -1.2352165801
|  8> O 3.5344145609 -1.0731189499 -1.1037439594
|  9> P 2.5470691089 -0.1971812409 -0.2300705633
| 10> S 2.8654642941 1.7409356751 -0.2487142576
| 11> O 2.6849364689 -0.8813439497 1.1995603421
| 12> C 2.2430463715 -0.2558572863 2.4156713417
| 13> C 0.7607452108 -0.466700276 2.6488677682
| 14> S 0.7340485885 -0.9163776943 -1.061648641
| 15> C 0.0190264595 0.6715436345 -1.5760839169
| 16> S -0.8955967307 1.5155293928 -0.2608502398
| 17> P -2.5817004914 0.2398087164 -0.3109347617
| 18> S -3.2614379091 -0.2327753156 -2.0802296318
| 19> O -3.683497305 0.9620655984 0.5665603888
| 20> C -3.5028126354 1.2903933939 1.9677947667
| 21> C -3.0735984047 2.7338570065 2.1355403646
| 22> O -2.0226236707 -0.9776985473 0.564454208
| 23> C -2.4639844959 -2.3308810365 0.3572633438
| 24> C -3.8558781984 -2.5442566285 0.9167753871
| 25> H 5.509273927 -1.9383873414 0.4626592909
| 26> H 6.7525924038 -0.8125286527 -0.1152317752
| 27> H 5.3616662131 -0.2053672626 0.7949924613
| 28> H 5.2845599658 -1.4419956326 -2.0081995977
| 29> H 5.0239074423 0.2770716067 -1.5869489803
| 30> H 2.839836066 -0.733485361 3.1945532432
| 31> H 2.4818806616 0.8121378983 2.3673753712
| 32> H 0.1814777718 0.0485606971 1.884961697
| 33> H 0.5225542715 -1.5265223354 2.6123398063
| 34> H 0.4918097775 -0.068698536 3.6221027062
| 35> H -0.6644002964 0.4590565928 -2.3984787
| 36> H 0.8139043544 1.3503635701 -1.8816426237
| 37> H -4.4850589875 1.1175884577 2.4109533535
| 38> H -2.7717035264 0.6047134536 2.4022384462
| 39> H -2.0915696445 2.8963678492 1.695644789
| 40> H -3.7862861796 3.3930648253 1.6478690331
| 41> H -3.0326195082 2.9705059965 3.1941088615
| 42> H -2.4395399724 -2.546346665 -0.7154240911
| 43> H -1.717113446 -2.9387087468 0.8693263509
| 44> H -4.5626704373 -1.9018505883 0.3916671324
| 45> H -4.1476851211 -3.5797121623 0.7730032371
| 46> H -3.880583963 -2.3062943245 1.9769028044
| 47> *
| 48>
| 49>                          ****END OF INPUT****

CARTESIAN COORDINATES (ANGSTROEM)
---------------------------------
  C      5.690043   -0.943372    0.064691
  C      4.935881   -0.755841   -1.235217
  O      3.534415   -1.073119   -1.103744
  P      2.547069   -0.197181   -0.230071
  S      2.865464    1.740936   -0.248714
  O      2.684936   -0.881344    1.199560
  C      2.243046   -0.255857    2.415671
  C      0.760745   -0.466700    2.648868
  S      0.734049   -0.916378   -1.061649
  C      0.019026    0.671544   -1.576084
  S     -0.895597    1.515529   -0.260850
  P     -2.581700    0.239809   -0.310935
  S     -3.261438   -0.232775   -2.080230
  O     -3.683497    0.962066    0.566560
  C     -3.502813    1.290393    1.967795
  C     -3.073598    2.733857    2.135540
  O     -2.022624   -0.977699    0.564454
  C     -2.463984   -2.330881    0.357263
  C     -3.855878   -2.544257    0.916775
  H      5.509274   -1.938387    0.462659
  H      6.752592   -0.812529   -0.115232
  H      5.361666   -0.205367    0.794992
  H      5.284560   -1.441996   -2.008200
  H      5.023907    0.277072   -1.586949
  H      2.839836   -0.733485    3.194553
  H      2.481881    0.812138    2.367375
  H      0.181478    0.048561    1.884962
  H      0.522554   -1.526522    2.612340
  H      0.491810   -0.068699    3.622103
  H     -0.664400    0.459057   -2.398479
  H      0.813904    1.350364   -1.881643
  H     -4.485059    1.117588    2.410953
  H     -2.771704    0.604713    2.402238
  H     -2.091570    2.896368    1.695645
  H     -3.786286    3.393065    1.647869
  H     -3.032620    2.970506    3.194109
  H     -2.439540   -2.546347   -0.715424
  H     -1.717113   -2.938709    0.869326
  H     -4.562670   -1.901851    0.391667
  H     -4.147685   -3.579712    0.773003
  H     -3.880584   -2.306294    1.976903

 Total Charge           Charge          ....    0
 Multiplicity           Mult            ....    1
 Number of Electrons    NEL             ....  202
 Basis Dimension        Dim             ....  334

ORBITAL ENERGIES
----------------

  NO   OCC          E(Eh)            E(eV)
   0   2.0000     -88.043246     -2395.7785
   1   2.0000     -88.040604     -2395.7066
   2   2.0000     -87.994731     -2394.4584
   3   2.0000     -87.987216     -2394.2539
   4   2.0000     -76.428190     -2079.7168
   5   2.0000     -76.426750     -2079.6776
   6   2.0000     -18.798148      -511.5236
   7   2.0000     -18.793456      -511.3959
   8   2.0000     -18.792758      -511.3769
   9   2.0000     -18.790483      -511.3150
  10   2.0000      -9.962723      -271.0995
  11   2.0000      -9.953473      -270.8478
  12   2.0000      -9.952346      -270.8171
  13   2.0000      -9.952281      -270.8153
  14   2.0000      -9.951033      -270.7814
  15   2.0000      -9.892670      -269.1932
  16   2.0000      -9.886807      -269.0337
  17   2.0000      -9.885729      -269.0044
  18   2.0000      -9.881385      -268.8862
  19   2.0000      -7.687817      -209.1961
  20   2.0000      -7.685878      -209.1434
  21   2.0000      -7.639582      -207.8836
  22   2.0000      -7.632469      -207.6900
  23   2.0000      -6.426091      -174.8628
  24   2.0000      -6.424722      -174.8256
  25   2.0000      -5.715542      -155.5278
  26   2.0000      -5.713771      -155.4796
  27   2.0000      -5.712473      -155.4443
  28   2.0000      -5.710555      -155.3921
  29   2.0000      -5.704838      -155.2365
  30   2.0000      -5.702592      -155.1754
  31   2.0000      -5.668304      -154.2424
  32   2.0000      -5.661513      -154.0576
  33   2.0000      -5.660296      -154.0245
  34   2.0000      -5.659871      -154.0129
  35   2.0000      -5.653050      -153.8273
  36   2.0000      -5.652484      -153.8119
  37   2.0000      -4.648325      -126.4873
  38   2.0000      -4.647790      -126.4728
  39   2.0000      -4.647713      -126.4707
  40   2.0000      -4.646866      -126.4477
  41   2.0000      -4.646057      -126.4256
  42   2.0000      -4.645169      -126.4015
  43   2.0000      -0.988559       -26.9001
  44   2.0000      -0.987707       -26.8769
  45   2.0000      -0.947543       -25.7839
  46   2.0000      -0.946508       -25.7558
  47   2.0000      -0.763666       -20.7804
  48   2.0000      -0.724669       -19.7193
  49   2.0000      -0.711413       -19.3585
  50   2.0000      -0.693983       -18.8842
  51   2.0000      -0.687871       -18.7179
  52   2.0000      -0.675299       -18.3758
  53   2.0000      -0.653589       -17.7851
  54   2.0000      -0.640332       -17.4243
  55   2.0000      -0.604772       -16.4567
  56   2.0000      -0.591773       -16.1029
  57   2.0000      -0.582538       -15.8517
  58   2.0000      -0.572186       -15.5700
  59   2.0000      -0.558296       -15.1920
  60   2.0000      -0.503346       -13.6967
  61   2.0000      -0.495091       -13.4721
  62   2.0000      -0.481912       -13.1135
  63   2.0000      -0.475535       -12.9400
  64   2.0000      -0.459380       -12.5004
  65   2.0000      -0.449671       -12.2362
  66   2.0000      -0.440141       -11.9769
  67   2.0000      -0.439350       -11.9553
  68   2.0000      -0.430978       -11.7275
  69   2.0000      -0.414881       -11.2895
  70   2.0000      -0.404616       -11.0102
  71   2.0000      -0.400249       -10.8913
  72   2.0000      -0.395016       -10.7489
  73   2.0000      -0.391355       -10.6493
  74   2.0000      -0.380585       -10.3562
  75   2.0000      -0.374913       -10.2019
  76   2.0000      -0.370782       -10.0895
  77   2.0000      -0.360829        -9.8187
  78   2.0000      -0.358710        -9.7610
  79   2.0000      -0.356045        -9.6885
  80   2.0000      -0.350632        -9.5412
  81   2.0000      -0.347472        -9.4552
  82   2.0000      -0.346475        -9.4281
  83   2.0000      -0.340403        -9.2628
  84   2.0000      -0.336201        -9.1485
  85   2.0000      -0.322273        -8.7695
  86   2.0000      -0.314920        -8.5694
  87   2.0000      -0.305929        -8.3247
  88   2.0000      -0.295394        -8.0381
  89   2.0000      -0.286749        -7.8028
  90   2.0000      -0.282780        -7.6948
  91   2.0000      -0.275397        -7.4939
  92   2.0000      -0.274329        -7.4649
  93   2.0000      -0.272595        -7.4177
  94   2.0000      -0.261533        -7.1167
  95   2.0000      -0.230333        -6.2677
  96   2.0000      -0.218976        -5.9586
  97   2.0000      -0.215506        -5.8642
  98   2.0000      -0.208959        -5.6861
  99   2.0000      -0.206285        -5.6133
 100   2.0000      -0.200846        -5.4653
 101   0.0000      -0.044176        -1.2021
 102   0.0000      -0.027291        -0.7426
 103   0.0000      -0.007417        -0.2018
 104   0.0000       0.004604         0.1253
 105   0.0000       0.010326         0.2810

MULLIKEN ATOMIC CHARGES
-----------------------
   0 C :   -0.307673
   1 C :   -0.002463
   2 O :   -0.367590
   3 P :    0.619398
   4 S :   -0.335747
   5 O :   -0.371007
   6 C :   -0.004959
   7 C :   -0.336187
   8 S :   -0.075752
   9 C :   -0.351172
  10 S :   -0.097927
  11 P :    0.618670
  12 S :   -0.310132
  13 O :   -0.366147
  14 C :   -0.033908
  15 C :   -0.301085
  16 O :   -0.378910
  17 C :   -0.006907
  18 C :   -0.311414
  19 H :    0.118427
  20 H :    0.112503
  21 H :    0.121957
  22 H :    0.107904
  23 H :    0.111920
  24 H :    0.102363
  25 H :    0.107835
  26 H :    0.156189
  27 H :    0.112570
  28 H :    0.103517
  29 H :    0.192097
  30 H :    0.195035
  31 H :    0.112663
  32 H :    0.116552
  33 H :    0.138198
  34 H :    0.126009
  35 H :    0.112847
  36 H :    0.113102
  37 H :    0.105999
  38 H :    0.128789
  39 H :    0.114504
  40 H :    0.109935
Sum of atomic charges:    0.0000000

LOEWDIN ATOMIC CHARGES
----------------------
   0 C :   -0.364709
   1 C :   -0.114718
   2 O :   -0.244027
   3 P :    0.572767
   4 S :   -0.314680
   5 O :   -0.243136
   6 C :   -0.119709
   7 C :   -0.371509
   8 S :    0.092551
   9 C :   -0.483352
  10 S :    0.096162
  11 P :    0.570553
  12 S :   -0.306369
  13 O :   -0.241297
  14 C :   -0.117094
  15 C :   -0.360743
  16 O :   -0.248221
  17 C :   -0.122630
  18 C :   -0.364545
  19 H :    0.127253
  20 H :    0.130542
  21 H :    0.122628
  22 H :    0.120427
  23 H :    0.111634
  24 H :    0.116685
  25 H :    0.107440
  26 H :    0.113920
  27 H :    0.123721
  28 H :    0.126656
  29 H :    0.129808
  30 H :    0.130332
  31 H :    0.122274
  32 H :    0.111510
  33 H :    0.120448
  34 H :    0.131987
  35 H :    0.131886
  36 H :    0.109439
  37 H :    0.117075
  38 H :    0.125627
  39 H :    0.131804
  40 H :    0.121610

  Mayer bond orders larger than 0.100000
B(  0-C ,  1-C ) :   1.1629 B(  0-C , 19-H ) :   0.9458 B(  0-C , 20-H ) :   0.9383
B(  0-C , 21-H ) :   0.9386 B(  1-C ,  2-O ) :   0.9110 B(  1-C , 22-H ) :   0.9354
B(  1-C , 23-H ) :   0.9192 B(  2-O ,  3-P ) :   1.1356 B(  3-P ,  4-S ) :   1.5950
B(  3-P ,  5-O ) :   1.1049 B(  3-P ,  8-S ) :   0.9613 B(  4-S ,  8-S ) :   0.1139
B(  5-O ,  6-C ) :   0.9110 B(  6-C ,  7-C ) :   1.1636 B(  6-C , 24-H ) :   0.9338
B(  6-C , 25-H ) :   0.9094 B(  7-C , 26-H ) :   0.9190 B(  7-C , 27-H ) :   0.9445
B(  7-C , 28-H ) :   0.9386 B(  8-S ,  9-C ) :   1.0122 B(  9-C , 10-S ) :   1.0027
B(  9-C , 29-H ) :   0.8697 B(  9-C , 30-H ) :   0.8754 B( 10-S , 11-P ) :   0.9614
B( 11-P , 12-S ) :   1.6345 B( 11-P , 13-O ) :   1.1282 B( 11-P , 16-O ) :   1.0724
B( 13-O , 14-C ) :   0.8975 B( 14-C , 15-C ) :   1.1685 B( 14-C , 31-H ) :   0.9334
B( 14-C , 32-H ) :   0.9137 B( 15-C , 33-H ) :   0.9334 B( 15-C , 34-H ) :   0.9456
B( 15-C , 35-H ) :   0.9381 B( 16-O , 17-C ) :   0.9046 B( 17-C , 18-C ) :   1.1609
B( 17-C , 36-H ) :   0.9115 B( 17-C , 37-H ) :   0.9316 B( 18-C , 38-H ) :   0.9363
B( 18-C , 39-H ) :   0.9405 B( 18-C , 40-H ) :   0.9477

Dispersion correction           -0.064809590
FINAL SINGLE POINT ENERGY     -2929.522644791311

DIPOLE MOMENT
-------------

Method             : SCF
Type of density    : Electron Density
Multiplicity       :   1
Irrep              :   0
Energy             : -2929.6432269834585895 Eh
Relativity type    :
Basis              : AO
                                X                 Y                 Z
Electronic contribution:     -1.195932853       5.199191583     -19.154268563
Nuclear contribution   :      1.634781821      -5.823406861      20.866866819
                        -----------------------------------------
Total Dipole Moment    :      0.438848969      -0.624215278       1.712598256
                        -----------------------------------------
Magnitude (a.u.)       :      1.874893575
Magnitude (Debye)      :      4.765600738

Rotational constants in cm-1:             0.013475             0.004455             0.004313
Rotational constants in MHz :           403.962035           133.556490           129.297591

                             ****ORCA TERMINATED NORMALLY****
TOTAL RUN TIME: 0 days 0 hours 0 minutes 21 seconds 225 msec
