                         Program Version 6.0.0  -   RELEASE  -
|  1> ! wb97x-v def2-tzvp def2/J RIJCOSX DEFGRID2 scfconv7 GCP(DFT/TZ) printgap
|  2> %output
|  3>     printlevel normal
|  4> end
|  5> * xyz 0 1
|  6> C 2.3947807208498335 -6.446700651422978e-05 0.054115912540762603
|  7> N 0.9988147597744009 -2.677067701953035e-05 -0.38700541375410047
|  8> C 0.322406908523881 1.192811966708423 0.14748373179001154
|  9> C -1.153647002807509 1.2002670134841387 -0.22183674661957
| 10> N -1.8782067028006633 7.247921804902653e-06 0.2366228579417387
| 11> C -1.1536886621036258 -1.200255591287282 -0.22189571919517168
| 12> C 0.32236637982540545 -1.1928700036771576 0.14742175501081997
| 13> H 2.908591519609009 0.8871974684878298 -0.330615011300119
| 14> H 2.908594834431642 -0.8872652966712755 -0.33075364878013824
| 15> H 2.4886074230422444 -0.00015013453199270565 1.155873868859234
| 16> H 0.4176368765031039 1.233659016213583 1.2520490947272038
| 17> H 0.811368664709148 2.0884905761751322 -0.25497765465081035
| 18> H -1.6258155151151152 2.089179445350746 0.2093787620949467
| 19> H -1.2620080057197534 1.2721242616747683 -1.3114048384459371
| 20> H -1.8208086497995113 -1.8917375982902864e-05 1.254512487760108
| 21> H -1.625885917531443 -2.0891718887178046 0.20928061218871358
| 22> H -1.2620566296640976 -1.272059319866362 -1.3114665494694866
| 23> H 0.41759664661517687 -1.2337749668381779 1.2519848184847613
| 24> H 0.8112977050400756 -2.088545175526763 -0.2550842679340347
| 25> *
| 26>
| 27>                          ****END OF INPUT****

CARTESIAN COORDINATES (ANGSTROEM)
---------------------------------
  C      2.394781   -0.000064    0.054116
  N      0.998815   -0.000027   -0.387005
  C      0.322407    1.192812    0.147484
  C     -1.153647    1.200267   -0.221837
  N     -1.878207    0.000007    0.236623
  C     -1.153689   -1.200256   -0.221896
  C      0.322366   -1.192870    0.147422
  H      2.908592    0.887197   -0.330615
  H      2.908595   -0.887265   -0.330754
  H      2.488607   -0.000150    1.155874
  H      0.417637    1.233659    1.252049
  H      0.811369    2.088491   -0.254978
  H     -1.625816    2.089179    0.209379
  H     -1.262008    1.272124   -1.311405
  H     -1.820809   -0.000019    1.254512
  H     -1.625886   -2.089172    0.209281
  H     -1.262057   -1.272059   -1.311467
  H      0.417597   -1.233775    1.251985
  H      0.811298   -2.088545   -0.255084

 Total Charge           Charge          ....    0
 Multiplicity           Mult            ....    1
 Number of Electrons    NEL             ....   56
 Basis Dimension        Dim             ....  289

ORBITAL ENERGIES
----------------

  NO   OCC          E(Eh)            E(eV)
   0   2.0000     -16.521814      -449.5814
   1   2.0000     -16.510519      -449.2741
   2   2.0000     -12.066422      -328.3440
   3   2.0000     -12.066147      -328.3366
   4   2.0000     -12.063865      -328.2745
   5   2.0000     -12.063770      -328.2719
   6   2.0000     -12.062514      -328.2377
   7   2.0000      -1.496888       -40.7324
   8   2.0000      -1.456518       -39.6339
   9   2.0000      -1.274415       -34.6786
  10   2.0000      -1.228749       -33.4359
  11   2.0000      -1.141550       -31.0632
  12   2.0000      -1.137847       -30.9624
  13   2.0000      -1.047919       -28.5153
  14   2.0000      -0.957607       -26.0578
  15   2.0000      -0.939963       -25.5777
  16   2.0000      -0.927084       -25.2272
  17   2.0000      -0.904571       -24.6146
  18   2.0000      -0.901813       -24.5396
  19   2.0000      -0.873362       -23.7654
  20   2.0000      -0.834877       -22.7181
  21   2.0000      -0.821925       -22.3657
  22   2.0000      -0.818777       -22.2801
  23   2.0000      -0.788577       -21.4583
  24   2.0000      -0.786798       -21.4099
  25   2.0000      -0.785470       -21.3737
  26   2.0000      -0.721931       -19.6447
  27   2.0000      -0.688681       -18.7399
  28   0.0000      -0.118496        -3.2245
  29   0.0000      -0.064698        -1.7605
  30   0.0000      -0.063630        -1.7315
  31   0.0000      -0.052474        -1.4279
  32   0.0000      -0.045444        -1.2366

MULLIKEN ATOMIC CHARGES
-----------------------
   0 C :   -0.274156
   1 N :   -0.131227
   2 C :   -0.164256
   3 C :   -0.122934
   4 N :   -0.284715
   5 C :   -0.122941
   6 C :   -0.164249
   7 H :    0.116295
   8 H :    0.116296
   9 H :    0.093288
  10 H :    0.078699
  11 H :    0.100963
  12 H :    0.109740
  13 H :    0.092890
  14 H :    0.174020
  15 H :    0.109738
  16 H :    0.092889
  17 H :    0.078700
  18 H :    0.100961
Sum of atomic charges:   -0.0000000

LOEWDIN ATOMIC CHARGES
----------------------
   0 C :   -0.320990
   1 N :    0.056199
   2 C :   -0.294463
   3 C :   -0.306218
   4 N :   -0.026481
   5 C :   -0.306218
   6 C :   -0.294463
   7 H :    0.112349
   8 H :    0.112349
   9 H :    0.098485
  10 H :    0.114740
  11 H :    0.130311
  12 H :    0.128020
  13 H :    0.131127
  14 H :    0.161054
  15 H :    0.128020
  16 H :    0.131127
  17 H :    0.114739
  18 H :    0.130312

  Mayer bond orders larger than 0.100000
B(  0-C ,  1-N ) :   0.9862 B(  0-C ,  7-H ) :   0.9799 B(  0-C ,  8-H ) :   0.9799
B(  0-C ,  9-H ) :   0.9779 B(  1-N ,  2-C ) :   0.9728 B(  1-N ,  6-C ) :   0.9728
B(  2-C ,  3-C ) :   0.9909 B(  2-C , 10-H ) :   0.9707 B(  2-C , 11-H ) :   0.9616
B(  3-C ,  4-N ) :   1.0306 B(  3-C , 12-H ) :   0.9843 B(  3-C , 13-H ) :   0.9730
B(  4-N ,  5-C ) :   1.0306 B(  4-N , 14-H ) :   0.9368 B(  5-C ,  6-C ) :   0.9909
B(  5-C , 15-H ) :   0.9843 B(  5-C , 16-H ) :   0.9730 B(  6-C , 17-H ) :   0.9707
B(  6-C , 18-H ) :   0.9616

FINAL SINGLE POINT ENERGY      -307.255452074754

DIPOLE MOMENT
-------------

Method             : SCF
Type of density    : Electron Density
Multiplicity       :   1
Irrep              :   0
Energy             :  -307.2692558856541609 Eh
Relativity type    :
Basis              : AO
                                X                 Y                 Z
Electronic contribution:     -2.525527171       0.000077977      -1.187772859
Nuclear contribution   :      3.003658333      -0.000095479       1.633277123
                        -----------------------------------------
Total Dipole Moment    :      0.478131162      -0.000017502       0.445504265
                        -----------------------------------------
Magnitude (a.u.)       :      0.653516226
Magnitude (Debye)      :      1.661106236

Rotational constants in cm-1:             0.154817             0.077262             0.056589
Rotational constants in MHz :          4641.299626          2316.251195          1696.496995

                             ****ORCA TERMINATED NORMALLY****
TOTAL RUN TIME: 0 days 0 hours 2 minutes 28 seconds 324 msec
