                         Program Version 6.0.0  -   RELEASE  -
|  1> ! wb97x-v def2-tzvp def2/J RIJCOSX DEFGRID2 scfconv7 GCP(DFT/TZ) printgap
|  2> %output
|  3>     printlevel normal
|  4> end
|  5> %cpcm
|  6>     smd true
|  7>     smdsolvent "water"
|  8> end
|  9> * xyz 0 1
| 10> C 2.3947807208498335 -6.446700651422978e-05 0.054115912540762603
| 11> N 0.9988147597744009 -2.677067701953035e-05 -0.38700541375410047
| 12> C 0.322406908523881 1.192811966708423 0.14748373179001154
| 13> C -1.153647002807509 1.2002670134841387 -0.22183674661957
| 14> N -1.8782067028006633 7.247921804902653e-06 0.2366228579417387
| 15> C -1.1536886621036258 -1.200255591287282 -0.22189571919517168
| 16> C 0.32236637982540545 -1.1928700036771576 0.14742175501081997
| 17> H 2.908591519609009 0.8871974684878298 -0.330615011300119
| 18> H 2.908594834431642 -0.8872652966712755 -0.33075364878013824
| 19> H 2.4886074230422444 -0.00015013453199270565 1.155873868859234
| 20> H 0.4176368765031039 1.233659016213583 1.2520490947272038
| 21> H 0.811368664709148 2.0884905761751322 -0.25497765465081035
| 22> H -1.6258155151151152 2.089179445350746 0.2093787620949467
| 23> H -1.2620080057197534 1.2721242616747683 -1.3114048384459371
| 24> H -1.8208086497995113 -1.8917375982902864e-05 1.254512487760108
| 25> H -1.625885917531443 -2.0891718887178046 0.20928061218871358
| 26> H -1.2620566296640976 -1.272059319866362 -1.3114665494694866
| 27> H 0.41759664661517687 -1.2337749668381779 1.2519848184847613
| 28> H 0.8112977050400756 -2.088545175526763 -0.2550842679340347
| 29> *
| 30>
| 31>                          ****END OF INPUT****

CARTESIAN COORDINATES (ANGSTROEM)
---------------------------------
  C      2.394781   -0.000064    0.054116
  N      0.998815   -0.000027   -0.387005
  C      0.322407    1.192812    0.147484
  C     -1.153647    1.200267   -0.221837
  N     -1.878207    0.000007    0.236623
  C     -1.153689   -1.200256   -0.221896
  C      0.322366   -1.192870    0.147422
  H      2.908592    0.887197   -0.330615
  H      2.908595   -0.887265   -0.330754
  H      2.488607   -0.000150    1.155874
  H      0.417637    1.233659    1.252049
  H      0.811369    2.088491   -0.254978
  H     -1.625816    2.089179    0.209379
  H     -1.262008    1.272124   -1.311405
  H     -1.820809   -0.000019    1.254512
  H     -1.625886   -2.089172    0.209281
  H     -1.262057   -1.272059   -1.311467
  H      0.417597   -1.233775    1.251985
  H      0.811298   -2.088545   -0.255084

 Total Charge           Charge          ....    0
 Multiplicity           Mult            ....    1
 Number of Electrons    NEL             ....   56
 Basis Dimension        Dim             ....  289

ORBITAL ENERGIES
----------------

  NO   OCC          E(Eh)            E(eV)
   0   2.0000     -16.515929      -449.4213
   1   2.0000     -16.506727      -449.1709
   2   2.0000     -12.056798      -328.0821
   3   2.0000     -12.056478      -328.0734
   4   2.0000     -12.055007      -328.0334
   5   2.0000     -12.054945      -328.0317
   6   2.0000     -12.051221      -327.9304
   7   2.0000      -1.489885       -40.5418
   8   2.0000      -1.451214       -39.4895
   9   2.0000      -1.265780       -34.4436
  10   2.0000      -1.219939       -33.1962
  11   2.0000      -1.134046       -30.8590
  12   2.0000      -1.129151       -30.7258
  13   2.0000      -1.039638       -28.2900
  14   2.0000      -0.949867       -25.8472
  15   2.0000      -0.932451       -25.3733
  16   2.0000      -0.919290       -25.0152
  17   2.0000      -0.896711       -24.4007
  18   2.0000      -0.892595       -24.2887
  19   2.0000      -0.866676       -23.5835
  20   2.0000      -0.825649       -22.4671
  21   2.0000      -0.812727       -22.1154
  22   2.0000      -0.808368       -21.9968
  23   2.0000      -0.779996       -21.2248
  24   2.0000      -0.778750       -21.1909
  25   2.0000      -0.775294       -21.0968
  26   2.0000      -0.718564       -19.5531
  27   2.0000      -0.682831       -18.5808
  28   0.0000      -0.110307        -3.0016
  29   0.0000      -0.056714        -1.5433
  30   0.0000      -0.054848        -1.4925
  31   0.0000      -0.042215        -1.1487
  32   0.0000      -0.038721        -1.0536

MULLIKEN ATOMIC CHARGES
-----------------------
   0 C :   -0.316326
   1 N :   -0.191489
   2 C :   -0.178241
   3 C :   -0.130026
   4 N :   -0.378985
   5 C :   -0.130034
   6 C :   -0.178234
   7 H :    0.135857
   8 H :    0.135856
   9 H :    0.109909
  10 H :    0.096485
  11 H :    0.123848
  12 H :    0.127461
  13 H :    0.102529
  14 H :    0.221072
  15 H :    0.127459
  16 H :    0.102528
  17 H :    0.096487
  18 H :    0.123846
Sum of atomic charges:   -0.0000000

LOEWDIN ATOMIC CHARGES
----------------------
   0 C :   -0.326085
   1 N :    0.037201
   2 C :   -0.292766
   3 C :   -0.310703
   4 N :   -0.052546
   5 C :   -0.310702
   6 C :   -0.292766
   7 H :    0.115620
   8 H :    0.115619
   9 H :    0.103549
  10 H :    0.122332
  11 H :    0.134905
  12 H :    0.132620
  13 H :    0.129842
  14 H :    0.174182
  15 H :    0.132620
  16 H :    0.129842
  17 H :    0.122332
  18 H :    0.134905

  Mayer bond orders larger than 0.100000
B(  0-C ,  1-N ) :   0.9838 B(  0-C ,  7-H ) :   0.9749 B(  0-C ,  8-H ) :   0.9749
B(  0-C ,  9-H ) :   0.9797 B(  1-N ,  2-C ) :   0.9693 B(  1-N ,  6-C ) :   0.9693
B(  2-C ,  3-C ) :   0.9932 B(  2-C , 10-H ) :   0.9716 B(  2-C , 11-H ) :   0.9608
B(  3-C ,  4-N ) :   1.0154 B(  3-C , 12-H ) :   0.9764 B(  3-C , 13-H ) :   0.9750
B(  4-N ,  5-C ) :   1.0154 B(  4-N , 14-H ) :   0.9256 B(  5-C ,  6-C ) :   0.9932
B(  5-C , 15-H ) :   0.9764 B(  5-C , 16-H ) :   0.9750 B(  6-C , 17-H ) :   0.9716
B(  6-C , 18-H ) :   0.9608

FINAL SINGLE POINT ENERGY      -307.271981634593

DIPOLE MOMENT
-------------

Method             : SCF
Type of density    : Electron Density
Multiplicity       :   1
Irrep              :   0
Energy             :  -307.2857854454929338 Eh
Relativity type    :
Basis              : AO
                                X                 Y                 Z
Electronic contribution:     -2.344445191       0.000068294      -0.873710802
Nuclear contribution   :      3.003658333      -0.000095479       1.633277123
                        -----------------------------------------
Total Dipole Moment    :      0.659213142      -0.000027185       0.759566321
                        -----------------------------------------
Magnitude (a.u.)       :      1.005735036
Magnitude (Debye)      :      2.556375303

Rotational constants in cm-1:             0.154817             0.077262             0.056589
Rotational constants in MHz :          4641.299626          2316.251195          1696.496995

                             ****ORCA TERMINATED NORMALLY****
TOTAL RUN TIME: 0 days 0 hours 2 minutes 35 seconds 831 msec
