                         Program Version 6.0.0  -   RELEASE  -
|  1> ! pbe def2-sv(p) def2/J RI DEFGRID1 loosescf d4 GCP(DFT/SV(P)) printgap
|  2> %output
|  3>     printlevel normal
|  4> end
|  5> * xyz 0 1
|  6> C 4.5535209832 0.7595157398 -2.2174778846
|  7> C 4.8716144025 -0.2299812508 -1.1154399346
|  8> O 3.7041817834 -0.9519762362 -0.6842912272
|  9> P 2.5048109908 -0.2440074365 0.085746772
| 10> S 3.0753602655 1.1103108036 1.3901264609
| 11> O 1.7306884268 -1.4896372474 0.6807734432
| 12> C 2.237780788 -2.1928703044 1.8414213487
| 13> C 1.066373438 -2.81139939 2.5743433481
| 14> S 1.1496798297 0.3572418124 -1.4051713859
| 15> C 0.2119064269 1.5139466815 -0.3624726049
| 16> S -0.8237770994 0.6988222623 0.8771642807
| 17> P -2.4480106592 0.226441075 -0.4374566334
| 18> S -2.0980923377 -0.9439809114 -1.9623612231
| 19> O -2.957294626 1.6460053903 -0.9042900105
| 20> C -3.4625492564 2.6617684171 0.0003521141
| 21> C -4.9737453457 2.6008651504 0.0846414421
| 22> O -3.5834309279 -0.2648450077 0.5598098996
| 23> C -3.7323586869 -1.6483386655 0.9259641285
| 24> C -2.5408807031 -2.1544153796 1.7112574164
| 25> H 3.9183905622 1.5552731459 -1.8298486499
| 26> H 5.4760485984 1.1940495262 -2.5887603597
| 27> H 4.0325730209 0.2632434333 -3.0326953775
| 28> H 5.2974225345 0.2845039497 -0.2479253441
| 29> H 5.5515594423 -1.0114637739 -1.4568870319
| 30> H 2.938602156 -2.9515642403 1.4857211527
| 31> H 2.7713999538 -1.4770076877 2.4765342893
| 32> H 0.528444308 -3.4847400068 1.913339645
| 33> H 1.4371220268 -3.366468271 3.4297967732
| 34> H 0.3886587117 -2.0338010852 2.9157415406
| 35> H -0.4084758941 2.1010294467 -1.0363348512
| 36> H 0.9124955924 2.144305144 0.1864024056
| 37> H -3.0041193797 2.5231100207 0.9830074309
| 38> H -3.1292470297 3.6053141369 -0.4361025555
| 39> H -5.404796841 2.6822516737 -0.9094683626
| 40> H -5.2898924937 1.6609438001 0.5282362164
| 41> H -5.3275169042 3.4240701015 0.6975233005
| 42> H -4.6467105846 -1.6657742214 1.5206028238
| 43> H -3.8680076729 -2.234152718 0.0117051554
| 44> H -2.3517842273 -1.5106337395 2.5670211776
| 45> H -2.7345563553 -3.165405499 2.0546928997
| 46> H -1.6579458543 -2.1602828108 1.0726363669
| 47> *
| 48>
| 49>                          ****END OF INPUT****

CARTESIAN COORDINATES (ANGSTROEM)
---------------------------------
  C      4.553521    0.759516   -2.217478
  C      4.871614   -0.229981   -1.115440
  O      3.704182   -0.951976   -0.684291
  P      2.504811   -0.244007    0.085747
  S      3.075360    1.110311    1.390126
  O      1.730688   -1.489637    0.680773
  C      2.237781   -2.192870    1.841421
  C      1.066373   -2.811399    2.574343
  S      1.149680    0.357242   -1.405171
  C      0.211906    1.513947   -0.362473
  S     -0.823777    0.698822    0.877164
  P     -2.448011    0.226441   -0.437457
  S     -2.098092   -0.943981   -1.962361
  O     -2.957295    1.646005   -0.904290
  C     -3.462549    2.661768    0.000352
  C     -4.973745    2.600865    0.084641
  O     -3.583431   -0.264845    0.559810
  C     -3.732359   -1.648339    0.925964
  C     -2.540881   -2.154415    1.711257
  H      3.918391    1.555273   -1.829849
  H      5.476049    1.194050   -2.588760
  H      4.032573    0.263243   -3.032695
  H      5.297423    0.284504   -0.247925
  H      5.551559   -1.011464   -1.456887
  H      2.938602   -2.951564    1.485721
  H      2.771400   -1.477008    2.476534
  H      0.528444   -3.484740    1.913340
  H      1.437122   -3.366468    3.429797
  H      0.388659   -2.033801    2.915742
  H     -0.408476    2.101029   -1.036335
  H      0.912496    2.144305    0.186402
  H     -3.004119    2.523110    0.983007
  H     -3.129247    3.605314   -0.436103
  H     -5.404797    2.682252   -0.909468
  H     -5.289892    1.660944    0.528236
  H     -5.327517    3.424070    0.697523
  H     -4.646711   -1.665774    1.520603
  H     -3.868008   -2.234153    0.011705
  H     -2.351784   -1.510634    2.567021
  H     -2.734556   -3.165405    2.054693
  H     -1.657946   -2.160283    1.072636

 Total Charge           Charge          ....    0
 Multiplicity           Mult            ....    1
 Number of Electrons    NEL             ....  202
 Basis Dimension        Dim             ....  334

ORBITAL ENERGIES
----------------

  NO   OCC          E(Eh)            E(eV)
   0   2.0000     -88.040351     -2395.6997
   1   2.0000     -88.039341     -2395.6723
   2   2.0000     -87.986232     -2394.2271
   3   2.0000     -87.982056     -2394.1135
   4   2.0000     -76.425727     -2079.6498
   5   2.0000     -76.422637     -2079.5657
   6   2.0000     -18.796975      -511.4917
   7   2.0000     -18.794608      -511.4273
   8   2.0000     -18.791064      -511.3308
   9   2.0000     -18.786296      -511.2011
  10   2.0000      -9.957660      -270.9617
  11   2.0000      -9.955875      -270.9131
  12   2.0000      -9.955146      -270.8933
  13   2.0000      -9.950527      -270.7676
  14   2.0000      -9.948813      -270.7210
  15   2.0000      -9.887488      -269.0522
  16   2.0000      -9.886774      -269.0328
  17   2.0000      -9.884616      -268.9741
  18   2.0000      -9.882247      -268.9096
  19   2.0000      -7.685060      -209.1211
  20   2.0000      -7.684661      -209.1103
  21   2.0000      -7.631231      -207.6564
  22   2.0000      -7.627248      -207.5480
  23   2.0000      -6.423180      -174.7836
  24   2.0000      -6.420675      -174.7154
  25   2.0000      -5.712744      -155.4517
  26   2.0000      -5.712505      -155.4452
  27   2.0000      -5.709709      -155.3691
  28   2.0000      -5.709328      -155.3587
  29   2.0000      -5.702140      -155.1631
  30   2.0000      -5.701421      -155.1436
  31   2.0000      -5.659895      -154.0136
  32   2.0000      -5.656291      -153.9155
  33   2.0000      -5.651975      -153.7981
  34   2.0000      -5.651531      -153.7860
  35   2.0000      -5.647877      -153.6865
  36   2.0000      -5.647285      -153.6704
  37   2.0000      -4.646329      -126.4330
  38   2.0000      -4.644916      -126.3946
  39   2.0000      -4.643208      -126.3481
  40   2.0000      -4.643127      -126.3459
  41   2.0000      -4.642247      -126.3220
  42   2.0000      -4.641255      -126.2950
  43   2.0000      -0.990892       -26.9635
  44   2.0000      -0.984012       -26.7763
  45   2.0000      -0.948983       -25.8231
  46   2.0000      -0.941950       -25.6318
  47   2.0000      -0.762845       -20.7581
  48   2.0000      -0.721080       -19.6216
  49   2.0000      -0.709486       -19.3061
  50   2.0000      -0.693178       -18.8623
  51   2.0000      -0.685514       -18.6538
  52   2.0000      -0.674117       -18.3436
  53   2.0000      -0.649773       -17.6812
  54   2.0000      -0.637146       -17.3376
  55   2.0000      -0.599150       -16.3037
  56   2.0000      -0.590164       -16.0592
  57   2.0000      -0.577965       -15.7272
  58   2.0000      -0.570177       -15.5153
  59   2.0000      -0.555389       -15.1129
  60   2.0000      -0.503662       -13.7053
  61   2.0000      -0.500775       -13.6268
  62   2.0000      -0.477931       -13.0052
  63   2.0000      -0.470906       -12.8140
  64   2.0000      -0.458600       -12.4791
  65   2.0000      -0.449218       -12.2238
  66   2.0000      -0.439837       -11.9686
  67   2.0000      -0.431353       -11.7377
  68   2.0000      -0.430303       -11.7091
  69   2.0000      -0.422778       -11.5044
  70   2.0000      -0.412777       -11.2322
  71   2.0000      -0.395539       -10.7632
  72   2.0000      -0.389338       -10.5944
  73   2.0000      -0.384139       -10.4529
  74   2.0000      -0.379912       -10.3379
  75   2.0000      -0.372948       -10.1484
  76   2.0000      -0.364537        -9.9196
  77   2.0000      -0.359986        -9.7957
  78   2.0000      -0.356060        -9.6889
  79   2.0000      -0.353864        -9.6291
  80   2.0000      -0.349084        -9.4991
  81   2.0000      -0.348410        -9.4807
  82   2.0000      -0.343706        -9.3527
  83   2.0000      -0.337807        -9.1922
  84   2.0000      -0.333881        -9.0854
  85   2.0000      -0.319232        -8.6868
  86   2.0000      -0.310656        -8.4534
  87   2.0000      -0.299803        -8.1581
  88   2.0000      -0.295243        -8.0340
  89   2.0000      -0.293753        -7.9934
  90   2.0000      -0.286885        -7.8065
  91   2.0000      -0.273608        -7.4452
  92   2.0000      -0.271446        -7.3864
  93   2.0000      -0.261324        -7.1110
  94   2.0000      -0.260603        -7.0914
  95   2.0000      -0.237848        -6.4722
  96   2.0000      -0.215503        -5.8641
  97   2.0000      -0.210356        -5.7241
  98   2.0000      -0.203978        -5.5505
  99   2.0000      -0.199323        -5.4239
 100   2.0000      -0.189903        -5.1675
 101   0.0000      -0.040366        -1.0984
 102   0.0000      -0.024952        -0.6790
 103   0.0000      -0.005099        -0.1388
 104   0.0000       0.003134         0.0853
 105   0.0000       0.016344         0.4447

MULLIKEN ATOMIC CHARGES
-----------------------
   0 C :   -0.316363
   1 C :   -0.003238
   2 O :   -0.378340
   3 P :    0.608564
   4 S :   -0.348317
   5 O :   -0.358203
   6 C :   -0.011785
   7 C :   -0.290145
   8 S :   -0.036979
   9 C :   -0.374759
  10 S :   -0.079775
  11 P :    0.584575
  12 S :   -0.297925
  13 O :   -0.363967
  14 C :   -0.013179
  15 C :   -0.288813
  16 O :   -0.382670
  17 C :    0.011852
  18 C :   -0.358084
  19 H :    0.124522
  20 H :    0.112752
  21 H :    0.120519
  22 H :    0.110787
  23 H :    0.104861
  24 H :    0.104054
  25 H :    0.103417
  26 H :    0.123890
  27 H :    0.108193
  28 H :    0.128268
  29 H :    0.187572
  30 H :    0.195089
  31 H :    0.103060
  32 H :    0.107207
  33 H :    0.120552
  34 H :    0.123016
  35 H :    0.109923
  36 H :    0.104218
  37 H :    0.114105
  38 H :    0.122861
  39 H :    0.116595
  40 H :    0.152088
Sum of atomic charges:    0.0000000

LOEWDIN ATOMIC CHARGES
----------------------
   0 C :   -0.369494
   1 C :   -0.119483
   2 O :   -0.247214
   3 P :    0.569458
   4 S :   -0.333336
   5 O :   -0.241666
   6 C :   -0.116529
   7 C :   -0.351742
   8 S :    0.113806
   9 C :   -0.485222
  10 S :    0.078308
  11 P :    0.565997
  12 S :   -0.306554
  13 O :   -0.240947
  14 C :   -0.116879
  15 C :   -0.358565
  16 O :   -0.247159
  17 C :   -0.115940
  18 C :   -0.375078
  19 H :    0.120260
  20 H :    0.130889
  21 H :    0.125708
  22 H :    0.110140
  23 H :    0.118500
  24 H :    0.113714
  25 H :    0.106753
  26 H :    0.127295
  27 H :    0.129306
  28 H :    0.128401
  29 H :    0.133256
  30 H :    0.129397
  31 H :    0.104760
  32 H :    0.119171
  33 H :    0.129098
  34 H :    0.126710
  35 H :    0.129769
  36 H :    0.118155
  37 H :    0.114110
  38 H :    0.123380
  39 H :    0.132538
  40 H :    0.126931

  Mayer bond orders larger than 0.100000
B(  0-C ,  1-C ) :   1.1648 B(  0-C , 19-H ) :   0.9350 B(  0-C , 20-H ) :   0.9379
B(  0-C , 21-H ) :   0.9448 B(  1-C ,  2-O ) :   0.9103 B(  1-C , 22-H ) :   0.9152
B(  1-C , 23-H ) :   0.9336 B(  2-O ,  3-P ) :   1.1032 B(  3-P ,  4-S ) :   1.5860
B(  3-P ,  5-O ) :   1.1375 B(  3-P ,  8-S ) :   0.9816 B(  4-S ,  8-S ) :   0.1119
B(  5-O ,  6-C ) :   0.9014 B(  6-C ,  7-C ) :   1.1674 B(  6-C , 24-H ) :   0.9317
B(  6-C , 25-H ) :   0.9058 B(  7-C , 26-H ) :   0.9451 B(  7-C , 27-H ) :   0.9393
B(  7-C , 28-H ) :   0.9443 B(  8-S ,  9-C ) :   1.0093 B(  9-C , 10-S ) :   0.9943
B(  9-C , 29-H ) :   0.8944 B(  9-C , 30-H ) :   0.8730 B( 10-S , 11-P ) :   0.9505
B( 10-S , 12-S ) :   0.1131 B( 11-P , 12-S ) :   1.6780 B( 11-P , 13-O ) :   1.1126
B( 11-P , 16-O ) :   1.0764 B( 13-O , 14-C ) :   0.8911 B( 14-C , 15-C ) :   1.1683
B( 14-C , 31-H ) :   0.9091 B( 14-C , 32-H ) :   0.9352 B( 15-C , 33-H ) :   0.9471
B( 15-C , 34-H ) :   0.9425 B( 15-C , 35-H ) :   0.9397 B( 16-O , 17-C ) :   0.9036
B( 17-C , 18-C ) :   1.1619 B( 17-C , 36-H ) :   0.9323 B( 17-C , 37-H ) :   0.9171
B( 18-C , 38-H ) :   0.9405 B( 18-C , 39-H ) :   0.9371 B( 18-C , 40-H ) :   0.9244

Dispersion correction           -0.063908109
FINAL SINGLE POINT ENERGY     -2929.520074245756

DIPOLE MOMENT
-------------

Method             : SCF
Type of density    : Electron Density
Multiplicity       :   1
Irrep              :   0
Energy             : -2929.6403869366131403 Eh
Relativity type    :
Basis              : AO
                                X                 Y                 Z
Electronic contribution:      4.098055251       3.418134603      -9.182679285
Nuclear contribution   :     -4.392613110      -3.434578631      10.008752497
                        -----------------------------------------
Total Dipole Moment    :     -0.294557859      -0.016444028       0.826073212
                        -----------------------------------------
Magnitude (a.u.)       :      0.877172555
Magnitude (Debye)      :      2.229595445

Rotational constants in cm-1:             0.012522             0.004692             0.004216
Rotational constants in MHz :           375.397737           140.665696           126.378266

                             ****ORCA TERMINATED NORMALLY****
TOTAL RUN TIME: 0 days 0 hours 0 minutes 20 seconds 800 msec
