                         Program Version 6.0.0  -   RELEASE  -
|  1> ! pbe def2-sv(p) def2/J RI DEFGRID1 loosescf d4 GCP(DFT/SV(P)) printgap
|  2> %output
|  3>     printlevel normal
|  4> end
|  5> * xyz 0 1
|  6> C 4.5959028149 -1.4639235598 -0.9590569976
|  7> C 4.699914635 -0.0680815261 -0.3792255784
|  8> O 3.6001083723 0.2360748526 0.4933327224
|  9> P 2.1109644624 0.4250499614 -0.0420371498
| 10> S 2.0367655166 1.3023538317 -1.801832074
| 11> O 1.4404461257 1.0823854231 1.2341067074
| 12> C 1.92025365 2.2723962952 1.8948925904
| 13> C 1.7499245003 3.5098223483 1.0375321878
| 14> S 1.2299219999 -1.4866374699 0.0874841164
| 15> C 0.2163759225 -1.5048768084 -1.4340561764
| 16> S -1.4829165767 -2.0543258223 -1.1444623777
| 17> P -2.290131533 -0.3545964482 -0.1815359926
| 18> S -1.2863048477 1.3210666365 -0.4208288361
| 19> O -2.5875968704 -0.7236292053 1.3393038934
| 20> C -1.6063655286 -0.6731530135 2.3894288687
| 21> C -1.1469099276 -2.0723371171 2.750081211
| 22> O -3.7360452834 -0.4481942125 -0.8091467779
| 23> C -4.9364735339 0.0391156311 -0.1695506212
| 24> C -4.889328576 1.5331653113 0.0744543733
| 25> H 4.4505067027 -2.1932477512 -0.1663103274
| 26> H 3.7520293346 -1.5154140114 -1.645886989
| 27> H 5.5057459382 -1.695644149 -1.5032485655
| 28> H 4.7226332965 0.6784538345 -1.1797442342
| 29> H 5.5784928615 0.0403998833 0.2581018188
| 30> H 1.3039325594 2.3270156887 2.7941030564
| 31> H 2.9670131713 2.1195466527 2.1679303004
| 32> H 2.4064579229 3.4656313554 0.1700756452
| 33> H 0.7227144535 3.5768895268 0.6834157838
| 34> H 1.9899949841 4.3928662597 1.6209273582
| 35> H 0.6417186511 -2.2294850884 -2.1234079223
| 36> H 0.2242431665 -0.499112366 -1.8633005956
| 37> H -0.768888949 -0.0422650088 2.0720475167
| 38> H -2.1148874689 -0.1964208204 3.230150904
| 39> H -0.6396350864 -2.5388563951 1.9084207759
| 40> H -0.4572122105 -2.0148147235 3.5857692724
| 41> H -2.0021912415 -2.6816580352 3.0277650708
| 42> H -5.7240633893 -0.2270282031 -0.8763694613
| 43> H -5.0736465968 -0.5069052271 0.7658624083
| 44> H -4.0841306736 1.7731207554 0.7680512323
| 45> H -4.7066502001 2.0629629447 -0.8577421281
| 46> H -5.8335919934 1.8621818151 0.4967502591
| 47> *
| 48>
| 49>                          ****END OF INPUT****

CARTESIAN COORDINATES (ANGSTROEM)
---------------------------------
  C      4.595903   -1.463924   -0.959057
  C      4.699915   -0.068082   -0.379226
  O      3.600108    0.236075    0.493333
  P      2.110964    0.425050   -0.042037
  S      2.036766    1.302354   -1.801832
  O      1.440446    1.082385    1.234107
  C      1.920254    2.272396    1.894893
  C      1.749925    3.509822    1.037532
  S      1.229922   -1.486637    0.087484
  C      0.216376   -1.504877   -1.434056
  S     -1.482917   -2.054326   -1.144462
  P     -2.290132   -0.354596   -0.181536
  S     -1.286305    1.321067   -0.420829
  O     -2.587597   -0.723629    1.339304
  C     -1.606366   -0.673153    2.389429
  C     -1.146910   -2.072337    2.750081
  O     -3.736045   -0.448194   -0.809147
  C     -4.936474    0.039116   -0.169551
  C     -4.889329    1.533165    0.074454
  H      4.450507   -2.193248   -0.166310
  H      3.752029   -1.515414   -1.645887
  H      5.505746   -1.695644   -1.503249
  H      4.722633    0.678454   -1.179744
  H      5.578493    0.040400    0.258102
  H      1.303933    2.327016    2.794103
  H      2.967013    2.119547    2.167930
  H      2.406458    3.465631    0.170076
  H      0.722714    3.576890    0.683416
  H      1.989995    4.392866    1.620927
  H      0.641719   -2.229485   -2.123408
  H      0.224243   -0.499112   -1.863301
  H     -0.768889   -0.042265    2.072048
  H     -2.114887   -0.196421    3.230151
  H     -0.639635   -2.538856    1.908421
  H     -0.457212   -2.014815    3.585769
  H     -2.002191   -2.681658    3.027765
  H     -5.724063   -0.227028   -0.876369
  H     -5.073647   -0.506905    0.765862
  H     -4.084131    1.773121    0.768051
  H     -4.706650    2.062963   -0.857742
  H     -5.833592    1.862182    0.496750

 Total Charge           Charge          ....    0
 Multiplicity           Mult            ....    1
 Number of Electrons    NEL             ....  202
 Basis Dimension        Dim             ....  334

ORBITAL ENERGIES
----------------

  NO   OCC          E(Eh)            E(eV)
   0   2.0000     -88.041543     -2395.7322
   1   2.0000     -88.041154     -2395.7216
   2   2.0000     -87.985168     -2394.1981
   3   2.0000     -87.978782     -2394.0244
   4   2.0000     -76.426128     -2079.6607
   5   2.0000     -76.422452     -2079.5606
   6   2.0000     -18.791541      -511.3438
   7   2.0000     -18.788506      -511.2612
   8   2.0000     -18.787906      -511.2449
   9   2.0000     -18.787810      -511.2423
  10   2.0000      -9.953608      -270.8514
  11   2.0000      -9.952414      -270.8190
  12   2.0000      -9.951639      -270.7979
  13   2.0000      -9.950636      -270.7706
  14   2.0000      -9.946121      -270.6477
  15   2.0000      -9.883198      -268.9355
  16   2.0000      -9.881477      -268.8887
  17   2.0000      -9.878107      -268.7969
  18   2.0000      -9.877532      -268.7813
  19   2.0000      -7.686480      -209.1598
  20   2.0000      -7.686339      -209.1559
  21   2.0000      -7.630024      -207.6235
  22   2.0000      -7.623460      -207.4449
  23   2.0000      -6.423163      -174.7832
  24   2.0000      -6.419706      -174.6891
  25   2.0000      -5.714472      -155.4987
  26   2.0000      -5.714187      -155.4909
  27   2.0000      -5.710896      -155.4014
  28   2.0000      -5.710788      -155.3984
  29   2.0000      -5.703511      -155.2004
  30   2.0000      -5.703278      -155.1941
  31   2.0000      -5.658932      -153.9874
  32   2.0000      -5.652352      -153.8083
  33   2.0000      -5.650810      -153.7664
  34   2.0000      -5.650035      -153.7453
  35   2.0000      -5.644157      -153.5853
  36   2.0000      -5.643606      -153.5703
  37   2.0000      -4.645856      -126.4202
  38   2.0000      -4.644708      -126.3889
  39   2.0000      -4.643793      -126.3640
  40   2.0000      -4.642559      -126.3305
  41   2.0000      -4.641364      -126.2979
  42   2.0000      -4.640047      -126.2621
  43   2.0000      -0.986410       -26.8416
  44   2.0000      -0.984297       -26.7841
  45   2.0000      -0.942045       -25.6343
  46   2.0000      -0.939707       -25.5707
  47   2.0000      -0.759554       -20.6685
  48   2.0000      -0.720650       -19.6099
  49   2.0000      -0.706033       -19.2121
  50   2.0000      -0.685659       -18.6577
  51   2.0000      -0.685301       -18.6480
  52   2.0000      -0.672029       -18.2868
  53   2.0000      -0.648794       -17.6546
  54   2.0000      -0.631964       -17.1966
  55   2.0000      -0.597669       -16.2634
  56   2.0000      -0.587913       -15.9979
  57   2.0000      -0.575561       -15.6618
  58   2.0000      -0.572225       -15.5710
  59   2.0000      -0.556581       -15.1453
  60   2.0000      -0.497147       -13.5281
  61   2.0000      -0.493378       -13.4255
  62   2.0000      -0.471323       -12.8253
  63   2.0000      -0.467262       -12.7149
  64   2.0000      -0.453181       -12.3317
  65   2.0000      -0.451866       -12.2959
  66   2.0000      -0.431927       -11.7533
  67   2.0000      -0.427516       -11.6333
  68   2.0000      -0.422416       -11.4945
  69   2.0000      -0.414334       -11.2746
  70   2.0000      -0.410500       -11.1703
  71   2.0000      -0.406580       -11.0636
  72   2.0000      -0.393630       -10.7112
  73   2.0000      -0.385751       -10.4968
  74   2.0000      -0.379803       -10.3350
  75   2.0000      -0.369265       -10.0482
  76   2.0000      -0.362895        -9.8749
  77   2.0000      -0.351898        -9.5756
  78   2.0000      -0.348460        -9.4821
  79   2.0000      -0.346567        -9.4306
  80   2.0000      -0.342857        -9.3296
  81   2.0000      -0.341235        -9.2855
  82   2.0000      -0.336619        -9.1599
  83   2.0000      -0.334516        -9.1027
  84   2.0000      -0.331173        -9.0117
  85   2.0000      -0.316725        -8.6185
  86   2.0000      -0.310302        -8.4437
  87   2.0000      -0.293920        -7.9980
  88   2.0000      -0.293153        -7.9771
  89   2.0000      -0.289675        -7.8825
  90   2.0000      -0.284079        -7.7302
  91   2.0000      -0.274060        -7.4575
  92   2.0000      -0.271953        -7.4002
  93   2.0000      -0.261621        -7.1191
  94   2.0000      -0.255953        -6.9648
  95   2.0000      -0.234413        -6.3787
  96   2.0000      -0.217917        -5.9298
  97   2.0000      -0.213106        -5.7989
  98   2.0000      -0.198833        -5.4105
  99   2.0000      -0.192339        -5.2338
 100   2.0000      -0.185404        -5.0451
 101   0.0000      -0.038552        -1.0491
 102   0.0000      -0.035302        -0.9606
 103   0.0000      -0.010001        -0.2722
 104   0.0000       0.012633         0.3438
 105   0.0000       0.016363         0.4453

MULLIKEN ATOMIC CHARGES
-----------------------
   0 C :   -0.309816
   1 C :   -0.002655
   2 O :   -0.380770
   3 P :    0.636696
   4 S :   -0.310514
   5 O :   -0.358915
   6 C :    0.002688
   7 C :   -0.319167
   8 S :   -0.109286
   9 C :   -0.350457
  10 S :   -0.095851
  11 P :    0.626282
  12 S :   -0.312133
  13 O :   -0.385140
  14 C :   -0.030529
  15 C :   -0.289856
  16 O :   -0.376992
  17 C :    0.003178
  18 C :   -0.314356
  19 H :    0.117556
  20 H :    0.118759
  21 H :    0.111971
  22 H :    0.109961
  23 H :    0.101705
  24 H :    0.103106
  25 H :    0.105531
  26 H :    0.127056
  27 H :    0.133789
  28 H :    0.106864
  29 H :    0.180742
  30 H :    0.215815
  31 H :    0.131153
  32 H :    0.097196
  33 H :    0.125629
  34 H :    0.104975
  35 H :    0.107586
  36 H :    0.107960
  37 H :    0.108699
  38 H :    0.126986
  39 H :    0.125822
  40 H :    0.108733
Sum of atomic charges:    0.0000000

LOEWDIN ATOMIC CHARGES
----------------------
   0 C :   -0.368304
   1 C :   -0.121658
   2 O :   -0.248637
   3 P :    0.573107
   4 S :   -0.296890
   5 O :   -0.235475
   6 C :   -0.109578
   7 C :   -0.368277
   8 S :    0.087809
   9 C :   -0.479287
  10 S :    0.087526
  11 P :    0.560435
  12 S :   -0.299794
  13 O :   -0.249850
  14 C :   -0.123054
  15 C :   -0.361284
  16 O :   -0.244862
  17 C :   -0.108764
  18 C :   -0.366394
  19 H :    0.124343
  20 H :    0.119083
  21 H :    0.130187
  22 H :    0.108930
  23 H :    0.116745
  24 H :    0.117915
  25 H :    0.110696
  26 H :    0.121580
  27 H :    0.131394
  28 H :    0.127604
  29 H :    0.134731
  30 H :    0.126559
  31 H :    0.109503
  32 H :    0.114152
  33 H :    0.113521
  34 H :    0.128290
  35 H :    0.122409
  36 H :    0.120882
  37 H :    0.112979
  38 H :    0.122450
  39 H :    0.130794
  40 H :    0.128482

  Mayer bond orders larger than 0.100000
B(  0-C ,  1-C ) :   1.1656 B(  0-C , 19-H ) :   0.9444 B(  0-C , 20-H ) :   0.9370
B(  0-C , 21-H ) :   0.9383 B(  1-C ,  2-O ) :   0.9140 B(  1-C , 22-H ) :   0.9125
B(  1-C , 23-H ) :   0.9332 B(  2-O ,  3-P ) :   1.0837 B(  3-P ,  4-S ) :   1.6024
B(  3-P ,  5-O ) :   1.1205 B(  3-P ,  8-S ) :   0.9606 B(  4-S ,  8-S ) :   0.1202
B(  5-O ,  6-C ) :   0.9063 B(  6-C ,  7-C ) :   1.1649 B(  6-C , 24-H ) :   0.9347
B(  6-C , 25-H ) :   0.9284 B(  7-C , 26-H ) :   0.9358 B(  7-C , 27-H ) :   0.9423
B(  7-C , 28-H ) :   0.9370 B(  8-S ,  9-C ) :   0.9847 B(  9-C , 10-S ) :   1.0160
B(  9-C , 29-H ) :   0.9088 B(  9-C , 30-H ) :   0.8461 B( 10-S , 11-P ) :   0.9411
B( 10-S , 12-S ) :   0.1176 B( 11-P , 12-S ) :   1.6555 B( 11-P , 13-O ) :   1.0745
B( 11-P , 16-O ) :   1.1278 B( 13-O , 14-C ) :   0.9026 B( 14-C , 15-C ) :   1.1692
B( 14-C , 31-H ) :   0.8947 B( 14-C , 32-H ) :   0.9348 B( 15-C , 33-H ) :   0.9323
B( 15-C , 34-H ) :   0.9415 B( 15-C , 35-H ) :   0.9465 B( 16-O , 17-C ) :   0.9071
B( 17-C , 18-C ) :   1.1679 B( 17-C , 36-H ) :   0.9349 B( 17-C , 37-H ) :   0.9282
B( 18-C , 38-H ) :   0.9355 B( 18-C , 39-H ) :   0.9452 B( 18-C , 40-H ) :   0.9363

Dispersion correction           -0.066892338
FINAL SINGLE POINT ENERGY     -2929.519320675960

DIPOLE MOMENT
-------------

Method             : SCF
Type of density    : Electron Density
Multiplicity       :   1
Irrep              :   0
Energy             : -2929.6376629286655771 Eh
Relativity type    :
Basis              : AO
                                X                 Y                 Z
Electronic contribution:     -2.610896722      -5.787951397     -11.588053961
Nuclear contribution   :      2.810404061       5.555612589      12.837119231
                        -----------------------------------------
Total Dipole Moment    :      0.199507340      -0.232338807       1.249065270
                        -----------------------------------------
Magnitude (a.u.)       :      1.286059310
Magnitude (Debye)      :      3.268902983

Rotational constants in cm-1:             0.012687             0.005208             0.004801
Rotational constants in MHz :           380.355884           156.129614           143.917295

                             ****ORCA TERMINATED NORMALLY****
TOTAL RUN TIME: 0 days 0 hours 0 minutes 21 seconds 175 msec
