                         Program Version 6.0.0  -   RELEASE  -
|  1> ! pbe def2-sv(p) def2/J RI DEFGRID1 loosescf d4 GCP(DFT/SV(P)) printgap
|  2> %output
|  3>     printlevel normal
|  4> end
|  5> * xyz 0 1
|  6> C 0.8657930536 1.382555458 -0.5957963841
|  7> C 1.5920156968 0.1560927879 -0.0221808232
|  8> H 2.5612527252 0.0690676582 -0.5244967168
|  9> C 0.7655362113 -1.1151377962 -0.31714192
| 10> H 1.1929182494 -1.9365479289 0.2675088507
| 11> C -0.6875950924 -0.9113840239 0.1503846279
| 12> H -1.3046954874 -1.7514525825 -0.202769618
| 13> C -1.2486268902 0.3763326872 -0.4745962962
| 14> H -1.2499505905 0.2592514338 -1.5779421402
| 15> O -0.463049575 1.4913997937 -0.1250049533
| 16> O -2.5247389226 0.5712845421 0.0242797554
| 17> O -0.7087159163 -0.8341930251 1.5527514696
| 18> O 0.7818813367 -1.3758713066 -1.7024256643
| 19> O 1.8751338493 0.2854525573 1.3459316428
| 20> H 0.8654543519 1.3086367622 -1.6912523753
| 21> H 1.362751947 2.297747767 -0.2750505637
| 22> H -2.8091335327 1.4791621137 -0.1632992015
| 23> H -1.5873410862 -0.5203242507 1.8212232227
| 24> H 1.0907097342 -2.274610245 -1.8770615129
| 25> H 1.0404206821 0.2065228438 1.8399309092
| 26> *
| 27>
| 28>                          ****END OF INPUT****

CARTESIAN COORDINATES (ANGSTROEM)
---------------------------------
  C      0.865793    1.382555   -0.595796
  C      1.592016    0.156093   -0.022181
  H      2.561253    0.069068   -0.524497
  C      0.765536   -1.115138   -0.317142
  H      1.192918   -1.936548    0.267509
  C     -0.687595   -0.911384    0.150385
  H     -1.304695   -1.751453   -0.202770
  C     -1.248627    0.376333   -0.474596
  H     -1.249951    0.259251   -1.577942
  O     -0.463050    1.491400   -0.125005
  O     -2.524739    0.571285    0.024280
  O     -0.708716   -0.834193    1.552751
  O      0.781881   -1.375871   -1.702426
  O      1.875134    0.285453    1.345932
  H      0.865454    1.308637   -1.691252
  H      1.362752    2.297748   -0.275051
  H     -2.809134    1.479162   -0.163299
  H     -1.587341   -0.520324    1.821223
  H      1.090710   -2.274610   -1.877062
  H      1.040421    0.206523    1.839931

 Total Charge           Charge          ....    0
 Multiplicity           Mult            ....    1
 Number of Electrons    NEL             ....   80
 Basis Dimension        Dim             ....  160

ORBITAL ENERGIES
----------------

  NO   OCC          E(Eh)            E(eV)
   0   2.0000     -18.771167      -510.7894
   1   2.0000     -18.764993      -510.6214
   2   2.0000     -18.764295      -510.6024
   3   2.0000     -18.763177      -510.5720
   4   2.0000     -18.729663      -509.6600
   5   2.0000      -9.984967      -271.7048
   6   2.0000      -9.946112      -270.6475
   7   2.0000      -9.942799      -270.5573
   8   2.0000      -9.932229      -270.2697
   9   2.0000      -9.926799      -270.1219
  10   2.0000      -0.986924       -26.8556
  11   2.0000      -0.943662       -25.6784
  12   2.0000      -0.933442       -25.4002
  13   2.0000      -0.921276       -25.0692
  14   2.0000      -0.903786       -24.5933
  15   2.0000      -0.696737       -18.9592
  16   2.0000      -0.670294       -18.2396
  17   2.0000      -0.592173       -16.1139
  18   2.0000      -0.577885       -15.7251
  19   2.0000      -0.525187       -14.2911
  20   2.0000      -0.495912       -13.4945
  21   2.0000      -0.480497       -13.0750
  22   2.0000      -0.471656       -12.8344
  23   2.0000      -0.456932       -12.4337
  24   2.0000      -0.432994       -11.7824
  25   2.0000      -0.415853       -11.3159
  26   2.0000      -0.394627       -10.7384
  27   2.0000      -0.380179       -10.3452
  28   2.0000      -0.367808       -10.0086
  29   2.0000      -0.355539        -9.6747
  30   2.0000      -0.321519        -8.7490
  31   2.0000      -0.308513        -8.3951
  32   2.0000      -0.301287        -8.1984
  33   2.0000      -0.284800        -7.7498
  34   2.0000      -0.275882        -7.5071
  35   2.0000      -0.256413        -6.9774
  36   2.0000      -0.248639        -6.7658
  37   2.0000      -0.228864        -6.2277
  38   2.0000      -0.215228        -5.8567
  39   2.0000      -0.192333        -5.2337
  40   0.0000       0.007720         0.2101
  41   0.0000       0.022803         0.6205
  42   0.0000       0.054627         1.4865
  43   0.0000       0.068398         1.8612
  44   0.0000       0.083882         2.2825

MULLIKEN ATOMIC CHARGES
-----------------------
   0 C :    0.054584
   1 C :    0.059872
   2 H :    0.065754
   3 C :   -0.028426
   4 H :    0.085368
   5 C :    0.087939
   6 H :    0.063390
   7 C :    0.147019
   8 H :    0.055212
   9 O :   -0.323603
  10 O :   -0.392961
  11 O :   -0.431469
  12 O :   -0.412030
  13 O :   -0.434674
  14 H :    0.069682
  15 H :    0.096408
  16 H :    0.312619
  17 H :    0.311705
  18 H :    0.312794
  19 H :    0.300819
Sum of atomic charges:   -0.0000000

LOEWDIN ATOMIC CHARGES
----------------------
   0 C :   -0.124731
   1 C :   -0.078273
   2 H :    0.115543
   3 C :   -0.072073
   4 H :    0.112078
   5 C :   -0.083890
   6 H :    0.104588
   7 C :   -0.007696
   8 H :    0.086611
   9 O :   -0.168332
  10 O :   -0.302592
  11 O :   -0.309958
  12 O :   -0.320029
  13 O :   -0.326804
  14 H :    0.104362
  15 H :    0.119760
  16 H :    0.293562
  17 H :    0.288403
  18 H :    0.297502
  19 H :    0.271969

  Mayer bond orders larger than 0.100000
B(  0-C ,  1-C ) :   1.0574 B(  0-C ,  9-O ) :   1.0066 B(  0-C , 14-H ) :   0.8905
B(  0-C , 15-H ) :   0.9217 B(  1-C ,  2-H ) :   0.8919 B(  1-C ,  3-C ) :   0.9778
B(  1-C , 13-O ) :   1.0676 B(  3-C ,  4-H ) :   0.9104 B(  3-C ,  5-C ) :   0.9820
B(  3-C , 12-O ) :   1.0790 B(  5-C ,  6-H ) :   0.8840 B(  5-C ,  7-C ) :   0.9859
B(  5-C , 11-O ) :   1.0171 B(  7-C ,  8-H ) :   0.8937 B(  7-C ,  9-O ) :   1.0318
B(  7-C , 10-O ) :   1.1657 B( 10-O , 16-H ) :   0.8372 B( 11-O , 17-H ) :   0.8225
B( 12-O , 18-H ) :   0.8466 B( 13-O , 19-H ) :   0.8128

Dispersion correction           -0.019807618
FINAL SINGLE POINT ENERGY      -571.419767014462

DIPOLE MOMENT
-------------

Method             : SCF
Type of density    : Electron Density
Multiplicity       :   1
Irrep              :   0
Energy             :  -571.5291225238154311 Eh
Relativity type    :
Basis              : AO
                                X                 Y                 Z
Electronic contribution:     -1.623051592       0.440557150       1.616144539
Nuclear contribution   :      1.075117238      -0.807169810      -2.219625853
                        -----------------------------------------
Total Dipole Moment    :     -0.547934354      -0.366612660      -0.603481314
                        -----------------------------------------
Magnitude (a.u.)       :      0.893770997
Magnitude (Debye)      :      2.271785332

Rotational constants in cm-1:             0.058468             0.040527             0.038498
Rotational constants in MHz :          1752.817765          1214.974577          1154.145330

                             ****ORCA TERMINATED NORMALLY****
TOTAL RUN TIME: 0 days 0 hours 0 minutes 11 seconds 552 msec
