                         Program Version 6.0.0  -   RELEASE  -
|  1> ! pbe def2-sv(p) def2/J RI DEFGRID1 loosescf d4 GCP(DFT/SV(P)) printgap
|  2> %output
|  3>     printlevel normal
|  4> end
|  5> * xyz 0 1
|  6> C 2.9580359268 -0.3538595439 -2.4487631966
|  7> C 1.6957333439 0.2875310636 -1.9157673946
|  8> O 1.0905409889 -0.518739495 -0.8871075883
|  9> P 1.7667177868 -0.6685729408 0.5434229816
| 10> S 2.8952803004 0.8289589893 1.1322234866
| 11> O 2.4833092569 -2.0759718961 0.3673959101
| 12> C 3.220330455 -2.7163452648 1.4294876363
| 13> C 4.6923408822 -2.3570916746 1.3662441671
| 14> S 0.1465110317 -1.1913701123 1.7814997635
| 15> C -0.5633919951 0.4584316429 2.09653061
| 16> S -0.493363926 1.6070343975 0.6951761132
| 17> P -1.9547579665 0.8096676847 -0.6065267757
| 18> S -1.8449856711 1.3676526451 -2.4804143334
| 19> O -3.3728514824 1.0981691657 0.0760735114
| 20> C -4.1248435281 2.288802954 -0.2021289293
| 21> C -3.4560229836 3.5257490921 0.3630033206
| 22> O -1.8040428208 -0.7329845702 -0.3074465714
| 23> C -2.3756513086 -1.7453071203 -1.1662602783
| 24> C -1.5559386893 -3.0085073669 -1.0023981731
| 25> H 3.7051945896 -0.4000151187 -1.6569837489
| 26> H 2.7496285889 -1.3618338126 -2.7973191006
| 27> H 3.3450044536 0.2425767196 -3.2688540371
| 28> H 0.9222848035 0.3746864107 -2.6818737529
| 29> H 1.9065125892 1.2801801272 -1.5017142751
| 30> H 2.7871938396 -2.4307786206 2.392117204
| 31> H 3.0641030668 -3.7837242575 1.2626079805
| 32> H 5.1020077553 -2.625255618 0.3963396961
| 33> H 4.8268422832 -1.2888116664 1.5212968791
| 34> H 5.2250474798 -2.8967922731 2.1424826808
| 35> H 0.0069376036 0.9473024138 2.8845904126
| 36> H -1.596152924 0.2951309141 2.3948912527
| 37> H -4.2403381737 2.3776302356 -1.2871136185
| 38> H -5.0948517243 2.104697838 0.2616032752
| 39> H -3.2844334543 3.4137808275 1.4304133554
| 40> H -2.4972970861 3.6864407056 -0.130768979
| 41> H -4.0900354154 4.3891043414 0.1889011371
| 42> H -3.4132538509 -1.8953364745 -0.8591462761
| 43> H -2.3533171792 -1.380056638 -2.1989148315
| 44> H -1.9588214654 -3.781915456 -1.6480537513
| 45> H -0.5199795644 -2.816610821 -1.2718502169
| 46> H -1.5887930184 -3.3418855709 0.0312224187
| 47> *
| 48>
| 49>                          ****END OF INPUT****

CARTESIAN COORDINATES (ANGSTROEM)
---------------------------------
  C      2.958036   -0.353860   -2.448763
  C      1.695733    0.287531   -1.915767
  O      1.090541   -0.518739   -0.887108
  P      1.766718   -0.668573    0.543423
  S      2.895280    0.828959    1.132223
  O      2.483309   -2.075972    0.367396
  C      3.220330   -2.716345    1.429488
  C      4.692341   -2.357092    1.366244
  S      0.146511   -1.191370    1.781500
  C     -0.563392    0.458432    2.096531
  S     -0.493364    1.607034    0.695176
  P     -1.954758    0.809668   -0.606527
  S     -1.844986    1.367653   -2.480414
  O     -3.372851    1.098169    0.076074
  C     -4.124844    2.288803   -0.202129
  C     -3.456023    3.525749    0.363003
  O     -1.804043   -0.732985   -0.307447
  C     -2.375651   -1.745307   -1.166260
  C     -1.555939   -3.008507   -1.002398
  H      3.705195   -0.400015   -1.656984
  H      2.749629   -1.361834   -2.797319
  H      3.345004    0.242577   -3.268854
  H      0.922285    0.374686   -2.681874
  H      1.906513    1.280180   -1.501714
  H      2.787194   -2.430779    2.392117
  H      3.064103   -3.783724    1.262608
  H      5.102008   -2.625256    0.396340
  H      4.826842   -1.288812    1.521297
  H      5.225047   -2.896792    2.142483
  H      0.006938    0.947302    2.884590
  H     -1.596153    0.295131    2.394891
  H     -4.240338    2.377630   -1.287114
  H     -5.094852    2.104698    0.261603
  H     -3.284433    3.413781    1.430413
  H     -2.497297    3.686441   -0.130769
  H     -4.090035    4.389104    0.188901
  H     -3.413254   -1.895336   -0.859146
  H     -2.353317   -1.380057   -2.198915
  H     -1.958821   -3.781915   -1.648054
  H     -0.519980   -2.816611   -1.271850
  H     -1.588793   -3.341886    0.031222

 Total Charge           Charge          ....    0
 Multiplicity           Mult            ....    1
 Number of Electrons    NEL             ....  202
 Basis Dimension        Dim             ....  334

ORBITAL ENERGIES
----------------

  NO   OCC          E(Eh)            E(eV)
   0   2.0000     -88.046524     -2395.8677
   1   2.0000     -88.040272     -2395.6976
   2   2.0000     -87.990874     -2394.3534
   3   2.0000     -87.983515     -2394.1532
   4   2.0000     -76.426475     -2079.6701
   5   2.0000     -76.425608     -2079.6465
   6   2.0000     -18.792850      -511.3794
   7   2.0000     -18.791051      -511.3305
   8   2.0000     -18.788955      -511.2735
   9   2.0000     -18.784864      -511.1621
  10   2.0000      -9.963493      -271.1204
  11   2.0000      -9.954935      -270.8876
  12   2.0000      -9.951422      -270.7920
  13   2.0000      -9.951259      -270.7875
  14   2.0000      -9.936974      -270.3988
  15   2.0000      -9.884571      -268.9728
  16   2.0000      -9.880706      -268.8677
  17   2.0000      -9.880443      -268.8605
  18   2.0000      -9.874677      -268.7036
  19   2.0000      -7.691098      -209.2854
  20   2.0000      -7.685528      -209.1339
  21   2.0000      -7.635865      -207.7824
  22   2.0000      -7.628480      -207.5815
  23   2.0000      -6.424255      -174.8129
  24   2.0000      -6.422544      -174.7663
  25   2.0000      -5.719459      -155.6344
  26   2.0000      -5.715407      -155.5241
  27   2.0000      -5.713622      -155.4756
  28   2.0000      -5.710066      -155.3788
  29   2.0000      -5.707775      -155.3165
  30   2.0000      -5.702151      -155.1634
  31   2.0000      -5.664658      -154.1432
  32   2.0000      -5.657363      -153.9447
  33   2.0000      -5.656702      -153.9267
  34   2.0000      -5.655929      -153.9056
  35   2.0000      -5.649030      -153.7179
  36   2.0000      -5.648788      -153.7113
  37   2.0000      -4.646658      -126.4420
  38   2.0000      -4.646180      -126.4290
  39   2.0000      -4.645003      -126.3970
  40   2.0000      -4.644723      -126.3893
  41   2.0000      -4.644447      -126.3818
  42   2.0000      -4.643091      -126.3449
  43   2.0000      -0.986412       -26.8416
  44   2.0000      -0.983705       -26.7680
  45   2.0000      -0.944081       -25.6898
  46   2.0000      -0.941448       -25.6181
  47   2.0000      -0.765260       -20.8238
  48   2.0000      -0.720964       -19.6184
  49   2.0000      -0.706136       -19.2149
  50   2.0000      -0.685416       -18.6511
  51   2.0000      -0.681002       -18.5310
  52   2.0000      -0.672579       -18.3018
  53   2.0000      -0.653358       -17.7788
  54   2.0000      -0.639441       -17.4001
  55   2.0000      -0.597540       -16.2599
  56   2.0000      -0.589575       -16.0432
  57   2.0000      -0.574705       -15.6385
  58   2.0000      -0.566325       -15.4105
  59   2.0000      -0.559439       -15.2231
  60   2.0000      -0.504403       -13.7255
  61   2.0000      -0.497039       -13.5251
  62   2.0000      -0.472680       -12.8623
  63   2.0000      -0.469514       -12.7761
  64   2.0000      -0.456642       -12.4259
  65   2.0000      -0.443181       -12.0596
  66   2.0000      -0.436909       -11.8889
  67   2.0000      -0.431999       -11.7553
  68   2.0000      -0.426929       -11.6173
  69   2.0000      -0.415056       -11.2942
  70   2.0000      -0.403363       -10.9761
  71   2.0000      -0.399989       -10.8843
  72   2.0000      -0.393973       -10.7205
  73   2.0000      -0.389729       -10.6051
  74   2.0000      -0.382279       -10.4023
  75   2.0000      -0.373451       -10.1621
  76   2.0000      -0.366891        -9.9836
  77   2.0000      -0.353971        -9.6320
  78   2.0000      -0.350673        -9.5423
  79   2.0000      -0.348998        -9.4967
  80   2.0000      -0.343505        -9.3472
  81   2.0000      -0.343295        -9.3415
  82   2.0000      -0.336273        -9.1505
  83   2.0000      -0.333154        -9.0656
  84   2.0000      -0.327028        -8.8989
  85   2.0000      -0.320273        -8.7151
  86   2.0000      -0.311762        -8.4835
  87   2.0000      -0.298605        -8.1255
  88   2.0000      -0.295966        -8.0537
  89   2.0000      -0.293869        -7.9966
  90   2.0000      -0.280986        -7.6460
  91   2.0000      -0.271903        -7.3989
  92   2.0000      -0.266820        -7.2606
  93   2.0000      -0.262554        -7.1445
  94   2.0000      -0.260092        -7.0775
  95   2.0000      -0.228577        -6.2199
  96   2.0000      -0.221713        -6.0331
  97   2.0000      -0.213101        -5.7988
  98   2.0000      -0.205811        -5.6004
  99   2.0000      -0.196015        -5.3338
 100   2.0000      -0.194642        -5.2965
 101   0.0000      -0.047977        -1.3055
 102   0.0000      -0.027440        -0.7467
 103   0.0000      -0.011135        -0.3030
 104   0.0000      -0.001830        -0.0498
 105   0.0000       0.015613         0.4248

MULLIKEN ATOMIC CHARGES
-----------------------
   0 C :   -0.300700
   1 C :   -0.018988
   2 O :   -0.365217
   3 P :    0.612780
   4 S :   -0.329700
   5 O :   -0.373089
   6 C :   -0.013626
   7 C :   -0.293708
   8 S :   -0.088077
   9 C :   -0.321148
  10 S :   -0.074703
  11 P :    0.629653
  12 S :   -0.325103
  13 O :   -0.382015
  14 C :   -0.006390
  15 C :   -0.309879
  16 O :   -0.369051
  17 C :   -0.006845
  18 C :   -0.287216
  19 H :    0.119623
  20 H :    0.110707
  21 H :    0.110254
  22 H :    0.114541
  23 H :    0.113090
  24 H :    0.102718
  25 H :    0.106971
  26 H :    0.114777
  27 H :    0.130705
  28 H :    0.106735
  29 H :    0.192101
  30 H :    0.181065
  31 H :    0.110664
  32 H :    0.103023
  33 H :    0.112884
  34 H :    0.125048
  35 H :    0.113002
  36 H :    0.100517
  37 H :    0.105404
  38 H :    0.105935
  39 H :    0.128657
  40 H :    0.114603
Sum of atomic charges:    0.0000000

LOEWDIN ATOMIC CHARGES
----------------------
   0 C :   -0.364976
   1 C :   -0.128666
   2 O :   -0.234915
   3 P :    0.565884
   4 S :   -0.328376
   5 O :   -0.245195
   6 C :   -0.116572
   7 C :   -0.364037
   8 S :    0.087909
   9 C :   -0.466626
  10 S :    0.116230
  11 P :    0.570941
  12 S :   -0.310855
  13 O :   -0.256165
  14 C :   -0.122361
  15 C :   -0.366919
  16 O :   -0.239567
  17 C :   -0.111778
  18 C :   -0.355355
  19 H :    0.119464
  20 H :    0.123310
  21 H :    0.129962
  22 H :    0.112444
  23 H :    0.109027
  24 H :    0.106829
  25 H :    0.118592
  26 H :    0.125663
  27 H :    0.124823
  28 H :    0.128405
  29 H :    0.139739
  30 H :    0.135255
  31 H :    0.109181
  32 H :    0.117356
  33 H :    0.122963
  34 H :    0.119955
  35 H :    0.130740
  36 H :    0.111929
  37 H :    0.107594
  38 H :    0.127222
  39 H :    0.128062
  40 H :    0.122885

  Mayer bond orders larger than 0.100000
B(  0-C ,  1-C ) :   1.1619 B(  0-C , 19-H ) :   0.9332 B(  0-C , 20-H ) :   0.9472
B(  0-C , 21-H ) :   0.9398 B(  1-C ,  2-O ) :   0.8904 B(  1-C , 22-H ) :   0.9178
B(  1-C , 23-H ) :   0.9147 B(  2-O ,  3-P ) :   1.1055 B(  3-P ,  4-S ) :   1.5978
B(  3-P ,  5-O ) :   1.1023 B(  3-P ,  8-S ) :   0.9832 B(  4-S ,  8-S ) :   0.1120
B(  5-O ,  6-C ) :   0.9062 B(  6-C ,  7-C ) :   1.1685 B(  6-C , 24-H ) :   0.9158
B(  6-C , 25-H ) :   0.9359 B(  7-C , 26-H ) :   0.9463 B(  7-C , 27-H ) :   0.9304
B(  7-C , 28-H ) :   0.9392 B(  8-S ,  9-C ) :   0.9801 B(  9-C , 10-S ) :   1.0027
B(  9-C , 29-H ) :   0.9028 B(  9-C , 30-H ) :   0.9064 B( 10-S , 11-P ) :   0.9583
B( 11-P , 12-S ) :   1.6293 B( 11-P , 13-O ) :   1.0743 B( 11-P , 16-O ) :   1.1292
B( 13-O , 14-C ) :   0.9189 B( 14-C , 15-C ) :   1.1620 B( 14-C , 31-H ) :   0.9147
B( 14-C , 32-H ) :   0.9338 B( 15-C , 33-H ) :   0.9457 B( 15-C , 34-H ) :   0.9364
B( 15-C , 35-H ) :   0.9387 B( 16-O , 17-C ) :   0.8964 B( 17-C , 18-C ) :   1.1631
B( 17-C , 36-H ) :   0.9329 B( 17-C , 37-H ) :   0.9103 B( 18-C , 38-H ) :   0.9398
B( 18-C , 39-H ) :   0.9432 B( 18-C , 40-H ) :   0.9478

Dispersion correction           -0.068094606
FINAL SINGLE POINT ENERGY     -2929.519774902222

DIPOLE MOMENT
-------------

Method             : SCF
Type of density    : Electron Density
Multiplicity       :   1
Irrep              :   0
Energy             : -2929.6372937691808147 Eh
Relativity type    :
Basis              : AO
                                X                 Y                 Z
Electronic contribution:     -3.716280393       7.705887234       4.627285940
Nuclear contribution   :      2.941694004      -8.576447951      -4.111728444
                        -----------------------------------------
Total Dipole Moment    :     -0.774586389      -0.870560717       0.515557496
                        -----------------------------------------
Magnitude (a.u.)       :      1.274229009
Magnitude (Debye)      :      3.238832746

Rotational constants in cm-1:             0.013259             0.005259             0.005137
Rotational constants in MHz :           397.508823           157.653577           153.997135

                             ****ORCA TERMINATED NORMALLY****
TOTAL RUN TIME: 0 days 0 hours 0 minutes 22 seconds 386 msec
