                         Program Version 6.0.0  -   RELEASE  -
|  1> ! pbe def2-sv(p) def2/J RI DEFGRID1 loosescf d4 GCP(DFT/SV(P)) printgap
|  2> %output
|  3>     printlevel normal
|  4> end
|  5> * xyz 0 1
|  6> C 4.1469473606 -0.7279886758 -2.1912429794
|  7> C 4.3730372922 -0.7922106448 -0.6942259967
|  8> O 3.1381296709 -0.7298028798 0.0381619883
|  9> P 2.2794410686 0.6155664343 0.1094895818
| 10> S 3.3581901481 2.2494290546 0.1958806296
| 11> O 1.3331333331 0.3528179535 1.3530447122
| 12> C 1.8455267943 0.3070885261 2.704944833
| 13> C 2.1229214209 -1.1222553821 3.1239065106
| 14> S 0.8332255 0.4886928612 -1.4215682219
| 15> C 0.2938447021 -1.2329822101 -1.1607826741
| 16> S -0.8131376952 -1.462181634 0.2479070802
| 17> P -2.3372036728 -0.1295375757 -0.4065491811
| 18> S -2.6428848911 -0.0487267944 -2.3364209794
| 19> O -1.9571153228 1.307720617 0.1284127355
| 20> C -1.7338558207 1.60957316 1.524390303
| 21> C -2.9576643453 2.2644433384 2.130837119
| 22> O -3.5566115891 -0.5111063359 0.5395522077
| 23> C -4.0610008812 -1.8456252825 0.744677835
| 24> C -4.416285726 -2.5463688589 -0.5492993675
| 25> H 3.4844554427 -1.5257054114 -2.5173677362
| 26> H 3.7003756057 0.2305482383 -2.4563646065
| 27> H 5.099319532 -0.8230535198 -2.7028518366
| 28> H 5.0089591994 0.0373155968 -0.3693594505
| 29> H 4.8151204675 -1.742507958 -0.3920109015
| 30> H 2.7446637078 0.9292096174 2.7618995844
| 31> H 1.0571610943 0.7536417895 3.3140509007
| 32> H 1.2292750732 -1.7256462691 2.9871342223
| 33> H 2.9251333146 -1.5448464997 2.5251450954
| 34> H 2.4124226999 -1.1358668152 4.1699105183
| 35> H 1.1566351411 -1.8707384594 -0.9868813388
| 36> H -0.2328015236 -1.5032210233 -2.0755878252
| 37> H -1.4738474727 0.6863428456 2.050641648
| 38> H -0.8749322509 2.2854444136 1.5278574953
| 39> H -3.8022292566 1.5812279445 2.0995458773
| 40> H -2.7459073469 2.5315028305 3.1614665294
| 41> H -3.2126120567 3.1609864284 1.5723524843
| 42> H -3.3068024586 -2.4127677652 1.2971054006
| 43> H -4.9428013691 -1.6925935583 1.3693206981
| 44> H -4.8702318595 -3.5064245534 -0.3258984903
| 45> H -5.1119833038 -1.9441079932 -1.1287526395
| 46> H -3.5218956659 -2.7059971321 -1.1493291399
| 47> *
| 48>
| 49>                          ****END OF INPUT****

CARTESIAN COORDINATES (ANGSTROEM)
---------------------------------
  C      4.146947   -0.727989   -2.191243
  C      4.373037   -0.792211   -0.694226
  O      3.138130   -0.729803    0.038162
  P      2.279441    0.615566    0.109490
  S      3.358190    2.249429    0.195881
  O      1.333133    0.352818    1.353045
  C      1.845527    0.307089    2.704945
  C      2.122921   -1.122255    3.123907
  S      0.833225    0.488693   -1.421568
  C      0.293845   -1.232982   -1.160783
  S     -0.813138   -1.462182    0.247907
  P     -2.337204   -0.129538   -0.406549
  S     -2.642885   -0.048727   -2.336421
  O     -1.957115    1.307721    0.128413
  C     -1.733856    1.609573    1.524390
  C     -2.957664    2.264443    2.130837
  O     -3.556612   -0.511106    0.539552
  C     -4.061001   -1.845625    0.744678
  C     -4.416286   -2.546369   -0.549299
  H      3.484455   -1.525705   -2.517368
  H      3.700376    0.230548   -2.456365
  H      5.099320   -0.823054   -2.702852
  H      5.008959    0.037316   -0.369359
  H      4.815120   -1.742508   -0.392011
  H      2.744664    0.929210    2.761900
  H      1.057161    0.753642    3.314051
  H      1.229275   -1.725646    2.987134
  H      2.925133   -1.544846    2.525145
  H      2.412423   -1.135867    4.169911
  H      1.156635   -1.870738   -0.986881
  H     -0.232802   -1.503221   -2.075588
  H     -1.473847    0.686343    2.050642
  H     -0.874932    2.285444    1.527857
  H     -3.802229    1.581228    2.099546
  H     -2.745907    2.531503    3.161467
  H     -3.212612    3.160986    1.572352
  H     -3.306802   -2.412768    1.297105
  H     -4.942801   -1.692594    1.369321
  H     -4.870232   -3.506425   -0.325898
  H     -5.111983   -1.944108   -1.128753
  H     -3.521896   -2.705997   -1.149329

 Total Charge           Charge          ....    0
 Multiplicity           Mult            ....    1
 Number of Electrons    NEL             ....  202
 Basis Dimension        Dim             ....  334

ORBITAL ENERGIES
----------------

  NO   OCC          E(Eh)            E(eV)
   0   2.0000     -88.044541     -2395.8138
   1   2.0000     -88.043969     -2395.7982
   2   2.0000     -87.987272     -2394.2554
   3   2.0000     -87.982791     -2394.1335
   4   2.0000     -76.427071     -2079.6863
   5   2.0000     -76.426799     -2079.6789
   6   2.0000     -18.798581      -511.5354
   7   2.0000     -18.798483      -511.5327
   8   2.0000     -18.792658      -511.3742
   9   2.0000     -18.787010      -511.2205
  10   2.0000      -9.961952      -271.0785
  11   2.0000      -9.959775      -271.0193
  12   2.0000      -9.957106      -270.9466
  13   2.0000      -9.955750      -270.9097
  14   2.0000      -9.950355      -270.7629
  15   2.0000      -9.889276      -269.1009
  16   2.0000      -9.887596      -269.0552
  17   2.0000      -9.885511      -268.9984
  18   2.0000      -9.883331      -268.9391
  19   2.0000      -7.689518      -209.2424
  20   2.0000      -7.688790      -209.2226
  21   2.0000      -7.632447      -207.6894
  22   2.0000      -7.628134      -207.5721
  23   2.0000      -6.424790      -174.8274
  24   2.0000      -6.424048      -174.8072
  25   2.0000      -5.717266      -155.5747
  26   2.0000      -5.717084      -155.5698
  27   2.0000      -5.714007      -155.4860
  28   2.0000      -5.713136      -155.4623
  29   2.0000      -5.706628      -155.2852
  30   2.0000      -5.705523      -155.2552
  31   2.0000      -5.661380      -154.0540
  32   2.0000      -5.657249      -153.9416
  33   2.0000      -5.653203      -153.8315
  34   2.0000      -5.652469      -153.8115
  35   2.0000      -5.648653      -153.7077
  36   2.0000      -5.648162      -153.6943
  37   2.0000      -4.647408      -126.4624
  38   2.0000      -4.646922      -126.4492
  39   2.0000      -4.646734      -126.4441
  40   2.0000      -4.646101      -126.4268
  41   2.0000      -4.644963      -126.3959
  42   2.0000      -4.644063      -126.3714
  43   2.0000      -0.990799       -26.9610
  44   2.0000      -0.988785       -26.9062
  45   2.0000      -0.949538       -25.8383
  46   2.0000      -0.944136       -25.6913
  47   2.0000      -0.766041       -20.8450
  48   2.0000      -0.723208       -19.6795
  49   2.0000      -0.711371       -19.3574
  50   2.0000      -0.692204       -18.8358
  51   2.0000      -0.691483       -18.8162
  52   2.0000      -0.676903       -18.4195
  53   2.0000      -0.653014       -17.7694
  54   2.0000      -0.639229       -17.3943
  55   2.0000      -0.600020       -16.3274
  56   2.0000      -0.590715       -16.0742
  57   2.0000      -0.578630       -15.7453
  58   2.0000      -0.572419       -15.5763
  59   2.0000      -0.568558       -15.4712
  60   2.0000      -0.505425       -13.7533
  61   2.0000      -0.499143       -13.5824
  62   2.0000      -0.477915       -13.0047
  63   2.0000      -0.474672       -12.9165
  64   2.0000      -0.465857       -12.6766
  65   2.0000      -0.449757       -12.2385
  66   2.0000      -0.444931       -12.1072
  67   2.0000      -0.435235       -11.8433
  68   2.0000      -0.431958       -11.7542
  69   2.0000      -0.416833       -11.3426
  70   2.0000      -0.411004       -11.1840
  71   2.0000      -0.404072       -10.9953
  72   2.0000      -0.396580       -10.7915
  73   2.0000      -0.390716       -10.6319
  74   2.0000      -0.384106       -10.4520
  75   2.0000      -0.373902       -10.1744
  76   2.0000      -0.368135       -10.0175
  77   2.0000      -0.360356        -9.8058
  78   2.0000      -0.355698        -9.6790
  79   2.0000      -0.351880        -9.5751
  80   2.0000      -0.349481        -9.5099
  81   2.0000      -0.348594        -9.4857
  82   2.0000      -0.345640        -9.4053
  83   2.0000      -0.339919        -9.2497
  84   2.0000      -0.332978        -9.0608
  85   2.0000      -0.323796        -8.8109
  86   2.0000      -0.319326        -8.6893
  87   2.0000      -0.299437        -8.1481
  88   2.0000      -0.297601        -8.0981
  89   2.0000      -0.293533        -7.9874
  90   2.0000      -0.286796        -7.8041
  91   2.0000      -0.281518        -7.6605
  92   2.0000      -0.276892        -7.5346
  93   2.0000      -0.268018        -7.2931
  94   2.0000      -0.258938        -7.0461
  95   2.0000      -0.232258        -6.3201
  96   2.0000      -0.219416        -5.9706
  97   2.0000      -0.208563        -5.6753
  98   2.0000      -0.203658        -5.5418
  99   2.0000      -0.200383        -5.4527
 100   2.0000      -0.196993        -5.3604
 101   0.0000      -0.043063        -1.1718
 102   0.0000      -0.023817        -0.6481
 103   0.0000      -0.013025        -0.3544
 104   0.0000      -0.002772        -0.0754
 105   0.0000       0.005780         0.1573

MULLIKEN ATOMIC CHARGES
-----------------------
   0 C :   -0.315968
   1 C :   -0.007727
   2 O :   -0.388006
   3 P :    0.601141
   4 S :   -0.318395
   5 O :   -0.367815
   6 C :   -0.006262
   7 C :   -0.296058
   8 S :   -0.038690
   9 C :   -0.360345
  10 S :   -0.101303
  11 P :    0.595388
  12 S :   -0.306701
  13 O :   -0.344504
  14 C :   -0.020122
  15 C :   -0.282648
  16 O :   -0.380365
  17 C :   -0.011088
  18 C :   -0.307103
  19 H :    0.114203
  20 H :    0.132872
  21 H :    0.115472
  22 H :    0.114378
  23 H :    0.103413
  24 H :    0.103536
  25 H :    0.104180
  26 H :    0.116436
  27 H :    0.119477
  28 H :    0.110270
  29 H :    0.182751
  30 H :    0.195867
  31 H :    0.098317
  32 H :    0.118268
  33 H :    0.116616
  34 H :    0.105315
  35 H :    0.121493
  36 H :    0.111045
  37 H :    0.109112
  38 H :    0.111091
  39 H :    0.128451
  40 H :    0.124008
Sum of atomic charges:   -0.0000000

LOEWDIN ATOMIC CHARGES
----------------------
   0 C :   -0.366914
   1 C :   -0.123683
   2 O :   -0.250111
   3 P :    0.560792
   4 S :   -0.322871
   5 O :   -0.243107
   6 C :   -0.115172
   7 C :   -0.361095
   8 S :    0.117251
   9 C :   -0.479901
  10 S :    0.070842
  11 P :    0.566434
  12 S :   -0.306765
  13 O :   -0.228529
  14 C :   -0.116605
  15 C :   -0.358528
  16 O :   -0.245882
  17 C :   -0.115244
  18 C :   -0.368959
  19 H :    0.122633
  20 H :    0.124267
  21 H :    0.132552
  22 H :    0.110965
  23 H :    0.116864
  24 H :    0.109108
  25 H :    0.115661
  26 H :    0.124332
  27 H :    0.124970
  28 H :    0.129217
  29 H :    0.129892
  30 H :    0.133914
  31 H :    0.100302
  32 H :    0.121880
  33 H :    0.124513
  34 H :    0.127241
  35 H :    0.129731
  36 H :    0.106985
  37 H :    0.120954
  38 H :    0.130029
  39 H :    0.131349
  40 H :    0.120689

  Mayer bond orders larger than 0.100000
B(  0-C ,  1-C ) :   1.1630 B(  0-C , 19-H ) :   0.9467 B(  0-C , 20-H ) :   0.9333
B(  0-C , 21-H ) :   0.9386 B(  1-C ,  2-O ) :   0.9062 B(  1-C , 22-H ) :   0.9115
B(  1-C , 23-H ) :   0.9331 B(  2-O ,  3-P ) :   1.0466 B(  3-P ,  4-S ) :   1.6559
B(  3-P ,  5-O ) :   1.1088 B(  3-P ,  8-S ) :   0.9806 B(  5-O ,  6-C ) :   0.8986
B(  6-C ,  7-C ) :   1.1677 B(  6-C , 24-H ) :   0.9082 B(  6-C , 25-H ) :   0.9320
B(  7-C , 26-H ) :   0.9467 B(  7-C , 27-H ) :   0.9423 B(  7-C , 28-H ) :   0.9401
B(  8-S ,  9-C ) :   0.9924 B(  9-C , 10-S ) :   1.0056 B(  9-C , 29-H ) :   0.8902
B(  9-C , 30-H ) :   0.8838 B( 10-S , 11-P ) :   0.9504 B( 10-S , 12-S ) :   0.1102
B( 11-P , 12-S ) :   1.6436 B( 11-P , 13-O ) :   1.1367 B( 11-P , 16-O ) :   1.0785
B( 13-O , 14-C ) :   0.8953 B( 14-C , 15-C ) :   1.1574 B( 14-C , 31-H ) :   0.9121
B( 14-C , 32-H ) :   0.9314 B( 15-C , 33-H ) :   0.9430 B( 15-C , 34-H ) :   0.9411
B( 15-C , 35-H ) :   0.9464 B( 16-O , 17-C ) :   0.9126 B( 17-C , 18-C ) :   1.1674
B( 17-C , 36-H ) :   0.9260 B( 17-C , 37-H ) :   0.9329 B( 18-C , 38-H ) :   0.9346
B( 18-C , 39-H ) :   0.9429 B( 18-C , 40-H ) :   0.9320

Dispersion correction           -0.065961962
FINAL SINGLE POINT ENERGY     -2929.517795106226

DIPOLE MOMENT
-------------

Method             : SCF
Type of density    : Electron Density
Multiplicity       :   1
Irrep              :   0
Energy             : -2929.6381270653273532 Eh
Relativity type    :
Basis              : AO
                                X                 Y                 Z
Electronic contribution:      0.556125970       9.956714906     -12.604941550
Nuclear contribution   :     -0.419041751     -11.662777069      14.213029870
                        -----------------------------------------
Total Dipole Moment    :      0.137084218      -1.706062163       1.608088320
                        -----------------------------------------
Magnitude (a.u.)       :      2.348486371
Magnitude (Debye)      :      5.969377960

Rotational constants in cm-1:             0.012500             0.005020             0.004632
Rotational constants in MHz :           374.746792           150.503965           138.876088

                             ****ORCA TERMINATED NORMALLY****
TOTAL RUN TIME: 0 days 0 hours 0 minutes 21 seconds 298 msec
