                         Program Version 6.0.0  -   RELEASE  -
|  1> ! pbe def2-sv(p) def2/J RI DEFGRID1 loosescf d4 GCP(DFT/SV(P)) printgap
|  2> %output
|  3>     printlevel normal
|  4> end
|  5> * xyz 0 1
|  6> C 1.6542025857 -2.0578133587 -3.1081500663
|  7> C 1.5487698291 -0.6716096614 -2.5064846643
|  8> O 1.0657218892 -0.7519092438 -1.1488272623
|  9> P 2.0920931503 -0.69923324 0.0650949948
| 10> S 3.7849433684 -1.6635939186 -0.1170868934
| 11> O 1.0958205586 -1.274835689 1.1577510726
| 12> C 1.5715643041 -1.7645114363 2.4248106931
| 13> C 1.9928657532 -0.6359437352 3.344892609
| 14> S 2.347245972 1.3789046543 0.4476732584
| 15> C 0.6769067355 2.030522414 0.1487416475
| 16> S -0.6153253192 1.2668531303 1.16839131
| 17> P -2.0770044571 0.8588427408 -0.3330365417
| 18> S -1.5209915466 1.1492687025 -2.1888888012
| 19> O -3.2946363272 1.8030245398 -0.0061213492
| 20> C -3.7559697441 2.2086675404 1.3048967839
| 21> C -4.025026683 1.0407656096 2.228227737
| 22> O -2.6739021401 -0.5672076112 0.0336293593
| 23> C -2.0206507016 -1.8282099151 -0.188905434
| 24> C -2.3103712077 -2.3599460203 -1.5792821596
| 25> H 2.3845327106 -2.6481621533 -2.5585305757
| 26> H 0.6904090505 -2.5569995055 -3.0658918675
| 27> H 1.9706062968 -1.9728031669 -4.1426248613
| 28> H 0.8139193659 -0.0594499695 -3.0353475989
| 29> H 2.521022189 -0.1683561769 -2.5169664823
| 30> H 0.7213928356 -2.3156267621 2.8289585917
| 31> H 2.4061231082 -2.4490205062 2.2406297896
| 32> H 2.2222210936 -1.040399704 4.3254450878
| 33> H 2.8800956964 -0.1420613873 2.9503360694
| 34> H 1.1926190922 0.0955126573 3.433323862
| 35> H 0.4037225964 1.9007062877 -0.9024564495
| 36> H 0.7492049176 3.0843297667 0.4072239101
| 37> H -3.0063020105 2.8778489793 1.7347397059
| 38> H -4.6669640278 2.7667670412 1.0836583273
| 39> H -4.7099283803 0.3388778174 1.7598171402
| 40> H -3.095311825 0.525763459 2.4639005848
| 41> H -4.4644218556 1.4125567511 3.1488038624
| 42> H -0.9459181692 -1.7189087296 -0.0295296972
| 43> H -2.4381089304 -2.4848651719 0.5773464282
| 44> H -3.3832697169 -2.4302522704 -1.7375536071
| 45> H -1.8900366424 -1.6972599188 -2.3327407812
| 46> H -1.8661924064 -3.3448858835 -1.6845320863
| 47> *
| 48>
| 49>                          ****END OF INPUT****

CARTESIAN COORDINATES (ANGSTROEM)
---------------------------------
  C      1.654203   -2.057813   -3.108150
  C      1.548770   -0.671610   -2.506485
  O      1.065722   -0.751909   -1.148827
  P      2.092093   -0.699233    0.065095
  S      3.784943   -1.663594   -0.117087
  O      1.095821   -1.274836    1.157751
  C      1.571564   -1.764511    2.424811
  C      1.992866   -0.635944    3.344893
  S      2.347246    1.378905    0.447673
  C      0.676907    2.030522    0.148742
  S     -0.615325    1.266853    1.168391
  P     -2.077004    0.858843   -0.333037
  S     -1.520992    1.149269   -2.188889
  O     -3.294636    1.803025   -0.006121
  C     -3.755970    2.208668    1.304897
  C     -4.025027    1.040766    2.228228
  O     -2.673902   -0.567208    0.033629
  C     -2.020651   -1.828210   -0.188905
  C     -2.310371   -2.359946   -1.579282
  H      2.384533   -2.648162   -2.558531
  H      0.690409   -2.557000   -3.065892
  H      1.970606   -1.972803   -4.142625
  H      0.813919   -0.059450   -3.035348
  H      2.521022   -0.168356   -2.516966
  H      0.721393   -2.315627    2.828959
  H      2.406123   -2.449021    2.240630
  H      2.222221   -1.040400    4.325445
  H      2.880096   -0.142061    2.950336
  H      1.192619    0.095513    3.433324
  H      0.403723    1.900706   -0.902456
  H      0.749205    3.084330    0.407224
  H     -3.006302    2.877849    1.734740
  H     -4.666964    2.766767    1.083658
  H     -4.709928    0.338878    1.759817
  H     -3.095312    0.525763    2.463901
  H     -4.464422    1.412557    3.148804
  H     -0.945918   -1.718909   -0.029530
  H     -2.438109   -2.484865    0.577346
  H     -3.383270   -2.430252   -1.737554
  H     -1.890037   -1.697260   -2.332741
  H     -1.866192   -3.344886   -1.684532

 Total Charge           Charge          ....    0
 Multiplicity           Mult            ....    1
 Number of Electrons    NEL             ....  202
 Basis Dimension        Dim             ....  334

ORBITAL ENERGIES
----------------

  NO   OCC          E(Eh)            E(eV)
   0   2.0000     -88.048804     -2395.9298
   1   2.0000     -88.046165     -2395.8579
   2   2.0000     -87.990872     -2394.3534
   3   2.0000     -87.989774     -2394.3235
   4   2.0000     -76.431070     -2079.7951
   5   2.0000     -76.429074     -2079.7408
   6   2.0000     -18.795137      -511.4417
   7   2.0000     -18.793881      -511.4075
   8   2.0000     -18.793412      -511.3947
   9   2.0000     -18.793084      -511.3858
  10   2.0000      -9.960898      -271.0498
  11   2.0000      -9.957464      -270.9564
  12   2.0000      -9.954939      -270.8877
  13   2.0000      -9.949270      -270.7334
  14   2.0000      -9.947367      -270.6816
  15   2.0000      -9.893633      -269.2194
  16   2.0000      -9.885381      -268.9949
  17   2.0000      -9.879104      -268.8241
  18   2.0000      -9.878308      -268.8024
  19   2.0000      -7.693180      -209.3421
  20   2.0000      -7.691037      -209.2837
  21   2.0000      -7.635985      -207.7857
  22   2.0000      -7.634850      -207.7548
  23   2.0000      -6.428392      -174.9254
  24   2.0000      -6.426534      -174.8749
  25   2.0000      -5.721019      -155.6768
  26   2.0000      -5.719280      -155.6295
  27   2.0000      -5.717677      -155.5859
  28   2.0000      -5.715111      -155.5161
  29   2.0000      -5.710285      -155.3848
  30   2.0000      -5.708178      -155.3274
  31   2.0000      -5.664955      -154.1513
  32   2.0000      -5.663754      -154.1186
  33   2.0000      -5.656667      -153.9257
  34   2.0000      -5.656046      -153.9088
  35   2.0000      -5.655588      -153.8964
  36   2.0000      -5.654800      -153.8749
  37   2.0000      -4.650977      -126.5595
  38   2.0000      -4.650282      -126.5406
  39   2.0000      -4.648925      -126.5037
  40   2.0000      -4.648813      -126.5006
  41   2.0000      -4.648705      -126.4977
  42   2.0000      -4.646769      -126.4450
  43   2.0000      -0.990925       -26.9644
  44   2.0000      -0.989221       -26.9181
  45   2.0000      -0.947452       -25.7815
  46   2.0000      -0.946858       -25.7653
  47   2.0000      -0.763142       -20.7662
  48   2.0000      -0.723779       -19.6950
  49   2.0000      -0.712734       -19.3945
  50   2.0000      -0.692061       -18.8319
  51   2.0000      -0.684155       -18.6168
  52   2.0000      -0.678878       -18.4732
  53   2.0000      -0.656360       -17.8605
  54   2.0000      -0.641174       -17.4472
  55   2.0000      -0.600817       -16.3491
  56   2.0000      -0.596814       -16.2401
  57   2.0000      -0.575553       -15.6616
  58   2.0000      -0.568488       -15.4694
  59   2.0000      -0.563013       -15.3204
  60   2.0000      -0.504300       -13.7227
  61   2.0000      -0.497380       -13.5344
  62   2.0000      -0.478237       -13.0135
  63   2.0000      -0.473758       -12.8916
  64   2.0000      -0.455011       -12.3815
  65   2.0000      -0.448722       -12.2103
  66   2.0000      -0.444480       -12.0949
  67   2.0000      -0.438452       -11.9309
  68   2.0000      -0.428586       -11.6624
  69   2.0000      -0.421335       -11.4651
  70   2.0000      -0.408422       -11.1137
  71   2.0000      -0.404049       -10.9947
  72   2.0000      -0.397736       -10.8230
  73   2.0000      -0.393783       -10.7154
  74   2.0000      -0.387072       -10.5328
  75   2.0000      -0.368875       -10.0376
  76   2.0000      -0.366132        -9.9629
  77   2.0000      -0.360078        -9.7982
  78   2.0000      -0.357664        -9.7325
  79   2.0000      -0.356362        -9.6971
  80   2.0000      -0.349177        -9.5016
  81   2.0000      -0.347675        -9.4607
  82   2.0000      -0.337663        -9.1883
  83   2.0000      -0.334485        -9.1018
  84   2.0000      -0.329350        -8.9621
  85   2.0000      -0.326989        -8.8978
  86   2.0000      -0.318557        -8.6684
  87   2.0000      -0.300751        -8.1839
  88   2.0000      -0.297336        -8.0909
  89   2.0000      -0.292850        -7.9689
  90   2.0000      -0.286189        -7.7876
  91   2.0000      -0.278026        -7.5655
  92   2.0000      -0.273447        -7.4409
  93   2.0000      -0.264378        -7.1941
  94   2.0000      -0.261062        -7.1039
  95   2.0000      -0.234183        -6.3724
  96   2.0000      -0.223453        -6.0805
  97   2.0000      -0.214002        -5.8233
  98   2.0000      -0.208304        -5.6682
  99   2.0000      -0.203733        -5.5439
 100   2.0000      -0.201021        -5.4701
 101   0.0000      -0.044506        -1.2111
 102   0.0000      -0.034365        -0.9351
 103   0.0000      -0.023618        -0.6427
 104   0.0000      -0.004351        -0.1184
 105   0.0000       0.012521         0.3407

MULLIKEN ATOMIC CHARGES
-----------------------
   0 C :   -0.291124
   1 C :   -0.021931
   2 O :   -0.368092
   3 P :    0.601325
   4 S :   -0.313079
   5 O :   -0.356049
   6 C :   -0.002357
   7 C :   -0.317636
   8 S :   -0.094595
   9 C :   -0.335986
  10 S :   -0.127276
  11 P :    0.617513
  12 S :   -0.308421
  13 O :   -0.360277
  14 C :    0.000222
  15 C :   -0.312994
  16 O :   -0.373600
  17 C :   -0.043703
  18 C :   -0.306652
  19 H :    0.121396
  20 H :    0.115319
  21 H :    0.108679
  22 H :    0.121908
  23 H :    0.102720
  24 H :    0.102322
  25 H :    0.113473
  26 H :    0.112387
  27 H :    0.127964
  28 H :    0.119882
  29 H :    0.200553
  30 H :    0.180981
  31 H :    0.108729
  32 H :    0.112919
  33 H :    0.126765
  34 H :    0.120135
  35 H :    0.115852
  36 H :    0.146861
  37 H :    0.097615
  38 H :    0.110841
  39 H :    0.136740
  40 H :    0.110674
Sum of atomic charges:   -0.0000000

LOEWDIN ATOMIC CHARGES
----------------------
   0 C :   -0.360477
   1 C :   -0.125041
   2 O :   -0.237207
   3 P :    0.565560
   4 S :   -0.312922
   5 O :   -0.232333
   6 C :   -0.119003
   7 C :   -0.369271
   8 S :    0.079342
   9 C :   -0.483332
  10 S :    0.073129
  11 P :    0.573166
  12 S :   -0.283720
  13 O :   -0.237465
  14 C :   -0.113515
  15 C :   -0.366500
  16 O :   -0.238639
  17 C :   -0.122238
  18 C :   -0.364414
  19 H :    0.123067
  20 H :    0.124202
  21 H :    0.130142
  22 H :    0.110940
  23 H :    0.108286
  24 H :    0.117436
  25 H :    0.110369
  26 H :    0.130406
  27 H :    0.121660
  28 H :    0.121098
  29 H :    0.121598
  30 H :    0.137185
  31 H :    0.109114
  32 H :    0.123974
  33 H :    0.130820
  34 H :    0.116821
  35 H :    0.132391
  36 H :    0.114134
  37 H :    0.115291
  38 H :    0.124508
  39 H :    0.122953
  40 H :    0.128484

  Mayer bond orders larger than 0.100000
B(  0-C ,  1-C ) :   1.1712 B(  0-C , 19-H ) :   0.9356 B(  0-C , 20-H ) :   0.9453
B(  0-C , 21-H ) :   0.9395 B(  1-C ,  2-O ) :   0.8925 B(  1-C , 22-H ) :   0.9112
B(  1-C , 23-H ) :   0.9116 B(  2-O ,  3-P ) :   1.0934 B(  3-P ,  4-S ) :   1.6461
B(  3-P ,  5-O ) :   1.0833 B(  3-P ,  8-S ) :   0.9679 B(  5-O ,  6-C ) :   0.9106
B(  6-C ,  7-C ) :   1.1633 B(  6-C , 24-H ) :   0.9335 B(  6-C , 25-H ) :   0.9139
B(  7-C , 26-H ) :   0.9383 B(  7-C , 27-H ) :   0.9375 B(  7-C , 28-H ) :   0.9426
B(  8-S ,  9-C ) :   0.9851 B(  9-C , 10-S ) :   1.0030 B(  9-C , 29-H ) :   0.8459
B(  9-C , 30-H ) :   0.9095 B( 10-S , 11-P ) :   0.9479 B( 10-S , 12-S ) :   0.1171
B( 11-P , 12-S ) :   1.6128 B( 11-P , 13-O ) :   1.1409 B( 11-P , 16-O ) :   1.1079
B( 12-S , 29-H ) :   0.1217 B( 13-O , 14-C ) :   0.9055 B( 14-C , 15-C ) :   1.1692
B( 14-C , 31-H ) :   0.9217 B( 14-C , 32-H ) :   0.9337 B( 15-C , 33-H ) :   0.9423
B( 15-C , 34-H ) :   0.9391 B( 15-C , 35-H ) :   0.9350 B( 16-O , 17-C ) :   0.8953
B( 17-C , 18-C ) :   1.1712 B( 17-C , 36-H ) :   0.8937 B( 17-C , 37-H ) :   0.9348
B( 18-C , 38-H ) :   0.9453 B( 18-C , 39-H ) :   0.9269 B( 18-C , 40-H ) :   0.9369

Dispersion correction           -0.067629872
FINAL SINGLE POINT ENERGY     -2929.519339216974

DIPOLE MOMENT
-------------

Method             : SCF
Type of density    : Electron Density
Multiplicity       :   1
Irrep              :   0
Energy             : -2929.6397402829752536 Eh
Relativity type    :
Basis              : AO
                                X                 Y                 Z
Electronic contribution:      9.897449785      11.423558537      -3.712281700
Nuclear contribution   :    -10.984439767     -11.499124884       4.902000694
                        -----------------------------------------
Total Dipole Moment    :     -1.086989982      -0.075566348       1.189718994
                        -----------------------------------------
Magnitude (a.u.)       :      1.613285090
Magnitude (Debye)      :      4.100644814

Rotational constants in cm-1:             0.011297             0.005962             0.005224
Rotational constants in MHz :           338.672920           178.726333           156.611176

                             ****ORCA TERMINATED NORMALLY****
TOTAL RUN TIME: 0 days 0 hours 0 minutes 22 seconds 181 msec
