                         Program Version 6.0.0  -   RELEASE  -
|  1> ! pbe def2-sv(p) def2/J RI DEFGRID1 loosescf d4 GCP(DFT/SV(P)) printgap
|  2> %output
|  3>     printlevel normal
|  4> end
|  5> * xyz 0 1
|  6> C 4.590717206 -1.5814511642 -0.6851742141
|  7> C 4.6050818469 -0.122594918 -0.2761383304
|  8> O 3.4315345779 0.2468861554 0.4671929675
|  9> P 1.9862118061 0.3252592837 -0.1947026686
| 10> S 1.9759244514 1.0133899548 -2.0349056299
| 11> O 1.1926672333 1.1486912 0.9033116185
| 12> C 1.1442349373 2.5866701413 0.9129964346
| 13> C 2.4927356805 3.2028705076 1.2176317499
| 14> S 1.2213315691 -1.5985938168 0.1439499951
| 15> C -0.0670741307 -1.7005584525 -1.147361924
| 16> S -1.7266329417 -1.9383294565 -0.476504055
| 17> P -2.0916603236 0.0511904344 0.1728096241
| 18> S -1.4942664967 1.4659222625 -1.0399997264
| 19> O -1.4623412202 0.1918738544 1.6122628664
| 20> C -1.8620331877 -0.622866347 2.7487771427
| 21> C -0.7803632747 -1.627105762 3.0917221529
| 22> O -3.647821538 0.0478810861 0.5030136769
| 23> C -4.6580048691 0.3293118435 -0.4824461383
| 24> C -4.7313764178 -0.7340966546 -1.5586968256
| 25> H 3.8092918669 -1.7523307363 -1.424180431
| 26> H 5.5500383117 -1.8396836953 -1.1219998939
| 27> H 4.4026679229 -2.2144605522 0.1782510435
| 28> H 4.6711049145 0.5216578482 -1.1590110927
| 29> H 5.4264343755 0.0964231323 0.4075057693
| 30> H 0.7677126834 2.9269378004 -0.0580372527
| 31> H 0.4053915682 2.8140637646 1.6835333403
| 32> H 3.1829060189 3.0093353018 0.3974703257
| 33> H 2.376055664 4.2758362627 1.3343458113
| 34> H 2.9007261659 2.7782242928 2.1311909965
| 35> H 0.1397401767 -2.5780049609 -1.7541381218
| 36> H -0.0352156897 -0.7877663866 -1.7484432818
| 37> H -2.0071619269 0.0943753802 3.5582745341
| 38> H -2.8089709756 -1.1145626573 2.5194911891
| 39> H 0.1753548675 -1.1211126078 3.2044215123
| 40> H -1.0387633931 -2.1169731286 4.0251315276
| 41> H -0.6837164541 -2.3779942648 2.3111936399
| 42> H -5.5785603513 0.3762980435 0.1011929704
| 43> H -4.4456878548 1.3085636321 -0.9223705816
| 44> H -4.812254017 -1.721749182 -1.1119175057
| 45> H -5.5987075201 -0.5479563735 -2.1839732079
| 46> H -3.8376342501 -0.7003885025 -2.1795225155
| 47> *
| 48>
| 49>                          ****END OF INPUT****

CARTESIAN COORDINATES (ANGSTROEM)
---------------------------------
  C      4.590717   -1.581451   -0.685174
  C      4.605082   -0.122595   -0.276138
  O      3.431535    0.246886    0.467193
  P      1.986212    0.325259   -0.194703
  S      1.975924    1.013390   -2.034906
  O      1.192667    1.148691    0.903312
  C      1.144235    2.586670    0.912996
  C      2.492736    3.202871    1.217632
  S      1.221332   -1.598594    0.143950
  C     -0.067074   -1.700558   -1.147362
  S     -1.726633   -1.938329   -0.476504
  P     -2.091660    0.051190    0.172810
  S     -1.494266    1.465922   -1.040000
  O     -1.462341    0.191874    1.612263
  C     -1.862033   -0.622866    2.748777
  C     -0.780363   -1.627106    3.091722
  O     -3.647822    0.047881    0.503014
  C     -4.658005    0.329312   -0.482446
  C     -4.731376   -0.734097   -1.558697
  H      3.809292   -1.752331   -1.424180
  H      5.550038   -1.839684   -1.122000
  H      4.402668   -2.214461    0.178251
  H      4.671105    0.521658   -1.159011
  H      5.426434    0.096423    0.407506
  H      0.767713    2.926938   -0.058037
  H      0.405392    2.814064    1.683533
  H      3.182906    3.009335    0.397470
  H      2.376056    4.275836    1.334346
  H      2.900726    2.778224    2.131191
  H      0.139740   -2.578005   -1.754138
  H     -0.035216   -0.787766   -1.748443
  H     -2.007162    0.094375    3.558275
  H     -2.808971   -1.114563    2.519491
  H      0.175355   -1.121113    3.204422
  H     -1.038763   -2.116973    4.025132
  H     -0.683716   -2.377994    2.311194
  H     -5.578560    0.376298    0.101193
  H     -4.445688    1.308564   -0.922371
  H     -4.812254   -1.721749   -1.111918
  H     -5.598708   -0.547956   -2.183973
  H     -3.837634   -0.700389   -2.179523

 Total Charge           Charge          ....    0
 Multiplicity           Mult            ....    1
 Number of Electrons    NEL             ....  202
 Basis Dimension        Dim             ....  334

ORBITAL ENERGIES
----------------

  NO   OCC          E(Eh)            E(eV)
   0   2.0000     -88.044514     -2395.8130
   1   2.0000     -88.039559     -2395.6782
   2   2.0000     -87.983198     -2394.1445
   3   2.0000     -87.981302     -2394.0929
   4   2.0000     -76.424782     -2079.6240
   5   2.0000     -76.419911     -2079.4915
   6   2.0000     -18.794935      -511.4362
   7   2.0000     -18.788042      -511.2486
   8   2.0000     -18.787587      -511.2362
   9   2.0000     -18.778328      -510.9843
  10   2.0000      -9.955010      -270.8896
  11   2.0000      -9.954243      -270.8687
  12   2.0000      -9.953666      -270.8530
  13   2.0000      -9.948044      -270.7000
  14   2.0000      -9.936982      -270.3990
  15   2.0000      -9.884925      -268.9825
  16   2.0000      -9.880716      -268.8679
  17   2.0000      -9.879756      -268.8418
  18   2.0000      -9.875155      -268.7166
  19   2.0000      -7.689562      -209.2436
  20   2.0000      -7.684791      -209.1138
  21   2.0000      -7.628088      -207.5708
  22   2.0000      -7.626164      -207.5185
  23   2.0000      -6.422324      -174.7603
  24   2.0000      -6.417487      -174.6287
  25   2.0000      -5.717334      -155.5766
  26   2.0000      -5.713981      -155.4853
  27   2.0000      -5.712681      -155.4499
  28   2.0000      -5.709286      -155.3576
  29   2.0000      -5.706715      -155.2876
  30   2.0000      -5.701647      -155.1497
  31   2.0000      -5.657105      -153.9377
  32   2.0000      -5.655067      -153.8822
  33   2.0000      -5.648529      -153.7043
  34   2.0000      -5.648302      -153.6981
  35   2.0000      -5.646962      -153.6617
  36   2.0000      -5.646207      -153.6411
  37   2.0000      -4.645207      -126.4025
  38   2.0000      -4.643980      -126.3691
  39   2.0000      -4.642594      -126.3314
  40   2.0000      -4.639787      -126.2550
  41   2.0000      -4.639107      -126.2365
  42   2.0000      -4.638334      -126.2155
  43   2.0000      -0.987179       -26.8625
  44   2.0000      -0.979258       -26.6470
  45   2.0000      -0.942732       -25.6530
  46   2.0000      -0.936758       -25.4905
  47   2.0000      -0.761599       -20.7241
  48   2.0000      -0.718497       -19.5513
  49   2.0000      -0.705818       -19.2063
  50   2.0000      -0.688595       -18.7376
  51   2.0000      -0.682008       -18.5584
  52   2.0000      -0.672055       -18.2875
  53   2.0000      -0.648961       -17.6591
  54   2.0000      -0.631854       -17.1936
  55   2.0000      -0.600179       -16.3317
  56   2.0000      -0.589175       -16.0323
  57   2.0000      -0.573500       -15.6057
  58   2.0000      -0.564995       -15.3743
  59   2.0000      -0.557838       -15.1795
  60   2.0000      -0.501221       -13.6389
  61   2.0000      -0.485669       -13.2157
  62   2.0000      -0.471870       -12.8402
  63   2.0000      -0.464778       -12.6473
  64   2.0000      -0.450595       -12.2613
  65   2.0000      -0.445056       -12.1106
  66   2.0000      -0.440024       -11.9737
  67   2.0000      -0.433596       -11.7987
  68   2.0000      -0.428279       -11.6541
  69   2.0000      -0.415606       -11.3092
  70   2.0000      -0.411657       -11.2018
  71   2.0000      -0.391350       -10.6492
  72   2.0000      -0.384861       -10.4726
  73   2.0000      -0.383392       -10.4326
  74   2.0000      -0.377667       -10.2769
  75   2.0000      -0.373329       -10.1588
  76   2.0000      -0.367571       -10.0021
  77   2.0000      -0.353441        -9.6176
  78   2.0000      -0.352074        -9.5804
  79   2.0000      -0.348587        -9.4855
  80   2.0000      -0.342645        -9.3238
  81   2.0000      -0.341442        -9.2911
  82   2.0000      -0.336822        -9.1654
  83   2.0000      -0.335389        -9.1264
  84   2.0000      -0.330883        -9.0038
  85   2.0000      -0.314038        -8.5454
  86   2.0000      -0.306165        -8.3312
  87   2.0000      -0.299846        -8.1592
  88   2.0000      -0.293738        -7.9930
  89   2.0000      -0.290026        -7.8920
  90   2.0000      -0.273965        -7.4550
  91   2.0000      -0.267766        -7.2863
  92   2.0000      -0.263737        -7.1766
  93   2.0000      -0.261451        -7.1144
  94   2.0000      -0.257052        -6.9948
  95   2.0000      -0.233806        -6.3622
  96   2.0000      -0.218617        -5.9489
  97   2.0000      -0.214808        -5.8452
  98   2.0000      -0.203206        -5.5295
  99   2.0000      -0.193641        -5.2692
 100   2.0000      -0.186295        -5.0693
 101   0.0000      -0.038635        -1.0513
 102   0.0000      -0.030142        -0.8202
 103   0.0000      -0.011646        -0.3169
 104   0.0000       0.012644         0.3441
 105   0.0000       0.018476         0.5028

MULLIKEN ATOMIC CHARGES
-----------------------
   0 C :   -0.309371
   1 C :   -0.004253
   2 O :   -0.376177
   3 P :    0.612382
   4 S :   -0.321404
   5 O :   -0.353791
   6 C :   -0.003111
   7 C :   -0.300761
   8 S :   -0.091064
   9 C :   -0.355750
  10 S :   -0.108802
  11 P :    0.602907
  12 S :   -0.296679
  13 O :   -0.347967
  14 C :   -0.018216
  15 C :   -0.282657
  16 O :   -0.383481
  17 C :    0.001242
  18 C :   -0.319445
  19 H :    0.121901
  20 H :    0.110831
  21 H :    0.116156
  22 H :    0.109127
  23 H :    0.102967
  24 H :    0.121739
  25 H :    0.100005
  26 H :    0.118742
  27 H :    0.108524
  28 H :    0.111472
  29 H :    0.183268
  30 H :    0.210164
  31 H :    0.108197
  32 H :    0.105613
  33 H :    0.122990
  34 H :    0.103944
  35 H :    0.122068
  36 H :    0.104288
  37 H :    0.112394
  38 H :    0.116644
  39 H :    0.114548
  40 H :    0.130816
Sum of atomic charges:    0.0000000

LOEWDIN ATOMIC CHARGES
----------------------
   0 C :   -0.369366
   1 C :   -0.120672
   2 O :   -0.245728
   3 P :    0.569396
   4 S :   -0.316051
   5 O :   -0.232027
   6 C :   -0.120199
   7 C :   -0.365370
   8 S :    0.094960
   9 C :   -0.478915
  10 S :    0.075157
  11 P :    0.566296
  12 S :   -0.285538
  13 O :   -0.232581
  14 C :   -0.110467
  15 C :   -0.362957
  16 O :   -0.249887
  17 C :   -0.116176
  18 C :   -0.371542
  19 H :    0.120113
  20 H :    0.129750
  21 H :    0.123282
  22 H :    0.109187
  23 H :    0.117465
  24 H :    0.108809
  25 H :    0.117153
  26 H :    0.120928
  27 H :    0.128670
  28 H :    0.123670
  29 H :    0.137713
  30 H :    0.127342
  31 H :    0.120724
  32 H :    0.109041
  33 H :    0.127943
  34 H :    0.126479
  35 H :    0.114731
  36 H :    0.118359
  37 H :    0.112921
  38 H :    0.122682
  39 H :    0.131901
  40 H :    0.122803

  Mayer bond orders larger than 0.100000
B(  0-C ,  1-C ) :   1.1678 B(  0-C , 19-H ) :   0.9366 B(  0-C , 20-H ) :   0.9381
B(  0-C , 21-H ) :   0.9442 B(  1-C ,  2-O ) :   0.9123 B(  1-C , 22-H ) :   0.9136
B(  1-C , 23-H ) :   0.9340 B(  2-O ,  3-P ) :   1.0938 B(  3-P ,  4-S ) :   1.5959
B(  3-P ,  5-O ) :   1.1431 B(  3-P ,  8-S ) :   0.9703 B(  4-S ,  8-S ) :   0.1138
B(  5-O ,  6-C ) :   0.9050 B(  6-C ,  7-C ) :   1.1573 B(  6-C , 24-H ) :   0.9129
B(  6-C , 25-H ) :   0.9354 B(  7-C , 26-H ) :   0.9388 B(  7-C , 27-H ) :   0.9396
B(  7-C , 28-H ) :   0.9450 B(  8-S ,  9-C ) :   0.9922 B(  9-C , 10-S ) :   1.0089
B(  9-C , 29-H ) :   0.9113 B(  9-C , 30-H ) :   0.8482 B( 10-S , 11-P ) :   0.9379
B( 10-S , 12-S ) :   0.1056 B( 11-P , 12-S ) :   1.6412 B( 11-P , 13-O ) :   1.1449
B( 11-P , 16-O ) :   1.0830 B( 13-O , 14-C ) :   0.8915 B( 14-C , 15-C ) :   1.1674
B( 14-C , 31-H ) :   0.9352 B( 14-C , 32-H ) :   0.9185 B( 15-C , 33-H ) :   0.9431
B( 15-C , 34-H ) :   0.9370 B( 15-C , 35-H ) :   0.9332 B( 16-O , 17-C ) :   0.9062
B( 17-C , 18-C ) :   1.1671 B( 17-C , 36-H ) :   0.9344 B( 17-C , 37-H ) :   0.9171
B( 18-C , 38-H ) :   0.9436 B( 18-C , 39-H ) :   0.9370 B( 18-C , 40-H ) :   0.9347

Dispersion correction           -0.068542288
FINAL SINGLE POINT ENERGY     -2929.520640498631

DIPOLE MOMENT
-------------

Method             : SCF
Type of density    : Electron Density
Multiplicity       :   1
Irrep              :   0
Energy             : -2929.6382565056819658 Eh
Relativity type    :
Basis              : AO
                                X                 Y                 Z
Electronic contribution:     -3.250238394       0.242893858      -6.889997590
Nuclear contribution   :      2.865400098      -0.911289608       7.851957390
                        -----------------------------------------
Total Dipole Moment    :     -0.384838296      -0.668395750       0.961959801
                        -----------------------------------------
Magnitude (a.u.)       :      1.232972040
Magnitude (Debye)      :      3.133965865

Rotational constants in cm-1:             0.012773             0.005368             0.005194
Rotational constants in MHz :           382.930811           160.926991           155.724913

                             ****ORCA TERMINATED NORMALLY****
TOTAL RUN TIME: 0 days 0 hours 0 minutes 24 seconds 422 msec
