                         Program Version 6.0.1  -  RELEASE   -
|  1> ! pbe def2-sv(p) def2/J RI DEFGRID1 loosescf d4 GCP(DFT/SV(P)) printgap
|  2> %output
|  3>     printlevel normal
|  4> end
|  5> * xyz 0 1
|  6> C 2.9934799809 -3.8901221502 0.2506968813
|  7> C 2.7556701496 -2.4374961671 0.609517894
|  8> O 2.3925908119 -1.736899762 -0.596567047
|  9> C 2.095407526 -0.4636002915 -0.510662434
| 10> O 2.1019964284 0.1824161517 0.5198846705
| 11> C 1.7531650151 0.148017725 -1.8552713323
| 12> C 0.4491571822 0.9454197662 -1.7546459622
| 13> H 0.3679492529 1.6346227562 -2.5977934255
| 14> C 0.3859022024 1.7289218493 -0.4599738981
| 15> O -0.4637634594 1.5042480999 0.3909092994
| 16> O 1.2584908731 2.6826372709 -0.3997907499
| 17> C 1.3538533028 3.443306192 0.8261954931
| 18> C 2.4074841905 4.5128767832 0.6252868281
| 19> S -1.0300361325 -0.1240661139 -1.8516752886
| 20> P -1.6566747744 -0.5032860787 0.1338921516
| 21> S -0.6010022634 -1.1815849398 1.6535309135
| 22> O -2.8906025388 0.4366012423 0.542445238
| 23> C -2.9083871788 1.374507228 1.6159720135
| 24> O -2.5189472104 -1.7159806434 -0.500728166
| 25> C -3.3344675202 -2.5662362706 0.3037467487
| 26> H 2.0857026723 -4.3224420665 -0.1595497906
| 27> H 3.7867676346 -3.9665947692 -0.4867548834
| 28> H 3.2759874423 -4.435996838 1.1444276115
| 29> H 3.6520686851 -1.9642914735 1.0218775671
| 30> H 1.9415473197 -2.3209055899 1.3331802536
| 31> H 1.6619965043 -0.6327565605 -2.6080030801
| 32> H 2.5639700025 0.8295287191 -2.1211469484
| 33> H 0.3707162004 3.8699245353 1.045336995
| 34> H 1.6203255957 2.7439610897 1.6246229338
| 35> H 3.3656824576 4.052991042 0.4050978339
| 36> H 2.1283763128 5.1625841968 -0.1985017218
| 37> H 2.49424635 5.1007664118 1.5327699519
| 38> H -2.151091808 1.1142044641 2.357354371
| 39> H -3.9039032541 1.3153714157 2.0514299635
| 40> H -2.7153667785 2.372647304 1.2277674326
| 41> H -3.5488402918 -3.437737556 -0.3099556255
| 42> H -4.2558534885 -2.0518160421 0.5758185285
| 43> H -2.7932770448 -2.8590788529 1.2067494837
| 44> *
| 45>
| 46>                          ****END OF INPUT****

CARTESIAN COORDINATES (ANGSTROEM)
---------------------------------
  C      2.993480   -3.890122    0.250697
  C      2.755670   -2.437496    0.609518
  O      2.392591   -1.736900   -0.596567
  C      2.095408   -0.463600   -0.510662
  O      2.101996    0.182416    0.519885
  C      1.753165    0.148018   -1.855271
  C      0.449157    0.945420   -1.754646
  H      0.367949    1.634623   -2.597793
  C      0.385902    1.728922   -0.459974
  O     -0.463763    1.504248    0.390909
  O      1.258491    2.682637   -0.399791
  C      1.353853    3.443306    0.826195
  C      2.407484    4.512877    0.625287
  S     -1.030036   -0.124066   -1.851675
  P     -1.656675   -0.503286    0.133892
  S     -0.601002   -1.181585    1.653531
  O     -2.890603    0.436601    0.542445
  C     -2.908387    1.374507    1.615972
  O     -2.518947   -1.715981   -0.500728
  C     -3.334468   -2.566236    0.303747
  H      2.085703   -4.322442   -0.159550
  H      3.786768   -3.966595   -0.486755
  H      3.275987   -4.435997    1.144428
  H      3.652069   -1.964291    1.021878
  H      1.941547   -2.320906    1.333180
  H      1.661997   -0.632757   -2.608003
  H      2.563970    0.829529   -2.121147
  H      0.370716    3.869925    1.045337
  H      1.620326    2.743961    1.624623
  H      3.365682    4.052991    0.405098
  H      2.128376    5.162584   -0.198502
  H      2.494246    5.100766    1.532770
  H     -2.151092    1.114204    2.357354
  H     -3.903903    1.315371    2.051430
  H     -2.715367    2.372647    1.227767
  H     -3.548840   -3.437738   -0.309956
  H     -4.255853   -2.051816    0.575819
  H     -2.793277   -2.859079    1.206749

 Total Charge           Charge          ....    0
 Multiplicity           Mult            ....    1
 Number of Electrons    NEL             ....  174
 Basis Dimension        Dim             ....  316

ORBITAL ENERGIES
----------------

  NO   OCC          E(Eh)            E(eV)
   0   2.0000     -88.029619     -2395.4077
   1   2.0000     -87.958385     -2393.4693
   2   2.0000     -76.411862     -2079.2725
   3   2.0000     -18.822194      -512.1779
   4   2.0000     -18.805502      -511.7237
   5   2.0000     -18.770806      -510.7796
   6   2.0000     -18.765535      -510.6362
   7   2.0000     -18.759011      -510.4586
   8   2.0000     -18.739411      -509.9253
   9   2.0000     -10.034173      -273.0437
  10   2.0000     -10.012807      -272.4623
  11   2.0000      -9.957205      -270.9493
  12   2.0000      -9.953419      -270.8463
  13   2.0000      -9.939254      -270.4608
  14   2.0000      -9.925775      -270.0941
  15   2.0000      -9.921339      -269.9734
  16   2.0000      -9.917176      -269.8601
  17   2.0000      -9.896259      -269.2909
  18   2.0000      -9.882427      -268.9145
  19   2.0000      -7.674743      -208.8404
  20   2.0000      -7.603482      -206.9013
  21   2.0000      -6.406520      -174.3303
  22   2.0000      -5.703264      -155.1937
  23   2.0000      -5.699034      -155.0786
  24   2.0000      -5.691238      -154.8665
  25   2.0000      -5.632603      -153.2709
  26   2.0000      -5.624327      -153.0457
  27   2.0000      -5.623132      -153.0132
  28   2.0000      -4.629413      -125.9727
  29   2.0000      -4.628575      -125.9499
  30   2.0000      -4.627080      -125.9092
  31   2.0000      -1.035796       -28.1854
  32   2.0000      -1.012125       -27.5413
  33   2.0000      -0.959326       -26.1046
  34   2.0000      -0.939769       -25.5724
  35   2.0000      -0.917440       -24.9648
  36   2.0000      -0.913519       -24.8581
  37   2.0000      -0.767164       -20.8756
  38   2.0000      -0.718974       -19.5643
  39   2.0000      -0.708073       -19.2676
  40   2.0000      -0.685111       -18.6428
  41   2.0000      -0.648835       -17.6557
  42   2.0000      -0.622712       -16.9449
  43   2.0000      -0.609971       -16.5982
  44   2.0000      -0.606496       -16.5036
  45   2.0000      -0.586248       -15.9526
  46   2.0000      -0.557662       -15.1748
  47   2.0000      -0.521482       -14.1903
  48   2.0000      -0.506782       -13.7902
  49   2.0000      -0.499727       -13.5983
  50   2.0000      -0.490396       -13.3444
  51   2.0000      -0.462792       -12.5932
  52   2.0000      -0.461529       -12.5589
  53   2.0000      -0.452185       -12.3046
  54   2.0000      -0.445250       -12.1159
  55   2.0000      -0.425154       -11.5690
  56   2.0000      -0.419449       -11.4138
  57   2.0000      -0.416077       -11.3220
  58   2.0000      -0.405047       -11.0219
  59   2.0000      -0.401344       -10.9211
  60   2.0000      -0.398782       -10.8514
  61   2.0000      -0.391179       -10.6445
  62   2.0000      -0.382056       -10.3963
  63   2.0000      -0.375120       -10.2075
  64   2.0000      -0.368235       -10.0202
  65   2.0000      -0.364082        -9.9072
  66   2.0000      -0.362094        -9.8531
  67   2.0000      -0.356052        -9.6887
  68   2.0000      -0.350264        -9.5312
  69   2.0000      -0.342530        -9.3207
  70   2.0000      -0.331174        -9.0117
  71   2.0000      -0.329145        -8.9565
  72   2.0000      -0.319373        -8.6906
  73   2.0000      -0.311172        -8.4674
  74   2.0000      -0.298699        -8.1280
  75   2.0000      -0.295605        -8.0438
  76   2.0000      -0.285824        -7.7777
  77   2.0000      -0.281424        -7.6579
  78   2.0000      -0.267106        -7.2683
  79   2.0000      -0.259430        -7.0594
  80   2.0000      -0.254618        -6.9285
  81   2.0000      -0.249421        -6.7871
  82   2.0000      -0.238759        -6.4970
  83   2.0000      -0.226622        -6.1667
  84   2.0000      -0.209007        -5.6874
  85   2.0000      -0.178603        -4.8600
  86   2.0000      -0.171111        -4.6562
  87   0.0000      -0.044140        -1.2011
  88   0.0000      -0.033779        -0.9192
  89   0.0000      -0.026915        -0.7324
  90   0.0000       0.010937         0.2976
  91   0.0000       0.033820         0.9203

MULLIKEN ATOMIC CHARGES
-----------------------
   0 C :   -0.273818
   1 C :   -0.041909
   2 O :   -0.214670
   3 C :    0.100141
   4 O :   -0.205073
   5 C :   -0.024551
   6 C :   -0.300772
   7 H :    0.145978
   8 C :    0.237247
   9 O :   -0.220914
  10 O :   -0.213357
  11 C :   -0.033239
  12 C :   -0.277235
  13 S :   -0.078410
  14 P :    0.665802
  15 S :   -0.349083
  16 O :   -0.395067
  17 C :   -0.084261
  18 O :   -0.409835
  19 C :   -0.090916
  20 H :    0.122325
  21 H :    0.108758
  22 H :    0.110639
  23 H :    0.097195
  24 H :    0.136424
  25 H :    0.118901
  26 H :    0.122245
  27 H :    0.110109
  28 H :    0.131984
  29 H :    0.121582
  30 H :    0.115099
  31 H :    0.116220
  32 H :    0.116150
  33 H :    0.111495
  34 H :    0.102391
  35 H :    0.113807
  36 H :    0.102542
  37 H :    0.106075
Sum of atomic charges:   -0.0000000

LOEWDIN ATOMIC CHARGES
----------------------
   0 C :   -0.350043
   1 C :   -0.111198
   2 O :   -0.042479
   3 C :    0.029353
   4 O :   -0.155594
   5 C :   -0.246567
   6 C :   -0.263173
   7 H :    0.147516
   8 C :    0.033570
   9 O :   -0.146993
  10 O :   -0.031098
  11 C :   -0.101432
  12 C :   -0.350125
  13 S :    0.118954
  14 P :    0.584463
  15 S :   -0.338291
  16 O :   -0.257888
  17 C :   -0.214658
  18 O :   -0.282320
  19 C :   -0.217773
  20 H :    0.130348
  21 H :    0.123130
  22 H :    0.130858
  23 H :    0.113435
  24 H :    0.119518
  25 H :    0.138064
  26 H :    0.146848
  27 H :    0.117813
  28 H :    0.130453
  29 H :    0.129937
  30 H :    0.126557
  31 H :    0.133877
  32 H :    0.108742
  33 H :    0.113371
  34 H :    0.106418
  35 H :    0.116516
  36 H :    0.106582
  37 H :    0.103308

  Mayer bond orders larger than 0.100000
B(  0-C ,  1-C ) :   1.1567 B(  0-C , 20-H ) :   0.9488 B(  0-C , 21-H ) :   0.9505
B(  0-C , 22-H ) :   0.9440 B(  1-C ,  2-O ) :   0.8931 B(  1-C , 23-H ) :   0.9310
B(  1-C , 24-H ) :   0.9106 B(  2-O ,  3-C ) :   1.2762 B(  2-O ,  4-O ) :   0.1011
B(  3-C ,  4-O ) :   1.9486 B(  3-C ,  5-C ) :   1.0076 B(  4-O ,  8-C ) :   0.1211
B(  5-C ,  6-C ) :   1.0156 B(  5-C , 25-H ) :   0.9039 B(  5-C , 26-H ) :   0.8756
B(  6-C ,  7-H ) :   0.8767 B(  6-C ,  8-C ) :   0.9202 B(  6-C , 13-S ) :   1.0425
B(  8-C ,  9-O ) :   1.8333 B(  8-C , 10-O ) :   1.2883 B(  9-O , 14-P ) :   0.1839
B( 10-O , 11-C ) :   0.8858 B( 11-C , 12-C ) :   1.1570 B( 11-C , 27-H ) :   0.9318
B( 11-C , 28-H ) :   0.9244 B( 12-C , 29-H ) :   0.9491 B( 12-C , 30-H ) :   0.9505
B( 12-C , 31-H ) :   0.9424 B( 13-S , 14-P ) :   0.9294 B( 13-S , 15-S ) :   0.1074
B( 14-P , 15-S ) :   1.5650 B( 14-P , 16-O ) :   1.0748 B( 14-P , 18-O ) :   1.0336
B( 16-O , 17-C ) :   0.9381 B( 17-C , 32-H ) :   0.9315 B( 17-C , 33-H ) :   0.9545
B( 17-C , 34-H ) :   0.9549 B( 18-O , 19-C ) :   0.9486 B( 19-C , 35-H ) :   0.9610
B( 19-C , 36-H ) :   0.9519 B( 19-C , 37-H ) :   0.9285

Dispersion correction           -0.052833118
FINAL SINGLE POINT ENERGY     -1979.006637530523

DIPOLE MOMENT
-------------

Method             : SCF
Type of density    : Electron Density
Multiplicity       :   1
Irrep              :   0
Energy             : -1979.1373573900018528 Eh
Relativity type    :
Basis              : AO
                                X                 Y                 Z
Electronic contribution:     -9.979000311      -1.508819645      -6.791534564
Nuclear contribution   :     10.857679118       2.576175862       6.494614286
                        -----------------------------------------
Total Dipole Moment    :      0.878678807       1.067356217      -0.296920278
                        -----------------------------------------
Magnitude (a.u.)       :      1.414032316
Magnitude (Debye)      :      3.594184514

Rotational constants in cm-1:             0.010666             0.009260             0.006433
Rotational constants in MHz :           319.769868           277.603317           192.869640

                             ****ORCA TERMINATED NORMALLY****
TOTAL RUN TIME: 0 days 0 hours 0 minutes 37 seconds 719 msec
