                         Program Version 6.0.0  -   RELEASE  -
|  1> ! pbe def2-sv(p) def2/J RI DEFGRID1 loosescf d4 GCP(DFT/SV(P)) printgap
|  2> %output
|  3>     printlevel normal
|  4> end
|  5> * xyz 0 1
|  6> C -2.9038221737 -0.009329569 -0.0011694488
|  7> C -1.4049636325 0.0058231267 0.0020533231
|  8> C -0.692426678 1.1957866842 0.0011352154
|  9> C 0.6924376773 1.1957266275 -0.0007557707
| 10> C 1.4049628085 0.0057431183 -0.0020486066
| 11> C 0.6903484134 -1.188021948 -0.0007410559
| 12> C -0.6903695403 -1.1879643729 0.0012460099
| 13> C 2.9038325553 -0.009299782 0.0003737919
| 14> H -3.2792711453 -0.5883882978 0.8408213874
| 15> H -3.3022466518 0.9996549804 0.0626723642
| 16> H -3.2737514276 -0.4723353074 -0.9150682114
| 17> H -1.2241325648 2.1369274549 0.0022309888
| 18> H 1.2242310789 2.1368262115 -0.0012350028
| 19> H 1.2267367271 -2.1264109832 -0.0015957338
| 20> H -1.2268662818 -2.1262938665 0.0018770809
| 21> H 3.3021695271 0.9990649216 -0.0738341018
| 22> H 3.2743256488 -0.4628488135 0.9187828361
| 23> H 3.2788118832 -0.5970592026 -0.8357653359
| 24> *
| 25>
| 26>                          ****END OF INPUT****

CARTESIAN COORDINATES (ANGSTROEM)
---------------------------------
  C     -2.903822   -0.009330   -0.001169
  C     -1.404964    0.005823    0.002053
  C     -0.692427    1.195787    0.001135
  C      0.692438    1.195727   -0.000756
  C      1.404963    0.005743   -0.002049
  C      0.690348   -1.188022   -0.000741
  C     -0.690370   -1.187964    0.001246
  C      2.903833   -0.009300    0.000374
  H     -3.279271   -0.588388    0.840821
  H     -3.302247    0.999655    0.062672
  H     -3.273751   -0.472335   -0.915068
  H     -1.224133    2.136927    0.002231
  H      1.224231    2.136826   -0.001235
  H      1.226737   -2.126411   -0.001596
  H     -1.226866   -2.126294    0.001877
  H      3.302170    0.999065   -0.073834
  H      3.274326   -0.462849    0.918783
  H      3.278812   -0.597059   -0.835765

 Total Charge           Charge          ....    0
 Multiplicity           Mult            ....    1
 Number of Electrons    NEL             ....   58
 Basis Dimension        Dim             ....  132

ORBITAL ENERGIES
----------------

  NO   OCC          E(Eh)            E(eV)
   0   2.0000      -9.895263      -269.2638
   1   2.0000      -9.895237      -269.2631
   2   2.0000      -9.883078      -268.9322
   3   2.0000      -9.882880      -268.9268
   4   2.0000      -9.882817      -268.9251
   5   2.0000      -9.882629      -268.9200
   6   2.0000      -9.880005      -268.8486
   7   2.0000      -9.879982      -268.8480
   8   2.0000      -0.774435       -21.0735
   9   2.0000      -0.706208       -19.2169
  10   2.0000      -0.662744       -18.0342
  11   2.0000      -0.644407       -17.5352
  12   2.0000      -0.580419       -15.7940
  13   2.0000      -0.540402       -14.7051
  14   2.0000      -0.509063       -13.8523
  15   2.0000      -0.438534       -11.9331
  16   2.0000      -0.420201       -11.4342
  17   2.0000      -0.394011       -10.7216
  18   2.0000      -0.378867       -10.3095
  19   2.0000      -0.370090       -10.0707
  20   2.0000      -0.366895        -9.9837
  21   2.0000      -0.352610        -9.5950
  22   2.0000      -0.347861        -9.4658
  23   2.0000      -0.325789        -8.8652
  24   2.0000      -0.304486        -8.2855
  25   2.0000      -0.293020        -7.9735
  26   2.0000      -0.288185        -7.8419
  27   2.0000      -0.222640        -6.0583
  28   2.0000      -0.205940        -5.6039
  29   0.0000      -0.029036        -0.7901
  30   0.0000      -0.025230        -0.6865
  31   0.0000       0.048214         1.3120
  32   0.0000       0.057943         1.5767
  33   0.0000       0.072275         1.9667

MULLIKEN ATOMIC CHARGES
-----------------------
   0 C :   -0.223162
   1 C :    0.052857
   2 C :   -0.113294
   3 C :   -0.113257
   4 C :    0.052834
   5 C :   -0.106987
   6 C :   -0.106979
   7 C :   -0.223138
   8 H :    0.112521
   9 H :    0.099231
  10 H :    0.114666
  11 H :    0.032068
  12 H :    0.032058
  13 H :    0.032082
  14 H :    0.032078
  15 H :    0.099279
  16 H :    0.114788
  17 H :    0.112353
Sum of atomic charges:    0.0000000

LOEWDIN ATOMIC CHARGES
----------------------
   0 C :   -0.323176
   1 C :   -0.054068
   2 C :   -0.125281
   3 C :   -0.125272
   4 C :   -0.054065
   5 C :   -0.120991
   6 C :   -0.120980
   7 C :   -0.323156
   8 H :    0.130302
   9 H :    0.123029
  10 H :    0.131452
  11 H :    0.119426
  12 H :    0.119421
  13 H :    0.119297
  14 H :    0.119295
  15 H :    0.123042
  16 H :    0.131516
  17 H :    0.130210

  Mayer bond orders larger than 0.100000
B(  0-C ,  1-C ) :   1.0960 B(  0-C ,  8-H ) :   0.9376 B(  0-C ,  9-H ) :   0.9458
B(  0-C , 10-H ) :   0.9360 B(  1-C ,  2-C ) :   1.4095 B(  1-C ,  6-C ) :   1.3690
B(  2-C ,  3-C ) :   1.3482 B(  2-C , 11-H ) :   0.9582 B(  3-C ,  4-C ) :   1.4095
B(  3-C , 12-H ) :   0.9583 B(  4-C ,  5-C ) :   1.3689 B(  4-C ,  7-C ) :   1.0960
B(  5-C ,  6-C ) :   1.3844 B(  5-C , 13-H ) :   0.9670 B(  6-C , 14-H ) :   0.9670
B(  7-C , 15-H ) :   0.9458 B(  7-C , 16-H ) :   0.9358 B(  7-C , 17-H ) :   0.9378

Dispersion correction           -0.017310091
FINAL SINGLE POINT ENERGY      -310.159624473640

DIPOLE MOMENT
-------------

Method             : SCF
Type of density    : Electron Density
Multiplicity       :   1
Irrep              :   0
Energy             :  -310.2092494299679402 Eh
Relativity type    :
Basis              : AO
                                X                 Y                 Z
Electronic contribution:      0.000001023       0.042833264       0.001562567
Nuclear contribution   :      0.000006374      -0.094626305      -0.001044864
                        -----------------------------------------
Total Dipole Moment    :      0.000007397      -0.051793041       0.000517703
                        -----------------------------------------
Magnitude (a.u.)       :      0.051795629
Magnitude (Debye)      :      0.131654025

Rotational constants in cm-1:             0.181543             0.048527             0.038842
Rotational constants in MHz :          5442.510463          1454.792613          1164.456775

                             ****ORCA TERMINATED NORMALLY****
TOTAL RUN TIME: 0 days 0 hours 0 minutes 22 seconds 838 msec
