                         Program Version 6.0.0  -   RELEASE  -
|  1> ! wb97x-v def2-tzvp def2/J RIJCOSX DEFGRID2 scfconv7 GCP(DFT/TZ) printgap
|  2> %output
|  3>     printlevel normal
|  4> end
|  5> * xyz 0 1
|  6> C -1.2598264065202018 -0.26172494654404216 7.83344632197093e-05
|  7> C 0.013806542809238547 0.573414377824715 -5.7738202033676086e-05
|  8> N 1.265000212593879 -0.2102608781304522 4.8172737241458815e-06
|  9> H -2.1507222047077423 0.3769843237967491 4.8385848011625275e-05
| 10> H -1.303837668142645 -0.9037179646394434 -0.8870612091339259
| 11> H -1.3037683782985527 -0.9035339763515714 0.8873536350707775
| 12> H 0.02401314909712438 1.2298410527651693 0.8775228150753301
| 13> H 0.023962445574132768 1.229623587706136 -0.8777997722039688
| 14> H 1.2367187710624867 -0.8337458954590986 0.8034838872747512
| 15> H 1.2366425910250831 -0.8340007027099237 -0.8032733293459701
| 16> *
| 17>
| 18>                          ****END OF INPUT****

CARTESIAN COORDINATES (ANGSTROEM)
---------------------------------
  C     -1.259826   -0.261725    0.000078
  C      0.013807    0.573414   -0.000058
  N      1.265000   -0.210261    0.000005
  H     -2.150722    0.376984    0.000048
  H     -1.303838   -0.903718   -0.887061
  H     -1.303768   -0.903534    0.887354
  H      0.024013    1.229841    0.877523
  H      0.023962    1.229624   -0.877800
  H      1.236719   -0.833746    0.803484
  H      1.236643   -0.834001   -0.803273

 Total Charge           Charge          ....    0
 Multiplicity           Mult            ....    1
 Number of Electrons    NEL             ....   26
 Basis Dimension        Dim             ....  135

ORBITAL ENERGIES
----------------

  NO   OCC          E(Eh)            E(eV)
   0   2.0000     -16.503693      -449.0883
   1   2.0000     -12.066196      -328.3379
   2   2.0000     -12.036687      -327.5349
   3   2.0000      -1.440354       -39.1940
   4   2.0000      -1.239044       -33.7161
   5   2.0000      -1.096550       -29.8386
   6   2.0000      -0.958630       -26.0856
   7   2.0000      -0.906697       -24.6725
   8   2.0000      -0.859784       -23.3959
   9   2.0000      -0.851036       -23.1579
  10   2.0000      -0.796190       -21.6654
  11   2.0000      -0.766027       -20.8447
  12   2.0000      -0.728804       -19.8318
  13   0.0000      -0.063707        -1.7335
  14   0.0000      -0.028580        -0.7777
  15   0.0000       0.005884         0.1601
  16   0.0000       0.011082         0.3015
  17   0.0000       0.028079         0.7641

MULLIKEN ATOMIC CHARGES
-----------------------
   0 C :   -0.338581
   1 C :   -0.074804
   2 N :   -0.476413
   3 H :    0.103477
   4 H :    0.098730
   5 H :    0.098729
   6 H :    0.096867
   7 H :    0.096865
   8 H :    0.197567
   9 H :    0.197565
Sum of atomic charges:    0.0000000

LOEWDIN ATOMIC CHARGES
----------------------
   0 C :   -0.326951
   1 C :   -0.364079
   2 N :   -0.181096
   3 H :    0.117300
   4 H :    0.112034
   5 H :    0.112034
   6 H :    0.122975
   7 H :    0.122974
   8 H :    0.142405
   9 H :    0.142405

  Mayer bond orders larger than 0.100000
B(  0-C ,  1-C ) :   0.9947 B(  0-C ,  3-H ) :   0.9725 B(  0-C ,  4-H ) :   0.9761
B(  0-C ,  5-H ) :   0.9761 B(  1-C ,  2-N ) :   1.0064 B(  1-C ,  6-H ) :   0.9767
B(  1-C ,  7-H ) :   0.9767 B(  2-N ,  8-H ) :   0.9513 B(  2-N ,  9-H ) :   0.9513

FINAL SINGLE POINT ENERGY      -135.175196228071

DIPOLE MOMENT
-------------

Method             : SCF
Type of density    : Electron Density
Multiplicity       :   1
Irrep              :   0
Energy             :  -135.1820812903705757 Eh
Relativity type    :
Basis              : AO
                                X                 Y                 Z
Electronic contribution:      1.673089818       0.282939556      -0.000090571
Nuclear contribution   :     -2.164331578      -0.622815035       0.000171247
                        -----------------------------------------
Total Dipole Moment    :     -0.491241760      -0.339875479       0.000080676
                        -----------------------------------------
Magnitude (a.u.)       :      0.597355685
Magnitude (Debye)      :      1.518357486

Rotational constants in cm-1:             1.048940             0.295282             0.262257
Rotational constants in MHz :         31446.435390          8852.340747          7862.257458

                             ****ORCA TERMINATED NORMALLY****
TOTAL RUN TIME: 0 days 0 hours 0 minutes 26 seconds 353 msec
