                         Program Version 6.0.0  -   RELEASE  -
|  1> ! wb97x-v def2-tzvp def2/J RIJCOSX DEFGRID2 scfconv7 GCP(DFT/TZ) printgap
|  2> %output
|  3>     printlevel normal
|  4> end
|  5> %cpcm
|  6>     smd true
|  7>     smdsolvent "water"
|  8> end
|  9> * xyz 0 1
| 10> C -1.2598264065202018 -0.26172494654404216 7.83344632197093e-05
| 11> C 0.013806542809238547 0.573414377824715 -5.7738202033676086e-05
| 12> N 1.265000212593879 -0.2102608781304522 4.8172737241458815e-06
| 13> H -2.1507222047077423 0.3769843237967491 4.8385848011625275e-05
| 14> H -1.303837668142645 -0.9037179646394434 -0.8870612091339259
| 15> H -1.3037683782985527 -0.9035339763515714 0.8873536350707775
| 16> H 0.02401314909712438 1.2298410527651693 0.8775228150753301
| 17> H 0.023962445574132768 1.229623587706136 -0.8777997722039688
| 18> H 1.2367187710624867 -0.8337458954590986 0.8034838872747512
| 19> H 1.2366425910250831 -0.8340007027099237 -0.8032733293459701
| 20> *
| 21>
| 22>                          ****END OF INPUT****

CARTESIAN COORDINATES (ANGSTROEM)
---------------------------------
  C     -1.259826   -0.261725    0.000078
  C      0.013807    0.573414   -0.000058
  N      1.265000   -0.210261    0.000005
  H     -2.150722    0.376984    0.000048
  H     -1.303838   -0.903718   -0.887061
  H     -1.303768   -0.903534    0.887354
  H      0.024013    1.229841    0.877523
  H      0.023962    1.229624   -0.877800
  H      1.236719   -0.833746    0.803484
  H      1.236643   -0.834001   -0.803273

 Total Charge           Charge          ....    0
 Multiplicity           Mult            ....    1
 Number of Electrons    NEL             ....   26
 Basis Dimension        Dim             ....  135

ORBITAL ENERGIES
----------------

  NO   OCC          E(Eh)            E(eV)
   0   2.0000     -16.498587      -448.9494
   1   2.0000     -12.057492      -328.1010
   2   2.0000     -12.023901      -327.1870
   3   2.0000      -1.434014       -39.0215
   4   2.0000      -1.228397       -33.4264
   5   2.0000      -1.087397       -29.5896
   6   2.0000      -0.951874       -25.9018
   7   2.0000      -0.899046       -24.4643
   8   2.0000      -0.850958       -23.1557
   9   2.0000      -0.839931       -22.8557
  10   2.0000      -0.784798       -21.3554
  11   2.0000      -0.755171       -20.5492
  12   2.0000      -0.725999       -19.7554
  13   0.0000      -0.055711        -1.5160
  14   0.0000      -0.013081        -0.3560
  15   0.0000       0.016125         0.4388
  16   0.0000       0.027416         0.7460
  17   0.0000       0.040896         1.1128

MULLIKEN ATOMIC CHARGES
-----------------------
   0 C :   -0.383142
   1 C :   -0.072336
   2 N :   -0.589187
   3 H :    0.118653
   4 H :    0.116804
   5 H :    0.116803
   6 H :    0.107337
   7 H :    0.107333
   8 H :    0.238868
   9 H :    0.238867
Sum of atomic charges:    0.0000000

LOEWDIN ATOMIC CHARGES
----------------------
   0 C :   -0.328903
   1 C :   -0.367090
   2 N :   -0.212390
   3 H :    0.120031
   4 H :    0.116291
   5 H :    0.116291
   6 H :    0.124124
   7 H :    0.124123
   8 H :    0.153763
   9 H :    0.153762

  Mayer bond orders larger than 0.100000
B(  0-C ,  1-C ) :   0.9921 B(  0-C ,  3-H ) :   0.9695 B(  0-C ,  4-H ) :   0.9747
B(  0-C ,  5-H ) :   0.9747 B(  1-C ,  2-N ) :   0.9890 B(  1-C ,  6-H ) :   0.9754
B(  1-C ,  7-H ) :   0.9754 B(  2-N ,  8-H ) :   0.9372 B(  2-N ,  9-H ) :   0.9373

FINAL SINGLE POINT ENERGY      -135.182188381357

DIPOLE MOMENT
-------------

Method             : SCF
Type of density    : Electron Density
Multiplicity       :   1
Irrep              :   0
Energy             :  -135.1890734436566959 Eh
Relativity type    :
Basis              : AO
                                X                 Y                 Z
Electronic contribution:      1.532681698       0.156641215      -0.000062849
Nuclear contribution   :     -2.164331578      -0.622815035       0.000171247
                        -----------------------------------------
Total Dipole Moment    :     -0.631649879      -0.466173820       0.000108398
                        -----------------------------------------
Magnitude (a.u.)       :      0.785047522
Magnitude (Debye)      :      1.995432222

Rotational constants in cm-1:             1.048940             0.295282             0.262257
Rotational constants in MHz :         31446.435390          8852.340747          7862.257458

                             ****ORCA TERMINATED NORMALLY****
TOTAL RUN TIME: 0 days 0 hours 0 minutes 28 seconds 268 msec
