                         Program Version 6.0.0  -   RELEASE  -
|  1> ! pbe def2-sv(p) def2/J RI DEFGRID1 loosescf d4 GCP(DFT/SV(P)) printgap
|  2> %output
|  3>     printlevel normal
|  4> end
|  5> * xyz 0 1
|  6> C 4.2234823994 -0.8641750873 -2.4079667158
|  7> C 4.4506538162 -1.3182973438 -0.9804999771
|  8> O 3.2151655202 -1.5171963706 -0.2722305761
|  9> P 2.2630070287 -0.3137099686 0.1371244567
| 10> S 3.1764378053 1.3196888599 0.7310183757
| 11> O 1.3103068045 -1.0059507359 1.1979086035
| 12> C 1.5828880035 -0.9478938269 2.6152257009
| 13> C 2.8243272429 -1.7328779067 2.9822099937
| 14> S 0.922801594 -0.1237642938 -1.4879903258
| 15> C 0.2458295171 1.4830860071 -0.986977049
| 16> S -0.7872256845 1.3871046107 0.4901084756
| 17> P -2.3809799074 0.294330182 -0.4291811764
| 18> S -2.7475866125 0.743748325 -2.2955426794
| 19> O -3.5514374538 0.430189803 0.6361447546
| 20> C -4.0106085624 1.6668148936 1.2152445967
| 21> C -4.3880109374 2.6990287939 0.174197172
| 22> O -2.0185606428 -1.2354317733 -0.3188295878
| 23> C -1.8031060431 -1.9217108006 0.9366968638
| 24> C -3.0188201947 -2.7506953791 1.2958639707
| 25> H 3.542233083 -1.5417989117 -2.9168574082
| 26> H 3.7917555761 0.1359845417 -2.4178256535
| 27> H 5.1720987675 -0.8430583388 -2.9347847517
| 28> H 5.0478099616 -0.581087611 -0.4339964653
| 29> H 4.935986486 -2.2943838324 -0.9406222979
| 30> H 1.6876743673 0.1030087075 2.9030522604
| 31> H 0.6875934739 -1.3704811698 3.0728518274
| 32> H 2.7499197335 -2.7510948737 2.6095913128
| 33> H 3.7032925756 -1.2612106567 2.54437196
| 34> H 2.9343503244 -1.748200223 4.0619708334
| 35> H -0.355481319 1.8391358249 -1.8240459243
| 36> H 1.0620711859 2.1680227409 -0.7569935522
| 37> H -4.8751742324 1.3658026069 1.8094984515
| 38> H -3.2227298409 2.0489970074 1.870315431
| 39> H -3.5086185042 2.9999555083 -0.3934503964
| 40> H -5.1187247298 2.2897563929 -0.5193493621
| 41> H -4.8067991117 3.5708487326 0.6664209893
| 42> H -0.9237008077 -2.5465018595 0.7663004772
| 43> H -1.5821461326 -1.1825257572 1.7119498865
| 44> H -2.8193965538 -3.3014427314 2.2097257774
| 45> H -3.8810240184 -2.1053678928 1.4430103431
| 46> H -3.2392257473 -3.4503478128 0.49443637
| 47> *
| 48>
| 49>                          ****END OF INPUT****

CARTESIAN COORDINATES (ANGSTROEM)
---------------------------------
  C      4.223482   -0.864175   -2.407967
  C      4.450654   -1.318297   -0.980500
  O      3.215166   -1.517196   -0.272231
  P      2.263007   -0.313710    0.137124
  S      3.176438    1.319689    0.731018
  O      1.310307   -1.005951    1.197909
  C      1.582888   -0.947894    2.615226
  C      2.824327   -1.732878    2.982210
  S      0.922802   -0.123764   -1.487990
  C      0.245830    1.483086   -0.986977
  S     -0.787226    1.387105    0.490108
  P     -2.380980    0.294330   -0.429181
  S     -2.747587    0.743748   -2.295543
  O     -3.551437    0.430190    0.636145
  C     -4.010609    1.666815    1.215245
  C     -4.388011    2.699029    0.174197
  O     -2.018561   -1.235432   -0.318830
  C     -1.803106   -1.921711    0.936697
  C     -3.018820   -2.750695    1.295864
  H      3.542233   -1.541799   -2.916857
  H      3.791756    0.135985   -2.417826
  H      5.172099   -0.843058   -2.934785
  H      5.047810   -0.581088   -0.433996
  H      4.935986   -2.294384   -0.940622
  H      1.687674    0.103009    2.903052
  H      0.687593   -1.370481    3.072852
  H      2.749920   -2.751095    2.609591
  H      3.703293   -1.261211    2.544372
  H      2.934350   -1.748200    4.061971
  H     -0.355481    1.839136   -1.824046
  H      1.062071    2.168023   -0.756994
  H     -4.875174    1.365803    1.809498
  H     -3.222730    2.048997    1.870315
  H     -3.508619    2.999956   -0.393450
  H     -5.118725    2.289756   -0.519349
  H     -4.806799    3.570849    0.666421
  H     -0.923701   -2.546502    0.766300
  H     -1.582146   -1.182526    1.711950
  H     -2.819397   -3.301443    2.209726
  H     -3.881024   -2.105368    1.443010
  H     -3.239226   -3.450348    0.494436

 Total Charge           Charge          ....    0
 Multiplicity           Mult            ....    1
 Number of Electrons    NEL             ....  202
 Basis Dimension        Dim             ....  334

ORBITAL ENERGIES
----------------

  NO   OCC          E(Eh)            E(eV)
   0   2.0000     -88.041923     -2395.7425
   1   2.0000     -88.041683     -2395.7360
   2   2.0000     -87.992944     -2394.4097
   3   2.0000     -87.981716     -2394.1042
   4   2.0000     -76.429046     -2079.7401
   5   2.0000     -76.425312     -2079.6385
   6   2.0000     -18.797718      -511.5119
   7   2.0000     -18.797383      -511.5028
   8   2.0000     -18.793726      -511.4033
   9   2.0000     -18.787025      -511.2209
  10   2.0000      -9.960822      -271.0477
  11   2.0000      -9.955658      -270.9072
  12   2.0000      -9.955528      -270.9037
  13   2.0000      -9.951792      -270.8020
  14   2.0000      -9.950737      -270.7733
  15   2.0000      -9.887838      -269.0618
  16   2.0000      -9.885477      -268.9975
  17   2.0000      -9.884428      -268.9690
  18   2.0000      -9.884053      -268.9587
  19   2.0000      -7.686790      -209.1682
  20   2.0000      -7.686695      -209.1656
  21   2.0000      -7.637822      -207.8357
  22   2.0000      -7.627091      -207.5437
  23   2.0000      -6.426756      -174.8809
  24   2.0000      -6.422484      -174.7647
  25   2.0000      -5.714607      -155.5024
  26   2.0000      -5.714325      -155.4947
  27   2.0000      -5.711492      -155.4176
  28   2.0000      -5.711259      -155.4112
  29   2.0000      -5.703930      -155.2118
  30   2.0000      -5.703603      -155.2029
  31   2.0000      -5.666524      -154.1940
  32   2.0000      -5.658496      -153.9755
  33   2.0000      -5.658181      -153.9669
  34   2.0000      -5.656166      -153.9121
  35   2.0000      -5.647603      -153.6791
  36   2.0000      -5.647142      -153.6665
  37   2.0000      -4.649181      -126.5107
  38   2.0000      -4.648485      -126.4917
  39   2.0000      -4.647339      -126.4605
  40   2.0000      -4.645417      -126.4082
  41   2.0000      -4.644455      -126.3820
  42   2.0000      -4.642474      -126.3281
  43   2.0000      -0.990847       -26.9623
  44   2.0000      -0.988814       -26.9070
  45   2.0000      -0.949993       -25.8506
  46   2.0000      -0.944215       -25.6934
  47   2.0000      -0.764616       -20.8062
  48   2.0000      -0.721925       -19.6446
  49   2.0000      -0.710618       -19.3369
  50   2.0000      -0.691377       -18.8133
  51   2.0000      -0.690142       -18.7797
  52   2.0000      -0.676465       -18.4076
  53   2.0000      -0.652148       -17.7458
  54   2.0000      -0.639273       -17.3955
  55   2.0000      -0.604279       -16.4433
  56   2.0000      -0.590193       -16.0600
  57   2.0000      -0.575716       -15.6660
  58   2.0000      -0.572662       -15.5829
  59   2.0000      -0.564065       -15.3490
  60   2.0000      -0.504544       -13.7293
  61   2.0000      -0.494348       -13.4519
  62   2.0000      -0.476821       -12.9750
  63   2.0000      -0.474250       -12.9050
  64   2.0000      -0.460311       -12.5257
  65   2.0000      -0.448295       -12.1987
  66   2.0000      -0.442866       -12.0510
  67   2.0000      -0.434604       -11.8262
  68   2.0000      -0.433364       -11.7924
  69   2.0000      -0.415577       -11.3084
  70   2.0000      -0.410829       -11.1792
  71   2.0000      -0.398949       -10.8559
  72   2.0000      -0.398429       -10.8418
  73   2.0000      -0.389106       -10.5881
  74   2.0000      -0.383743       -10.4422
  75   2.0000      -0.375536       -10.2189
  76   2.0000      -0.365183        -9.9371
  77   2.0000      -0.357541        -9.7292
  78   2.0000      -0.355500        -9.6736
  79   2.0000      -0.351993        -9.5782
  80   2.0000      -0.348746        -9.4899
  81   2.0000      -0.346776        -9.4363
  82   2.0000      -0.344904        -9.3853
  83   2.0000      -0.338769        -9.2184
  84   2.0000      -0.337448        -9.1824
  85   2.0000      -0.324030        -8.8173
  86   2.0000      -0.313740        -8.5373
  87   2.0000      -0.298851        -8.1321
  88   2.0000      -0.298165        -8.1135
  89   2.0000      -0.289648        -7.8817
  90   2.0000      -0.286094        -7.7850
  91   2.0000      -0.280182        -7.6241
  92   2.0000      -0.275038        -7.4842
  93   2.0000      -0.267456        -7.2778
  94   2.0000      -0.257826        -7.0158
  95   2.0000      -0.233812        -6.3623
  96   2.0000      -0.219299        -5.9674
  97   2.0000      -0.214773        -5.8443
  98   2.0000      -0.206466        -5.6182
  99   2.0000      -0.199372        -5.4252
 100   2.0000      -0.196886        -5.3575
 101   0.0000      -0.044275        -1.2048
 102   0.0000      -0.023843        -0.6488
 103   0.0000      -0.005269        -0.1434
 104   0.0000      -0.000014        -0.0004
 105   0.0000       0.012298         0.3346

MULLIKEN ATOMIC CHARGES
-----------------------
   0 C :   -0.315882
   1 C :   -0.006318
   2 O :   -0.370899
   3 P :    0.609611
   4 S :   -0.338620
   5 O :   -0.359837
   6 C :   -0.007610
   7 C :   -0.304542
   8 S :   -0.053056
   9 C :   -0.371070
  10 S :   -0.105707
  11 P :    0.597071
  12 S :   -0.309628
  13 O :   -0.381441
  14 C :   -0.011279
  15 C :   -0.308625
  16 O :   -0.344745
  17 C :   -0.020307
  18 C :   -0.281220
  19 H :    0.121597
  20 H :    0.127988
  21 H :    0.114409
  22 H :    0.111293
  23 H :    0.106777
  24 H :    0.113969
  25 H :    0.102070
  26 H :    0.116714
  27 H :    0.123676
  28 H :    0.112481
  29 H :    0.195344
  30 H :    0.191890
  31 H :    0.108664
  32 H :    0.113326
  33 H :    0.126479
  34 H :    0.127773
  35 H :    0.111684
  36 H :    0.116289
  37 H :    0.099737
  38 H :    0.104827
  39 H :    0.116514
  40 H :    0.120605
Sum of atomic charges:    0.0000000

LOEWDIN ATOMIC CHARGES
----------------------
   0 C :   -0.368931
   1 C :   -0.119037
   2 O :   -0.242483
   3 P :    0.574183
   4 S :   -0.324520
   5 O :   -0.237784
   6 C :   -0.117568
   7 C :   -0.365022
   8 S :    0.106317
   9 C :   -0.487156
  10 S :    0.063462
  11 P :    0.568887
  12 S :   -0.305724
  13 O :   -0.245996
  14 C :   -0.115041
  15 C :   -0.368951
  16 O :   -0.228685
  17 C :   -0.115881
  18 C :   -0.357672
  19 H :    0.126338
  20 H :    0.121917
  21 H :    0.131852
  22 H :    0.110482
  23 H :    0.119418
  24 H :    0.111602
  25 H :    0.113981
  26 H :    0.126454
  27 H :    0.122765
  28 H :    0.130738
  29 H :    0.129225
  30 H :    0.128272
  31 H :    0.120730
  32 H :    0.108241
  33 H :    0.121818
  34 H :    0.130973
  35 H :    0.130412
  36 H :    0.119879
  37 H :    0.101193
  38 H :    0.126867
  39 H :    0.125181
  40 H :    0.129267

  Mayer bond orders larger than 0.100000
B(  0-C ,  1-C ) :   1.1664 B(  0-C , 19-H ) :   0.9446 B(  0-C , 20-H ) :   0.9356
B(  0-C , 21-H ) :   0.9377 B(  1-C ,  2-O ) :   0.9063 B(  1-C , 22-H ) :   0.9161
B(  1-C , 23-H ) :   0.9337 B(  2-O ,  3-P ) :   1.1126 B(  3-P ,  4-S ) :   1.5837
B(  3-P ,  5-O ) :   1.1170 B(  3-P ,  8-S ) :   0.9694 B(  4-S ,  8-S ) :   0.1098
B(  5-O ,  6-C ) :   0.9048 B(  6-C ,  7-C ) :   1.1650 B(  6-C , 24-H ) :   0.9168
B(  6-C , 25-H ) :   0.9298 B(  7-C , 26-H ) :   0.9458 B(  7-C , 27-H ) :   0.9351
B(  7-C , 28-H ) :   0.9386 B(  8-S ,  9-C ) :   1.0063 B(  9-C , 10-S ) :   1.0074
B(  9-C , 29-H ) :   0.8719 B(  9-C , 30-H ) :   0.8758 B( 10-S , 11-P ) :   0.9366
B( 10-S , 12-S ) :   0.1104 B( 11-P , 12-S ) :   1.6469 B( 11-P , 13-O ) :   1.0778
B( 11-P , 16-O ) :   1.1427 B( 13-O , 14-C ) :   0.9114 B( 14-C , 15-C ) :   1.1683
B( 14-C , 31-H ) :   0.9330 B( 14-C , 32-H ) :   0.9259 B( 15-C , 33-H ) :   0.9318
B( 15-C , 34-H ) :   0.9430 B( 15-C , 35-H ) :   0.9346 B( 16-O , 17-C ) :   0.8927
B( 17-C , 18-C ) :   1.1563 B( 17-C , 36-H ) :   0.9305 B( 17-C , 37-H ) :   0.9116
B( 18-C , 38-H ) :   0.9414 B( 18-C , 39-H ) :   0.9436 B( 18-C , 40-H ) :   0.9467

Dispersion correction           -0.066052893
FINAL SINGLE POINT ENERGY     -2929.522700038814

DIPOLE MOMENT
-------------

Method             : SCF
Type of density    : Electron Density
Multiplicity       :   1
Irrep              :   0
Energy             : -2929.6422774673324056 Eh
Relativity type    :
Basis              : AO
                                X                 Y                 Z
Electronic contribution:     -0.770848603       7.457781850     -11.107466508
Nuclear contribution   :      0.994664983      -8.061450125      12.573760391
                        -----------------------------------------
Total Dipole Moment    :      0.223816381      -0.603668276       1.466293883
                        -----------------------------------------
Magnitude (a.u.)       :      1.601414035
Magnitude (Debye)      :      4.070470991

Rotational constants in cm-1:             0.012712             0.004901             0.004537
Rotational constants in MHz :           381.087949           146.915443           136.010067

                             ****ORCA TERMINATED NORMALLY****
TOTAL RUN TIME: 0 days 0 hours 0 minutes 21 seconds 534 msec
