                         Program Version 6.0.0  -   RELEASE  -
|  1> ! wb97x-v def2-tzvp def2/J RIJCOSX DEFGRID2 scfconv7 GCP(DFT/TZ) printgap
|  2> %output
|  3>     printlevel normal
|  4> end
|  5> * xyz 0 1
|  6> C -2.5589644139413505 0.6277600403756516 0.00019050987158405252
|  7> C -1.2229705423481034 -0.05839884127782981 -2.661111195561033e-05
|  8> C -1.1512826761090793 -1.454400382476172 -5.790502278920944e-05
|  9> C 0.08123551233600483 -2.100652558035584 -9.075530262801952e-05
| 10> C 1.2555573917311487 -1.35907415293924 -7.287845241946591e-05
| 11> C 1.1848908977832402 0.03464645794660212 -3.42623613907617e-05
| 12> C -0.043155029701080316 0.7094147895220213 -4.913845996466976e-05
| 13> C -0.11154627741628484 2.209792487264971 2.6711180683799285e-05
| 14> O 2.3376608448467753 0.7974458405341182 3.800291869415797e-05
| 15> H -2.6773712255767825 1.2713432536864322 0.8797133765006463
| 16> H -2.676895554905974 1.2730513121732236 -0.8781268351819281
| 17> H -3.3706993437683668 -0.10313181304098938 -0.0007131655834432054
| 18> H -2.0698237691411956 -2.03365725221359 -6.464072632239535e-05
| 19> H 0.13051556610262044 -3.1852019549377104 -0.00012726765859350823
| 20> H 2.2267113569767996 -1.8470353223214688 -7.430432406493897e-05
| 21> H -0.6545140607130703 2.576312090363767 -0.8788175270391537
| 22> H -0.6533896663322416 2.576280625844439 0.879588450813072
| 23> H 0.8785748789674608 2.6642721077613567 -0.0006037423320395646
| 24> H 3.098984135216217 0.20131004968620234 -1.4659132716011236e-05
| 25> *
| 26>
| 27>                          ****END OF INPUT****

CARTESIAN COORDINATES (ANGSTROEM)
---------------------------------
  C     -2.558964    0.627760    0.000191
  C     -1.222971   -0.058399   -0.000027
  C     -1.151283   -1.454400   -0.000058
  C      0.081236   -2.100653   -0.000091
  C      1.255557   -1.359074   -0.000073
  C      1.184891    0.034646   -0.000034
  C     -0.043155    0.709415   -0.000049
  C     -0.111546    2.209792    0.000027
  O      2.337661    0.797446    0.000038
  H     -2.677371    1.271343    0.879713
  H     -2.676896    1.273051   -0.878127
  H     -3.370699   -0.103132   -0.000713
  H     -2.069824   -2.033657   -0.000065
  H      0.130516   -3.185202   -0.000127
  H      2.226711   -1.847035   -0.000074
  H     -0.654514    2.576312   -0.878818
  H     -0.653390    2.576281    0.879588
  H      0.878575    2.664272   -0.000604
  H      3.098984    0.201310   -0.000015

 Total Charge           Charge          ....    0
 Multiplicity           Mult            ....    1
 Number of Electrons    NEL             ....   66
 Basis Dimension        Dim             ....  339

ORBITAL ENERGIES
----------------

  NO   OCC          E(Eh)            E(eV)
   0   2.0000     -21.699737      -590.4799
   1   2.0000     -12.108437      -329.4873
   2   2.0000     -12.057456      -328.1001
   3   2.0000     -12.050881      -327.9211
   4   2.0000     -12.050015      -327.8976
   5   2.0000     -12.045968      -327.7874
   6   2.0000     -12.041714      -327.6717
   7   2.0000     -12.038141      -327.5745
   8   2.0000     -12.036226      -327.5224
   9   2.0000      -1.712077       -46.5880
  10   2.0000      -1.385203       -37.6933
  11   2.0000      -1.299932       -35.3729
  12   2.0000      -1.285781       -34.9879
  13   2.0000      -1.208282       -32.8790
  14   2.0000      -1.181702       -32.1557
  15   2.0000      -1.140242       -31.0276
  16   2.0000      -1.088531       -29.6204
  17   2.0000      -1.040539       -28.3145
  18   2.0000      -1.003110       -27.2960
  19   2.0000      -0.945328       -25.7237
  20   2.0000      -0.943835       -25.6831
  21   2.0000      -0.934309       -25.4238
  22   2.0000      -0.887752       -24.1570
  23   2.0000      -0.867671       -23.6105
  24   2.0000      -0.845825       -23.0161
  25   2.0000      -0.837517       -22.7900
  26   2.0000      -0.824797       -22.4439
  27   2.0000      -0.819298       -22.2942
  28   2.0000      -0.805270       -21.9125
  29   2.0000      -0.802088       -21.8259
  30   2.0000      -0.752080       -20.4651
  31   2.0000      -0.630566       -17.1586
  32   2.0000      -0.628886       -17.1129
  33   0.0000      -0.240174        -6.5355
  34   0.0000      -0.239191        -6.5087
  35   0.0000      -0.147837        -4.0229
  36   0.0000      -0.071730        -1.9519
  37   0.0000      -0.067220        -1.8291

MULLIKEN ATOMIC CHARGES
-----------------------
   0 C :   -0.351323
   1 C :    0.115332
   2 C :   -0.219306
   3 C :   -0.123189
   4 C :   -0.236385
   5 C :    0.245106
   6 C :   -0.028998
   7 C :   -0.369430
   8 O :   -0.405511
   9 H :    0.120915
  10 H :    0.120870
  11 H :    0.116734
  12 H :    0.105427
  13 H :    0.115185
  14 H :    0.100761
  15 H :    0.116393
  16 H :    0.116413
  17 H :    0.149397
  18 H :    0.311609
Sum of atomic charges:   -0.0000000

LOEWDIN ATOMIC CHARGES
----------------------
   0 C :   -0.246408
   1 C :   -0.138201
   2 C :   -0.138206
   3 C :   -0.142841
   4 C :   -0.154059
   5 C :   -0.229038
   6 C :   -0.127630
   7 C :   -0.247837
   8 O :    0.058010
   9 H :    0.127128
  10 H :    0.127107
  11 H :    0.124342
  12 H :    0.141124
  13 H :    0.141783
  14 H :    0.137971
  15 H :    0.126511
  16 H :    0.126526
  17 H :    0.129617
  18 H :    0.184099

  Mayer bond orders larger than 0.100000
B(  0-C ,  1-C ) :   0.9324 B(  0-C ,  9-H ) :   0.9785 B(  0-C , 10-H ) :   0.9785
B(  0-C , 11-H ) :   0.9886 B(  1-C ,  2-C ) :   1.4304 B(  1-C ,  6-C ) :   1.3599
B(  2-C ,  3-C ) :   1.4375 B(  2-C , 12-H ) :   0.9744 B(  3-C ,  4-C ) :   1.4346
B(  3-C , 13-H ) :   0.9697 B(  4-C ,  5-C ) :   1.3754 B(  4-C , 14-H ) :   0.9664
B(  5-C ,  6-C ) :   1.3943 B(  5-C ,  8-O ) :   1.1283 B(  6-C ,  7-C ) :   0.9299
B(  7-C , 15-H ) :   0.9829 B(  7-C , 16-H ) :   0.9829 B(  7-C , 17-H ) :   0.9771
B(  8-O , 18-H ) :   0.8905

FINAL SINGLE POINT ENERGY      -386.121930258575

DIPOLE MOMENT
-------------

Method             : SCF
Type of density    : Electron Density
Multiplicity       :   1
Irrep              :   0
Energy             :  -386.1332784614746174 Eh
Relativity type    :
Basis              : AO
                                X                 Y                 Z
Electronic contribution:      5.560782147      -3.482765199      -0.000640635
Nuclear contribution   :     -5.435439592       3.236087116       0.000713238
                        -----------------------------------------
Total Dipole Moment    :      0.125342555      -0.246678083       0.000072603
                        -----------------------------------------
Magnitude (a.u.)       :      0.276696292
Magnitude (Debye)      :      0.703306081

Rotational constants in cm-1:             0.074913             0.059005             0.033415
Rotational constants in MHz :          2245.829438          1768.911123          1001.743969

                             ****ORCA TERMINATED NORMALLY****
TOTAL RUN TIME: 0 days 0 hours 2 minutes 25 seconds 987 msec
