                         Program Version 6.0.0  -   RELEASE  -
|  1> ! wb97x-v def2-tzvp def2/J RIJCOSX DEFGRID2 scfconv7 GCP(DFT/TZ) printgap
|  2> %output
|  3>     printlevel normal
|  4> end
|  5> %cpcm
|  6>     smd true
|  7>     smdsolvent "water"
|  8> end
|  9> * xyz 0 1
| 10> C -2.5589644139413505 0.6277600403756516 0.00019050987158405252
| 11> C -1.2229705423481034 -0.05839884127782981 -2.661111195561033e-05
| 12> C -1.1512826761090793 -1.454400382476172 -5.790502278920944e-05
| 13> C 0.08123551233600483 -2.100652558035584 -9.075530262801952e-05
| 14> C 1.2555573917311487 -1.35907415293924 -7.287845241946591e-05
| 15> C 1.1848908977832402 0.03464645794660212 -3.42623613907617e-05
| 16> C -0.043155029701080316 0.7094147895220213 -4.913845996466976e-05
| 17> C -0.11154627741628484 2.209792487264971 2.6711180683799285e-05
| 18> O 2.3376608448467753 0.7974458405341182 3.800291869415797e-05
| 19> H -2.6773712255767825 1.2713432536864322 0.8797133765006463
| 20> H -2.676895554905974 1.2730513121732236 -0.8781268351819281
| 21> H -3.3706993437683668 -0.10313181304098938 -0.0007131655834432054
| 22> H -2.0698237691411956 -2.03365725221359 -6.464072632239535e-05
| 23> H 0.13051556610262044 -3.1852019549377104 -0.00012726765859350823
| 24> H 2.2267113569767996 -1.8470353223214688 -7.430432406493897e-05
| 25> H -0.6545140607130703 2.576312090363767 -0.8788175270391537
| 26> H -0.6533896663322416 2.576280625844439 0.879588450813072
| 27> H 0.8785748789674608 2.6642721077613567 -0.0006037423320395646
| 28> H 3.098984135216217 0.20131004968620234 -1.4659132716011236e-05
| 29> *
| 30>
| 31>                          ****END OF INPUT****

CARTESIAN COORDINATES (ANGSTROEM)
---------------------------------
  C     -2.558964    0.627760    0.000191
  C     -1.222971   -0.058399   -0.000027
  C     -1.151283   -1.454400   -0.000058
  C      0.081236   -2.100653   -0.000091
  C      1.255557   -1.359074   -0.000073
  C      1.184891    0.034646   -0.000034
  C     -0.043155    0.709415   -0.000049
  C     -0.111546    2.209792    0.000027
  O      2.337661    0.797446    0.000038
  H     -2.677371    1.271343    0.879713
  H     -2.676896    1.273051   -0.878127
  H     -3.370699   -0.103132   -0.000713
  H     -2.069824   -2.033657   -0.000065
  H      0.130516   -3.185202   -0.000127
  H      2.226711   -1.847035   -0.000074
  H     -0.654514    2.576312   -0.878818
  H     -0.653390    2.576281    0.879588
  H      0.878575    2.664272   -0.000604
  H      3.098984    0.201310   -0.000015

 Total Charge           Charge          ....    0
 Multiplicity           Mult            ....    1
 Number of Electrons    NEL             ....   66
 Basis Dimension        Dim             ....  339

ORBITAL ENERGIES
----------------

  NO   OCC          E(Eh)            E(eV)
   0   2.0000     -21.697772      -590.4264
   1   2.0000     -12.108341      -329.4847
   2   2.0000     -12.056905      -328.0851
   3   2.0000     -12.051296      -327.9324
   4   2.0000     -12.047599      -327.8318
   5   2.0000     -12.042420      -327.6909
   6   2.0000     -12.036727      -327.5360
   7   2.0000     -12.032576      -327.4231
   8   2.0000     -12.032394      -327.4181
   9   2.0000      -1.710469       -46.5442
  10   2.0000      -1.385440       -37.6998
  11   2.0000      -1.298292       -35.3283
  12   2.0000      -1.285073       -34.9686
  13   2.0000      -1.204687       -32.7812
  14   2.0000      -1.178415       -32.0663
  15   2.0000      -1.138232       -30.9729
  16   2.0000      -1.086752       -29.5720
  17   2.0000      -1.038530       -28.2598
  18   2.0000      -1.003774       -27.3141
  19   2.0000      -0.944591       -25.7036
  20   2.0000      -0.944290       -25.6954
  21   2.0000      -0.931019       -25.3343
  22   2.0000      -0.883548       -24.0426
  23   2.0000      -0.863939       -23.5090
  24   2.0000      -0.840882       -22.8816
  25   2.0000      -0.833851       -22.6902
  26   2.0000      -0.819389       -22.2967
  27   2.0000      -0.813356       -22.1325
  28   2.0000      -0.800514       -21.7831
  29   2.0000      -0.798087       -21.7170
  30   2.0000      -0.752507       -20.4768
  31   2.0000      -0.631485       -17.1836
  32   2.0000      -0.629726       -17.1357
  33   0.0000      -0.241117        -6.5611
  34   0.0000      -0.239594        -6.5197
  35   0.0000      -0.146074        -3.9749
  36   0.0000      -0.071370        -1.9421
  37   0.0000      -0.038175        -1.0388

MULLIKEN ATOMIC CHARGES
-----------------------
   0 C :   -0.393639
   1 C :    0.088867
   2 C :   -0.273795
   3 C :   -0.150065
   4 C :   -0.299489
   5 C :    0.250506
   6 C :   -0.043697
   7 C :   -0.410151
   8 O :   -0.477318
   9 H :    0.142321
  10 H :    0.142310
  11 H :    0.141725
  12 H :    0.151758
  13 H :    0.160787
  14 H :    0.163496
  15 H :    0.143129
  16 H :    0.143122
  17 H :    0.145239
  18 H :    0.374895
Sum of atomic charges:   -0.0000000

LOEWDIN ATOMIC CHARGES
----------------------
   0 C :   -0.249126
   1 C :   -0.146912
   2 C :   -0.151416
   3 C :   -0.155892
   4 C :   -0.153949
   5 C :   -0.240295
   6 C :   -0.137245
   7 C :   -0.252598
   8 O :    0.035864
   9 H :    0.132631
  10 H :    0.132616
  11 H :    0.129450
  12 H :    0.150183
  13 H :    0.151015
  14 H :    0.154314
  15 H :    0.133410
  16 H :    0.133415
  17 H :    0.126234
  18 H :    0.208302

  Mayer bond orders larger than 0.100000
B(  0-C ,  1-C ) :   0.9438 B(  0-C ,  9-H ) :   0.9726 B(  0-C , 10-H ) :   0.9726
B(  0-C , 11-H ) :   0.9833 B(  1-C ,  2-C ) :   1.4114 B(  1-C ,  6-C ) :   1.3434
B(  2-C ,  3-C ) :   1.4032 B(  2-C , 12-H ) :   0.9830 B(  3-C ,  4-C ) :   1.3889
B(  3-C , 13-H ) :   0.9732 B(  4-C ,  5-C ) :   1.3757 B(  4-C , 14-H ) :   0.9754
B(  5-C ,  6-C ) :   1.3805 B(  5-C ,  8-O ) :   1.1035 B(  6-C ,  7-C ) :   0.9404
B(  7-C , 15-H ) :   0.9767 B(  7-C , 16-H ) :   0.9767 B(  7-C , 17-H ) :   0.9797
B(  8-O , 18-H ) :   0.8501

FINAL SINGLE POINT ENERGY      -386.130054134039

DIPOLE MOMENT
-------------

Method             : SCF
Type of density    : Electron Density
Multiplicity       :   1
Irrep              :   0
Energy             :  -386.1414023369389952 Eh
Relativity type    :
Basis              : AO
                                X                 Y                 Z
Electronic contribution:      5.579790777      -3.589129794      -0.000628993
Nuclear contribution   :     -5.435439592       3.236087116       0.000713238
                        -----------------------------------------
Total Dipole Moment    :      0.144351185      -0.353042678       0.000084245
                        -----------------------------------------
Magnitude (a.u.)       :      0.381413691
Magnitude (Debye)      :      0.969476557

Rotational constants in cm-1:             0.074913             0.059005             0.033415
Rotational constants in MHz :          2245.829438          1768.911123          1001.743969

                             ****ORCA TERMINATED NORMALLY****
TOTAL RUN TIME: 0 days 0 hours 2 minutes 43 seconds 545 msec
