                         Program Version 6.0.0  -   RELEASE  -
|  1> ! r2scan-3c def2/J RI DEFGRID2 scfconv6 printgap
|  2> %output
|  3>     printlevel normal
|  4> end
|  5> * xyz 0 1
|  6> C -1.749307668 -0.6616628191 -3.00289e-05
|  7> C -0.4654762324 0.1103995557 -0.000706289
|  8> O -0.3754296812 1.3210273356 0.0003576513
|  9> O 0.5937468223 -0.6933286347 0.0006503104
| 10> C 1.8887011734 -0.0883230518 -0.0003422004
| 11> H -1.5400809817 -1.7256694872 0.001305152
| 12> H -2.3273553634 -0.3876272937 -0.8788678792
| 13> H -2.3281308113 -0.3853534649 0.8775521442
| 14> H 2.0634636857 0.4122708632 -0.9533286681
| 15> H 2.5930363932 -0.9009741314 0.146327058
| 16> H 1.9592794523 0.6450497954 0.8038642004
| 17> *
| 18>
| 19>                          ****END OF INPUT****

CARTESIAN COORDINATES (ANGSTROEM)
---------------------------------
  C     -1.749308   -0.661663   -0.000030
  C     -0.465476    0.110400   -0.000706
  O     -0.375430    1.321027    0.000358
  O      0.593747   -0.693329    0.000650
  C      1.888701   -0.088323   -0.000342
  H     -1.540081   -1.725669    0.001305
  H     -2.327355   -0.387627   -0.878868
  H     -2.328131   -0.385353    0.877552
  H      2.063464    0.412271   -0.953329
  H      2.593036   -0.900974    0.146327
  H      1.959279    0.645050    0.803864

 Total Charge           Charge          ....    0
 Multiplicity           Mult            ....    1
 Number of Electrons    NEL             ....   40
 Basis Dimension        Dim             ....  135

ORBITAL ENERGIES
----------------

  NO   OCC          E(Eh)            E(eV)
   0   2.0000     -19.001587      -517.0595
   1   2.0000     -18.929290      -515.0922
   2   2.0000     -10.156738      -276.3789
   3   2.0000     -10.087982      -274.5080
   4   2.0000     -10.040855      -273.2256
   5   2.0000      -1.075012       -29.2526
   6   2.0000      -0.976744       -26.5786
   7   2.0000      -0.740632       -20.1536
   8   2.0000      -0.674687       -18.3592
   9   2.0000      -0.538902       -14.6643
  10   2.0000      -0.465068       -12.6552
  11   2.0000      -0.458975       -12.4894
  12   2.0000      -0.445399       -12.1199
  13   2.0000      -0.404608       -11.0099
  14   2.0000      -0.385685       -10.4950
  15   2.0000      -0.375121       -10.2076
  16   2.0000      -0.339688        -9.2434
  17   2.0000      -0.323845        -8.8123
  18   2.0000      -0.275746        -7.5034
  19   2.0000      -0.238369        -6.4863
  20   0.0000      -0.016366        -0.4453
  21   0.0000       0.065570         1.7842
  22   0.0000       0.098124         2.6701
  23   0.0000       0.126693         3.4475
  24   0.0000       0.142261         3.8711

MULLIKEN ATOMIC CHARGES
-----------------------
   0 C :   -0.505564
   1 C :    0.414394
   2 O :   -0.419293
   3 O :   -0.188245
   4 C :   -0.293058
   5 H :    0.171319
   6 H :    0.173149
   7 H :    0.173268
   8 H :    0.157610
   9 H :    0.150398
  10 H :    0.166023
Sum of atomic charges:   -0.0000000

LOEWDIN ATOMIC CHARGES
----------------------
   0 C :   -0.336169
   1 C :    0.348754
   2 O :   -0.426025
   3 O :   -0.607954
   4 C :   -0.044413
   5 H :    0.174363
   6 H :    0.180200
   7 H :    0.180283
   8 H :    0.175151
   9 H :    0.176217
  10 H :    0.179593

  Mayer bond orders larger than 0.100000
B(  0-C ,  1-C ) :   0.9510 B(  0-C ,  5-H ) :   0.9851 B(  0-C ,  6-H ) :   0.9495
B(  0-C ,  7-H ) :   0.9491 B(  1-C ,  2-O ) :   1.8205 B(  1-C ,  3-O ) :   1.0656
B(  3-O ,  4-C ) :   0.8536 B(  4-C ,  8-H ) :   0.9602 B(  4-C ,  9-H ) :   0.9690
B(  4-C , 10-H ) :   0.9620

Dispersion correction           -0.002017013
FINAL SINGLE POINT ENERGY      -268.333267297321

DIPOLE MOMENT
-------------

Method             : SCF
Type of density    : Electron Density
Multiplicity       :   1
Irrep              :   0
Energy             :  -268.3393622984409603 Eh
Relativity type    :
Basis              : AO
                                X                 Y                 Z
Electronic contribution:     -0.175391340       1.427482522       0.004341812
Nuclear contribution   :      0.397473526      -2.188167967      -0.002938398
                        -----------------------------------------
Total Dipole Moment    :      0.222082186      -0.760685445       0.001403414
                        -----------------------------------------
Magnitude (a.u.)       :      0.792442309
Magnitude (Debye)      :      2.014228277

Rotational constants in cm-1:             0.344381             0.138735             0.102683
Rotational constants in MHz :         10324.288324          4159.171581          3078.347102

                             ****ORCA TERMINATED NORMALLY****
TOTAL RUN TIME: 0 days 0 hours 0 minutes 11 seconds 228 msec
