                         Program Version 6.0.0  -   RELEASE  -
|  1> ! pbe def2-sv(p) def2/J RI DEFGRID1 loosescf d4 GCP(DFT/SV(P)) printgap
|  2> %output
|  3>     printlevel normal
|  4> end
|  5> * xyz 0 1
|  6> C 2.9474822539 1.1764099648 -2.6524452552
|  7> C 3.0400472554 -0.3188579434 -2.4284803955
|  8> O 2.14175406 -0.7734071163 -1.3910274989
|  9> P 2.2245064284 -0.3356533034 0.1285987356
| 10> S 1.3090170488 1.3281841393 0.641510349
| 11> O 3.7917124386 -0.3339987421 0.3846031573
| 12> C 4.3811602425 0.2851398471 1.5414383499
| 13> C 4.0767407887 -0.479818018 2.8127747289
| 14> S 1.5178645019 -2.1027619682 1.062975442
| 15> C -0.2363489254 -1.690334041 1.1160323098
| 16> S -0.9124871513 -1.4464881477 -0.564905528
| 17> P -2.3563905564 0.0370132358 -0.1403993583
| 18> S -2.2504940719 0.9512276744 1.5956271904
| 19> O -3.6786931171 -0.8108693778 -0.3359157057
| 20> C -4.9394730288 -0.408705852 0.2356169706
| 21> C -5.4881932348 0.8275419375 -0.4445210336
| 22> O -2.3784844712 0.917922448 -1.4645929467
| 23> C -1.2989120285 1.7502791526 -1.9183664717
| 24> C -1.3220394097 3.112857024 -1.2547313808
| 25> H 3.6207270454 1.4634146794 -3.4540238786
| 26> H 1.931732011 1.460263481 -2.9178311597
| 27> H 3.2276446691 1.7084025963 -1.7438370629
| 28> H 4.0556684843 -0.6112125289 -2.1546067437
| 29> H 2.7137129838 -0.8788880275 -3.3061451122
| 30> H 5.4491696505 0.2900098868 1.3194992885
| 31> H 4.0091725249 1.3125765405 1.6120689177
| 32> H 4.3357143832 -1.528726968 2.6938747307
| 33> H 4.647530241 -0.0557846085 3.6326722334
| 34> H 3.0157073437 -0.4068147055 3.0473665087
| 35> H -0.390591472 -0.7681253936 1.6847807993
| 36> H -0.7335164478 -2.5329015106 1.5900746558
| 37> H -5.5827378558 -1.2767259874 0.0873345293
| 38> H -4.7934585687 -0.2279231626 1.30546949
| 39> H -5.5557870231 0.6675639078 -1.5172265901
| 40> H -6.4722136767 1.0542920601 -0.0465202281
| 41> H -4.8250326213 1.6712724026 -0.2563890234
| 42> H -0.3484165649 1.2428164069 -1.7252617007
| 43> H -1.4603376509 1.8282334076 -2.9954168047
| 44> H -0.5528652537 3.7389178634 -1.6956354374
| 45> H -2.2929599476 3.5809066769 -1.3910815845
| 46> H -1.1203286982 3.0170406432 -0.1893383867
| 47> *
| 48>
| 49>                          ****END OF INPUT****

CARTESIAN COORDINATES (ANGSTROEM)
---------------------------------
  C      2.947482    1.176410   -2.652445
  C      3.040047   -0.318858   -2.428480
  O      2.141754   -0.773407   -1.391027
  P      2.224506   -0.335653    0.128599
  S      1.309017    1.328184    0.641510
  O      3.791712   -0.333999    0.384603
  C      4.381160    0.285140    1.541438
  C      4.076741   -0.479818    2.812775
  S      1.517865   -2.102762    1.062975
  C     -0.236349   -1.690334    1.116032
  S     -0.912487   -1.446488   -0.564906
  P     -2.356391    0.037013   -0.140399
  S     -2.250494    0.951228    1.595627
  O     -3.678693   -0.810869   -0.335916
  C     -4.939473   -0.408706    0.235617
  C     -5.488193    0.827542   -0.444521
  O     -2.378484    0.917922   -1.464593
  C     -1.298912    1.750279   -1.918366
  C     -1.322039    3.112857   -1.254731
  H      3.620727    1.463415   -3.454024
  H      1.931732    1.460263   -2.917831
  H      3.227645    1.708403   -1.743837
  H      4.055668   -0.611213   -2.154607
  H      2.713713   -0.878888   -3.306145
  H      5.449170    0.290010    1.319499
  H      4.009173    1.312577    1.612069
  H      4.335714   -1.528727    2.693875
  H      4.647530   -0.055785    3.632672
  H      3.015707   -0.406815    3.047367
  H     -0.390591   -0.768125    1.684781
  H     -0.733516   -2.532902    1.590075
  H     -5.582738   -1.276726    0.087335
  H     -4.793459   -0.227923    1.305469
  H     -5.555787    0.667564   -1.517227
  H     -6.472214    1.054292   -0.046520
  H     -4.825033    1.671272   -0.256389
  H     -0.348417    1.242816   -1.725262
  H     -1.460338    1.828233   -2.995417
  H     -0.552865    3.738918   -1.695635
  H     -2.292960    3.580907   -1.391082
  H     -1.120329    3.017041   -0.189338

 Total Charge           Charge          ....    0
 Multiplicity           Mult            ....    1
 Number of Electrons    NEL             ....  202
 Basis Dimension        Dim             ....  334

ORBITAL ENERGIES
----------------

  NO   OCC          E(Eh)            E(eV)
   0   2.0000     -88.043580     -2395.7876
   1   2.0000     -88.035834     -2395.5768
   2   2.0000     -87.986536     -2394.2354
   3   2.0000     -87.982394     -2394.1227
   4   2.0000     -76.429253     -2079.7457
   5   2.0000     -76.419989     -2079.4936
   6   2.0000     -18.800492      -511.5874
   7   2.0000     -18.789612      -511.2913
   8   2.0000     -18.787037      -511.2213
   9   2.0000     -18.781130      -511.0605
  10   2.0000      -9.957652      -270.9615
  11   2.0000      -9.956502      -270.9302
  12   2.0000      -9.950327      -270.7622
  13   2.0000      -9.944644      -270.6075
  14   2.0000      -9.944012      -270.5903
  15   2.0000      -9.888066      -269.0680
  16   2.0000      -9.886297      -269.0198
  17   2.0000      -9.877890      -268.7911
  18   2.0000      -9.871596      -268.6198
  19   2.0000      -7.688914      -209.2260
  20   2.0000      -7.680883      -209.0074
  21   2.0000      -7.631156      -207.6543
  22   2.0000      -7.627276      -207.5487
  23   2.0000      -6.426329      -174.8693
  24   2.0000      -6.417618      -174.6323
  25   2.0000      -5.716936      -155.5657
  26   2.0000      -5.713408      -155.4697
  27   2.0000      -5.708784      -155.3439
  28   2.0000      -5.705730      -155.2608
  29   2.0000      -5.705539      -155.2556
  30   2.0000      -5.697659      -155.0412
  31   2.0000      -5.659929      -154.0145
  32   2.0000      -5.656017      -153.9080
  33   2.0000      -5.651833      -153.7942
  34   2.0000      -5.651441      -153.7835
  35   2.0000      -5.648068      -153.6918
  36   2.0000      -5.647421      -153.6741
  37   2.0000      -4.649416      -126.5170
  38   2.0000      -4.647852      -126.4745
  39   2.0000      -4.646592      -126.4402
  40   2.0000      -4.640007      -126.2610
  41   2.0000      -4.639359      -126.2434
  42   2.0000      -4.638280      -126.2140
  43   2.0000      -0.991687       -26.9852
  44   2.0000      -0.979756       -26.6605
  45   2.0000      -0.947104       -25.7720
  46   2.0000      -0.938004       -25.5244
  47   2.0000      -0.761040       -20.7089
  48   2.0000      -0.719720       -19.5846
  49   2.0000      -0.705724       -19.2037
  50   2.0000      -0.692077       -18.8324
  51   2.0000      -0.678833       -18.4720
  52   2.0000      -0.671210       -18.2646
  53   2.0000      -0.652287       -17.7496
  54   2.0000      -0.633183       -17.2298
  55   2.0000      -0.599096       -16.3022
  56   2.0000      -0.589980       -16.0542
  57   2.0000      -0.581717       -15.8293
  58   2.0000      -0.563159       -15.3243
  59   2.0000      -0.556923       -15.1546
  60   2.0000      -0.500596       -13.6219
  61   2.0000      -0.490686       -13.3522
  62   2.0000      -0.473524       -12.8852
  63   2.0000      -0.466377       -12.6908
  64   2.0000      -0.455353       -12.3908
  65   2.0000      -0.443478       -12.0677
  66   2.0000      -0.434423       -11.8213
  67   2.0000      -0.430566       -11.7163
  68   2.0000      -0.426728       -11.6118
  69   2.0000      -0.413795       -11.2599
  70   2.0000      -0.409537       -11.1441
  71   2.0000      -0.403435       -10.9780
  72   2.0000      -0.397026       -10.8036
  73   2.0000      -0.385043       -10.4775
  74   2.0000      -0.377665       -10.2768
  75   2.0000      -0.372103       -10.1254
  76   2.0000      -0.365726        -9.9519
  77   2.0000      -0.356660        -9.7052
  78   2.0000      -0.352991        -9.6054
  79   2.0000      -0.347144        -9.4463
  80   2.0000      -0.344040        -9.3618
  81   2.0000      -0.340642        -9.2693
  82   2.0000      -0.338212        -9.2032
  83   2.0000      -0.333248        -9.0681
  84   2.0000      -0.327386        -8.9086
  85   2.0000      -0.318653        -8.6710
  86   2.0000      -0.306944        -8.3524
  87   2.0000      -0.299206        -8.1418
  88   2.0000      -0.292703        -7.9648
  89   2.0000      -0.287443        -7.8217
  90   2.0000      -0.280488        -7.6325
  91   2.0000      -0.277910        -7.5623
  92   2.0000      -0.267220        -7.2714
  93   2.0000      -0.261605        -7.1186
  94   2.0000      -0.256339        -6.9753
  95   2.0000      -0.236248        -6.4286
  96   2.0000      -0.219639        -5.9767
  97   2.0000      -0.209142        -5.6910
  98   2.0000      -0.199351        -5.4246
  99   2.0000      -0.194721        -5.2986
 100   2.0000      -0.190467        -5.1829
 101   0.0000      -0.045089        -1.2269
 102   0.0000      -0.029652        -0.8069
 103   0.0000      -0.008083        -0.2199
 104   0.0000       0.015145         0.4121
 105   0.0000       0.018018         0.4903

MULLIKEN ATOMIC CHARGES
-----------------------
   0 C :   -0.324010
   1 C :    0.001478
   2 O :   -0.367369
   3 P :    0.626841
   4 S :   -0.317495
   5 O :   -0.382666
   6 C :   -0.004591
   7 C :   -0.317341
   8 S :   -0.089980
   9 C :   -0.357443
  10 S :   -0.091579
  11 P :    0.625109
  12 S :   -0.322712
  13 O :   -0.366809
  14 C :   -0.004944
  15 C :   -0.306317
  16 O :   -0.373027
  17 C :   -0.036518
  18 C :   -0.301410
  19 H :    0.110570
  20 H :    0.127978
  21 H :    0.127582
  22 H :    0.110339
  23 H :    0.110114
  24 H :    0.104275
  25 H :    0.112729
  26 H :    0.118268
  27 H :    0.115270
  28 H :    0.132303
  29 H :    0.212006
  30 H :    0.182088
  31 H :    0.102710
  32 H :    0.109296
  33 H :    0.115573
  34 H :    0.108793
  35 H :    0.124781
  36 H :    0.132391
  37 H :    0.099386
  38 H :    0.103771
  39 H :    0.109760
  40 H :    0.140801
Sum of atomic charges:   -0.0000000

LOEWDIN ATOMIC CHARGES
----------------------
   0 C :   -0.366353
   1 C :   -0.108369
   2 O :   -0.245320
   3 P :    0.571072
   4 S :   -0.298572
   5 O :   -0.245213
   6 C :   -0.119858
   7 C :   -0.368948
   8 S :    0.089253
   9 C :   -0.479163
  10 S :    0.081923
  11 P :    0.569101
  12 S :   -0.299707
  13 O :   -0.246018
  14 C :   -0.118842
  15 C :   -0.364893
  16 O :   -0.241005
  17 C :   -0.122655
  18 C :   -0.364293
  19 H :    0.129579
  20 H :    0.126845
  21 H :    0.122508
  22 H :    0.113604
  23 H :    0.122143
  24 H :    0.117975
  25 H :    0.110910
  26 H :    0.124933
  27 H :    0.132407
  28 H :    0.123478
  29 H :    0.122296
  30 H :    0.135164
  31 H :    0.117551
  32 H :    0.108317
  33 H :    0.125882
  34 H :    0.128734
  35 H :    0.122774
  36 H :    0.103466
  37 H :    0.114877
  38 H :    0.127431
  39 H :    0.122666
  40 H :    0.124318

  Mayer bond orders larger than 0.100000
B(  0-C ,  1-C ) :   1.1643 B(  0-C , 19-H ) :   0.9361 B(  0-C , 20-H ) :   0.9423
B(  0-C , 21-H ) :   0.9348 B(  1-C ,  2-O ) :   0.9093 B(  1-C , 22-H ) :   0.9292
B(  1-C , 23-H ) :   0.9347 B(  2-O ,  3-P ) :   1.1153 B(  3-P ,  4-S ) :   1.6145
B(  3-P ,  5-O ) :   1.0847 B(  3-P ,  8-S ) :   0.9459 B(  4-S ,  8-S ) :   0.1195
B(  5-O ,  6-C ) :   0.9033 B(  6-C ,  7-C ) :   1.1681 B(  6-C , 24-H ) :   0.9330
B(  6-C , 25-H ) :   0.9130 B(  7-C , 26-H ) :   0.9450 B(  7-C , 27-H ) :   0.9376
B(  7-C , 28-H ) :   0.9351 B(  8-S ,  9-C ) :   1.0089 B(  9-C , 10-S ) :   0.9935
B(  9-C , 29-H ) :   0.8477 B(  9-C , 30-H ) :   0.9093 B( 10-S , 11-P ) :   0.9619
B( 10-S , 12-S ) :   0.1211 B( 11-P , 12-S ) :   1.6057 B( 11-P , 13-O ) :   1.1288
B( 11-P , 16-O ) :   1.1121 B( 13-O , 14-C ) :   0.9131 B( 14-C , 15-C ) :   1.1633
B( 14-C , 31-H ) :   0.9346 B( 14-C , 32-H ) :   0.9137 B( 15-C , 33-H ) :   0.9466
B( 15-C , 34-H ) :   0.9387 B( 15-C , 35-H ) :   0.9355 B( 16-O , 17-C ) :   0.9057
B( 17-C , 18-C ) :   1.1715 B( 17-C , 36-H ) :   0.8957 B( 17-C , 37-H ) :   0.9357
B( 18-C , 38-H ) :   0.9392 B( 18-C , 39-H ) :   0.9464 B( 18-C , 40-H ) :   0.9302

Dispersion correction           -0.066203614
FINAL SINGLE POINT ENERGY     -2929.519498165695

DIPOLE MOMENT
-------------

Method             : SCF
Type of density    : Electron Density
Multiplicity       :   1
Irrep              :   0
Energy             : -2929.6378363368744431 Eh
Relativity type    :
Basis              : AO
                                X                 Y                 Z
Electronic contribution:     -1.943192707     -14.159928714       5.461436951
Nuclear contribution   :      2.826295247      14.125507150      -6.133428876
                        -----------------------------------------
Total Dipole Moment    :      0.883102541      -0.034421564      -0.671991926
                        -----------------------------------------
Magnitude (a.u.)       :      1.110237853
Magnitude (Debye)      :      2.822000354

Rotational constants in cm-1:             0.013450             0.004931             0.004531
Rotational constants in MHz :           403.212878           147.819292           135.849930

                             ****ORCA TERMINATED NORMALLY****
TOTAL RUN TIME: 0 days 0 hours 0 minutes 21 seconds 272 msec
