                         Program Version 6.0.0  -   RELEASE  -
|  1> ! pbe def2-sv(p) def2/J RI DEFGRID1 loosescf d4 GCP(DFT/SV(P)) printgap
|  2> %output
|  3>     printlevel normal
|  4> end
|  5> * xyz 0 1
|  6> C 3.9567087423 -1.769601969 -2.3584366394
|  7> C 4.2368449791 -1.4051936791 -0.9147953891
|  8> O 3.7626328761 -0.0920703835 -0.5695469556
|  9> P 2.2348621629 0.371842496 -0.5678996424
| 10> S 1.4244588677 0.7213537286 -2.3157889645
| 11> O 2.3552181961 1.7129898186 0.2465876591
| 12> C 3.1826501589 1.9406684938 1.4111015631
| 13> C 2.7498498085 1.1096372512 2.6008329537
| 14> S 1.2892161799 -1.1495524335 0.594340499
| 15> C -0.0269477727 -1.657299709 -0.5563099472
| 16> S -1.6619425878 -1.771191203 0.2021333849
| 17> P -2.1865419725 0.253450681 0.6121375876
| 18> S -0.7837777622 1.6113435005 0.4195221521
| 19> O -2.7361219866 0.2205107509 2.0891742632
| 20> C -4.0435421962 -0.2551727461 2.496214138
| 21> C -4.2613409814 -1.7172252905 2.171510008
| 22> O -3.518078503 0.5339643613 -0.2216276378
| 23> C -3.5215017433 1.0662814519 -1.5541997433
| 24> C -2.8245391615 0.1587479882 -2.5477092778
| 25> H 2.884060119 -1.8317993668 -2.5327639508
| 26> H 4.3650220049 -1.0138554714 -3.0248858451
| 27> H 4.4111551399 -2.7296761216 -2.5804444351
| 28> H 5.3095801989 -1.3471877994 -0.7212761138
| 29> H 3.7764488315 -2.1279607912 -0.23467042
| 30> H 4.2202112665 1.7349805421 1.1398742225
| 31> H 3.0494144944 3.0071857859 1.6004016674
| 32> H 3.3048490841 1.4272106962 3.4779968303
| 33> H 1.6854524845 1.2455868624 2.781656216
| 34> H 2.942556666 0.0528968217 2.4215706393
| 35> H 0.1867405787 -2.6679452217 -0.8962643053
| 36> H -0.0284931083 -0.9519277424 -1.3925039672
| 37> H -4.0457391205 -0.0765811688 3.5725375124
| 38> H -4.7971474804 0.3695284702 2.0130498836
| 39> H -5.2197321227 -2.0292311441 2.5749503173
| 40> H -4.2645982368 -1.8684723258 1.0935563163
| 41> H -3.4733758268 -2.3262364696 2.6065363447
| 42> H -4.5825709947 1.1729536319 -1.785294381
| 43> H -3.0432194287 2.0505870696 -1.5369561252
| 44> H -3.1873815341 -0.8616989075 -2.4533872114
| 45> H -3.0135668121 0.5164336393 -3.5548300502
| 46> H -1.7475387309 0.1769460369 -2.3803890082
| 47> *
| 48>
| 49>                          ****END OF INPUT****

CARTESIAN COORDINATES (ANGSTROEM)
---------------------------------
  C      3.956709   -1.769602   -2.358437
  C      4.236845   -1.405194   -0.914795
  O      3.762633   -0.092070   -0.569547
  P      2.234862    0.371842   -0.567900
  S      1.424459    0.721354   -2.315789
  O      2.355218    1.712990    0.246588
  C      3.182650    1.940668    1.411102
  C      2.749850    1.109637    2.600833
  S      1.289216   -1.149552    0.594340
  C     -0.026948   -1.657300   -0.556310
  S     -1.661943   -1.771191    0.202133
  P     -2.186542    0.253451    0.612138
  S     -0.783778    1.611344    0.419522
  O     -2.736122    0.220511    2.089174
  C     -4.043542   -0.255173    2.496214
  C     -4.261341   -1.717225    2.171510
  O     -3.518079    0.533964   -0.221628
  C     -3.521502    1.066281   -1.554200
  C     -2.824539    0.158748   -2.547709
  H      2.884060   -1.831799   -2.532764
  H      4.365022   -1.013855   -3.024886
  H      4.411155   -2.729676   -2.580444
  H      5.309580   -1.347188   -0.721276
  H      3.776449   -2.127961   -0.234670
  H      4.220211    1.734981    1.139874
  H      3.049414    3.007186    1.600402
  H      3.304849    1.427211    3.477997
  H      1.685452    1.245587    2.781656
  H      2.942557    0.052897    2.421571
  H      0.186741   -2.667945   -0.896264
  H     -0.028493   -0.951928   -1.392504
  H     -4.045739   -0.076581    3.572538
  H     -4.797147    0.369528    2.013050
  H     -5.219732   -2.029231    2.574950
  H     -4.264598   -1.868472    1.093556
  H     -3.473376   -2.326236    2.606536
  H     -4.582571    1.172954   -1.785294
  H     -3.043219    2.050587   -1.536956
  H     -3.187382   -0.861699   -2.453387
  H     -3.013567    0.516434   -3.554830
  H     -1.747539    0.176946   -2.380389

 Total Charge           Charge          ....    0
 Multiplicity           Mult            ....    1
 Number of Electrons    NEL             ....  202
 Basis Dimension        Dim             ....  334

ORBITAL ENERGIES
----------------

  NO   OCC          E(Eh)            E(eV)
   0   2.0000     -88.040507     -2395.7040
   1   2.0000     -88.038399     -2395.6466
   2   2.0000     -87.977076     -2393.9779
   3   2.0000     -87.977024     -2393.9765
   4   2.0000     -76.422075     -2079.5504
   5   2.0000     -76.420543     -2079.5087
   6   2.0000     -18.786897      -511.2174
   7   2.0000     -18.786835      -511.2158
   8   2.0000     -18.784845      -511.1616
   9   2.0000     -18.784300      -511.1468
  10   2.0000      -9.955274      -270.8968
  11   2.0000      -9.952016      -270.8081
  12   2.0000      -9.951226      -270.7866
  13   2.0000      -9.950365      -270.7632
  14   2.0000      -9.949277      -270.7336
  15   2.0000      -9.889616      -269.1101
  16   2.0000      -9.882766      -268.9237
  17   2.0000      -9.880213      -268.8543
  18   2.0000      -9.879142      -268.8251
  19   2.0000      -7.685282      -209.1272
  20   2.0000      -7.682684      -209.0565
  21   2.0000      -7.622331      -207.4142
  22   2.0000      -7.621667      -207.3961
  23   2.0000      -6.418673      -174.6610
  24   2.0000      -6.417850      -174.6386
  25   2.0000      -5.713294      -155.4666
  26   2.0000      -5.710557      -155.3922
  27   2.0000      -5.709558      -155.3650
  28   2.0000      -5.707273      -155.3028
  29   2.0000      -5.702400      -155.1702
  30   2.0000      -5.699728      -155.0975
  31   2.0000      -5.651366      -153.7815
  32   2.0000      -5.650777      -153.7655
  33   2.0000      -5.642913      -153.5515
  34   2.0000      -5.642317      -153.5353
  35   2.0000      -5.642060      -153.5283
  36   2.0000      -5.641933      -153.5248
  37   2.0000      -4.641542      -126.3028
  38   2.0000      -4.640814      -126.2830
  39   2.0000      -4.640510      -126.2747
  40   2.0000      -4.639405      -126.2446
  41   2.0000      -4.638945      -126.2321
  42   2.0000      -4.638172      -126.2111
  43   2.0000      -0.982721       -26.7412
  44   2.0000      -0.982037       -26.7226
  45   2.0000      -0.938782       -25.5456
  46   2.0000      -0.936768       -25.4908
  47   2.0000      -0.756578       -20.5875
  48   2.0000      -0.716432       -19.4951
  49   2.0000      -0.708772       -19.2867
  50   2.0000      -0.687887       -18.7184
  51   2.0000      -0.686221       -18.6730
  52   2.0000      -0.675614       -18.3844
  53   2.0000      -0.648376       -17.6432
  54   2.0000      -0.629963       -17.1422
  55   2.0000      -0.592148       -16.1132
  56   2.0000      -0.585384       -15.9291
  57   2.0000      -0.577958       -15.7270
  58   2.0000      -0.576592       -15.6899
  59   2.0000      -0.558308       -15.1923
  60   2.0000      -0.494476       -13.4554
  61   2.0000      -0.491641       -13.3782
  62   2.0000      -0.466766       -12.7013
  63   2.0000      -0.465470       -12.6661
  64   2.0000      -0.449427       -12.2295
  65   2.0000      -0.446952       -12.1622
  66   2.0000      -0.440806       -11.9949
  67   2.0000      -0.434442       -11.8218
  68   2.0000      -0.425141       -11.5687
  69   2.0000      -0.422491       -11.4966
  70   2.0000      -0.409672       -11.1478
  71   2.0000      -0.402675       -10.9573
  72   2.0000      -0.399087       -10.8597
  73   2.0000      -0.388077       -10.5601
  74   2.0000      -0.376666       -10.2496
  75   2.0000      -0.363614        -9.8944
  76   2.0000      -0.356993        -9.7143
  77   2.0000      -0.353114        -9.6087
  78   2.0000      -0.350987        -9.5508
  79   2.0000      -0.349096        -9.4994
  80   2.0000      -0.346059        -9.4168
  81   2.0000      -0.342687        -9.3250
  82   2.0000      -0.338323        -9.2062
  83   2.0000      -0.334011        -9.0889
  84   2.0000      -0.331188        -9.0121
  85   2.0000      -0.314114        -8.5475
  86   2.0000      -0.305961        -8.3256
  87   2.0000      -0.294452        -8.0125
  88   2.0000      -0.292877        -7.9696
  89   2.0000      -0.290152        -7.8954
  90   2.0000      -0.283912        -7.7256
  91   2.0000      -0.271215        -7.3801
  92   2.0000      -0.270281        -7.3547
  93   2.0000      -0.258219        -7.0265
  94   2.0000      -0.251810        -6.8521
  95   2.0000      -0.231784        -6.3072
  96   2.0000      -0.217597        -5.9211
  97   2.0000      -0.208218        -5.6659
  98   2.0000      -0.194322        -5.2878
  99   2.0000      -0.186408        -5.0724
 100   2.0000      -0.178770        -4.8646
 101   0.0000      -0.038834        -1.0567
 102   0.0000      -0.030186        -0.8214
 103   0.0000      -0.013800        -0.3755
 104   0.0000       0.007027         0.1912
 105   0.0000       0.017269         0.4699

MULLIKEN ATOMIC CHARGES
-----------------------
   0 C :   -0.303726
   1 C :   -0.006136
   2 O :   -0.383689
   3 P :    0.628877
   4 S :   -0.304598
   5 O :   -0.351470
   6 C :    0.003086
   7 C :   -0.328255
   8 S :   -0.117460
   9 C :   -0.337485
  10 S :   -0.129596
  11 P :    0.606062
  12 S :   -0.291163
  13 O :   -0.362058
  14 C :    0.008836
  15 C :   -0.334461
  16 O :   -0.389206
  17 C :    0.008541
  18 C :   -0.346770
  19 H :    0.119103
  20 H :    0.123085
  21 H :    0.106813
  22 H :    0.102846
  23 H :    0.103721
  24 H :    0.108084
  25 H :    0.111255
  26 H :    0.112714
  27 H :    0.140673
  28 H :    0.120969
  29 H :    0.174014
  30 H :    0.215104
  31 H :    0.110129
  32 H :    0.109506
  33 H :    0.116828
  34 H :    0.130132
  35 H :    0.130021
  36 H :    0.100427
  37 H :    0.115166
  38 H :    0.115770
  39 H :    0.113045
  40 H :    0.151266
Sum of atomic charges:    0.0000000

LOEWDIN ATOMIC CHARGES
----------------------
   0 C :   -0.367750
   1 C :   -0.120770
   2 O :   -0.250434
   3 P :    0.576184
   4 S :   -0.294703
   5 O :   -0.225453
   6 C :   -0.108711
   7 C :   -0.369486
   8 S :    0.074591
   9 C :   -0.485157
  10 S :    0.074096
  11 P :    0.562132
  12 S :   -0.293178
  13 O :   -0.240198
  14 C :   -0.108534
  15 C :   -0.373380
  16 O :   -0.252836
  17 C :   -0.114992
  18 C :   -0.374239
  19 H :    0.118319
  20 H :    0.129948
  21 H :    0.127616
  22 H :    0.117719
  23 H :    0.101247
  24 H :    0.112585
  25 H :    0.123679
  26 H :    0.131091
  27 H :    0.134088
  28 H :    0.114116
  29 H :    0.134455
  30 H :    0.120298
  31 H :    0.122517
  32 H :    0.114757
  33 H :    0.133254
  34 H :    0.118172
  35 H :    0.128385
  36 H :    0.116697
  37 H :    0.114859
  38 H :    0.121953
  39 H :    0.132507
  40 H :    0.124555

  Mayer bond orders larger than 0.100000
B(  0-C ,  1-C ) :   1.1647 B(  0-C , 19-H ) :   0.9338 B(  0-C , 20-H ) :   0.9453
B(  0-C , 21-H ) :   0.9364 B(  1-C ,  2-O ) :   0.9220 B(  1-C , 22-H ) :   0.9335
B(  1-C , 23-H ) :   0.9157 B(  2-O ,  3-P ) :   1.0643 B(  3-P ,  4-S ) :   1.6218
B(  3-P ,  5-O ) :   1.1408 B(  3-P ,  8-S ) :   0.9344 B(  4-S ,  8-S ) :   0.1206
B(  4-S , 30-H ) :   0.1189 B(  5-O ,  6-C ) :   0.9015 B(  6-C ,  7-C ) :   1.1683
B(  6-C , 24-H ) :   0.9269 B(  6-C , 25-H ) :   0.9330 B(  7-C , 26-H ) :   0.9363
B(  7-C , 27-H ) :   0.9384 B(  7-C , 28-H ) :   0.9356 B(  8-S ,  9-C ) :   0.9934
B(  9-C , 10-S ) :   1.0029 B(  9-C , 29-H ) :   0.9062 B(  9-C , 30-H ) :   0.8327
B( 10-S , 11-P ) :   0.9365 B( 10-S , 12-S ) :   0.1160 B( 11-P , 12-S ) :   1.6658
B( 11-P , 13-O ) :   1.1356 B( 11-P , 16-O ) :   1.0588 B( 13-O , 14-C ) :   0.9032
B( 14-C , 15-C ) :   1.1714 B( 14-C , 31-H ) :   0.9341 B( 14-C , 32-H ) :   0.9268
B( 15-C , 33-H ) :   0.9350 B( 15-C , 34-H ) :   0.9316 B( 15-C , 35-H ) :   0.9408
B( 16-O , 17-C ) :   0.9128 B( 17-C , 18-C ) :   1.1626 B( 17-C , 36-H ) :   0.9348
B( 17-C , 37-H ) :   0.9200 B( 18-C , 38-H ) :   0.9425 B( 18-C , 39-H ) :   0.9346
B( 18-C , 40-H ) :   0.9188

Dispersion correction           -0.066904127
FINAL SINGLE POINT ENERGY     -2929.508485852297

DIPOLE MOMENT
-------------

Method             : SCF
Type of density    : Electron Density
Multiplicity       :   1
Irrep              :   0
Energy             : -2929.6266534934184165 Eh
Relativity type    :
Basis              : AO
                                X                 Y                 Z
Electronic contribution:      0.992193247       6.993200102       0.411207926
Nuclear contribution   :     -1.242432536      -8.085298880       0.191996599
                        -----------------------------------------
Total Dipole Moment    :     -0.250239289      -1.092098778       0.603204525
                        -----------------------------------------
Magnitude (a.u.)       :      1.272460272
Magnitude (Debye)      :      3.234336973

Rotational constants in cm-1:             0.012836             0.005003             0.004721
Rotational constants in MHz :           384.810721           149.991520           141.534389

                             ****ORCA TERMINATED NORMALLY****
TOTAL RUN TIME: 0 days 0 hours 0 minutes 21 seconds 357 msec
