                         Program Version 6.0.0  -   RELEASE  -
|  1> ! pbe def2-sv(p) def2/J RI DEFGRID1 loosescf d4 GCP(DFT/SV(P)) printgap
|  2> %output
|  3>     printlevel normal
|  4> end
|  5> * xyz 0 1
|  6> C 3.5917541216 1.2977755443 2.6786032447
|  7> C 2.3766961153 1.608337889 1.8299171122
|  8> O 2.4423294758 0.956498237 0.5451856279
|  9> P 2.2765121003 -0.6065394985 0.3721838493
| 10> S 1.0733349722 -1.4988078427 1.6415013013
| 11> O 3.7848732135 -1.1019099698 0.4133442601
| 12> C 4.1481761713 -2.4834086271 0.5779008129
| 13> C 3.7703771662 -3.3221270268 -0.6260421158
| 14> S 1.7424913048 -0.6760330532 -1.672338735
| 15> C -0.0367097865 -0.5826959205 -1.4101887985
| 16> S -0.5216591251 1.0334656992 -0.7128563537
| 17> P -2.5885956375 0.5276719222 -0.5825377829
| 18> S -3.318668797 -0.4367066315 -2.1156670573
| 19> O -3.2996626492 1.8942445834 -0.1919514401
| 20> C -3.7737324043 2.8291781342 -1.1808678589
| 21> C -2.6435442921 3.432629898 -1.9884234693
| 22> O -2.7154885505 -0.3085985259 0.7485934819
| 23> C -2.4056488806 0.2447927689 2.0531572404
| 24> C -2.3535782002 -0.9006754561 3.0409717111
| 25> H 4.5006325224 1.5324221201 2.13106506
| 26> H 3.5549862155 1.8858987266 3.5902231114
| 27> H 3.601458592 0.2400438229 2.9390505035
| 28> H 2.3113870306 2.6679589167 1.5806534446
| 29> H 1.4596960979 1.2878254846 2.3353059357
| 30> H 5.2286840965 -2.4536202421 0.7243586111
| 31> H 3.6602023404 -2.8650385514 1.4808454656
| 32> H 4.1739513357 -4.3227476385 -0.5083078252
| 33> H 2.6863649191 -3.3874175354 -0.7125507889
| 34> H 4.1653611726 -2.8766009172 -1.5355908547
| 35> H -0.3426417014 -1.3670477694 -0.7141491227
| 36> H -0.5175162153 -0.7130655522 -2.3786532904
| 37> H -4.4792845553 2.308678615 -1.8351885945
| 38> H -4.297439787 3.5831661071 -0.591545592
| 39> H -1.8858945717 3.8491475165 -1.3291712676
| 40> H -2.1837715542 2.6685892654 -2.6137352887
| 41> H -3.0381824578 4.2168271901 -2.6264135242
| 42> H -1.4439410339 0.7628929049 1.9899164984
| 43> H -3.1869641095 0.963643091 2.3058701696
| 44> H -3.2853340676 -1.4578007168 3.0124263565
| 45> H -1.5335751873 -1.5716808972 2.7954686976
| 46> H -2.1987447142 -0.503026006 4.0385619269
| 47> *
| 48>
| 49>                          ****END OF INPUT****

CARTESIAN COORDINATES (ANGSTROEM)
---------------------------------
  C      3.591754    1.297776    2.678603
  C      2.376696    1.608338    1.829917
  O      2.442329    0.956498    0.545186
  P      2.276512   -0.606539    0.372184
  S      1.073335   -1.498808    1.641501
  O      3.784873   -1.101910    0.413344
  C      4.148176   -2.483409    0.577901
  C      3.770377   -3.322127   -0.626042
  S      1.742491   -0.676033   -1.672339
  C     -0.036710   -0.582696   -1.410189
  S     -0.521659    1.033466   -0.712856
  P     -2.588596    0.527672   -0.582538
  S     -3.318669   -0.436707   -2.115667
  O     -3.299663    1.894245   -0.191951
  C     -3.773732    2.829178   -1.180868
  C     -2.643544    3.432630   -1.988423
  O     -2.715489   -0.308599    0.748593
  C     -2.405649    0.244793    2.053157
  C     -2.353578   -0.900675    3.040972
  H      4.500633    1.532422    2.131065
  H      3.554986    1.885899    3.590223
  H      3.601459    0.240044    2.939051
  H      2.311387    2.667959    1.580653
  H      1.459696    1.287825    2.335306
  H      5.228684   -2.453620    0.724359
  H      3.660202   -2.865039    1.480845
  H      4.173951   -4.322748   -0.508308
  H      2.686365   -3.387418   -0.712551
  H      4.165361   -2.876601   -1.535591
  H     -0.342642   -1.367048   -0.714149
  H     -0.517516   -0.713066   -2.378653
  H     -4.479285    2.308679   -1.835189
  H     -4.297440    3.583166   -0.591546
  H     -1.885895    3.849148   -1.329171
  H     -2.183772    2.668589   -2.613735
  H     -3.038182    4.216827   -2.626414
  H     -1.443941    0.762893    1.989916
  H     -3.186964    0.963643    2.305870
  H     -3.285334   -1.457801    3.012426
  H     -1.533575   -1.571681    2.795469
  H     -2.198745   -0.503026    4.038562

 Total Charge           Charge          ....    0
 Multiplicity           Mult            ....    1
 Number of Electrons    NEL             ....  202
 Basis Dimension        Dim             ....  334

ORBITAL ENERGIES
----------------

  NO   OCC          E(Eh)            E(eV)
   0   2.0000     -88.048967     -2395.9342
   1   2.0000     -88.037388     -2395.6191
   2   2.0000     -87.995356     -2394.4754
   3   2.0000     -87.982658     -2394.1298
   4   2.0000     -76.431714     -2079.8127
   5   2.0000     -76.422777     -2079.5695
   6   2.0000     -18.798793      -511.5412
   7   2.0000     -18.794004      -511.4109
   8   2.0000     -18.793599      -511.3998
   9   2.0000     -18.787629      -511.2374
  10   2.0000      -9.957627      -270.9608
  11   2.0000      -9.955466      -270.9020
  12   2.0000      -9.954127      -270.8656
  13   2.0000      -9.951404      -270.7915
  14   2.0000      -9.948016      -270.6993
  15   2.0000      -9.888086      -269.0685
  16   2.0000      -9.888008      -269.0664
  17   2.0000      -9.884220      -268.9633
  18   2.0000      -9.879321      -268.8300
  19   2.0000      -7.694256      -209.3713
  20   2.0000      -7.682056      -209.0394
  21   2.0000      -7.639959      -207.8939
  22   2.0000      -7.628050      -207.5698
  23   2.0000      -6.429369      -174.9520
  24   2.0000      -6.420328      -174.7060
  25   2.0000      -5.722071      -155.7055
  26   2.0000      -5.718989      -155.6216
  27   2.0000      -5.711035      -155.4052
  28   2.0000      -5.709838      -155.3726
  29   2.0000      -5.706815      -155.2903
  30   2.0000      -5.698978      -155.0771
  31   2.0000      -5.668601      -154.2505
  32   2.0000      -5.660772      -154.0374
  33   2.0000      -5.660240      -154.0230
  34   2.0000      -5.657009      -153.9350
  35   2.0000      -5.648627      -153.7070
  36   2.0000      -5.648174      -153.6946
  37   2.0000      -4.651746      -126.5804
  38   2.0000      -4.651095      -126.5627
  39   2.0000      -4.650021      -126.5335
  40   2.0000      -4.643302      -126.3507
  41   2.0000      -4.641981      -126.3147
  42   2.0000      -4.640537      -126.2754
  43   2.0000      -0.992196       -26.9990
  44   2.0000      -0.986384       -26.8409
  45   2.0000      -0.951201       -25.8835
  46   2.0000      -0.942551       -25.6481
  47   2.0000      -0.764872       -20.8132
  48   2.0000      -0.722684       -19.6652
  49   2.0000      -0.709843       -19.3158
  50   2.0000      -0.691499       -18.8166
  51   2.0000      -0.687941       -18.7198
  52   2.0000      -0.676813       -18.4170
  53   2.0000      -0.654572       -17.8118
  54   2.0000      -0.635976       -17.3058
  55   2.0000      -0.606133       -16.4937
  56   2.0000      -0.591500       -16.0955
  57   2.0000      -0.577021       -15.7015
  58   2.0000      -0.565664       -15.3925
  59   2.0000      -0.556755       -15.1501
  60   2.0000      -0.503328       -13.6962
  61   2.0000      -0.496772       -13.5178
  62   2.0000      -0.477851       -13.0030
  63   2.0000      -0.472900       -12.8683
  64   2.0000      -0.452869       -12.3232
  65   2.0000      -0.449947       -12.2437
  66   2.0000      -0.444084       -12.0841
  67   2.0000      -0.436484       -11.8773
  68   2.0000      -0.429328       -11.6826
  69   2.0000      -0.424610       -11.5542
  70   2.0000      -0.410805       -11.1786
  71   2.0000      -0.397412       -10.8141
  72   2.0000      -0.392854       -10.6901
  73   2.0000      -0.389272       -10.5926
  74   2.0000      -0.387140       -10.5346
  75   2.0000      -0.372503       -10.1363
  76   2.0000      -0.363022        -9.8783
  77   2.0000      -0.358505        -9.7554
  78   2.0000      -0.354177        -9.6377
  79   2.0000      -0.352245        -9.5851
  80   2.0000      -0.349399        -9.5076
  81   2.0000      -0.347000        -9.4424
  82   2.0000      -0.341161        -9.2835
  83   2.0000      -0.337335        -9.1794
  84   2.0000      -0.334376        -9.0988
  85   2.0000      -0.319250        -8.6872
  86   2.0000      -0.311269        -8.4701
  87   2.0000      -0.300520        -8.1776
  88   2.0000      -0.298920        -8.1340
  89   2.0000      -0.293973        -7.9994
  90   2.0000      -0.287448        -7.8219
  91   2.0000      -0.279891        -7.6162
  92   2.0000      -0.269604        -7.3363
  93   2.0000      -0.265132        -7.2146
  94   2.0000      -0.257806        -7.0153
  95   2.0000      -0.231913        -6.3107
  96   2.0000      -0.222836        -6.0637
  97   2.0000      -0.213647        -5.8136
  98   2.0000      -0.210776        -5.7355
  99   2.0000      -0.204622        -5.5680
 100   2.0000      -0.195826        -5.3287
 101   0.0000      -0.043736        -1.1901
 102   0.0000      -0.030408        -0.8274
 103   0.0000      -0.007525        -0.2048
 104   0.0000       0.004568         0.1243
 105   0.0000       0.014966         0.4072

MULLIKEN ATOMIC CHARGES
-----------------------
   0 C :   -0.305372
   1 C :   -0.011779
   2 O :   -0.357492
   3 P :    0.613771
   4 S :   -0.338131
   5 O :   -0.369411
   6 C :   -0.005249
   7 C :   -0.318421
   8 S :   -0.064757
   9 C :   -0.360937
  10 S :   -0.102847
  11 P :    0.605902
  12 S :   -0.320982
  13 O :   -0.385655
  14 C :   -0.000341
  15 C :   -0.320214
  16 O :   -0.361052
  17 C :   -0.018883
  18 C :   -0.284864
  19 H :    0.119504
  20 H :    0.112518
  21 H :    0.121366
  22 H :    0.107753
  23 H :    0.119277
  24 H :    0.107722
  25 H :    0.111661
  26 H :    0.116149
  27 H :    0.130167
  28 H :    0.120423
  29 H :    0.198029
  30 H :    0.190581
  31 H :    0.114096
  32 H :    0.104637
  33 H :    0.117169
  34 H :    0.131932
  35 H :    0.114374
  36 H :    0.109724
  37 H :    0.103553
  38 H :    0.117298
  39 H :    0.134393
  40 H :    0.104387
Sum of atomic charges:    0.0000000

LOEWDIN ATOMIC CHARGES
----------------------
   0 C :   -0.363588
   1 C :   -0.116609
   2 O :   -0.237344
   3 P :    0.573640
   4 S :   -0.312324
   5 O :   -0.241483
   6 C :   -0.118428
   7 C :   -0.369225
   8 S :    0.106291
   9 C :   -0.482961
  10 S :    0.062580
  11 P :    0.572425
  12 S :   -0.314710
  13 O :   -0.248441
  14 C :   -0.115240
  15 C :   -0.371204
  16 O :   -0.238326
  17 C :   -0.116648
  18 C :   -0.352568
  19 H :    0.127877
  20 H :    0.130539
  21 H :    0.122774
  22 H :    0.120445
  23 H :    0.109177
  24 H :    0.120017
  25 H :    0.110993
  26 H :    0.132735
  27 H :    0.122518
  28 H :    0.125602
  29 H :    0.123472
  30 H :    0.132033
  31 H :    0.114062
  32 H :    0.118522
  33 H :    0.123378
  34 H :    0.123163
  35 H :    0.131823
  36 H :    0.102727
  37 H :    0.111799
  38 H :    0.127993
  39 H :    0.124140
  40 H :    0.128372

  Mayer bond orders larger than 0.100000
B(  0-C ,  1-C ) :   1.1625 B(  0-C , 19-H ) :   0.9459 B(  0-C , 20-H ) :   0.9394
B(  0-C , 21-H ) :   0.9384 B(  1-C ,  2-O ) :   0.9037 B(  1-C , 22-H ) :   0.9349
B(  1-C , 23-H ) :   0.9136 B(  2-O ,  3-P ) :   1.1318 B(  3-P ,  4-S ) :   1.5805
B(  3-P ,  5-O ) :   1.1148 B(  3-P ,  8-S ) :   0.9583 B(  4-S ,  8-S ) :   0.1125
B(  5-O ,  6-C ) :   0.9059 B(  6-C ,  7-C ) :   1.1662 B(  6-C , 24-H ) :   0.9336
B(  6-C , 25-H ) :   0.9167 B(  7-C , 26-H ) :   0.9377 B(  7-C , 27-H ) :   0.9358
B(  7-C , 28-H ) :   0.9446 B(  8-S ,  9-C ) :   1.0146 B(  9-C , 10-S ) :   0.9703
B(  9-C , 29-H ) :   0.8718 B(  9-C , 30-H ) :   0.8863 B( 10-S , 11-P ) :   0.9554
B( 10-S , 12-S ) :   0.1101 B( 11-P , 12-S ) :   1.6325 B( 11-P , 13-O ) :   1.0873
B( 11-P , 16-O ) :   1.1359 B( 13-O , 14-C ) :   0.9056 B( 14-C , 15-C ) :   1.1652
B( 14-C , 31-H ) :   0.9196 B( 14-C , 32-H ) :   0.9344 B( 15-C , 33-H ) :   0.9439
B( 15-C , 34-H ) :   0.9336 B( 15-C , 35-H ) :   0.9369 B( 16-O , 17-C ) :   0.8891
B( 17-C , 18-C ) :   1.1679 B( 17-C , 36-H ) :   0.9071 B( 17-C , 37-H ) :   0.9289
B( 18-C , 38-H ) :   0.9486 B( 18-C , 39-H ) :   0.9392 B( 18-C , 40-H ) :   0.9406

Dispersion correction           -0.063910765
FINAL SINGLE POINT ENERGY     -2929.523322106744

DIPOLE MOMENT
-------------

Method             : SCF
Type of density    : Electron Density
Multiplicity       :   1
Irrep              :   0
Energy             : -2929.6435772905324484 Eh
Relativity type    :
Basis              : AO
                                X                 Y                 Z
Electronic contribution:     -5.831538462      -3.408624284     -12.553777497
Nuclear contribution   :      6.831408648       4.311451243      13.501157979
                        -----------------------------------------
Total Dipole Moment    :      0.999870186       0.902826960       0.947380483
                        -----------------------------------------
Magnitude (a.u.)       :      1.646926436
Magnitude (Debye)      :      4.186154322

Rotational constants in cm-1:             0.012256             0.004580             0.004401
Rotational constants in MHz :           367.439181           137.312265           131.932060

                             ****ORCA TERMINATED NORMALLY****
TOTAL RUN TIME: 0 days 0 hours 0 minutes 21 seconds 608 msec
