                         Program Version 6.0.0  -   RELEASE  -
|  1> ! wb97x-v def2-tzvp def2/J RIJCOSX DEFGRID2 scfconv7 GCP(DFT/TZ) printgap
|  2> %output
|  3>     printlevel normal
|  4> end
|  5> * xyz 0 1
|  6> C 0.8356903670196587 -1.468110816558922 3.2892964808986265
|  7> C 1.2090417196438275 -1.9156943279558147 1.9010452444047774
|  8> O 2.1643810157695182 -0.9385474834688422 1.3626967183367584
|  9> P 2.6036895863990064 -1.048121282070819 -0.18263601106374297
| 10> S 3.2680365511524165 -2.7587330443105214 -0.8279202234757985
| 11> O 3.609915252703605 0.201551719172488 -0.14521671105207148
| 12> C 4.65750919054598 0.39937953647028235 -1.1580880426543687
| 13> C 4.108580470480952 0.9387603395088954 -2.4556790309094345
| 14> S 0.9212112641387828 -0.49852189404526154 -1.335030019226334
| 15> C 0.5346770073805324 1.1685168067456706 -0.6479088127313206
| 16> S -0.6353101734529267 1.2251932560384442 0.7649029684754376
| 17> P -2.473509410482753 0.8371178378882728 -0.23576945768319107
| 18> S -2.7098613773635 1.7339518024280094 -1.9436660614410486
| 19> O -3.516427640106579 1.1313042319176632 0.9498254876005184
| 20> C -4.22077824116511 2.4126683734389727 1.1136212885305816
| 21> C -3.3593990737161095 3.4500189996914363 1.7879360070309513
| 22> O -2.5956817208286806 -0.7547287898017835 -0.4003789271637261
| 23> C -2.5982668060751712 -1.6482807439993987 0.7711590695783082
| 24> C -2.2396342820059876 -3.027547612287957 0.28449754376444314
| 25> H 0.3629486399113056 -0.48224813792159077 3.272201972446702
| 26> H 0.1244231955548932 -2.1858232961090316 3.709649751274375
| 27> H 1.71472543579392 -1.4323507138681906 3.939125219863332
| 28> H 0.33766112180359426 -1.9515735074586085 1.2390736311815698
| 29> H 1.6962422413627756 -2.8956620874669627 1.9068852924750217
| 30> H 5.33187562517653 1.113230042883178 -0.6814313268747932
| 31> H 5.183977058057235 -0.5496908107014163 -1.2972323780294197
| 32> H 3.501023918027467 0.1970280827534757 -2.9803411157818895
| 33> H 3.507370627739989 1.8369800400428813 -2.2851153777630553
| 34> H 4.9522393482662865 1.2059509573914748 -3.1005009144825277
| 35> H 0.12303251033625957 1.7571979747374478 -1.4732015101994882
| 36> H 1.4535966638581304 1.6478798416546072 -0.29965818682662176
| 37> H -4.565622132915408 2.7409503474960246 0.12874530334782602
| 38> H -5.085994892758159 2.14866997901599 1.7247282641605333
| 39> H -2.9681583253662134 3.07741699583603 2.739109305029425
| 40> H -2.524516232289547 3.7584274729320133 1.1526920389788786
| 41> H -3.976500930247173 4.331362963261541 1.991179090978637
| 42> H -1.8734171696701165 -1.275985488139144 1.5038192002213704
| 43> H -3.5999122196020648 -1.6141637796362318 1.2083399620455466
| 44> H -2.232764989099681 -3.713325662123338 1.1374778133802648
| 45> H -2.971955310283751 -3.388191058073725 -0.44328550339810824
| 46> H -1.246638513520166 -3.0355581412701462 -0.1744275333019181
| 47> *
| 48>
| 49>                          ****END OF INPUT****

CARTESIAN COORDINATES (ANGSTROEM)
---------------------------------
  C      0.835690   -1.468111    3.289296
  C      1.209042   -1.915694    1.901045
  O      2.164381   -0.938547    1.362697
  P      2.603690   -1.048121   -0.182636
  S      3.268037   -2.758733   -0.827920
  O      3.609915    0.201552   -0.145217
  C      4.657509    0.399380   -1.158088
  C      4.108580    0.938760   -2.455679
  S      0.921211   -0.498522   -1.335030
  C      0.534677    1.168517   -0.647909
  S     -0.635310    1.225193    0.764903
  P     -2.473509    0.837118   -0.235769
  S     -2.709861    1.733952   -1.943666
  O     -3.516428    1.131304    0.949825
  C     -4.220778    2.412668    1.113621
  C     -3.359399    3.450019    1.787936
  O     -2.595682   -0.754729   -0.400379
  C     -2.598267   -1.648281    0.771159
  C     -2.239634   -3.027548    0.284498
  H      0.362949   -0.482248    3.272202
  H      0.124423   -2.185823    3.709650
  H      1.714725   -1.432351    3.939125
  H      0.337661   -1.951574    1.239074
  H      1.696242   -2.895662    1.906885
  H      5.331876    1.113230   -0.681431
  H      5.183977   -0.549691   -1.297232
  H      3.501024    0.197028   -2.980341
  H      3.507371    1.836980   -2.285115
  H      4.952239    1.205951   -3.100501
  H      0.123033    1.757198   -1.473202
  H      1.453597    1.647880   -0.299658
  H     -4.565622    2.740950    0.128745
  H     -5.085995    2.148670    1.724728
  H     -2.968158    3.077417    2.739109
  H     -2.524516    3.758427    1.152692
  H     -3.976501    4.331363    1.991179
  H     -1.873417   -1.275985    1.503819
  H     -3.599912   -1.614164    1.208340
  H     -2.232765   -3.713326    1.137478
  H     -2.971955   -3.388191   -0.443286
  H     -1.246639   -3.035558   -0.174428

 Total Charge           Charge          ....    0
 Multiplicity           Mult            ....    1
 Number of Electrons    NEL             ....  202
 Basis Dimension        Dim             ....  757

ORBITAL ENERGIES
----------------

  NO   OCC          E(Eh)            E(eV)
   0   2.0000     -94.149118     -2561.9277
   1   2.0000     -94.146252     -2561.8498
   2   2.0000     -94.085910     -2560.2078
   3   2.0000     -94.083263     -2560.1358
   4   2.0000     -82.124236     -2234.7141
   5   2.0000     -82.120828     -2234.6213
   6   2.0000     -21.719119      -591.0073
   7   2.0000     -21.714906      -590.8926
   8   2.0000     -21.712175      -590.8183
   9   2.0000     -21.711965      -590.8126
  10   2.0000     -12.128316      -330.0282
  11   2.0000     -12.123541      -329.8983
  12   2.0000     -12.120671      -329.8202
  13   2.0000     -12.119395      -329.7855
  14   2.0000     -12.117009      -329.7206
  15   2.0000     -12.053527      -327.9931
  16   2.0000     -12.051254      -327.9313
  17   2.0000     -12.050931      -327.9225
  18   2.0000     -12.050638      -327.9145
  19   2.0000      -9.660640      -262.8794
  20   2.0000      -9.657447      -262.7925
  21   2.0000      -9.598625      -261.1919
  22   2.0000      -9.595965      -261.1195
  23   2.0000      -8.237427      -224.1518
  24   2.0000      -8.234145      -224.0625
  25   2.0000      -7.638272      -207.8479
  26   2.0000      -7.637339      -207.8226
  27   2.0000      -7.636383      -207.7966
  28   2.0000      -7.634877      -207.7556
  29   2.0000      -7.633734      -207.7245
  30   2.0000      -7.632621      -207.6942
  31   2.0000      -7.576198      -206.1588
  32   2.0000      -7.574530      -206.1134
  33   2.0000      -7.574382      -206.1094
  34   2.0000      -7.573550      -206.0868
  35   2.0000      -7.571941      -206.0430
  36   2.0000      -7.571681      -206.0359
  37   2.0000      -6.401834      -174.2028
  38   2.0000      -6.401352      -174.1896
  39   2.0000      -6.400908      -174.1776
  40   2.0000      -6.398425      -174.1100
  41   2.0000      -6.398242      -174.1050
  42   2.0000      -6.397654      -174.0890
  43   2.0000      -1.727253       -47.0009
  44   2.0000      -1.725550       -46.9546
  45   2.0000      -1.702106       -46.3166
  46   2.0000      -1.700060       -46.2610
  47   2.0000      -1.332785       -36.2669
  48   2.0000      -1.319513       -35.9058
  49   2.0000      -1.309369       -35.6298
  50   2.0000      -1.296757       -35.2866
  51   2.0000      -1.289849       -35.0986
  52   2.0000      -1.258611       -34.2485
  53   2.0000      -1.233709       -33.5709
  54   2.0000      -1.209861       -32.9220
  55   2.0000      -1.178804       -32.0769
  56   2.0000      -1.177978       -32.0544
  57   2.0000      -1.154193       -31.4072
  58   2.0000      -1.147637       -31.2288
  59   2.0000      -1.122594       -30.5473
  60   2.0000      -1.081438       -29.4274
  61   2.0000      -1.076343       -29.2888
  62   2.0000      -1.052950       -28.6522
  63   2.0000      -1.050451       -28.5842
  64   2.0000      -1.005320       -27.3561
  65   2.0000      -0.999879       -27.2081
  66   2.0000      -0.991311       -26.9749
  67   2.0000      -0.989844       -26.9350
  68   2.0000      -0.975565       -26.5465
  69   2.0000      -0.972718       -26.4690
  70   2.0000      -0.970670       -26.4133
  71   2.0000      -0.966215       -26.2920
  72   2.0000      -0.922738       -25.1090
  73   2.0000      -0.902249       -24.5514
  74   2.0000      -0.889430       -24.2026
  75   2.0000      -0.883956       -24.0537
  76   2.0000      -0.877192       -23.8696
  77   2.0000      -0.873282       -23.7632
  78   2.0000      -0.867713       -23.6117
  79   2.0000      -0.853836       -23.2341
  80   2.0000      -0.851419       -23.1683
  81   2.0000      -0.844435       -22.9782
  82   2.0000      -0.843219       -22.9451
  83   2.0000      -0.837240       -22.7824
  84   2.0000      -0.828048       -22.5323
  85   2.0000      -0.826757       -22.4972
  86   2.0000      -0.826164       -22.4811
  87   2.0000      -0.825630       -22.4665
  88   2.0000      -0.816320       -22.2132
  89   2.0000      -0.796001       -21.6603
  90   2.0000      -0.792429       -21.5631
  91   2.0000      -0.791923       -21.5493
  92   2.0000      -0.790883       -21.5210
  93   2.0000      -0.776470       -21.1288
  94   2.0000      -0.758721       -20.6459
  95   2.0000      -0.695267       -18.9192
  96   2.0000      -0.683792       -18.6069
  97   2.0000      -0.649614       -17.6769
  98   2.0000      -0.644963       -17.5503
  99   2.0000      -0.641272       -17.4499
 100   2.0000      -0.639372       -17.3982
 101   0.0000      -0.322392        -8.7727
 102   0.0000      -0.316413        -8.6100
 103   0.0000      -0.273874        -7.4525
 104   0.0000      -0.241729        -6.5778
 105   0.0000      -0.237502        -6.4627

MULLIKEN ATOMIC CHARGES
-----------------------
   0 C :   -0.318902
   1 C :   -0.034773
   2 O :   -0.290039
   3 P :    0.572857
   4 S :   -0.404460
   5 O :   -0.302608
   6 C :   -0.044661
   7 C :   -0.346340
   8 S :   -0.098903
   9 C :   -0.189083
  10 S :   -0.149120
  11 P :    0.605251
  12 S :   -0.397674
  13 O :   -0.311611
  14 C :   -0.054834
  15 C :   -0.333695
  16 O :   -0.275767
  17 C :   -0.057385
  18 C :   -0.326003
  19 H :    0.121975
  20 H :    0.110059
  21 H :    0.128337
  22 H :    0.066889
  23 H :    0.135935
  24 H :    0.117936
  25 H :    0.132057
  26 H :    0.145166
  27 H :    0.111065
  28 H :    0.122561
  29 H :    0.179386
  30 H :    0.164841
  31 H :    0.133248
  32 H :    0.114126
  33 H :    0.115766
  34 H :    0.134604
  35 H :    0.120967
  36 H :    0.101582
  37 H :    0.121221
  38 H :    0.112933
  39 H :    0.128713
  40 H :    0.138380
Sum of atomic charges:    0.0000000

LOEWDIN ATOMIC CHARGES
----------------------
   0 C :   -0.308696
   1 C :   -0.329951
   2 O :    0.034289
   3 P :   -0.047839
   4 S :   -0.114729
   5 O :    0.032060
   6 C :   -0.315333
   7 C :   -0.313527
   8 S :    0.359675
   9 C :   -0.699261
  10 S :    0.346901
  11 P :   -0.034950
  12 S :   -0.104935
  13 O :    0.027052
  14 C :   -0.313193
  15 C :   -0.314164
  16 O :    0.035108
  17 C :   -0.322325
  18 C :   -0.306432
  19 H :    0.117653
  20 H :    0.124777
  21 H :    0.124329
  22 H :    0.115235
  23 H :    0.124675
  24 H :    0.127230
  25 H :    0.123390
  26 H :    0.122778
  27 H :    0.119637
  28 H :    0.128196
  29 H :    0.114839
  30 H :    0.117157
  31 H :    0.123331
  32 H :    0.126637
  33 H :    0.121163
  34 H :    0.121282
  35 H :    0.128133
  36 H :    0.113711
  37 H :    0.122891
  38 H :    0.125457
  39 H :    0.125285
  40 H :    0.122463

  Mayer bond orders larger than 0.100000
B(  0-C ,  1-C ) :   0.9974 B(  0-C , 19-H ) :   0.9759 B(  0-C , 20-H ) :   0.9722
B(  0-C , 21-H ) :   0.9716 B(  1-C ,  2-O ) :   0.8864 B(  1-C , 22-H ) :   0.9664
B(  1-C , 23-H ) :   0.9696 B(  2-O ,  3-P ) :   1.2055 B(  3-P ,  4-S ) :   1.8565
B(  3-P ,  5-O ) :   1.2047 B(  3-P ,  8-S ) :   1.0948 B(  5-O ,  6-C ) :   0.8793
B(  6-C ,  7-C ) :   0.9939 B(  6-C , 24-H ) :   0.9672 B(  6-C , 25-H ) :   0.9740
B(  7-C , 26-H ) :   0.9684 B(  7-C , 27-H ) :   0.9718 B(  7-C , 28-H ) :   0.9658
B(  8-S ,  9-C ) :   0.9915 B(  9-C , 10-S ) :   1.0038 B(  9-C , 29-H ) :   0.9319
B(  9-C , 30-H ) :   0.9379 B( 10-S , 11-P ) :   1.0507 B( 11-P , 12-S ) :   1.8670
B( 11-P , 13-O ) :   1.1630 B( 11-P , 16-O ) :   1.2288 B( 13-O , 14-C ) :   0.8838
B( 14-C , 15-C ) :   0.9996 B( 14-C , 31-H ) :   0.9743 B( 14-C , 32-H ) :   0.9679
B( 15-C , 33-H ) :   0.9705 B( 15-C , 34-H ) :   0.9683 B( 15-C , 35-H ) :   0.9644
B( 16-O , 17-C ) :   0.8914 B( 17-C , 18-C ) :   0.9955 B( 17-C , 36-H ) :   0.9651
B( 17-C , 37-H ) :   0.9701 B( 18-C , 38-H ) :   0.9712 B( 18-C , 39-H ) :   0.9710
B( 18-C , 40-H ) :   0.9716

FINAL SINGLE POINT ENERGY     -2932.536599811113

DIPOLE MOMENT
-------------

Method             : SCF
Type of density    : Electron Density
Multiplicity       :   1
Irrep              :   0
Energy             : -2932.5665466355130775 Eh
Relativity type    :
Basis              : AO
                                X                 Y                 Z
Electronic contribution:      2.832009245      -1.417205136     -12.046277413
Nuclear contribution   :     -3.221945759       2.225809192      13.599614022
                        -----------------------------------------
Total Dipole Moment    :     -0.389936514       0.808604056       1.553336609
                        -----------------------------------------
Magnitude (a.u.)       :      1.794086292
Magnitude (Debye)      :      4.560204950

Rotational constants in cm-1:             0.011820             0.004576             0.004161
Rotational constants in MHz :           354.361796           137.171094           124.748848

                             ****ORCA TERMINATED NORMALLY****
TOTAL RUN TIME: 0 days 0 hours 14 minutes 53 seconds 98 msec
