                         Program Version 6.0.0  -   RELEASE  -
|  1> ! wb97x-v def2-tzvp def2/J RIJCOSX DEFGRID2 scfconv7 GCP(DFT/TZ) printgap
|  2> %output
|  3>     printlevel normal
|  4> end
|  5> %cpcm
|  6>     smd true
|  7>     smdsolvent "water"
|  8> end
|  9> * xyz 0 1
| 10> C 0.8356903670196587 -1.468110816558922 3.2892964808986265
| 11> C 1.2090417196438275 -1.9156943279558147 1.9010452444047774
| 12> O 2.1643810157695182 -0.9385474834688422 1.3626967183367584
| 13> P 2.6036895863990064 -1.048121282070819 -0.18263601106374297
| 14> S 3.2680365511524165 -2.7587330443105214 -0.8279202234757985
| 15> O 3.609915252703605 0.201551719172488 -0.14521671105207148
| 16> C 4.65750919054598 0.39937953647028235 -1.1580880426543687
| 17> C 4.108580470480952 0.9387603395088954 -2.4556790309094345
| 18> S 0.9212112641387828 -0.49852189404526154 -1.335030019226334
| 19> C 0.5346770073805324 1.1685168067456706 -0.6479088127313206
| 20> S -0.6353101734529267 1.2251932560384442 0.7649029684754376
| 21> P -2.473509410482753 0.8371178378882728 -0.23576945768319107
| 22> S -2.7098613773635 1.7339518024280094 -1.9436660614410486
| 23> O -3.516427640106579 1.1313042319176632 0.9498254876005184
| 24> C -4.22077824116511 2.4126683734389727 1.1136212885305816
| 25> C -3.3593990737161095 3.4500189996914363 1.7879360070309513
| 26> O -2.5956817208286806 -0.7547287898017835 -0.4003789271637261
| 27> C -2.5982668060751712 -1.6482807439993987 0.7711590695783082
| 28> C -2.2396342820059876 -3.027547612287957 0.28449754376444314
| 29> H 0.3629486399113056 -0.48224813792159077 3.272201972446702
| 30> H 0.1244231955548932 -2.1858232961090316 3.709649751274375
| 31> H 1.71472543579392 -1.4323507138681906 3.939125219863332
| 32> H 0.33766112180359426 -1.9515735074586085 1.2390736311815698
| 33> H 1.6962422413627756 -2.8956620874669627 1.9068852924750217
| 34> H 5.33187562517653 1.113230042883178 -0.6814313268747932
| 35> H 5.183977058057235 -0.5496908107014163 -1.2972323780294197
| 36> H 3.501023918027467 0.1970280827534757 -2.9803411157818895
| 37> H 3.507370627739989 1.8369800400428813 -2.2851153777630553
| 38> H 4.9522393482662865 1.2059509573914748 -3.1005009144825277
| 39> H 0.12303251033625957 1.7571979747374478 -1.4732015101994882
| 40> H 1.4535966638581304 1.6478798416546072 -0.29965818682662176
| 41> H -4.565622132915408 2.7409503474960246 0.12874530334782602
| 42> H -5.085994892758159 2.14866997901599 1.7247282641605333
| 43> H -2.9681583253662134 3.07741699583603 2.739109305029425
| 44> H -2.524516232289547 3.7584274729320133 1.1526920389788786
| 45> H -3.976500930247173 4.331362963261541 1.991179090978637
| 46> H -1.8734171696701165 -1.275985488139144 1.5038192002213704
| 47> H -3.5999122196020648 -1.6141637796362318 1.2083399620455466
| 48> H -2.232764989099681 -3.713325662123338 1.1374778133802648
| 49> H -2.971955310283751 -3.388191058073725 -0.44328550339810824
| 50> H -1.246638513520166 -3.0355581412701462 -0.1744275333019181
| 51> *
| 52>
| 53>                          ****END OF INPUT****

CARTESIAN COORDINATES (ANGSTROEM)
---------------------------------
  C      0.835690   -1.468111    3.289296
  C      1.209042   -1.915694    1.901045
  O      2.164381   -0.938547    1.362697
  P      2.603690   -1.048121   -0.182636
  S      3.268037   -2.758733   -0.827920
  O      3.609915    0.201552   -0.145217
  C      4.657509    0.399380   -1.158088
  C      4.108580    0.938760   -2.455679
  S      0.921211   -0.498522   -1.335030
  C      0.534677    1.168517   -0.647909
  S     -0.635310    1.225193    0.764903
  P     -2.473509    0.837118   -0.235769
  S     -2.709861    1.733952   -1.943666
  O     -3.516428    1.131304    0.949825
  C     -4.220778    2.412668    1.113621
  C     -3.359399    3.450019    1.787936
  O     -2.595682   -0.754729   -0.400379
  C     -2.598267   -1.648281    0.771159
  C     -2.239634   -3.027548    0.284498
  H      0.362949   -0.482248    3.272202
  H      0.124423   -2.185823    3.709650
  H      1.714725   -1.432351    3.939125
  H      0.337661   -1.951574    1.239074
  H      1.696242   -2.895662    1.906885
  H      5.331876    1.113230   -0.681431
  H      5.183977   -0.549691   -1.297232
  H      3.501024    0.197028   -2.980341
  H      3.507371    1.836980   -2.285115
  H      4.952239    1.205951   -3.100501
  H      0.123033    1.757198   -1.473202
  H      1.453597    1.647880   -0.299658
  H     -4.565622    2.740950    0.128745
  H     -5.085995    2.148670    1.724728
  H     -2.968158    3.077417    2.739109
  H     -2.524516    3.758427    1.152692
  H     -3.976501    4.331363    1.991179
  H     -1.873417   -1.275985    1.503819
  H     -3.599912   -1.614164    1.208340
  H     -2.232765   -3.713326    1.137478
  H     -2.971955   -3.388191   -0.443286
  H     -1.246639   -3.035558   -0.174428

 Total Charge           Charge          ....    0
 Multiplicity           Mult            ....    1
 Number of Electrons    NEL             ....  202
 Basis Dimension        Dim             ....  757

ORBITAL ENERGIES
----------------

  NO   OCC          E(Eh)            E(eV)
   0   2.0000     -94.147623     -2561.8871
   1   2.0000     -94.147144     -2561.8740
   2   2.0000     -94.092929     -2560.3988
   3   2.0000     -94.092248     -2560.3802
   4   2.0000     -82.126660     -2234.7800
   5   2.0000     -82.126166     -2234.7666
   6   2.0000     -21.715143      -590.8991
   7   2.0000     -21.715082      -590.8974
   8   2.0000     -21.713889      -590.8650
   9   2.0000     -21.712718      -590.8331
  10   2.0000     -12.122946      -329.8821
  11   2.0000     -12.107918      -329.4732
  12   2.0000     -12.107270      -329.4556
  13   2.0000     -12.106104      -329.4238
  14   2.0000     -12.105194      -329.3991
  15   2.0000     -12.035438      -327.5009
  16   2.0000     -12.035139      -327.4928
  17   2.0000     -12.035031      -327.4898
  18   2.0000     -12.034995      -327.4889
  19   2.0000      -9.658954      -262.8335
  20   2.0000      -9.658512      -262.8215
  21   2.0000      -9.606056      -261.3941
  22   2.0000      -9.605321      -261.3741
  23   2.0000      -8.239876      -224.2184
  24   2.0000      -8.239486      -224.2078
  25   2.0000      -7.636716      -207.8056
  26   2.0000      -7.636233      -207.7925
  27   2.0000      -7.635681      -207.7774
  28   2.0000      -7.635081      -207.7611
  29   2.0000      -7.634289      -207.7396
  30   2.0000      -7.633501      -207.7181
  31   2.0000      -7.583640      -206.3613
  32   2.0000      -7.582921      -206.3418
  33   2.0000      -7.582056      -206.3182
  34   2.0000      -7.581915      -206.3144
  35   2.0000      -7.581372      -206.2996
  36   2.0000      -7.581156      -206.2937
  37   2.0000      -6.404265      -174.2689
  38   2.0000      -6.403835      -174.2572
  39   2.0000      -6.403753      -174.2550
  40   2.0000      -6.403581      -174.2503
  41   2.0000      -6.403397      -174.2453
  42   2.0000      -6.403051      -174.2359
  43   2.0000      -1.726910       -46.9916
  44   2.0000      -1.725281       -46.9473
  45   2.0000      -1.701047       -46.2878
  46   2.0000      -1.700808       -46.2813
  47   2.0000      -1.329875       -36.1877
  48   2.0000      -1.313267       -35.7358
  49   2.0000      -1.301684       -35.4206
  50   2.0000      -1.283575       -34.9278
  51   2.0000      -1.278295       -34.7842
  52   2.0000      -1.256107       -34.1804
  53   2.0000      -1.234315       -33.5874
  54   2.0000      -1.212732       -33.0001
  55   2.0000      -1.175041       -31.9745
  56   2.0000      -1.170993       -31.8643
  57   2.0000      -1.146642       -31.2017
  58   2.0000      -1.138926       -30.9917
  59   2.0000      -1.118635       -30.4396
  60   2.0000      -1.075740       -29.2724
  61   2.0000      -1.070923       -29.1413
  62   2.0000      -1.047201       -28.4958
  63   2.0000      -1.045896       -28.4603
  64   2.0000      -1.001702       -27.2577
  65   2.0000      -0.996701       -27.1216
  66   2.0000      -0.988342       -26.8942
  67   2.0000      -0.984882       -26.8000
  68   2.0000      -0.971026       -26.4230
  69   2.0000      -0.969724       -26.3875
  70   2.0000      -0.966783       -26.3075
  71   2.0000      -0.962550       -26.1923
  72   2.0000      -0.920076       -25.0365
  73   2.0000      -0.899175       -24.4678
  74   2.0000      -0.878399       -23.9024
  75   2.0000      -0.871121       -23.7044
  76   2.0000      -0.867522       -23.6065
  77   2.0000      -0.862564       -23.4716
  78   2.0000      -0.859142       -23.3784
  79   2.0000      -0.843511       -22.9531
  80   2.0000      -0.839210       -22.8361
  81   2.0000      -0.832676       -22.6583
  82   2.0000      -0.831183       -22.6176
  83   2.0000      -0.829944       -22.5839
  84   2.0000      -0.819082       -22.2884
  85   2.0000      -0.811799       -22.0902
  86   2.0000      -0.810710       -22.0605
  87   2.0000      -0.810507       -22.0550
  88   2.0000      -0.810029       -22.0420
  89   2.0000      -0.783040       -21.3076
  90   2.0000      -0.778992       -21.1974
  91   2.0000      -0.778814       -21.1926
  92   2.0000      -0.777449       -21.1555
  93   2.0000      -0.773521       -21.0486
  94   2.0000      -0.759181       -20.6584
  95   2.0000      -0.694925       -18.9099
  96   2.0000      -0.684519       -18.6267
  97   2.0000      -0.658235       -17.9115
  98   2.0000      -0.654269       -17.8036
  99   2.0000      -0.651212       -17.7204
 100   2.0000      -0.648466       -17.6457
 101   0.0000      -0.323638        -8.8066
 102   0.0000      -0.319011        -8.6807
 103   0.0000      -0.272588        -7.4175
 104   0.0000      -0.241490        -6.5713
 105   0.0000      -0.239365        -6.5135

MULLIKEN ATOMIC CHARGES
-----------------------
   0 C :   -0.361097
   1 C :   -0.043062
   2 O :   -0.327303
   3 P :    0.615530
   4 S :   -0.465399
   5 O :   -0.328941
   6 C :   -0.042828
   7 C :   -0.379906
   8 S :   -0.132719
   9 C :   -0.192458
  10 S :   -0.142218
  11 P :    0.625652
  12 S :   -0.458300
  13 O :   -0.327920
  14 C :   -0.048480
  15 C :   -0.371212
  16 O :   -0.327875
  17 C :   -0.055185
  18 C :   -0.364854
  19 H :    0.128138
  20 H :    0.138474
  21 H :    0.139288
  22 H :    0.109177
  23 H :    0.143921
  24 H :    0.145053
  25 H :    0.135060
  26 H :    0.134322
  27 H :    0.136851
  28 H :    0.146987
  29 H :    0.194410
  30 H :    0.202471
  31 H :    0.134377
  32 H :    0.142776
  33 H :    0.133049
  34 H :    0.131578
  35 H :    0.145692
  36 H :    0.133630
  37 H :    0.143626
  38 H :    0.139695
  39 H :    0.138379
  40 H :    0.131621
Sum of atomic charges:    0.0000000

LOEWDIN ATOMIC CHARGES
----------------------
   0 C :   -0.309442
   1 C :   -0.324533
   2 O :    0.019195
   3 P :   -0.039025
   4 S :   -0.156078
   5 O :    0.023113
   6 C :   -0.309301
   7 C :   -0.314756
   8 S :    0.345008
   9 C :   -0.688421
  10 S :    0.356409
  11 P :   -0.031023
  12 S :   -0.148440
  13 O :    0.022663
  14 C :   -0.307086
  15 C :   -0.316005
  16 O :    0.012859
  17 C :   -0.313146
  18 C :   -0.309149
  19 H :    0.118405
  20 H :    0.134065
  21 H :    0.125377
  22 H :    0.123266
  23 H :    0.126940
  24 H :    0.136131
  25 H :    0.123938
  26 H :    0.118757
  27 H :    0.125924
  28 H :    0.134887
  29 H :    0.119774
  30 H :    0.129227
  31 H :    0.123861
  32 H :    0.135921
  33 H :    0.124803
  34 H :    0.118858
  35 H :    0.135133
  36 H :    0.122563
  37 H :    0.129556
  38 H :    0.134341
  39 H :    0.124985
  40 H :    0.120446

  Mayer bond orders larger than 0.100000
B(  0-C ,  1-C ) :   1.0061 B(  0-C , 19-H ) :   0.9741 B(  0-C , 20-H ) :   0.9676
B(  0-C , 21-H ) :   0.9681 B(  1-C ,  2-O ) :   0.8561 B(  1-C , 22-H ) :   0.9641
B(  1-C , 23-H ) :   0.9689 B(  2-O ,  3-P ) :   1.2093 B(  3-P ,  4-S ) :   1.8140
B(  3-P ,  5-O ) :   1.2165 B(  3-P ,  8-S ) :   1.1017 B(  5-O ,  6-C ) :   0.8517
B(  6-C ,  7-C ) :   0.9949 B(  6-C , 24-H ) :   0.9609 B(  6-C , 25-H ) :   0.9749
B(  7-C , 26-H ) :   0.9684 B(  7-C , 27-H ) :   0.9676 B(  7-C , 28-H ) :   0.9615
B(  8-S ,  9-C ) :   0.9794 B(  9-C , 10-S ) :   1.0015 B(  9-C , 29-H ) :   0.9284
B(  9-C , 30-H ) :   0.9291 B( 10-S , 11-P ) :   1.0689 B( 11-P , 12-S ) :   1.8317
B( 11-P , 13-O ) :   1.1787 B( 11-P , 16-O ) :   1.2265 B( 13-O , 14-C ) :   0.8586
B( 14-C , 15-C ) :   0.9997 B( 14-C , 31-H ) :   0.9746 B( 14-C , 32-H ) :   0.9620
B( 15-C , 33-H ) :   0.9672 B( 15-C , 34-H ) :   0.9674 B( 15-C , 35-H ) :   0.9607
B( 16-O , 17-C ) :   0.8518 B( 17-C , 18-C ) :   1.0037 B( 17-C , 36-H ) :   0.9623
B( 17-C , 37-H ) :   0.9649 B( 18-C , 38-H ) :   0.9678 B( 18-C , 39-H ) :   0.9688
B( 18-C , 40-H ) :   0.9706

FINAL SINGLE POINT ENERGY     -2932.551115349577

DIPOLE MOMENT
-------------

Method             : SCF
Type of density    : Electron Density
Multiplicity       :   1
Irrep              :   0
Energy             : -2932.5810621739769886 Eh
Relativity type    :
Basis              : AO
                                X                 Y                 Z
Electronic contribution:      2.738573457      -1.077493990     -11.346697567
Nuclear contribution   :     -3.221945759       2.225809192      13.599614022
                        -----------------------------------------
Total Dipole Moment    :     -0.483372302       1.148315202       2.252916455
                        -----------------------------------------
Magnitude (a.u.)       :      2.574472594
Magnitude (Debye)      :      6.543789290

Rotational constants in cm-1:             0.011820             0.004576             0.004161
Rotational constants in MHz :           354.361796           137.171094           124.748848

                             ****ORCA TERMINATED NORMALLY****
TOTAL RUN TIME: 0 days 0 hours 15 minutes 7 seconds 704 msec
