                         Program Version 6.0.0  -   RELEASE  -
|  1> ! pbe def2-sv(p) def2/J RI DEFGRID1 loosescf d4 GCP(DFT/SV(P)) printgap
|  2> %output
|  3>     printlevel normal
|  4> end
|  5> * xyz 0 1
|  6> C 4.3504724543 2.5239855408 -1.3869153959
|  7> C 3.031177431 1.9675560261 -0.8923662692
|  8> O 3.3162136485 0.8101367043 -0.0813882258
|  9> P 2.1915437149 0.1563943949 0.8319230478
| 10> S 1.2356380903 1.4038986431 1.9925225663
| 11> O 2.9865971344 -0.9183377483 1.6607991233
| 12> C 3.9774443564 -1.8262492183 1.106596716
| 13> C 3.397406718 -3.2150173808 0.926878225
| 14> S 1.0440966437 -0.9104733591 -0.6274797576
| 15> C -0.0964398608 -1.7414682887 0.5107360027
| 16> S -1.4253229417 -0.6815722416 1.1389610556
| 17> P -2.1992369601 -0.1059857476 -0.7656197463
| 18> S -2.1020849847 -1.4509116585 -2.1796874413
| 19> O -1.4125529568 1.1876849665 -1.2114035244
| 20> C -1.3560380901 2.4086159044 -0.4367914595
| 21> C -2.3585998395 3.4172516439 -0.9564371883
| 22> O -3.6223522765 0.4914975775 -0.3893337257
| 23> C -4.619386351 -0.1709310585 0.4118847212
| 24> C -4.9384042934 -1.567171817 -0.0788458648
| 25> H 4.1599897745 3.4005980398 -1.9971916562
| 26> H 4.9755559435 2.8020298425 -0.5432056448
| 27> H 4.8700157175 1.7784225311 -1.981629421
| 28> H 2.390062141 1.6564156402 -1.7226724295
| 29> H 2.4936215678 2.6958723354 -0.2756620785
| 30> H 4.344543069 -1.4202748667 0.1633840033
| 31> H 4.7796648112 -1.8257655561 1.8460495298
| 32> H 2.635288444 -3.2194924265 0.1512377676
| 33> H 4.1947874045 -3.8920094987 0.6365973865
| 34> H 2.9605967187 -3.5626933948 1.8593352529
| 35> H 0.4437978319 -2.1051114292 1.3825034216
| 36> H -0.5360068198 -2.558862959 -0.0601390184
| 37> H -1.5269771848 2.17747156 0.6188835138
| 38> H -0.3311436537 2.7671955707 -0.5570869838
| 39> H -2.2503097371 4.3419568041 -0.3984817923
| 40> H -2.1792238926 3.607619975 -2.0109891395
| 41> H -3.3699424604 3.0386617429 -0.8355195982
| 42> H -4.2628073276 -0.1952806821 1.4455447275
| 43> H -5.4876059985 0.4861433808 0.3353608461
| 44> H -5.2212290836 -1.5450737768 -1.1286338869
| 45> H -4.0668980973 -2.2114961473 0.0275793474
| 46> H -5.7554269756 -1.9763286919 0.5066227463
| 47> *
| 48>
| 49>                          ****END OF INPUT****

CARTESIAN COORDINATES (ANGSTROEM)
---------------------------------
  C      4.350472    2.523986   -1.386915
  C      3.031177    1.967556   -0.892366
  O      3.316214    0.810137   -0.081388
  P      2.191544    0.156394    0.831923
  S      1.235638    1.403899    1.992523
  O      2.986597   -0.918338    1.660799
  C      3.977444   -1.826249    1.106597
  C      3.397407   -3.215017    0.926878
  S      1.044097   -0.910473   -0.627480
  C     -0.096440   -1.741468    0.510736
  S     -1.425323   -0.681572    1.138961
  P     -2.199237   -0.105986   -0.765620
  S     -2.102085   -1.450912   -2.179687
  O     -1.412553    1.187685   -1.211404
  C     -1.356038    2.408616   -0.436791
  C     -2.358600    3.417252   -0.956437
  O     -3.622352    0.491498   -0.389334
  C     -4.619386   -0.170931    0.411885
  C     -4.938404   -1.567172   -0.078846
  H      4.159990    3.400598   -1.997192
  H      4.975556    2.802030   -0.543206
  H      4.870016    1.778423   -1.981629
  H      2.390062    1.656416   -1.722672
  H      2.493622    2.695872   -0.275662
  H      4.344543   -1.420275    0.163384
  H      4.779665   -1.825766    1.846050
  H      2.635288   -3.219492    0.151238
  H      4.194787   -3.892009    0.636597
  H      2.960597   -3.562693    1.859335
  H      0.443798   -2.105111    1.382503
  H     -0.536007   -2.558863   -0.060139
  H     -1.526977    2.177472    0.618884
  H     -0.331144    2.767196   -0.557087
  H     -2.250310    4.341957   -0.398482
  H     -2.179224    3.607620   -2.010989
  H     -3.369942    3.038662   -0.835520
  H     -4.262807   -0.195281    1.445545
  H     -5.487606    0.486143    0.335361
  H     -5.221229   -1.545074   -1.128634
  H     -4.066898   -2.211496    0.027579
  H     -5.755427   -1.976329    0.506623

 Total Charge           Charge          ....    0
 Multiplicity           Mult            ....    1
 Number of Electrons    NEL             ....  202
 Basis Dimension        Dim             ....  334

ORBITAL ENERGIES
----------------

  NO   OCC          E(Eh)            E(eV)
   0   2.0000     -88.041127     -2395.7209
   1   2.0000     -88.038337     -2395.6449
   2   2.0000     -87.982504     -2394.1257
   3   2.0000     -87.978965     -2394.0294
   4   2.0000     -76.425583     -2079.6458
   5   2.0000     -76.422796     -2079.5700
   6   2.0000     -18.796134      -511.4688
   7   2.0000     -18.796046      -511.4664
   8   2.0000     -18.793054      -511.3850
   9   2.0000     -18.782682      -511.1028
  10   2.0000      -9.960852      -271.0486
  11   2.0000      -9.957975      -270.9703
  12   2.0000      -9.957610      -270.9604
  13   2.0000      -9.957003      -270.9438
  14   2.0000      -9.944279      -270.5976
  15   2.0000      -9.891892      -269.1721
  16   2.0000      -9.891661      -269.1658
  17   2.0000      -9.881953      -268.9016
  18   2.0000      -9.879060      -268.8229
  19   2.0000      -7.685532      -209.1340
  20   2.0000      -7.683202      -209.0706
  21   2.0000      -7.627725      -207.5609
  22   2.0000      -7.624362      -207.4694
  23   2.0000      -6.423227      -174.7849
  24   2.0000      -6.419694      -174.6888
  25   2.0000      -5.713208      -155.4643
  26   2.0000      -5.710950      -155.4028
  27   2.0000      -5.710248      -155.3837
  28   2.0000      -5.707733      -155.3153
  29   2.0000      -5.702609      -155.1759
  30   2.0000      -5.700309      -155.1133
  31   2.0000      -5.656715      -153.9271
  32   2.0000      -5.653457      -153.8384
  33   2.0000      -5.648443      -153.7019
  34   2.0000      -5.647678      -153.6811
  35   2.0000      -5.644889      -153.6052
  36   2.0000      -5.644390      -153.5917
  37   2.0000      -4.646381      -126.4344
  38   2.0000      -4.644973      -126.3961
  39   2.0000      -4.643129      -126.3460
  40   2.0000      -4.642604      -126.3317
  41   2.0000      -4.641694      -126.3069
  42   2.0000      -4.639742      -126.2538
  43   2.0000      -0.991678       -26.9849
  44   2.0000      -0.984352       -26.7856
  45   2.0000      -0.949073       -25.8256
  46   2.0000      -0.939812       -25.5736
  47   2.0000      -0.761973       -20.7344
  48   2.0000      -0.722577       -19.6623
  49   2.0000      -0.710221       -19.3261
  50   2.0000      -0.696324       -18.9479
  51   2.0000      -0.687446       -18.7064
  52   2.0000      -0.672494       -18.2995
  53   2.0000      -0.647745       -17.6260
  54   2.0000      -0.637359       -17.3434
  55   2.0000      -0.589251       -16.0343
  56   2.0000      -0.586515       -15.9599
  57   2.0000      -0.578658       -15.7461
  58   2.0000      -0.568534       -15.4706
  59   2.0000      -0.567656       -15.4467
  60   2.0000      -0.513715       -13.9789
  61   2.0000      -0.496560       -13.5121
  62   2.0000      -0.483204       -13.1487
  63   2.0000      -0.468949       -12.7608
  64   2.0000      -0.461699       -12.5635
  65   2.0000      -0.447478       -12.1765
  66   2.0000      -0.441704       -12.0194
  67   2.0000      -0.439000       -11.9458
  68   2.0000      -0.430518       -11.7150
  69   2.0000      -0.415157       -11.2970
  70   2.0000      -0.408367       -11.1122
  71   2.0000      -0.397950       -10.8288
  72   2.0000      -0.389574       -10.6008
  73   2.0000      -0.385265       -10.4836
  74   2.0000      -0.379723       -10.3328
  75   2.0000      -0.372853       -10.1458
  76   2.0000      -0.364895        -9.9293
  77   2.0000      -0.356949        -9.7131
  78   2.0000      -0.355944        -9.6857
  79   2.0000      -0.351989        -9.5781
  80   2.0000      -0.349255        -9.5037
  81   2.0000      -0.345068        -9.3898
  82   2.0000      -0.344301        -9.3689
  83   2.0000      -0.336416        -9.1543
  84   2.0000      -0.332980        -9.0609
  85   2.0000      -0.320734        -8.7276
  86   2.0000      -0.316413        -8.6100
  87   2.0000      -0.307895        -8.3783
  88   2.0000      -0.299690        -8.1550
  89   2.0000      -0.294739        -8.0203
  90   2.0000      -0.282174        -7.6784
  91   2.0000      -0.275379        -7.4934
  92   2.0000      -0.273309        -7.4371
  93   2.0000      -0.263168        -7.1612
  94   2.0000      -0.255907        -6.9636
  95   2.0000      -0.237674        -6.4674
  96   2.0000      -0.216627        -5.8947
  97   2.0000      -0.206224        -5.6116
  98   2.0000      -0.198405        -5.3989
  99   2.0000      -0.194868        -5.3026
 100   2.0000      -0.185539        -5.0488
 101   0.0000      -0.042125        -1.1463
 102   0.0000      -0.025950        -0.7061
 103   0.0000      -0.003006        -0.0818
 104   0.0000      -0.000009        -0.0002
 105   0.0000       0.015607         0.4247

MULLIKEN ATOMIC CHARGES
-----------------------
   0 C :   -0.274797
   1 C :   -0.033389
   2 O :   -0.387175
   3 P :    0.595149
   4 S :   -0.311174
   5 O :   -0.363511
   6 C :   -0.009123
   7 C :   -0.306057
   8 S :   -0.087454
   9 C :   -0.351936
  10 S :   -0.086676
  11 P :    0.595553
  12 S :   -0.318238
  13 O :   -0.348617
  14 C :   -0.018502
  15 C :   -0.283998
  16 O :   -0.379883
  17 C :   -0.009407
  18 C :   -0.308906
  19 H :    0.113583
  20 H :    0.120664
  21 H :    0.115939
  22 H :    0.116310
  23 H :    0.115629
  24 H :    0.112334
  25 H :    0.113056
  26 H :    0.127970
  27 H :    0.114293
  28 H :    0.121153
  29 H :    0.183664
  30 H :    0.193822
  31 H :    0.110797
  32 H :    0.105626
  33 H :    0.107764
  34 H :    0.114104
  35 H :    0.117362
  36 H :    0.113943
  37 H :    0.108323
  38 H :    0.127415
  39 H :    0.123775
  40 H :    0.110617
Sum of atomic charges:    0.0000000

LOEWDIN ATOMIC CHARGES
----------------------
   0 C :   -0.349846
   1 C :   -0.121294
   2 O :   -0.252008
   3 P :    0.558080
   4 S :   -0.308869
   5 O :   -0.240224
   6 C :   -0.109414
   7 C :   -0.363491
   8 S :    0.079659
   9 C :   -0.477942
  10 S :    0.073535
  11 P :    0.566523
  12 S :   -0.316090
  13 O :   -0.231931
  14 C :   -0.117726
  15 C :   -0.359431
  16 O :   -0.244904
  17 C :   -0.114822
  18 C :   -0.369863
  19 H :    0.132012
  20 H :    0.129360
  21 H :    0.126551
  22 H :    0.112880
  23 H :    0.109051
  24 H :    0.113645
  25 H :    0.123217
  26 H :    0.121385
  27 H :    0.132459
  28 H :    0.127325
  29 H :    0.131063
  30 H :    0.132531
  31 H :    0.106022
  32 H :    0.113668
  33 H :    0.128327
  34 H :    0.126149
  35 H :    0.124392
  36 H :    0.109064
  37 H :    0.120586
  38 H :    0.130426
  39 H :    0.120214
  40 H :    0.129730

  Mayer bond orders larger than 0.100000
B(  0-C ,  1-C ) :   1.1577 B(  0-C , 19-H ) :   0.9415 B(  0-C , 20-H ) :   0.9502
B(  0-C , 21-H ) :   0.9508 B(  1-C ,  2-O ) :   0.9044 B(  1-C , 22-H ) :   0.9276
B(  1-C , 23-H ) :   0.9081 B(  2-O ,  3-P ) :   1.0761 B(  3-P ,  4-S ) :   1.6750
B(  3-P ,  5-O ) :   1.1275 B(  3-P ,  8-S ) :   0.9467 B(  4-S ,  8-S ) :   0.1145
B(  5-O ,  6-C ) :   0.8919 B(  6-C ,  7-C ) :   1.1685 B(  6-C , 24-H ) :   0.9181
B(  6-C , 25-H ) :   0.9350 B(  7-C , 26-H ) :   0.9328 B(  7-C , 27-H ) :   0.9387
B(  7-C , 28-H ) :   0.9440 B(  8-S ,  9-C ) :   0.9955 B(  9-C , 10-S ) :   1.0086
B(  9-C , 29-H ) :   0.8946 B(  9-C , 30-H ) :   0.8875 B( 10-S , 11-P ) :   0.9524
B( 10-S , 12-S ) :   0.1109 B( 11-P , 12-S ) :   1.6306 B( 11-P , 13-O ) :   1.1369
B( 11-P , 16-O ) :   1.0813 B( 13-O , 14-C ) :   0.8929 B( 14-C , 15-C ) :   1.1571
B( 14-C , 31-H ) :   0.9146 B( 14-C , 32-H ) :   0.9301 B( 15-C , 33-H ) :   0.9413
B( 15-C , 34-H ) :   0.9467 B( 15-C , 35-H ) :   0.9428 B( 16-O , 17-C ) :   0.9120
B( 17-C , 18-C ) :   1.1677 B( 17-C , 36-H ) :   0.9266 B( 17-C , 37-H ) :   0.9331
B( 18-C , 38-H ) :   0.9423 B( 18-C , 39-H ) :   0.9321 B( 18-C , 40-H ) :   0.9345

Dispersion correction           -0.064843610
FINAL SINGLE POINT ENERGY     -2929.516283323997

DIPOLE MOMENT
-------------

Method             : SCF
Type of density    : Electron Density
Multiplicity       :   1
Irrep              :   0
Energy             : -2929.6352284572376448 Eh
Relativity type    :
Basis              : AO
                                X                 Y                 Z
Electronic contribution:     -2.582984321      -3.969694311       2.705607677
Nuclear contribution   :      3.120539002       4.003518961      -2.450132361
                        -----------------------------------------
Total Dipole Moment    :      0.537554681       0.033824650       0.255475316
                        -----------------------------------------
Magnitude (a.u.)       :      0.596134866
Magnitude (Debye)      :      1.515254411

Rotational constants in cm-1:             0.011833             0.005124             0.004455
Rotational constants in MHz :           354.749390           153.624217           133.565102

                             ****ORCA TERMINATED NORMALLY****
TOTAL RUN TIME: 0 days 0 hours 0 minutes 21 seconds 7 msec
