                         Program Version 6.0.0  -   RELEASE  -
|  1> ! pbe def2-sv(p) def2/J RI DEFGRID1 loosescf d4 GCP(DFT/SV(P)) printgap
|  2> %output
|  3>     printlevel normal
|  4> end
|  5> * xyz 0 1
|  6> C 2.8160303126 -0.4331203437 -2.737167923
|  7> C 1.6283232109 0.2501518356 -2.0952061411
|  8> O 1.1435678369 -0.4777881731 -0.9491209588
|  9> P 2.0022002626 -0.5623246315 0.3909547121
| 10> S 3.1346849819 0.9876916162 0.8075030013
| 11> O 2.8003897535 -1.9164459027 0.1571156814
| 12> C 3.9617353594 -2.2712881799 0.9288814877
| 13> C 3.6131755798 -2.5964793112 2.3669502208
| 14> S 0.5192885872 -1.1505770865 1.7590951462
| 15> C -0.2404244314 0.4662291246 2.1353843536
| 16> S -0.3418790095 1.6080988058 0.7318005865
| 17> P -1.8794097932 0.6911015149 -0.4111597358
| 18> S -1.9186488032 1.2492385297 -2.2867528474
| 19> O -3.1905890402 0.9588607668 0.4592344371
| 20> C -3.7596086175 2.2745759367 0.5872898341
| 21> C -4.8315870064 2.5082108765 -0.459704459
| 22> O -1.6865496113 -0.8470639778 -0.1227504228
| 23> C -1.9821599918 -1.8577731036 -1.1052799735
| 24> C -3.476716647 -2.0550192055 -1.239973469
| 25> H 2.5769344389 -1.4695852332 -2.9603322623
| 26> H 3.0725670088 0.0869544085 -3.6547106786
| 27> H 3.6699072461 -0.4031148715 -2.061304829
| 28> H 0.7697778339 0.2960267577 -2.7686878552
| 29> H 1.887187874 1.2656441653 -1.7747199999
| 30> H 4.3687430571 -3.1374148338 0.4054919654
| 31> H 4.6724131398 -1.4396093577 0.8852250625
| 32> H 2.8245574183 -3.3436722611 2.4051219574
| 33> H 4.4955361285 -2.9747587116 2.8731033191
| 34> H 3.2699231569 -1.6982473967 2.8783445285
| 35> H 0.3677321625 0.9807101671 2.876987389
| 36> H -1.2367142529 0.2529624249 2.5161739624
| 37> H -4.1795823204 2.2983537547 1.5947441976
| 38> H -2.9619795345 3.0211328183 0.5064616805
| 39> H -4.3993777732 2.4730041868 -1.4574047205
| 40> H -5.6001596866 1.7442757729 -0.3829842629
| 41> H -5.2782312716 3.484714183 -0.3028947192
| 42> H -1.5399589205 -1.5607517486 -2.0614578077
| 43> H -1.4794287253 -2.7486444558 -0.7257467274
| 44> H -3.9307653325 -1.1422886371 -1.624428242
| 45> H -3.6740674635 -2.8682295803 -1.9311407285
| 46> H -3.9129386614 -2.2852320358 -0.2718118176
| 47> *
| 48>
| 49>                          ****END OF INPUT****

CARTESIAN COORDINATES (ANGSTROEM)
---------------------------------
  C      2.816030   -0.433120   -2.737168
  C      1.628323    0.250152   -2.095206
  O      1.143568   -0.477788   -0.949121
  P      2.002200   -0.562325    0.390955
  S      3.134685    0.987692    0.807503
  O      2.800390   -1.916446    0.157116
  C      3.961735   -2.271288    0.928881
  C      3.613176   -2.596479    2.366950
  S      0.519289   -1.150577    1.759095
  C     -0.240424    0.466229    2.135384
  S     -0.341879    1.608099    0.731801
  P     -1.879410    0.691102   -0.411160
  S     -1.918649    1.249239   -2.286753
  O     -3.190589    0.958861    0.459234
  C     -3.759609    2.274576    0.587290
  C     -4.831587    2.508211   -0.459704
  O     -1.686550   -0.847064   -0.122750
  C     -1.982160   -1.857773   -1.105280
  C     -3.476717   -2.055019   -1.239973
  H      2.576934   -1.469585   -2.960332
  H      3.072567    0.086954   -3.654711
  H      3.669907   -0.403115   -2.061305
  H      0.769778    0.296027   -2.768688
  H      1.887188    1.265644   -1.774720
  H      4.368743   -3.137415    0.405492
  H      4.672413   -1.439609    0.885225
  H      2.824557   -3.343672    2.405122
  H      4.495536   -2.974759    2.873103
  H      3.269923   -1.698247    2.878345
  H      0.367732    0.980710    2.876987
  H     -1.236714    0.252962    2.516174
  H     -4.179582    2.298354    1.594744
  H     -2.961980    3.021133    0.506462
  H     -4.399378    2.473004   -1.457405
  H     -5.600160    1.744276   -0.382984
  H     -5.278231    3.484714   -0.302895
  H     -1.539959   -1.560752   -2.061458
  H     -1.479429   -2.748644   -0.725747
  H     -3.930765   -1.142289   -1.624428
  H     -3.674067   -2.868230   -1.931141
  H     -3.912939   -2.285232   -0.271812

 Total Charge           Charge          ....    0
 Multiplicity           Mult            ....    1
 Number of Electrons    NEL             ....  202
 Basis Dimension        Dim             ....  334

ORBITAL ENERGIES
----------------

  NO   OCC          E(Eh)            E(eV)
   0   2.0000     -88.044629     -2395.8162
   1   2.0000     -88.039979     -2395.6896
   2   2.0000     -87.992281     -2394.3917
   3   2.0000     -87.983953     -2394.1651
   4   2.0000     -76.428363     -2079.7215
   5   2.0000     -76.424342     -2079.6121
   6   2.0000     -18.793170      -511.3882
   7   2.0000     -18.791943      -511.3548
   8   2.0000     -18.791456      -511.3415
   9   2.0000     -18.783504      -511.1251
  10   2.0000      -9.962015      -271.0802
  11   2.0000      -9.955457      -270.9018
  12   2.0000      -9.951105      -270.7833
  13   2.0000      -9.950981      -270.7800
  14   2.0000      -9.936598      -270.3886
  15   2.0000      -9.883437      -268.9420
  16   2.0000      -9.883384      -268.9405
  17   2.0000      -9.882050      -268.9043
  18   2.0000      -9.875317      -268.7210
  19   2.0000      -7.689210      -209.2340
  20   2.0000      -7.685256      -209.1264
  21   2.0000      -7.637253      -207.8202
  22   2.0000      -7.628926      -207.5936
  23   2.0000      -6.425935      -174.8586
  24   2.0000      -6.421429      -174.7360
  25   2.0000      -5.717515      -155.5815
  26   2.0000      -5.713497      -155.4722
  27   2.0000      -5.713365      -155.4686
  28   2.0000      -5.709836      -155.3725
  29   2.0000      -5.705972      -155.2674
  30   2.0000      -5.701826      -155.1546
  31   2.0000      -5.666098      -154.1824
  32   2.0000      -5.658045      -153.9632
  33   2.0000      -5.657776      -153.9559
  34   2.0000      -5.657305      -153.9431
  35   2.0000      -5.649572      -153.7327
  36   2.0000      -5.649193      -153.7224
  37   2.0000      -4.648321      -126.4873
  38   2.0000      -4.647908      -126.4760
  39   2.0000      -4.646416      -126.4354
  40   2.0000      -4.643837      -126.3652
  41   2.0000      -4.643224      -126.3485
  42   2.0000      -4.642102      -126.3180
  43   2.0000      -0.989232       -26.9184
  44   2.0000      -0.982426       -26.7332
  45   2.0000      -0.946914       -25.7668
  46   2.0000      -0.940371       -25.5888
  47   2.0000      -0.764230       -20.7957
  48   2.0000      -0.720028       -19.5930
  49   2.0000      -0.705188       -19.1892
  50   2.0000      -0.685950       -18.6657
  51   2.0000      -0.682359       -18.5679
  52   2.0000      -0.672578       -18.3018
  53   2.0000      -0.655477       -17.8364
  54   2.0000      -0.639246       -17.3948
  55   2.0000      -0.599204       -16.3052
  56   2.0000      -0.594602       -16.1800
  57   2.0000      -0.570954       -15.5364
  58   2.0000      -0.566494       -15.4151
  59   2.0000      -0.563095       -15.3226
  60   2.0000      -0.503214       -13.6931
  61   2.0000      -0.487886       -13.2761
  62   2.0000      -0.477001       -12.9799
  63   2.0000      -0.467148       -12.7118
  64   2.0000      -0.457247       -12.4423
  65   2.0000      -0.441347       -12.0097
  66   2.0000      -0.437952       -11.9173
  67   2.0000      -0.434959       -11.8358
  68   2.0000      -0.425825       -11.5873
  69   2.0000      -0.411751       -11.2043
  70   2.0000      -0.410442       -11.1687
  71   2.0000      -0.401073       -10.9138
  72   2.0000      -0.388732       -10.5779
  73   2.0000      -0.385286       -10.4842
  74   2.0000      -0.384588       -10.4652
  75   2.0000      -0.374954       -10.2030
  76   2.0000      -0.366515        -9.9734
  77   2.0000      -0.359439        -9.7808
  78   2.0000      -0.353273        -9.6130
  79   2.0000      -0.350349        -9.5335
  80   2.0000      -0.345447        -9.4001
  81   2.0000      -0.344163        -9.3651
  82   2.0000      -0.337537        -9.1849
  83   2.0000      -0.336602        -9.1594
  84   2.0000      -0.332231        -9.0405
  85   2.0000      -0.321048        -8.7362
  86   2.0000      -0.308879        -8.4050
  87   2.0000      -0.296944        -8.0803
  88   2.0000      -0.293403        -7.9839
  89   2.0000      -0.291910        -7.9433
  90   2.0000      -0.281168        -7.6510
  91   2.0000      -0.274058        -7.4575
  92   2.0000      -0.266362        -7.2481
  93   2.0000      -0.261544        -7.1170
  94   2.0000      -0.259147        -7.0518
  95   2.0000      -0.229346        -6.2408
  96   2.0000      -0.221791        -6.0352
  97   2.0000      -0.214476        -5.8362
  98   2.0000      -0.205584        -5.5942
  99   2.0000      -0.197470        -5.3734
 100   2.0000      -0.195127        -5.3097
 101   0.0000      -0.045953        -1.2504
 102   0.0000      -0.025182        -0.6852
 103   0.0000      -0.009842        -0.2678
 104   0.0000       0.000647         0.0176
 105   0.0000       0.016204         0.4409

MULLIKEN ATOMIC CHARGES
-----------------------
   0 C :   -0.299497
   1 C :   -0.019322
   2 O :   -0.368012
   3 P :    0.608338
   4 S :   -0.332368
   5 O :   -0.371404
   6 C :   -0.004577
   7 C :   -0.314614
   8 S :   -0.085420
   9 C :   -0.322186
  10 S :   -0.073263
  11 P :    0.618173
  12 S :   -0.322411
  13 O :   -0.372984
  14 C :   -0.012230
  15 C :   -0.291953
  16 O :   -0.362668
  17 C :   -0.001080
  18 C :   -0.302733
  19 H :    0.110627
  20 H :    0.110251
  21 H :    0.116891
  22 H :    0.116320
  23 H :    0.111720
  24 H :    0.104701
  25 H :    0.111321
  26 H :    0.116915
  27 H :    0.112728
  28 H :    0.126238
  29 H :    0.190649
  30 H :    0.180070
  31 H :    0.104413
  32 H :    0.100453
  33 H :    0.129581
  34 H :    0.112454
  35 H :    0.107941
  36 H :    0.114081
  37 H :    0.104451
  38 H :    0.122049
  39 H :    0.111693
  40 H :    0.114664
Sum of atomic charges:   -0.0000000

LOEWDIN ATOMIC CHARGES
----------------------
   0 C :   -0.364768
   1 C :   -0.128729
   2 O :   -0.242901
   3 P :    0.567768
   4 S :   -0.331056
   5 O :   -0.244011
   6 C :   -0.120228
   7 C :   -0.369847
   8 S :    0.093533
   9 C :   -0.468040
  10 S :    0.106202
  11 P :    0.573211
  12 S :   -0.305460
  13 O :   -0.251793
  14 C :   -0.119467
  15 C :   -0.363864
  16 O :   -0.230764
  17 C :   -0.114041
  18 C :   -0.363644
  19 H :    0.123543
  20 H :    0.129685
  21 H :    0.119181
  22 H :    0.110791
  23 H :    0.109751
  24 H :    0.118353
  25 H :    0.110168
  26 H :    0.123591
  27 H :    0.130895
  28 H :    0.121205
  29 H :    0.138865
  30 H :    0.134367
  31 H :    0.117203
  32 H :    0.105226
  33 H :    0.124044
  34 H :    0.124858
  35 H :    0.128838
  36 H :    0.110889
  37 H :    0.118187
  38 H :    0.122340
  39 H :    0.130197
  40 H :    0.125724

  Mayer bond orders larger than 0.100000
B(  0-C ,  1-C ) :   1.1614 B(  0-C , 19-H ) :   0.9462 B(  0-C , 20-H ) :   0.9401
B(  0-C , 21-H ) :   0.9364 B(  1-C ,  2-O ) :   0.8966 B(  1-C , 22-H ) :   0.9164
B(  1-C , 23-H ) :   0.9172 B(  2-O ,  3-P ) :   1.1096 B(  3-P ,  4-S ) :   1.5939
B(  3-P ,  5-O ) :   1.1062 B(  3-P ,  8-S ) :   0.9818 B(  4-S ,  8-S ) :   0.1126
B(  5-O ,  6-C ) :   0.9079 B(  6-C ,  7-C ) :   1.1671 B(  6-C , 24-H ) :   0.9338
B(  6-C , 25-H ) :   0.9140 B(  7-C , 26-H ) :   0.9445 B(  7-C , 27-H ) :   0.9379
B(  7-C , 28-H ) :   0.9353 B(  8-S ,  9-C ) :   0.9767 B(  9-C , 10-S ) :   1.0026
B(  9-C , 29-H ) :   0.9047 B(  9-C , 30-H ) :   0.9058 B( 10-S , 11-P ) :   0.9554
B( 11-P , 12-S ) :   1.6215 B( 11-P , 13-O ) :   1.0829 B( 11-P , 16-O ) :   1.1334
B( 13-O , 14-C ) :   0.9094 B( 14-C , 15-C ) :   1.1669 B( 14-C , 31-H ) :   0.9362
B( 14-C , 32-H ) :   0.9128 B( 15-C , 33-H ) :   0.9317 B( 15-C , 34-H ) :   0.9469
B( 15-C , 35-H ) :   0.9398 B( 16-O , 17-C ) :   0.8942 B( 17-C , 18-C ) :   1.1619
B( 17-C , 36-H ) :   0.9164 B( 17-C , 37-H ) :   0.9316 B( 18-C , 38-H ) :   0.9362
B( 18-C , 39-H ) :   0.9400 B( 18-C , 40-H ) :   0.9465

Dispersion correction           -0.068193910
FINAL SINGLE POINT ENERGY     -2929.520513095190

DIPOLE MOMENT
-------------

Method             : SCF
Type of density    : Electron Density
Multiplicity       :   1
Irrep              :   0
Energy             : -2929.6381232040157556 Eh
Relativity type    :
Basis              : AO
                                X                 Y                 Z
Electronic contribution:      5.364719485       7.981458437       5.271906880
Nuclear contribution   :     -5.997352246      -8.827806781      -4.742583068
                        -----------------------------------------
Total Dipole Moment    :     -0.632632761      -0.846348344       0.529323812
                        -----------------------------------------
Magnitude (a.u.)       :      1.181826310
Magnitude (Debye)      :      3.003963752

Rotational constants in cm-1:             0.013576             0.005114             0.004984
Rotational constants in MHz :           407.011820           153.321526           149.404904

                             ****ORCA TERMINATED NORMALLY****
TOTAL RUN TIME: 0 days 0 hours 0 minutes 22 seconds 2 msec
