                         Program Version 6.0.0  -   RELEASE  -
|  1> ! r2scan-3c def2/J RI DEFGRID2 scfconv6 printgap
|  2> %output
|  3>     printlevel normal
|  4> end
|  5> * xyz 0 1
|  6> C 2.6805011892 -1.5092116027 2.9269856522
|  7> C 1.4040685632 -1.5284886259 2.1133606547
|  8> O 1.2947500604 -0.3519423237 1.2870418692
|  9> P 2.1843246169 -0.1385969366 -0.000390458
| 10> S 2.8865741186 -1.7458573361 -0.8816243248
| 11> O 3.2823004728 0.8680368889 0.5462774793
| 12> C 4.3933218013 1.2947879642 -0.2691560269
| 13> C 5.4742512023 1.8206848674 0.6535634047
| 14> S 0.9450846788 1.1061975271 -1.1790430691
| 15> C 0.1149992557 -0.2243166433 -2.090134864
| 16> S -0.8259765939 -1.3428617872 -1.0161337772
| 17> P -2.16919076 0.1090406099 -0.2662596656
| 18> S -2.7504711911 1.4890572284 -1.5353448944
| 19> O -1.4213278151 0.5960494768 1.0366280092
| 20> C -1.6040782658 1.9186367192 1.5811495433
| 21> C -2.9611315296 2.0574556667 2.2374483695
| 22> O -3.3335369645 -0.7711932966 0.3559891767
| 23> C -4.3586653501 -1.3648557218 -0.4675068298
| 24> C -5.5382500157 -1.6976230744 0.423688946
| 25> H 3.5397240213 -1.5632223002 2.2592238733
| 26> H 2.74282004 -0.5920513267 3.5064983377
| 27> H 2.6969051232 -2.3644609844 3.5951181372
| 28> H 0.5129692341 -1.4915038096 2.7415982164
| 29> H 1.3646376029 -2.4129106047 1.4686735183
| 30> H 4.7456411857 0.438323357 -0.8539489004
| 31> H 4.0365134073 2.0712476026 -0.9511347402
| 32> H 5.8153520015 1.0327603638 1.3189994067
| 33> H 6.3098857049 2.1722492766 0.057436968
| 34> H 5.085308931 2.6413538644 1.2491050516
| 35> H 0.856775894 -0.8381819181 -2.5999013403
| 36> H -0.5590019849 0.2596152829 -2.7961471842
| 37> H -0.7865899051 2.0232994204 2.2958987054
| 38> H -1.4838370422 2.6484034183 0.7734459967
| 39> H -3.0969803049 1.282613248 2.9871565736
| 40> H -3.0392083752 3.0342204092 2.704288673
| 41> H -3.7423809551 1.9599975864 1.4842725756
| 42> H -4.6348425099 -0.6496557975 -1.2497398417
| 43> H -3.9435662176 -2.2624050118 -0.9337242343
| 44> H -5.2252700464 -2.3727658766 1.2146900265
| 45> H -5.9380277512 -0.7919440817 0.8707698421
| 46> H -6.3102595858 -2.173530098 -0.1719266019
| 47> *
| 48>
| 49>                          ****END OF INPUT****

CARTESIAN COORDINATES (ANGSTROEM)
---------------------------------
  C      2.680501   -1.509212    2.926986
  C      1.404069   -1.528489    2.113361
  O      1.294750   -0.351942    1.287042
  P      2.184325   -0.138597   -0.000390
  S      2.886574   -1.745857   -0.881624
  O      3.282300    0.868037    0.546277
  C      4.393322    1.294788   -0.269156
  C      5.474251    1.820685    0.653563
  S      0.945085    1.106198   -1.179043
  C      0.114999   -0.224317   -2.090135
  S     -0.825977   -1.342862   -1.016134
  P     -2.169191    0.109041   -0.266260
  S     -2.750471    1.489057   -1.535345
  O     -1.421328    0.596049    1.036628
  C     -1.604078    1.918637    1.581150
  C     -2.961132    2.057456    2.237448
  O     -3.333537   -0.771193    0.355989
  C     -4.358665   -1.364856   -0.467507
  C     -5.538250   -1.697623    0.423689
  H      3.539724   -1.563222    2.259224
  H      2.742820   -0.592051    3.506498
  H      2.696905   -2.364461    3.595118
  H      0.512969   -1.491504    2.741598
  H      1.364638   -2.412911    1.468674
  H      4.745641    0.438323   -0.853949
  H      4.036513    2.071248   -0.951135
  H      5.815352    1.032760    1.318999
  H      6.309886    2.172249    0.057437
  H      5.085309    2.641354    1.249105
  H      0.856776   -0.838182   -2.599901
  H     -0.559002    0.259615   -2.796147
  H     -0.786590    2.023299    2.295899
  H     -1.483837    2.648403    0.773446
  H     -3.096980    1.282613    2.987157
  H     -3.039208    3.034220    2.704289
  H     -3.742381    1.959998    1.484273
  H     -4.634843   -0.649656   -1.249740
  H     -3.943566   -2.262405   -0.933724
  H     -5.225270   -2.372766    1.214690
  H     -5.938028   -0.791944    0.870770
  H     -6.310260   -2.173530   -0.171927

 Total Charge           Charge          ....    0
 Multiplicity           Mult            ....    1
 Number of Electrons    NEL             ....  202
 Basis Dimension        Dim             ....  539

ORBITAL ENERGIES
----------------

  NO   OCC          E(Eh)            E(eV)
   0   2.0000     -88.573090     -2410.1963
   1   2.0000     -88.573087     -2410.1962
   2   2.0000     -88.519389     -2408.7350
   3   2.0000     -88.519383     -2408.7349
   4   2.0000     -76.911566     -2092.8701
   5   2.0000     -76.911563     -2092.8700
   6   2.0000     -18.991983      -516.7981
   7   2.0000     -18.991957      -516.7974
   8   2.0000     -18.986253      -516.6422
   9   2.0000     -18.986237      -516.6418
  10   2.0000     -10.103575      -274.9322
  11   2.0000     -10.098577      -274.7962
  12   2.0000     -10.098557      -274.7957
  13   2.0000     -10.094136      -274.6754
  14   2.0000     -10.094125      -274.6751
  15   2.0000     -10.033613      -273.0285
  16   2.0000     -10.033608      -273.0284
  17   2.0000     -10.026757      -272.8419
  18   2.0000     -10.026732      -272.8413
  19   2.0000      -7.867339      -214.0812
  20   2.0000      -7.867331      -214.0810
  21   2.0000      -7.814217      -212.6357
  22   2.0000      -7.814216      -212.6356
  23   2.0000      -6.590244      -179.3297
  24   2.0000      -6.590236      -179.3294
  25   2.0000      -5.814208      -158.2126
  26   2.0000      -5.814196      -158.2123
  27   2.0000      -5.811224      -158.1314
  28   2.0000      -5.811222      -158.1314
  29   2.0000      -5.804456      -157.9473
  30   2.0000      -5.804448      -157.9471
  31   2.0000      -5.761789      -156.7863
  32   2.0000      -5.761784      -156.7861
  33   2.0000      -5.754504      -156.5880
  34   2.0000      -5.754499      -156.5879
  35   2.0000      -5.754281      -156.5819
  36   2.0000      -5.754280      -156.5819
  37   2.0000      -4.735558      -128.8611
  38   2.0000      -4.735549      -128.8608
  39   2.0000      -4.735179      -128.8508
  40   2.0000      -4.735174      -128.8506
  41   2.0000      -4.734122      -128.8220
  42   2.0000      -4.734112      -128.8217
  43   2.0000      -1.049245       -28.5514
  44   2.0000      -1.048015       -28.5179
  45   2.0000      -1.010109       -27.4865
  46   2.0000      -1.008628       -27.4462
  47   2.0000      -0.800780       -21.7903
  48   2.0000      -0.758956       -20.6522
  49   2.0000      -0.749478       -20.3943
  50   2.0000      -0.731381       -19.9019
  51   2.0000      -0.730852       -19.8875
  52   2.0000      -0.707005       -19.2386
  53   2.0000      -0.682954       -18.5841
  54   2.0000      -0.667594       -18.1661
  55   2.0000      -0.630686       -17.1618
  56   2.0000      -0.625430       -17.0188
  57   2.0000      -0.600119       -16.3301
  58   2.0000      -0.598134       -16.2760
  59   2.0000      -0.592015       -16.1095
  60   2.0000      -0.530435       -14.4339
  61   2.0000      -0.523453       -14.2439
  62   2.0000      -0.495851       -13.4928
  63   2.0000      -0.494197       -13.4478
  64   2.0000      -0.471943       -12.8422
  65   2.0000      -0.462949       -12.5975
  66   2.0000      -0.454513       -12.3679
  67   2.0000      -0.453257       -12.3337
  68   2.0000      -0.445416       -12.1204
  69   2.0000      -0.429483       -11.6868
  70   2.0000      -0.421264       -11.4632
  71   2.0000      -0.413195       -11.2436
  72   2.0000      -0.406576       -11.0635
  73   2.0000      -0.398297       -10.8382
  74   2.0000      -0.394329       -10.7302
  75   2.0000      -0.386725       -10.5233
  76   2.0000      -0.386481       -10.5167
  77   2.0000      -0.373468       -10.1626
  78   2.0000      -0.372651       -10.1404
  79   2.0000      -0.368336       -10.0229
  80   2.0000      -0.361987        -9.8502
  81   2.0000      -0.360736        -9.8161
  82   2.0000      -0.357885        -9.7385
  83   2.0000      -0.355003        -9.6601
  84   2.0000      -0.344200        -9.3662
  85   2.0000      -0.333064        -9.0631
  86   2.0000      -0.321224        -8.7409
  87   2.0000      -0.315656        -8.5894
  88   2.0000      -0.314769        -8.5653
  89   2.0000      -0.302124        -8.2212
  90   2.0000      -0.296313        -8.0631
  91   2.0000      -0.291731        -7.9384
  92   2.0000      -0.280273        -7.6266
  93   2.0000      -0.277644        -7.5551
  94   2.0000      -0.271714        -7.3937
  95   2.0000      -0.245098        -6.6694
  96   2.0000      -0.229446        -6.2435
  97   2.0000      -0.226683        -6.1683
  98   2.0000      -0.220579        -6.0023
  99   2.0000      -0.212022        -5.7694
 100   2.0000      -0.210858        -5.7377
 101   0.0000      -0.045573        -1.2401
 102   0.0000      -0.022729        -0.6185
 103   0.0000       0.004648         0.1265
 104   0.0000       0.005269         0.1434
 105   0.0000       0.014995         0.4080

MULLIKEN ATOMIC CHARGES
-----------------------
   0 C :   -0.443443
   1 C :   -0.159046
   2 O :   -0.261321
   3 P :    0.713470
   4 S :   -0.491208
   5 O :   -0.288054
   6 C :   -0.155568
   7 C :   -0.440721
   8 S :   -0.145812
   9 C :   -0.230621
  10 S :   -0.146007
  11 P :    0.713796
  12 S :   -0.491291
  13 O :   -0.261397
  14 C :   -0.158515
  15 C :   -0.443473
  16 O :   -0.288380
  17 C :   -0.155680
  18 C :   -0.440555
  19 H :    0.167693
  20 H :    0.153465
  21 H :    0.146526
  22 H :    0.157001
  23 H :    0.174994
  24 H :    0.170918
  25 H :    0.152590
  26 H :    0.155211
  27 H :    0.147178
  28 H :    0.153613
  29 H :    0.207801
  30 H :    0.207890
  31 H :    0.157027
  32 H :    0.174887
  33 H :    0.153414
  34 H :    0.146504
  35 H :    0.167594
  36 H :    0.171030
  37 H :    0.152557
  38 H :    0.153645
  39 H :    0.155124
  40 H :    0.147163
Sum of atomic charges:    0.0000000

LOEWDIN ATOMIC CHARGES
----------------------
   0 C :   -0.399480
   1 C :    0.019101
   2 O :   -0.662987
   3 P :    0.376536
   4 S :   -0.134671
   5 O :   -0.663243
   6 C :    0.019672
   7 C :   -0.385896
   8 S :    0.170910
   9 C :   -0.418502
  10 S :    0.170720
  11 P :    0.376498
  12 S :   -0.134614
  13 O :   -0.663064
  14 C :    0.019083
  15 C :   -0.399426
  16 O :   -0.663222
  17 C :    0.019677
  18 C :   -0.385895
  19 H :    0.164747
  20 H :    0.159479
  21 H :    0.159192
  22 H :    0.181451
  23 H :    0.181977
  24 H :    0.180721
  25 H :    0.172107
  26 H :    0.160252
  27 H :    0.160067
  28 H :    0.159771
  29 H :    0.189660
  30 H :    0.189630
  31 H :    0.181459
  32 H :    0.181984
  33 H :    0.159461
  34 H :    0.159188
  35 H :    0.164749
  36 H :    0.180754
  37 H :    0.172086
  38 H :    0.159821
  39 H :    0.160183
  40 H :    0.160062

  Mayer bond orders larger than 0.100000
B(  0-C ,  1-C ) :   0.9245 B(  0-C , 19-H ) :   0.9609 B(  0-C , 20-H ) :   0.9727
B(  0-C , 21-H ) :   0.9637 B(  1-C ,  2-O ) :   0.7816 B(  1-C , 22-H ) :   0.9631
B(  1-C , 23-H ) :   0.9634 B(  2-O ,  3-P ) :   1.1714 B(  3-P ,  4-S ) :   1.7308
B(  3-P ,  5-O ) :   1.0939 B(  3-P ,  8-S ) :   1.0552 B(  5-O ,  6-C ) :   0.7779
B(  6-C ,  7-C ) :   0.9573 B(  6-C , 24-H ) :   0.9521 B(  6-C , 25-H ) :   0.9459
B(  7-C , 26-H ) :   0.9714 B(  7-C , 27-H ) :   0.9645 B(  7-C , 28-H ) :   0.9718
B(  8-S ,  9-C ) :   0.9109 B(  9-C , 10-S ) :   0.9107 B(  9-C , 29-H ) :   0.9091
B(  9-C , 30-H ) :   0.9092 B( 10-S , 11-P ) :   1.0556 B( 11-P , 12-S ) :   1.7304
B( 11-P , 13-O ) :   1.1714 B( 11-P , 16-O ) :   1.0940 B( 13-O , 14-C ) :   0.7814
B( 14-C , 15-C ) :   0.9248 B( 14-C , 31-H ) :   0.9631 B( 14-C , 32-H ) :   0.9633
B( 15-C , 33-H ) :   0.9727 B( 15-C , 34-H ) :   0.9637 B( 15-C , 35-H ) :   0.9609
B( 16-O , 17-C ) :   0.7778 B( 17-C , 18-C ) :   0.9572 B( 17-C , 36-H ) :   0.9521
B( 17-C , 37-H ) :   0.9460 B( 18-C , 38-H ) :   0.9718 B( 18-C , 39-H ) :   0.9714
B( 18-C , 40-H ) :   0.9645

Dispersion correction           -0.021136055
FINAL SINGLE POINT ENERGY     -2932.467217678791

DIPOLE MOMENT
-------------

Method             : SCF
Type of density    : Electron Density
Multiplicity       :   1
Irrep              :   0
Energy             : -2932.4922903160831993 Eh
Relativity type    :
Basis              : AO
                                X                 Y                 Z
Electronic contribution:      0.947939174      -1.848114544     -17.095507395
Nuclear contribution   :     -1.011843052       1.970357138      18.217270587
                        -----------------------------------------
Total Dipole Moment    :     -0.063903878       0.122242594       1.121763192
                        -----------------------------------------
Magnitude (a.u.)       :      1.130212200
Magnitude (Debye)      :      2.872771108

Rotational constants in cm-1:             0.013342             0.004587             0.004565
Rotational constants in MHz :           399.971924           137.501186           136.859632

                             ****ORCA TERMINATED NORMALLY****
TOTAL RUN TIME: 0 days 0 hours 1 minutes 17 seconds 47 msec
