                         Program Version 6.0.0  -   RELEASE  -
|  1> ! r2scan-3c def2/J RI DEFGRID2 scfconv6 printgap
|  2> %output
|  3>     printlevel normal
|  4> end
|  5> %cpcm
|  6>     smd true
|  7>     smdsolvent "water"
|  8> end
|  9> * xyz 0 1
| 10> C 2.6805011892 -1.5092116027 2.9269856522
| 11> C 1.4040685632 -1.5284886259 2.1133606547
| 12> O 1.2947500604 -0.3519423237 1.2870418692
| 13> P 2.1843246169 -0.1385969366 -0.000390458
| 14> S 2.8865741186 -1.7458573361 -0.8816243248
| 15> O 3.2823004728 0.8680368889 0.5462774793
| 16> C 4.3933218013 1.2947879642 -0.2691560269
| 17> C 5.4742512023 1.8206848674 0.6535634047
| 18> S 0.9450846788 1.1061975271 -1.1790430691
| 19> C 0.1149992557 -0.2243166433 -2.090134864
| 20> S -0.8259765939 -1.3428617872 -1.0161337772
| 21> P -2.16919076 0.1090406099 -0.2662596656
| 22> S -2.7504711911 1.4890572284 -1.5353448944
| 23> O -1.4213278151 0.5960494768 1.0366280092
| 24> C -1.6040782658 1.9186367192 1.5811495433
| 25> C -2.9611315296 2.0574556667 2.2374483695
| 26> O -3.3335369645 -0.7711932966 0.3559891767
| 27> C -4.3586653501 -1.3648557218 -0.4675068298
| 28> C -5.5382500157 -1.6976230744 0.423688946
| 29> H 3.5397240213 -1.5632223002 2.2592238733
| 30> H 2.74282004 -0.5920513267 3.5064983377
| 31> H 2.6969051232 -2.3644609844 3.5951181372
| 32> H 0.5129692341 -1.4915038096 2.7415982164
| 33> H 1.3646376029 -2.4129106047 1.4686735183
| 34> H 4.7456411857 0.438323357 -0.8539489004
| 35> H 4.0365134073 2.0712476026 -0.9511347402
| 36> H 5.8153520015 1.0327603638 1.3189994067
| 37> H 6.3098857049 2.1722492766 0.057436968
| 38> H 5.085308931 2.6413538644 1.2491050516
| 39> H 0.856775894 -0.8381819181 -2.5999013403
| 40> H -0.5590019849 0.2596152829 -2.7961471842
| 41> H -0.7865899051 2.0232994204 2.2958987054
| 42> H -1.4838370422 2.6484034183 0.7734459967
| 43> H -3.0969803049 1.282613248 2.9871565736
| 44> H -3.0392083752 3.0342204092 2.704288673
| 45> H -3.7423809551 1.9599975864 1.4842725756
| 46> H -4.6348425099 -0.6496557975 -1.2497398417
| 47> H -3.9435662176 -2.2624050118 -0.9337242343
| 48> H -5.2252700464 -2.3727658766 1.2146900265
| 49> H -5.9380277512 -0.7919440817 0.8707698421
| 50> H -6.3102595858 -2.173530098 -0.1719266019
| 51> *
| 52>
| 53>                          ****END OF INPUT****

CARTESIAN COORDINATES (ANGSTROEM)
---------------------------------
  C      2.680501   -1.509212    2.926986
  C      1.404069   -1.528489    2.113361
  O      1.294750   -0.351942    1.287042
  P      2.184325   -0.138597   -0.000390
  S      2.886574   -1.745857   -0.881624
  O      3.282300    0.868037    0.546277
  C      4.393322    1.294788   -0.269156
  C      5.474251    1.820685    0.653563
  S      0.945085    1.106198   -1.179043
  C      0.114999   -0.224317   -2.090135
  S     -0.825977   -1.342862   -1.016134
  P     -2.169191    0.109041   -0.266260
  S     -2.750471    1.489057   -1.535345
  O     -1.421328    0.596049    1.036628
  C     -1.604078    1.918637    1.581150
  C     -2.961132    2.057456    2.237448
  O     -3.333537   -0.771193    0.355989
  C     -4.358665   -1.364856   -0.467507
  C     -5.538250   -1.697623    0.423689
  H      3.539724   -1.563222    2.259224
  H      2.742820   -0.592051    3.506498
  H      2.696905   -2.364461    3.595118
  H      0.512969   -1.491504    2.741598
  H      1.364638   -2.412911    1.468674
  H      4.745641    0.438323   -0.853949
  H      4.036513    2.071248   -0.951135
  H      5.815352    1.032760    1.318999
  H      6.309886    2.172249    0.057437
  H      5.085309    2.641354    1.249105
  H      0.856776   -0.838182   -2.599901
  H     -0.559002    0.259615   -2.796147
  H     -0.786590    2.023299    2.295899
  H     -1.483837    2.648403    0.773446
  H     -3.096980    1.282613    2.987157
  H     -3.039208    3.034220    2.704289
  H     -3.742381    1.959998    1.484273
  H     -4.634843   -0.649656   -1.249740
  H     -3.943566   -2.262405   -0.933724
  H     -5.225270   -2.372766    1.214690
  H     -5.938028   -0.791944    0.870770
  H     -6.310260   -2.173530   -0.171927

 Total Charge           Charge          ....    0
 Multiplicity           Mult            ....    1
 Number of Electrons    NEL             ....  202
 Basis Dimension        Dim             ....  539

ORBITAL ENERGIES
----------------

  NO   OCC          E(Eh)            E(eV)
   0   2.0000     -88.579071     -2410.3591
   1   2.0000     -88.579066     -2410.3589
   2   2.0000     -88.528066     -2408.9712
   3   2.0000     -88.528052     -2408.9708
   4   2.0000     -76.918534     -2093.0597
   5   2.0000     -76.918506     -2093.0589
   6   2.0000     -18.995719      -516.8998
   7   2.0000     -18.995637      -516.8975
   8   2.0000     -18.992278      -516.8062
   9   2.0000     -18.992183      -516.8036
  10   2.0000     -10.105226      -274.9772
  11   2.0000     -10.090239      -274.5694
  12   2.0000     -10.090194      -274.5681
  13   2.0000     -10.089293      -274.5436
  14   2.0000     -10.089196      -274.5410
  15   2.0000     -10.019738      -272.6509
  16   2.0000     -10.019683      -272.6494
  17   2.0000     -10.018472      -272.6165
  18   2.0000     -10.018400      -272.6145
  19   2.0000      -7.873352      -214.2448
  20   2.0000      -7.873351      -214.2448
  21   2.0000      -7.823158      -212.8790
  22   2.0000      -7.823148      -212.8787
  23   2.0000      -6.597249      -179.5203
  24   2.0000      -6.597216      -179.5194
  25   2.0000      -5.820192      -158.3755
  26   2.0000      -5.820187      -158.3754
  27   2.0000      -5.817231      -158.2949
  28   2.0000      -5.817225      -158.2948
  29   2.0000      -5.810514      -158.1121
  30   2.0000      -5.810512      -158.1121
  31   2.0000      -5.770679      -157.0282
  32   2.0000      -5.770674      -157.0280
  33   2.0000      -5.763431      -156.8309
  34   2.0000      -5.763414      -156.8305
  35   2.0000      -5.763235      -156.8256
  36   2.0000      -5.763225      -156.8253
  37   2.0000      -4.742523      -129.0506
  38   2.0000      -4.742488      -129.0497
  39   2.0000      -4.742196      -129.0417
  40   2.0000      -4.742165      -129.0409
  41   2.0000      -4.741180      -129.0141
  42   2.0000      -4.741147      -129.0132
  43   2.0000      -1.053875       -28.6774
  44   2.0000      -1.052512       -28.6403
  45   2.0000      -1.014073       -27.5943
  46   2.0000      -1.012609       -27.5545
  47   2.0000      -0.805050       -21.9065
  48   2.0000      -0.757150       -20.6031
  49   2.0000      -0.744503       -20.2590
  50   2.0000      -0.723999       -19.7010
  51   2.0000      -0.723905       -19.6984
  52   2.0000      -0.708325       -19.2745
  53   2.0000      -0.688070       -18.7233
  54   2.0000      -0.675165       -18.3722
  55   2.0000      -0.630252       -17.1500
  56   2.0000      -0.622680       -16.9440
  57   2.0000      -0.596279       -16.2256
  58   2.0000      -0.591559       -16.0971
  59   2.0000      -0.590210       -16.0604
  60   2.0000      -0.529191       -14.4000
  61   2.0000      -0.521738       -14.1972
  62   2.0000      -0.495617       -13.4864
  63   2.0000      -0.494307       -13.4508
  64   2.0000      -0.473438       -12.8829
  65   2.0000      -0.461693       -12.5633
  66   2.0000      -0.451638       -12.2897
  67   2.0000      -0.448192       -12.1959
  68   2.0000      -0.442389       -12.0380
  69   2.0000      -0.432056       -11.7568
  70   2.0000      -0.421300       -11.4641
  71   2.0000      -0.411007       -11.1841
  72   2.0000      -0.404237       -10.9998
  73   2.0000      -0.399553       -10.8724
  74   2.0000      -0.394597       -10.7375
  75   2.0000      -0.384213       -10.4550
  76   2.0000      -0.383762       -10.4427
  77   2.0000      -0.369370       -10.0511
  78   2.0000      -0.363589        -9.8938
  79   2.0000      -0.362451        -9.8628
  80   2.0000      -0.353921        -9.6307
  81   2.0000      -0.352827        -9.6009
  82   2.0000      -0.350564        -9.5393
  83   2.0000      -0.348027        -9.4703
  84   2.0000      -0.342173        -9.3110
  85   2.0000      -0.329736        -8.9726
  86   2.0000      -0.320432        -8.7194
  87   2.0000      -0.313345        -8.5265
  88   2.0000      -0.312698        -8.5089
  89   2.0000      -0.302784        -8.2392
  90   2.0000      -0.297744        -8.1020
  91   2.0000      -0.293284        -7.9807
  92   2.0000      -0.281085        -7.6487
  93   2.0000      -0.278470        -7.5776
  94   2.0000      -0.274615        -7.4726
  95   2.0000      -0.251298        -6.8382
  96   2.0000      -0.237224        -6.4552
  97   2.0000      -0.235880        -6.4186
  98   2.0000      -0.229353        -6.2410
  99   2.0000      -0.221056        -6.0152
 100   2.0000      -0.219404        -5.9703
 101   0.0000      -0.052275        -1.4225
 102   0.0000      -0.030659        -0.8343
 103   0.0000      -0.002206        -0.0600
 104   0.0000      -0.000461        -0.0125
 105   0.0000       0.012003         0.3266

MULLIKEN ATOMIC CHARGES
-----------------------
   0 C :   -0.485175
   1 C :   -0.148656
   2 O :   -0.291557
   3 P :    0.740478
   4 S :   -0.532410
   5 O :   -0.315057
   6 C :   -0.146868
   7 C :   -0.483276
   8 S :   -0.157482
   9 C :   -0.242685
  10 S :   -0.157735
  11 P :    0.741576
  12 S :   -0.532427
  13 O :   -0.291868
  14 C :   -0.148530
  15 C :   -0.485353
  16 O :   -0.315816
  17 C :   -0.146880
  18 C :   -0.483051
  19 H :    0.167151
  20 H :    0.169433
  21 H :    0.172053
  22 H :    0.179311
  23 H :    0.177013
  24 H :    0.172447
  25 H :    0.172016
  26 H :    0.166239
  27 H :    0.169713
  28 H :    0.166153
  29 H :    0.229823
  30 H :    0.229854
  31 H :    0.179406
  32 H :    0.176843
  33 H :    0.169410
  34 H :    0.172049
  35 H :    0.167354
  36 H :    0.172405
  37 H :    0.171977
  38 H :    0.166124
  39 H :    0.166227
  40 H :    0.169770
Sum of atomic charges:   -0.0000000

LOEWDIN ATOMIC CHARGES
----------------------
   0 C :   -0.402083
   1 C :    0.023034
   2 O :   -0.679710
   3 P :    0.380088
   4 S :   -0.160481
   5 O :   -0.675991
   6 C :    0.024615
   7 C :   -0.389354
   8 S :    0.164556
   9 C :   -0.412294
  10 S :    0.164367
  11 P :    0.380142
  12 S :   -0.160273
  13 O :   -0.679961
  14 C :    0.022948
  15 C :   -0.402101
  16 O :   -0.676048
  17 C :    0.024613
  18 C :   -0.389389
  19 H :    0.162366
  20 H :    0.163932
  21 H :    0.168840
  22 H :    0.190646
  23 H :    0.182691
  24 H :    0.181766
  25 H :    0.179925
  26 H :    0.162706
  27 H :    0.168998
  28 H :    0.163267
  29 H :    0.196471
  30 H :    0.196432
  31 H :    0.190683
  32 H :    0.182653
  33 H :    0.163958
  34 H :    0.168841
  35 H :    0.162469
  36 H :    0.181771
  37 H :    0.179919
  38 H :    0.163302
  39 H :    0.162670
  40 H :    0.169014

  Mayer bond orders larger than 0.100000
B(  0-C ,  1-C ) :   0.9175 B(  0-C , 19-H ) :   0.9603 B(  0-C , 20-H ) :   0.9711
B(  0-C , 21-H ) :   0.9574 B(  1-C ,  2-O ) :   0.7693 B(  1-C , 22-H ) :   0.9525
B(  1-C , 23-H ) :   0.9582 B(  2-O ,  3-P ) :   1.1741 B(  3-P ,  4-S ) :   1.6978
B(  3-P ,  5-O ) :   1.1011 B(  3-P ,  8-S ) :   1.0704 B(  5-O ,  6-C ) :   0.7705
B(  6-C ,  7-C ) :   0.9530 B(  6-C , 24-H ) :   0.9486 B(  6-C , 25-H ) :   0.9371
B(  7-C , 26-H ) :   0.9691 B(  7-C , 27-H ) :   0.9583 B(  7-C , 28-H ) :   0.9689
B(  8-S ,  9-C ) :   0.9018 B(  9-C , 10-S ) :   0.9016 B(  9-C , 29-H ) :   0.9035
B(  9-C , 30-H ) :   0.9036 B( 10-S , 11-P ) :   1.0706 B( 11-P , 12-S ) :   1.6972
B( 11-P , 13-O ) :   1.1737 B( 11-P , 16-O ) :   1.1011 B( 13-O , 14-C ) :   0.7692
B( 14-C , 15-C ) :   0.9180 B( 14-C , 31-H ) :   0.9524 B( 14-C , 32-H ) :   0.9580
B( 15-C , 33-H ) :   0.9710 B( 15-C , 34-H ) :   0.9574 B( 15-C , 35-H ) :   0.9602
B( 16-O , 17-C ) :   0.7706 B( 17-C , 18-C ) :   0.9530 B( 17-C , 36-H ) :   0.9486
B( 17-C , 37-H ) :   0.9372 B( 18-C , 38-H ) :   0.9689 B( 18-C , 39-H ) :   0.9690
B( 18-C , 40-H ) :   0.9583

Dispersion correction           -0.021136055
FINAL SINGLE POINT ENERGY     -2932.475078826450

DIPOLE MOMENT
-------------

Method             : SCF
Type of density    : Electron Density
Multiplicity       :   1
Irrep              :   0
Energy             : -2932.5001514637424407 Eh
Relativity type    :
Basis              : AO
                                X                 Y                 Z
Electronic contribution:      0.937175516      -1.828976240     -16.923601390
Nuclear contribution   :     -1.011843052       1.970357138      18.217270587
                        -----------------------------------------
Total Dipole Moment    :     -0.074667536       0.141380898       1.293669198
                        -----------------------------------------
Magnitude (a.u.)       :      1.303512099
Magnitude (Debye)      :      3.313264446

Rotational constants in cm-1:             0.013342             0.004587             0.004565
Rotational constants in MHz :           399.971924           137.501186           136.859632

                             ****ORCA TERMINATED NORMALLY****
TOTAL RUN TIME: 0 days 0 hours 1 minutes 47 seconds 988 msec
