                         Program Version 6.0.0  -   RELEASE  -
|  1> ! pbe def2-sv(p) def2/J RI DEFGRID1 loosescf d4 GCP(DFT/SV(P)) printgap
|  2> %output
|  3>     printlevel normal
|  4> end
|  5> * xyz 0 1
|  6> C 5.1796710409 -0.429940047 -1.4744313907
|  7> C 4.5302212253 -0.5693268509 -0.1120620822
|  8> O 3.5733212525 0.4750423632 0.1471512517
|  9> P 2.1032534359 0.5514084002 -0.4635195411
| 10> S 1.936586511 0.8631670812 -2.3867271896
| 11> O 1.513774733 1.7340507405 0.3900180389
| 12> C 1.6032241708 1.7662584473 1.8381032526
| 13> C 0.5314693373 2.7051627909 2.3494437625
| 14> S 1.2657919616 -1.2710957719 0.2521396233
| 15> C 0.1798808695 -1.7193775552 -1.1364763275
| 16> S -1.5114850822 -2.0594215061 -0.6066161533
| 17> P -1.9989890305 -0.1072941168 0.0900499138
| 18> S -1.3871244095 1.3722074342 -1.0383660081
| 19> O -1.4853941597 -0.0011462405 1.5729401289
| 20> C -1.8882856278 -0.9492172176 2.6030047345
| 21> C -0.6960515762 -1.2329808394 3.4924327871
| 22> O -3.5699425796 -0.2114899042 0.2985139429
| 23> C -4.4786315109 -0.2704981557 -0.8200057173
| 24> C -5.8760432253 -0.0174824451 -0.2920118732
| 25> H 4.4393074105 -0.5443860276 -2.2632391922
| 26> H 5.6371765882 0.5508873287 -1.5738576861
| 27> H 5.9412015525 -1.1949166577 -1.586515981
| 28> H 5.2625518668 -0.4503768602 0.6888404815
| 29> H 4.0303531114 -1.536845074 -0.0119989703
| 30> H 1.459736146 0.7498107083 2.2175147362
| 31> H 2.6047048061 2.1142914457 2.0979950551
| 32> H 0.5977943701 2.7700245059 3.4307018501
| 33> H 0.6656897335 3.692699796 1.9169381323
| 34> H -0.4515319612 2.3358759796 2.0665091511
| 35> H 0.5491344072 -2.6412406787 -1.578800723
| 36> H 0.1930893729 -0.8999340687 -1.8614237516
| 37> H -2.7041579004 -0.4811614934 3.1553337746
| 38> H -2.251073248 -1.8605865798 2.1201194913
| 39> H -0.3310151742 -0.3106428565 3.9351568265
| 40> H -1.0012986443 -1.9124360866 4.2816329049
| 41> H 0.1038368411 -1.6923405424 2.9163747864
| 42> H -4.1788267603 0.4864658229 -1.5520960307
| 43> H -4.3953919014 -1.2611656028 -1.2749700582
| 44> H -5.9297092886 0.9667235073 0.1646778505
| 45> H -6.5818139642 -0.0698167537 -1.1143531131
| 46> H -6.1320458053 -0.7664927001 0.4514568239
| 47> *
| 48>
| 49>                          ****END OF INPUT****

CARTESIAN COORDINATES (ANGSTROEM)
---------------------------------
  C      5.179671   -0.429940   -1.474431
  C      4.530221   -0.569327   -0.112062
  O      3.573321    0.475042    0.147151
  P      2.103253    0.551408   -0.463520
  S      1.936587    0.863167   -2.386727
  O      1.513775    1.734051    0.390018
  C      1.603224    1.766258    1.838103
  C      0.531469    2.705163    2.349444
  S      1.265792   -1.271096    0.252140
  C      0.179881   -1.719378   -1.136476
  S     -1.511485   -2.059422   -0.606616
  P     -1.998989   -0.107294    0.090050
  S     -1.387124    1.372207   -1.038366
  O     -1.485394   -0.001146    1.572940
  C     -1.888286   -0.949217    2.603005
  C     -0.696052   -1.232981    3.492433
  O     -3.569943   -0.211490    0.298514
  C     -4.478632   -0.270498   -0.820006
  C     -5.876043   -0.017482   -0.292012
  H      4.439307   -0.544386   -2.263239
  H      5.637177    0.550887   -1.573858
  H      5.941202   -1.194917   -1.586516
  H      5.262552   -0.450377    0.688840
  H      4.030353   -1.536845   -0.011999
  H      1.459736    0.749811    2.217515
  H      2.604705    2.114291    2.097995
  H      0.597794    2.770025    3.430702
  H      0.665690    3.692700    1.916938
  H     -0.451532    2.335876    2.066509
  H      0.549134   -2.641241   -1.578801
  H      0.193089   -0.899934   -1.861424
  H     -2.704158   -0.481161    3.155334
  H     -2.251073   -1.860587    2.120119
  H     -0.331015   -0.310643    3.935157
  H     -1.001299   -1.912436    4.281633
  H      0.103837   -1.692341    2.916375
  H     -4.178827    0.486466   -1.552096
  H     -4.395392   -1.261166   -1.274970
  H     -5.929709    0.966724    0.164678
  H     -6.581814   -0.069817   -1.114353
  H     -6.132046   -0.766493    0.451457

 Total Charge           Charge          ....    0
 Multiplicity           Mult            ....    1
 Number of Electrons    NEL             ....  202
 Basis Dimension        Dim             ....  334

ORBITAL ENERGIES
----------------

  NO   OCC          E(Eh)            E(eV)
   0   2.0000     -88.044197     -2395.8044
   1   2.0000     -88.042202     -2395.7501
   2   2.0000     -87.979423     -2394.0418
   3   2.0000     -87.977697     -2393.9948
   4   2.0000     -76.423277     -2079.5831
   5   2.0000     -76.420382     -2079.5043
   6   2.0000     -18.794559      -511.4259
   7   2.0000     -18.793436      -511.3954
   8   2.0000     -18.788366      -511.2574
   9   2.0000     -18.781765      -511.0778
  10   2.0000      -9.959311      -271.0066
  11   2.0000      -9.954399      -270.8730
  12   2.0000      -9.953405      -270.8459
  13   2.0000      -9.951603      -270.7969
  14   2.0000      -9.947521      -270.6858
  15   2.0000      -9.891482      -269.1609
  16   2.0000      -9.890048      -269.1219
  17   2.0000      -9.877224      -268.7729
  18   2.0000      -9.875430      -268.7241
  19   2.0000      -7.689341      -209.2376
  20   2.0000      -7.686590      -209.1628
  21   2.0000      -7.624288      -207.4674
  22   2.0000      -7.622921      -207.4302
  23   2.0000      -6.420879      -174.7210
  24   2.0000      -6.417598      -174.6317
  25   2.0000      -5.717143      -155.5714
  26   2.0000      -5.714358      -155.4956
  27   2.0000      -5.713634      -155.4759
  28   2.0000      -5.710913      -155.4018
  29   2.0000      -5.706629      -155.2853
  30   2.0000      -5.703917      -155.2115
  31   2.0000      -5.653370      -153.8360
  32   2.0000      -5.652068      -153.8006
  33   2.0000      -5.644785      -153.6024
  34   2.0000      -5.644440      -153.5930
  35   2.0000      -5.643419      -153.5652
  36   2.0000      -5.642912      -153.5514
  37   2.0000      -4.643730      -126.3623
  38   2.0000      -4.642760      -126.3359
  39   2.0000      -4.640902      -126.2854
  40   2.0000      -4.640269      -126.2681
  41   2.0000      -4.639555      -126.2487
  42   2.0000      -4.637867      -126.2028
  43   2.0000      -0.990484       -26.9524
  44   2.0000      -0.982051       -26.7230
  45   2.0000      -0.946425       -25.7535
  46   2.0000      -0.936159       -25.4742
  47   2.0000      -0.761838       -20.7307
  48   2.0000      -0.721212       -19.6252
  49   2.0000      -0.710362       -19.3299
  50   2.0000      -0.694414       -18.8960
  51   2.0000      -0.683166       -18.5899
  52   2.0000      -0.674556       -18.3556
  53   2.0000      -0.645858       -17.5747
  54   2.0000      -0.631400       -17.1813
  55   2.0000      -0.586427       -15.9575
  56   2.0000      -0.580726       -15.8023
  57   2.0000      -0.574062       -15.6210
  58   2.0000      -0.568049       -15.4574
  59   2.0000      -0.562482       -15.3059
  60   2.0000      -0.513700       -13.9785
  61   2.0000      -0.501268       -13.6402
  62   2.0000      -0.484532       -13.1848
  63   2.0000      -0.472959       -12.8699
  64   2.0000      -0.451994       -12.2994
  65   2.0000      -0.448752       -12.2112
  66   2.0000      -0.438995       -11.9456
  67   2.0000      -0.435455       -11.8493
  68   2.0000      -0.428008       -11.6467
  69   2.0000      -0.416628       -11.3370
  70   2.0000      -0.405195       -11.0259
  71   2.0000      -0.401352       -10.9213
  72   2.0000      -0.393601       -10.7104
  73   2.0000      -0.379524       -10.3274
  74   2.0000      -0.379364       -10.3230
  75   2.0000      -0.366648        -9.9770
  76   2.0000      -0.360275        -9.8036
  77   2.0000      -0.355496        -9.6735
  78   2.0000      -0.350944        -9.5497
  79   2.0000      -0.348891        -9.4938
  80   2.0000      -0.345556        -9.4031
  81   2.0000      -0.344784        -9.3821
  82   2.0000      -0.340407        -9.2629
  83   2.0000      -0.331525        -9.0213
  84   2.0000      -0.329467        -8.9652
  85   2.0000      -0.316985        -8.6256
  86   2.0000      -0.310701        -8.4546
  87   2.0000      -0.304257        -8.2793
  88   2.0000      -0.301093        -8.1932
  89   2.0000      -0.291271        -7.9259
  90   2.0000      -0.288735        -7.8569
  91   2.0000      -0.275915        -7.5080
  92   2.0000      -0.267138        -7.2692
  93   2.0000      -0.261148        -7.1062
  94   2.0000      -0.256231        -6.9724
  95   2.0000      -0.236963        -6.4481
  96   2.0000      -0.222456        -6.0533
  97   2.0000      -0.209079        -5.6893
  98   2.0000      -0.198632        -5.4050
  99   2.0000      -0.190039        -5.1712
 100   2.0000      -0.180904        -4.9226
 101   0.0000      -0.040347        -1.0979
 102   0.0000      -0.030631        -0.8335
 103   0.0000      -0.004666        -0.1270
 104   0.0000       0.011305         0.3076
 105   0.0000       0.018815         0.5120

MULLIKEN ATOMIC CHARGES
-----------------------
   0 C :   -0.300304
   1 C :   -0.008567
   2 O :   -0.384611
   3 P :    0.614777
   4 S :   -0.286771
   5 O :   -0.345368
   6 C :   -0.019605
   7 C :   -0.286034
   8 S :   -0.136928
   9 C :   -0.342174
  10 S :   -0.117074
  11 P :    0.580040
  12 S :   -0.271297
  13 O :   -0.354262
  14 C :   -0.009816
  15 C :   -0.296245
  16 O :   -0.386276
  17 C :   -0.010584
  18 C :   -0.280836
  19 H :    0.127308
  20 H :    0.117241
  21 H :    0.104870
  22 H :    0.102263
  23 H :    0.100945
  24 H :    0.101621
  25 H :    0.104403
  26 H :    0.098877
  27 H :    0.118749
  28 H :    0.135314
  29 H :    0.178505
  30 H :    0.210600
  31 H :    0.111251
  32 H :    0.103448
  33 H :    0.123074
  34 H :    0.110927
  35 H :    0.131775
  36 H :    0.107868
  37 H :    0.103968
  38 H :    0.121894
  39 H :    0.113862
  40 H :    0.113170
Sum of atomic charges:    0.0000000

LOEWDIN ATOMIC CHARGES
----------------------
   0 C :   -0.367130
   1 C :   -0.118492
   2 O :   -0.249018
   3 P :    0.566903
   4 S :   -0.287802
   5 O :   -0.226124
   6 C :   -0.112951
   7 C :   -0.355661
   8 S :    0.063320
   9 C :   -0.479906
  10 S :    0.058557
  11 P :    0.553286
  12 S :   -0.281293
  13 O :   -0.233045
  14 C :   -0.112704
  15 C :   -0.356802
  16 O :   -0.254055
  17 C :   -0.119419
  18 C :   -0.350505
  19 H :    0.122086
  20 H :    0.127982
  21 H :    0.127251
  22 H :    0.117068
  23 H :    0.101028
  24 H :    0.101833
  25 H :    0.112850
  26 H :    0.123973
  27 H :    0.129712
  28 H :    0.128618
  29 H :    0.135214
  30 H :    0.125865
  31 H :    0.118298
  32 H :    0.104735
  33 H :    0.126794
  34 H :    0.130412
  35 H :    0.122640
  36 H :    0.111290
  37 H :    0.108450
  38 H :    0.129645
  39 H :    0.131750
  40 H :    0.125345

  Mayer bond orders larger than 0.100000
B(  0-C ,  1-C ) :   1.1642 B(  0-C , 19-H ) :   0.9305 B(  0-C , 20-H ) :   0.9473
B(  0-C , 21-H ) :   0.9376 B(  1-C ,  2-O ) :   0.9197 B(  1-C , 22-H ) :   0.9356
B(  1-C , 23-H ) :   0.9152 B(  2-O ,  3-P ) :   1.0702 B(  3-P ,  4-S ) :   1.6522
B(  3-P ,  5-O ) :   1.1439 B(  3-P ,  8-S ) :   0.9390 B(  4-S ,  8-S ) :   0.1153
B(  5-O ,  6-C ) :   0.8918 B(  6-C ,  7-C ) :   1.1678 B(  6-C , 24-H ) :   0.9117
B(  6-C , 25-H ) :   0.9307 B(  7-C , 26-H ) :   0.9390 B(  7-C , 27-H ) :   0.9473
B(  7-C , 28-H ) :   0.9342 B(  8-S ,  9-C ) :   0.9945 B(  9-C , 10-S ) :   1.0016
B(  9-C , 29-H ) :   0.9110 B(  9-C , 30-H ) :   0.8420 B( 10-S , 11-P ) :   0.9347
B( 10-S , 12-S ) :   0.1081 B( 11-P , 12-S ) :   1.6926 B( 11-P , 13-O ) :   1.1196
B( 11-P , 16-O ) :   1.0788 B( 13-O , 14-C ) :   0.8817 B( 14-C , 15-C ) :   1.1686
B( 14-C , 31-H ) :   0.9338 B( 14-C , 32-H ) :   0.9103 B( 15-C , 33-H ) :   0.9431
B( 15-C , 34-H ) :   0.9384 B( 15-C , 35-H ) :   0.9370 B( 16-O , 17-C ) :   0.9043
B( 17-C , 18-C ) :   1.1597 B( 17-C , 36-H ) :   0.9112 B( 17-C , 37-H ) :   0.9286
B( 18-C , 38-H ) :   0.9509 B( 18-C , 39-H ) :   0.9418 B( 18-C , 40-H ) :   0.9511

Dispersion correction           -0.066158671
FINAL SINGLE POINT ENERGY     -2929.519330721213

DIPOLE MOMENT
-------------

Method             : SCF
Type of density    : Electron Density
Multiplicity       :   1
Irrep              :   0
Energy             : -2929.6383621739123555 Eh
Relativity type    :
Basis              : AO
                                X                 Y                 Z
Electronic contribution:      2.053707252       0.843605263     -14.438288969
Nuclear contribution   :     -2.420915023      -2.170203200      16.076818309
                        -----------------------------------------
Total Dipole Moment    :     -0.367207771      -1.326597937       1.638529340
                        -----------------------------------------
Magnitude (a.u.)       :      2.139972437
Magnitude (Debye)      :      5.439377661

Rotational constants in cm-1:             0.012777             0.005145             0.004865
Rotational constants in MHz :           383.036473           154.248648           145.841236

                             ****ORCA TERMINATED NORMALLY****
TOTAL RUN TIME: 0 days 0 hours 0 minutes 21 seconds 443 msec
