                         Program Version 6.0.1  -  RELEASE   -
|  1> ! r2scan-3c def2/J RI DEFGRID2 scfconv6 printgap
|  2> %output
|  3>     printlevel normal
|  4> end
|  5> * xyz 0 1
|  6> C 5.814528935 -1.4998035341 -0.4029558187
|  7> C 4.8426078035 -1.0377742346 -1.4723383611
|  8> O 3.5385199434 -1.5689965177 -1.1629494675
|  9> C 2.4735928399 -0.8757277414 -1.5005738471
| 10> O 2.4961774975 0.190841178 -2.0749545157
| 11> C 1.1984011436 -1.5924459863 -1.0914262197
| 12> C 0.2006725759 -0.574061215 -0.5603793206
| 13> H 0.1196041912 0.2627611714 -1.2687030738
| 14> C 0.6004624319 0.0286311447 0.7707054574
| 15> O -0.2226795633 0.3467650883 1.605794196
| 16> O 1.8934724419 0.1659714676 0.8958339878
| 17> C 2.3967685972 0.8473632821 2.0667023792
| 18> C 2.4007076264 2.350533924 1.8475194472
| 19> S -1.4606129423 -1.2932289623 -0.3608675763
| 20> P -2.4917686145 0.4689548781 0.2404454433
| 21> S -1.74549061 2.188839838 -0.3255435106
| 22> O -3.9309827159 0.1851582623 -0.4222485689
| 23> C -4.1211786165 0.2202283295 -1.8385302419
| 24> O -2.9095822358 0.3840257415 1.7598122055
| 25> C -3.572056713 -0.7701318934 2.3132112681
| 26> H 6.8082964705 -1.1351696169 -0.6406143183
| 27> H 5.5168316862 -1.1160355789 0.5684618646
| 28> H 5.8305134416 -2.5845991055 -0.3613140161
| 29> H 5.1277196672 -1.4172660068 -2.4575927928
| 30> H 4.7700163554 0.0527417394 -1.5203279603
| 31> H 1.4304148807 -2.3554503783 -0.3502980914
| 32> H 0.7761881415 -2.0726190816 -1.9763337183
| 33> H 1.7696160135 0.578900791 2.9209740835
| 34> H 3.4065276986 0.4571379242 2.1926713266
| 35> H 2.8306755707 2.8407142051 2.7145073906
| 36> H 2.9830056978 2.6001023455 0.9644164493
| 37> H 1.3834808357 2.7116723371 1.7045837108
| 38> H -3.6669941187 1.120807017 -2.2556399923
| 39> H -5.1973740392 0.2335394473 -1.9902903585
| 40> H -3.6787831303 -0.6659022992 -2.2937061866
| 41> H -3.6353468865 -0.5724045413 3.3800485802
| 42> H -2.9814618404 -1.666285467 2.1219370985
| 43> H -4.5630894403 -0.8730136103 1.8748588343
| 44> *
| 45>
| 46>                          ****END OF INPUT****

CARTESIAN COORDINATES (ANGSTROEM)
---------------------------------
  C      5.814529   -1.499804   -0.402956
  C      4.842608   -1.037774   -1.472338
  O      3.538520   -1.568997   -1.162949
  C      2.473593   -0.875728   -1.500574
  O      2.496177    0.190841   -2.074955
  C      1.198401   -1.592446   -1.091426
  C      0.200673   -0.574061   -0.560379
  H      0.119604    0.262761   -1.268703
  C      0.600462    0.028631    0.770705
  O     -0.222680    0.346765    1.605794
  O      1.893472    0.165971    0.895834
  C      2.396769    0.847363    2.066702
  C      2.400708    2.350534    1.847519
  S     -1.460613   -1.293229   -0.360868
  P     -2.491769    0.468955    0.240445
  S     -1.745491    2.188840   -0.325544
  O     -3.930983    0.185158   -0.422249
  C     -4.121179    0.220228   -1.838530
  O     -2.909582    0.384026    1.759812
  C     -3.572057   -0.770132    2.313211
  H      6.808296   -1.135170   -0.640614
  H      5.516832   -1.116036    0.568462
  H      5.830513   -2.584599   -0.361314
  H      5.127720   -1.417266   -2.457593
  H      4.770016    0.052742   -1.520328
  H      1.430415   -2.355450   -0.350298
  H      0.776188   -2.072619   -1.976334
  H      1.769616    0.578901    2.920974
  H      3.406528    0.457138    2.192671
  H      2.830676    2.840714    2.714507
  H      2.983006    2.600102    0.964416
  H      1.383481    2.711672    1.704584
  H     -3.666994    1.120807   -2.255640
  H     -5.197374    0.233539   -1.990290
  H     -3.678783   -0.665902   -2.293706
  H     -3.635347   -0.572405    3.380049
  H     -2.981462   -1.666285    2.121937
  H     -4.563089   -0.873014    1.874859

 Total Charge           Charge          ....    0
 Multiplicity           Mult            ....    1
 Number of Electrons    NEL             ....  174
 Basis Dimension        Dim             ....  510

ORBITAL ENERGIES
----------------

  NO   OCC          E(Eh)            E(eV)
   0   2.0000     -88.571708     -2410.1587
   1   2.0000     -88.505557     -2408.3586
   2   2.0000     -76.905423     -2092.7029
   3   2.0000     -19.015012      -517.4248
   4   2.0000     -19.007999      -517.2339
   5   2.0000     -18.981348      -516.5087
   6   2.0000     -18.978003      -516.4177
   7   2.0000     -18.940882      -515.4076
   8   2.0000     -18.935914      -515.2724
   9   2.0000     -10.166863      -276.6544
  10   2.0000     -10.165217      -276.6096
  11   2.0000     -10.101208      -274.8679
  12   2.0000     -10.099856      -274.8310
  13   2.0000     -10.094075      -274.6738
  14   2.0000     -10.089015      -274.5360
  15   2.0000     -10.080846      -274.3138
  16   2.0000     -10.066086      -273.9121
  17   2.0000     -10.040066      -273.2041
  18   2.0000     -10.029660      -272.9209
  19   2.0000      -7.866002      -214.0448
  20   2.0000      -7.800392      -212.2595
  21   2.0000      -6.583100      -179.1353
  22   2.0000      -5.812802      -158.1744
  23   2.0000      -5.809924      -158.0961
  24   2.0000      -5.803141      -157.9115
  25   2.0000      -5.748364      -156.4209
  26   2.0000      -5.740798      -156.2151
  27   2.0000      -5.739930      -156.1914
  28   2.0000      -4.728867      -128.6790
  29   2.0000      -4.728292      -128.6634
  30   2.0000      -4.726492      -128.6144
  31   2.0000      -1.092962       -29.7410
  32   2.0000      -1.083478       -29.4829
  33   2.0000      -1.039082       -28.2749
  34   2.0000      -0.996481       -27.1156
  35   2.0000      -0.992307       -27.0021
  36   2.0000      -0.986518       -26.8445
  37   2.0000      -0.812042       -22.0968
  38   2.0000      -0.761015       -20.7083
  39   2.0000      -0.750055       -20.4100
  40   2.0000      -0.727235       -19.7891
  41   2.0000      -0.697415       -18.9776
  42   2.0000      -0.665877       -18.1194
  43   2.0000      -0.658346       -17.9145
  44   2.0000      -0.645598       -17.5676
  45   2.0000      -0.628721       -17.1084
  46   2.0000      -0.598092       -16.2749
  47   2.0000      -0.545300       -14.8384
  48   2.0000      -0.535614       -14.5748
  49   2.0000      -0.526827       -14.3357
  50   2.0000      -0.496517       -13.5109
  51   2.0000      -0.492701       -13.4071
  52   2.0000      -0.483065       -13.1449
  53   2.0000      -0.474646       -12.9158
  54   2.0000      -0.457988       -12.4625
  55   2.0000      -0.451807       -12.2943
  56   2.0000      -0.444688       -12.1006
  57   2.0000      -0.440390       -11.9836
  58   2.0000      -0.437834       -11.9141
  59   2.0000      -0.429890       -11.6979
  60   2.0000      -0.422953       -11.5091
  61   2.0000      -0.416428       -11.3316
  62   2.0000      -0.407451       -11.0873
  63   2.0000      -0.400902       -10.9091
  64   2.0000      -0.393122       -10.6974
  65   2.0000      -0.382289       -10.4026
  66   2.0000      -0.380314       -10.3489
  67   2.0000      -0.372323       -10.1314
  68   2.0000      -0.366820        -9.9817
  69   2.0000      -0.355357        -9.6698
  70   2.0000      -0.351352        -9.5608
  71   2.0000      -0.345859        -9.4113
  72   2.0000      -0.337603        -9.1867
  73   2.0000      -0.329082        -8.9548
  74   2.0000      -0.319907        -8.7051
  75   2.0000      -0.316583        -8.6147
  76   2.0000      -0.309242        -8.4149
  77   2.0000      -0.304785        -8.2936
  78   2.0000      -0.288388        -7.8474
  79   2.0000      -0.279720        -7.6116
  80   2.0000      -0.277885        -7.5616
  81   2.0000      -0.267197        -7.2708
  82   2.0000      -0.252078        -6.8594
  83   2.0000      -0.245781        -6.6880
  84   2.0000      -0.233249        -6.3470
  85   2.0000      -0.207405        -5.6438
  86   2.0000      -0.199079        -5.4172
  87   0.0000      -0.043883        -1.1941
  88   0.0000      -0.028464        -0.7745
  89   0.0000      -0.016046        -0.4366
  90   0.0000       0.011151         0.3034
  91   0.0000       0.027821         0.7570

MULLIKEN ATOMIC CHARGES
-----------------------
   0 C :   -0.441959
   1 C :   -0.156278
   2 O :   -0.145572
   3 C :    0.312713
   4 O :   -0.407457
   5 C :   -0.385921
   6 C :   -0.017080
   7 H :    0.273190
   8 C :    0.275568
   9 O :   -0.402128
  10 O :   -0.101430
  11 C :   -0.146060
  12 C :   -0.460031
  13 S :   -0.219369
  14 P :    0.811998
  15 S :   -0.462904
  16 O :   -0.364029
  17 C :   -0.300866
  18 O :   -0.301827
  19 C :   -0.291414
  20 H :    0.150947
  21 H :    0.147420
  22 H :    0.154690
  23 H :    0.147986
  24 H :    0.180241
  25 H :    0.192520
  26 H :    0.185712
  27 H :    0.169418
  28 H :    0.146406
  29 H :    0.148547
  30 H :    0.157637
  31 H :    0.185269
  32 H :    0.176195
  33 H :    0.148546
  34 H :    0.153663
  35 H :    0.155467
  36 H :    0.162831
  37 H :    0.167363
Sum of atomic charges:   -0.0000000

LOEWDIN ATOMIC CHARGES
----------------------
   0 C :   -0.384934
   1 C :    0.035361
   2 O :   -0.580978
   3 C :    0.355746
   4 O :   -0.428229
   5 C :   -0.202774
   6 C :   -0.204528
   7 H :    0.224957
   8 C :    0.360204
   9 O :   -0.449258
  10 O :   -0.570069
  11 C :    0.037795
  12 C :   -0.384707
  13 S :    0.187863
  14 P :    0.408893
  15 S :   -0.087956
  16 O :   -0.695540
  17 C :   -0.065655
  18 O :   -0.637976
  19 C :   -0.049650
  20 H :    0.160562
  21 H :    0.157014
  22 H :    0.159906
  23 H :    0.176618
  24 H :    0.191957
  25 H :    0.190750
  26 H :    0.190474
  27 H :    0.190699
  28 H :    0.177511
  29 H :    0.159723
  30 H :    0.160892
  31 H :    0.172900
  32 H :    0.176793
  33 H :    0.175102
  34 H :    0.166489
  35 H :    0.180028
  36 H :    0.171388
  37 H :    0.172631

  Mayer bond orders larger than 0.100000
B(  0-C ,  1-C ) :   0.9453 B(  0-C , 20-H ) :   0.9688 B(  0-C , 21-H ) :   0.9744
B(  0-C , 22-H ) :   0.9692 B(  1-C ,  2-O ) :   0.7712 B(  1-C , 23-H ) :   0.9445
B(  1-C , 24-H ) :   0.9677 B(  2-O ,  3-C ) :   1.1089 B(  3-C ,  4-O ) :   1.8535
B(  3-C ,  5-C ) :   0.9028 B(  5-C ,  6-C ) :   0.8544 B(  5-C , 25-H ) :   0.9976
B(  5-C , 26-H ) :   0.9412 B(  6-C ,  7-H ) :   0.8813 B(  6-C ,  8-C ) :   0.9783
B(  6-C , 13-S ) :   0.8761 B(  8-C ,  9-O ) :   1.8106 B(  8-C , 10-O ) :   1.1692
B(  9-O , 14-P ) :   0.1065 B( 10-O , 11-C ) :   0.7663 B( 11-C , 12-C ) :   0.9413
B( 11-C , 27-H ) :   0.9597 B( 11-C , 28-H ) :   0.9629 B( 12-C , 29-H ) :   0.9653
B( 12-C , 30-H ) :   0.9716 B( 12-C , 31-H ) :   0.9623 B( 13-S , 14-P ) :   0.9643
B( 14-P , 15-S ) :   1.7907 B( 14-P , 16-O ) :   1.0014 B( 14-P , 18-O ) :   1.1867
B( 16-O , 17-C ) :   0.8380 B( 17-C , 32-H ) :   0.9580 B( 17-C , 33-H ) :   0.9694
B( 17-C , 34-H ) :   0.9570 B( 18-O , 19-C ) :   0.7962 B( 19-C , 35-H ) :   0.9657
B( 19-C , 36-H ) :   0.9593 B( 19-C , 37-H ) :   0.9628

Dispersion correction           -0.016890662
FINAL SINGLE POINT ENERGY     -1981.446931460697

DIPOLE MOMENT
-------------

Method             : SCF
Type of density    : Electron Density
Multiplicity       :   1
Irrep              :   0
Energy             : -1981.4676707254297980 Eh
Relativity type    :
Basis              : AO
                                X                 Y                 Z
Electronic contribution:    -18.973885547       2.208236293      -2.519783256
Nuclear contribution   :     20.185284900      -3.827091071       2.935831766
                        -----------------------------------------
Total Dipole Moment    :      1.211399353      -1.618854778       0.416048510
                        -----------------------------------------
Magnitude (a.u.)       :      2.064285723
Magnitude (Debye)      :      5.246997323

Rotational constants in cm-1:             0.017580             0.005469             0.005001
Rotational constants in MHz :           527.031454           163.952783           149.911867

                             ****ORCA TERMINATED NORMALLY****
TOTAL RUN TIME: 0 days 0 hours 1 minutes 13 seconds 942 msec
