                         Program Version 6.0.1  -  RELEASE   -
|  1> ! r2scan-3c def2/J RI DEFGRID2 scfconv6 printgap
|  2> %output
|  3>     printlevel normal
|  4> end
|  5> %cpcm
|  6>     smd true
|  7>     smdsolvent "water"
|  8> end
|  9> * xyz 0 1
| 10> C 5.814528935 -1.4998035341 -0.4029558187
| 11> C 4.8426078035 -1.0377742346 -1.4723383611
| 12> O 3.5385199434 -1.5689965177 -1.1629494675
| 13> C 2.4735928399 -0.8757277414 -1.5005738471
| 14> O 2.4961774975 0.190841178 -2.0749545157
| 15> C 1.1984011436 -1.5924459863 -1.0914262197
| 16> C 0.2006725759 -0.574061215 -0.5603793206
| 17> H 0.1196041912 0.2627611714 -1.2687030738
| 18> C 0.6004624319 0.0286311447 0.7707054574
| 19> O -0.2226795633 0.3467650883 1.605794196
| 20> O 1.8934724419 0.1659714676 0.8958339878
| 21> C 2.3967685972 0.8473632821 2.0667023792
| 22> C 2.4007076264 2.350533924 1.8475194472
| 23> S -1.4606129423 -1.2932289623 -0.3608675763
| 24> P -2.4917686145 0.4689548781 0.2404454433
| 25> S -1.74549061 2.188839838 -0.3255435106
| 26> O -3.9309827159 0.1851582623 -0.4222485689
| 27> C -4.1211786165 0.2202283295 -1.8385302419
| 28> O -2.9095822358 0.3840257415 1.7598122055
| 29> C -3.572056713 -0.7701318934 2.3132112681
| 30> H 6.8082964705 -1.1351696169 -0.6406143183
| 31> H 5.5168316862 -1.1160355789 0.5684618646
| 32> H 5.8305134416 -2.5845991055 -0.3613140161
| 33> H 5.1277196672 -1.4172660068 -2.4575927928
| 34> H 4.7700163554 0.0527417394 -1.5203279603
| 35> H 1.4304148807 -2.3554503783 -0.3502980914
| 36> H 0.7761881415 -2.0726190816 -1.9763337183
| 37> H 1.7696160135 0.578900791 2.9209740835
| 38> H 3.4065276986 0.4571379242 2.1926713266
| 39> H 2.8306755707 2.8407142051 2.7145073906
| 40> H 2.9830056978 2.6001023455 0.9644164493
| 41> H 1.3834808357 2.7116723371 1.7045837108
| 42> H -3.6669941187 1.120807017 -2.2556399923
| 43> H -5.1973740392 0.2335394473 -1.9902903585
| 44> H -3.6787831303 -0.6659022992 -2.2937061866
| 45> H -3.6353468865 -0.5724045413 3.3800485802
| 46> H -2.9814618404 -1.666285467 2.1219370985
| 47> H -4.5630894403 -0.8730136103 1.8748588343
| 48> *
| 49>
| 50>                          ****END OF INPUT****

CARTESIAN COORDINATES (ANGSTROEM)
---------------------------------
  C      5.814529   -1.499804   -0.402956
  C      4.842608   -1.037774   -1.472338
  O      3.538520   -1.568997   -1.162949
  C      2.473593   -0.875728   -1.500574
  O      2.496177    0.190841   -2.074955
  C      1.198401   -1.592446   -1.091426
  C      0.200673   -0.574061   -0.560379
  H      0.119604    0.262761   -1.268703
  C      0.600462    0.028631    0.770705
  O     -0.222680    0.346765    1.605794
  O      1.893472    0.165971    0.895834
  C      2.396769    0.847363    2.066702
  C      2.400708    2.350534    1.847519
  S     -1.460613   -1.293229   -0.360868
  P     -2.491769    0.468955    0.240445
  S     -1.745491    2.188840   -0.325544
  O     -3.930983    0.185158   -0.422249
  C     -4.121179    0.220228   -1.838530
  O     -2.909582    0.384026    1.759812
  C     -3.572057   -0.770132    2.313211
  H      6.808296   -1.135170   -0.640614
  H      5.516832   -1.116036    0.568462
  H      5.830513   -2.584599   -0.361314
  H      5.127720   -1.417266   -2.457593
  H      4.770016    0.052742   -1.520328
  H      1.430415   -2.355450   -0.350298
  H      0.776188   -2.072619   -1.976334
  H      1.769616    0.578901    2.920974
  H      3.406528    0.457138    2.192671
  H      2.830676    2.840714    2.714507
  H      2.983006    2.600102    0.964416
  H      1.383481    2.711672    1.704584
  H     -3.666994    1.120807   -2.255640
  H     -5.197374    0.233539   -1.990290
  H     -3.678783   -0.665902   -2.293706
  H     -3.635347   -0.572405    3.380049
  H     -2.981462   -1.666285    2.121937
  H     -4.563089   -0.873014    1.874859

 Total Charge           Charge          ....    0
 Multiplicity           Mult            ....    1
 Number of Electrons    NEL             ....  174
 Basis Dimension        Dim             ....  510

ORBITAL ENERGIES
----------------

  NO   OCC          E(Eh)            E(eV)
   0   2.0000     -88.579634     -2410.3744
   1   2.0000     -88.524611     -2408.8771
   2   2.0000     -76.919760     -2093.0931
   3   2.0000     -19.017682      -517.4974
   4   2.0000     -19.009112      -517.2642
   5   2.0000     -18.994931      -516.8784
   6   2.0000     -18.988498      -516.7033
   7   2.0000     -18.952828      -515.7327
   8   2.0000     -18.947722      -515.5937
   9   2.0000     -10.176015      -276.9034
  10   2.0000     -10.172876      -276.8180
  11   2.0000     -10.098115      -274.7837
  12   2.0000     -10.089941      -274.5612
  13   2.0000     -10.086024      -274.4547
  14   2.0000     -10.084592      -274.4157
  15   2.0000     -10.078617      -274.2531
  16   2.0000     -10.059706      -273.7385
  17   2.0000     -10.020887      -272.6822
  18   2.0000     -10.019785      -272.6522
  19   2.0000      -7.873811      -214.2573
  20   2.0000      -7.819822      -212.7882
  21   2.0000      -6.597563      -179.5288
  22   2.0000      -5.820649      -158.3879
  23   2.0000      -5.817792      -158.3102
  24   2.0000      -5.810868      -158.1218
  25   2.0000      -5.767640      -156.9455
  26   2.0000      -5.760282      -156.7452
  27   2.0000      -5.759384      -156.7208
  28   2.0000      -4.743311      -129.0721
  29   2.0000      -4.742659      -129.0543
  30   2.0000      -4.741090      -129.0116
  31   2.0000      -1.097108       -29.8538
  32   2.0000      -1.086465       -29.5642
  33   2.0000      -1.051197       -28.6045
  34   2.0000      -1.007226       -27.4080
  35   2.0000      -1.002651       -27.2835
  36   2.0000      -0.996113       -27.1056
  37   2.0000      -0.813965       -22.1491
  38   2.0000      -0.752812       -20.4851
  39   2.0000      -0.745978       -20.2991
  40   2.0000      -0.729175       -19.8419
  41   2.0000      -0.697648       -18.9840
  42   2.0000      -0.667175       -18.1547
  43   2.0000      -0.659231       -17.9386
  44   2.0000      -0.654454       -17.8086
  45   2.0000      -0.620971       -16.8975
  46   2.0000      -0.594397       -16.1744
  47   2.0000      -0.540232       -14.7005
  48   2.0000      -0.535459       -14.5706
  49   2.0000      -0.527365       -14.3503
  50   2.0000      -0.497850       -13.5472
  51   2.0000      -0.495052       -13.4710
  52   2.0000      -0.488711       -13.2985
  53   2.0000      -0.476804       -12.9745
  54   2.0000      -0.461377       -12.5547
  55   2.0000      -0.458078       -12.4649
  56   2.0000      -0.449410       -12.2291
  57   2.0000      -0.445168       -12.1136
  58   2.0000      -0.437573       -11.9070
  59   2.0000      -0.428326       -11.6554
  60   2.0000      -0.424828       -11.5602
  61   2.0000      -0.415840       -11.3156
  62   2.0000      -0.407906       -11.0997
  63   2.0000      -0.401411       -10.9230
  64   2.0000      -0.388532       -10.5725
  65   2.0000      -0.380337       -10.3495
  66   2.0000      -0.369906       -10.0656
  67   2.0000      -0.365900        -9.9567
  68   2.0000      -0.361719        -9.8429
  69   2.0000      -0.352617        -9.5952
  70   2.0000      -0.351857        -9.5745
  71   2.0000      -0.344917        -9.3857
  72   2.0000      -0.335973        -9.1423
  73   2.0000      -0.328942        -8.9510
  74   2.0000      -0.319183        -8.6854
  75   2.0000      -0.315092        -8.5741
  76   2.0000      -0.312180        -8.4949
  77   2.0000      -0.309460        -8.4208
  78   2.0000      -0.291610        -7.9351
  79   2.0000      -0.287664        -7.8277
  80   2.0000      -0.281303        -7.6546
  81   2.0000      -0.276600        -7.5267
  82   2.0000      -0.263567        -7.1720
  83   2.0000      -0.257826        -7.0158
  84   2.0000      -0.242578        -6.6009
  85   2.0000      -0.227010        -6.1773
  86   2.0000      -0.218879        -5.9560
  87   0.0000      -0.052011        -1.4153
  88   0.0000      -0.037778        -1.0280
  89   0.0000      -0.022119        -0.6019
  90   0.0000       0.003387         0.0922
  91   0.0000       0.017078         0.4647

MULLIKEN ATOMIC CHARGES
-----------------------
   0 C :   -0.489683
   1 C :   -0.146203
   2 O :   -0.163938
   3 C :    0.345630
   4 O :   -0.485456
   5 C :   -0.392427
   6 C :   -0.020914
   7 H :    0.275295
   8 C :    0.298236
   9 O :   -0.453922
  10 O :   -0.111087
  11 C :   -0.141914
  12 C :   -0.497814
  13 S :   -0.205930
  14 P :    0.816633
  15 S :   -0.519818
  16 O :   -0.393553
  17 C :   -0.308832
  18 O :   -0.351379
  19 C :   -0.296842
  20 H :    0.171355
  21 H :    0.165468
  22 H :    0.166019
  23 H :    0.174512
  24 H :    0.178598
  25 H :    0.219500
  26 H :    0.222643
  27 H :    0.178914
  28 H :    0.181323
  29 H :    0.175411
  30 H :    0.170752
  31 H :    0.170056
  32 H :    0.175220
  33 H :    0.177221
  34 H :    0.173005
  35 H :    0.181994
  36 H :    0.177869
  37 H :    0.184058
Sum of atomic charges:   -0.0000000

LOEWDIN ATOMIC CHARGES
----------------------
   0 C :   -0.388108
   1 C :    0.040480
   2 O :   -0.580228
   3 C :    0.365311
   4 O :   -0.484738
   5 C :   -0.194359
   6 C :   -0.200533
   7 H :    0.223894
   8 C :    0.366465
   9 O :   -0.491130
  10 O :   -0.566758
  11 C :    0.045891
  12 C :   -0.388988
  13 S :    0.206086
  14 P :    0.406315
  15 S :   -0.134360
  16 O :   -0.707730
  17 C :   -0.060612
  18 O :   -0.670118
  19 C :   -0.041781
  20 H :    0.168895
  21 H :    0.161992
  22 H :    0.162939
  23 H :    0.186539
  24 H :    0.192681
  25 H :    0.203060
  26 H :    0.205096
  27 H :    0.193888
  28 H :    0.192624
  29 H :    0.170055
  30 H :    0.163729
  31 H :    0.163914
  32 H :    0.176404
  33 H :    0.187231
  34 H :    0.174761
  35 H :    0.191290
  36 H :    0.178772
  37 H :    0.181129

  Mayer bond orders larger than 0.100000
B(  0-C ,  1-C ) :   0.9400 B(  0-C , 20-H ) :   0.9622 B(  0-C , 21-H ) :   0.9710
B(  0-C , 22-H ) :   0.9671 B(  1-C ,  2-O ) :   0.7616 B(  1-C , 23-H ) :   0.9363
B(  1-C , 24-H ) :   0.9616 B(  2-O ,  3-C ) :   1.1317 B(  3-C ,  4-O ) :   1.7938
B(  3-C ,  5-C ) :   0.9128 B(  5-C ,  6-C ) :   0.8462 B(  5-C , 25-H ) :   0.9826
B(  5-C , 26-H ) :   0.9321 B(  6-C ,  7-H ) :   0.8860 B(  6-C ,  8-C ) :   0.9692
B(  6-C , 13-S ) :   0.8647 B(  8-C ,  9-O ) :   1.7743 B(  8-C , 10-O ) :   1.1889
B(  9-O , 14-P ) :   0.1074 B( 10-O , 11-C ) :   0.7529 B( 11-C , 12-C ) :   0.9223
B( 11-C , 27-H ) :   0.9566 B( 11-C , 28-H ) :   0.9510 B( 12-C , 29-H ) :   0.9585
B( 12-C , 30-H ) :   0.9714 B( 12-C , 31-H ) :   0.9681 B( 13-S , 14-P ) :   0.9924
B( 14-P , 15-S ) :   1.7765 B( 14-P , 16-O ) :   1.0054 B( 14-P , 18-O ) :   1.1787
B( 16-O , 17-C ) :   0.8298 B( 17-C , 32-H ) :   0.9552 B( 17-C , 33-H ) :   0.9590
B( 17-C , 34-H ) :   0.9502 B( 18-O , 19-C ) :   0.7886 B( 19-C , 35-H ) :   0.9547
B( 19-C , 36-H ) :   0.9489 B( 19-C , 37-H ) :   0.9535

Dispersion correction           -0.016890662
FINAL SINGLE POINT ENERGY     -1981.463069441356

DIPOLE MOMENT
-------------

Method             : SCF
Type of density    : Electron Density
Multiplicity       :   1
Irrep              :   0
Energy             : -1981.4838087060895759 Eh
Relativity type    :
Basis              : AO
                                X                 Y                 Z
Electronic contribution:    -18.557981919       1.230217424      -2.559424474
Nuclear contribution   :     20.185284900      -3.827091071       2.935831766
                        -----------------------------------------
Total Dipole Moment    :      1.627302982      -2.596873647       0.376407293
                        -----------------------------------------
Magnitude (a.u.)       :      3.087644763
Magnitude (Debye)      :      7.848169284

Rotational constants in cm-1:             0.017580             0.005469             0.005001
Rotational constants in MHz :           527.031454           163.952783           149.911867

                             ****ORCA TERMINATED NORMALLY****
TOTAL RUN TIME: 0 days 0 hours 1 minutes 41 seconds 27 msec
