                         Program Version 6.0.0  -   RELEASE  -
|  1> ! pbe def2-sv(p) def2/J RI DEFGRID1 loosescf d4 GCP(DFT/SV(P)) printgap
|  2> %output
|  3>     printlevel normal
|  4> end
|  5> * xyz 0 1
|  6> C 4.0693162646 -1.4996438121 -2.3783204396
|  7> C 4.4220963051 -1.5639899686 -0.9062316837
|  8> O 3.2531744447 -1.5706416499 -0.0690415196
|  9> P 2.2994685547 -0.3101942647 0.0785718873
| 10> S 3.2044954789 1.4320072394 0.153106316
| 11> O 1.4425566221 -0.7064264478 1.3527091142
| 12> C 1.8008562286 -0.2738924949 2.6817586503
| 13> C 3.0701950945 -0.9428215068 3.1647652144
| 14> S 0.8391435094 -0.569549545 -1.4269335004
| 15> C 0.132607884 1.0957703658 -1.2984837823
| 16> S -0.7663187372 1.3686835801 0.245023614
| 17> P -2.599425527 0.3895219668 -0.2908745933
| 18> S -2.8922648035 0.1082766869 -2.2020690777
| 19> O -3.7220358615 1.3081103395 0.3119896601
| 20> C -3.7488813816 1.7120340308 1.7066136846
| 21> C -4.4935338324 3.0274617255 1.7947288775
| 22> O -2.6942140609 -0.8652392806 0.6897592264
| 23> C -1.7913277148 -1.9817040006 0.7484181822
| 24> C -1.9001955043 -2.8824252005 -0.465360567
| 25> H 3.3618843041 -2.2850430436 -2.6325762467
| 26> H 3.6199538669 -0.5354768347 -2.6133310201
| 27> H 4.9709093864 -1.6200628762 -2.9703901044
| 28> H 5.0459082205 -0.7098792649 -0.6233421934
| 29> H 4.9301299881 -2.4957440567 -0.6541403793
| 30> H 1.9128333221 0.8150224653 2.6715814561
| 31> H 0.9385948479 -0.5504381758 3.2896640923
| 32> H 2.9800740308 -2.0228368171 3.0840931836
| 33> H 3.9143903839 -0.6137455343 2.5599297949
| 34> H 3.2506051654 -0.6692008888 4.1995752
| 35> H -0.5499751511 1.2102148693 -2.1411455679
| 36> H 0.9359454433 1.8316578158 -1.3257649506
| 37> H -4.2537582437 0.9230372511 2.2666888962
| 38> H -2.7193820624 1.8115992412 2.0628657715
| 39> H -4.5577426499 3.3325394207 2.8341675074
| 40> H -3.9709966357 3.7923513281 1.227085826
| 41> H -5.4946544273 2.9144105333 1.3888958345
| 42> H -0.7692386855 -1.609539211 0.867024547
| 43> H -2.0947818452 -2.505988725 1.6569018375
| 44> H -1.2777914225 -3.7587016937 -0.315229083
| 45> H -2.9318226596 -3.1920147686 -0.6117670605
| 46> H -1.5635235049 -2.3624222609 -1.3602721053
| 47> *
| 48>
| 49>                          ****END OF INPUT****

CARTESIAN COORDINATES (ANGSTROEM)
---------------------------------
  C      4.069316   -1.499644   -2.378320
  C      4.422096   -1.563990   -0.906232
  O      3.253174   -1.570642   -0.069042
  P      2.299469   -0.310194    0.078572
  S      3.204495    1.432007    0.153106
  O      1.442557   -0.706426    1.352709
  C      1.800856   -0.273892    2.681759
  C      3.070195   -0.942822    3.164765
  S      0.839144   -0.569550   -1.426934
  C      0.132608    1.095770   -1.298484
  S     -0.766319    1.368684    0.245024
  P     -2.599426    0.389522   -0.290875
  S     -2.892265    0.108277   -2.202069
  O     -3.722036    1.308110    0.311990
  C     -3.748881    1.712034    1.706614
  C     -4.493534    3.027462    1.794729
  O     -2.694214   -0.865239    0.689759
  C     -1.791328   -1.981704    0.748418
  C     -1.900196   -2.882425   -0.465361
  H      3.361884   -2.285043   -2.632576
  H      3.619954   -0.535477   -2.613331
  H      4.970909   -1.620063   -2.970390
  H      5.045908   -0.709879   -0.623342
  H      4.930130   -2.495744   -0.654140
  H      1.912833    0.815022    2.671581
  H      0.938595   -0.550438    3.289664
  H      2.980074   -2.022837    3.084093
  H      3.914390   -0.613746    2.559930
  H      3.250605   -0.669201    4.199575
  H     -0.549975    1.210215   -2.141146
  H      0.935945    1.831658   -1.325765
  H     -4.253758    0.923037    2.266689
  H     -2.719382    1.811599    2.062866
  H     -4.557743    3.332539    2.834168
  H     -3.970997    3.792351    1.227086
  H     -5.494654    2.914411    1.388896
  H     -0.769239   -1.609539    0.867025
  H     -2.094782   -2.505989    1.656902
  H     -1.277791   -3.758702   -0.315229
  H     -2.931823   -3.192015   -0.611767
  H     -1.563524   -2.362422   -1.360272

 Total Charge           Charge          ....    0
 Multiplicity           Mult            ....    1
 Number of Electrons    NEL             ....  202
 Basis Dimension        Dim             ....  334

ORBITAL ENERGIES
----------------

  NO   OCC          E(Eh)            E(eV)
   0   2.0000     -88.046453     -2395.8658
   1   2.0000     -88.040396     -2395.7010
   2   2.0000     -87.995797     -2394.4874
   3   2.0000     -87.985089     -2394.1960
   4   2.0000     -76.432274     -2079.8279
   5   2.0000     -76.424611     -2079.6194
   6   2.0000     -18.800082      -511.5762
   7   2.0000     -18.796403      -511.4761
   8   2.0000     -18.791210      -511.3348
   9   2.0000     -18.787767      -511.2411
  10   2.0000      -9.959466      -271.0108
  11   2.0000      -9.958183      -270.9759
  12   2.0000      -9.956267      -270.9238
  13   2.0000      -9.952833      -270.8304
  14   2.0000      -9.946169      -270.6490
  15   2.0000      -9.890029      -269.1214
  16   2.0000      -9.888803      -269.0880
  17   2.0000      -9.888127      -269.0696
  18   2.0000      -9.873355      -268.6676
  19   2.0000      -7.691272      -209.2901
  20   2.0000      -7.685198      -209.1249
  21   2.0000      -7.640625      -207.9120
  22   2.0000      -7.630321      -207.6316
  23   2.0000      -6.429921      -174.9670
  24   2.0000      -6.421998      -174.7514
  25   2.0000      -5.719044      -155.6231
  26   2.0000      -5.715923      -155.5382
  27   2.0000      -5.713029      -155.4594
  28   2.0000      -5.709742      -155.3700
  29   2.0000      -5.708224      -155.3287
  30   2.0000      -5.702253      -155.1662
  31   2.0000      -5.669370      -154.2714
  32   2.0000      -5.661308      -154.0520
  33   2.0000      -5.660945      -154.0421
  34   2.0000      -5.659386      -153.9997
  35   2.0000      -5.650877      -153.7682
  36   2.0000      -5.650346      -153.7537
  37   2.0000      -4.652329      -126.5963
  38   2.0000      -4.651670      -126.5784
  39   2.0000      -4.650513      -126.5469
  40   2.0000      -4.644691      -126.3885
  41   2.0000      -4.643866      -126.3660
  42   2.0000      -4.642306      -126.3236
  43   2.0000      -0.993699       -27.0399
  44   2.0000      -0.986099       -26.8331
  45   2.0000      -0.952806       -25.9272
  46   2.0000      -0.940465       -25.5913
  47   2.0000      -0.765124       -20.8201
  48   2.0000      -0.724204       -19.7066
  49   2.0000      -0.713135       -19.4054
  50   2.0000      -0.692195       -18.8356
  51   2.0000      -0.685638       -18.6571
  52   2.0000      -0.676425       -18.4065
  53   2.0000      -0.652998       -17.7690
  54   2.0000      -0.640929       -17.4406
  55   2.0000      -0.606543       -16.5049
  56   2.0000      -0.583201       -15.8697
  57   2.0000      -0.577685       -15.7196
  58   2.0000      -0.573692       -15.6110
  59   2.0000      -0.564130       -15.3508
  60   2.0000      -0.507462       -13.8087
  61   2.0000      -0.497290       -13.5320
  62   2.0000      -0.479567       -13.0497
  63   2.0000      -0.472334       -12.8529
  64   2.0000      -0.461955       -12.5704
  65   2.0000      -0.447153       -12.1676
  66   2.0000      -0.445286       -12.1168
  67   2.0000      -0.435450       -11.8492
  68   2.0000      -0.428715       -11.6659
  69   2.0000      -0.418998       -11.4015
  70   2.0000      -0.404503       -11.0071
  71   2.0000      -0.400749       -10.9049
  72   2.0000      -0.397817       -10.8251
  73   2.0000      -0.390203       -10.6180
  74   2.0000      -0.386597       -10.5198
  75   2.0000      -0.377649       -10.2764
  76   2.0000      -0.364242        -9.9115
  77   2.0000      -0.358544        -9.7565
  78   2.0000      -0.358307        -9.7500
  79   2.0000      -0.353284        -9.6133
  80   2.0000      -0.348692        -9.4884
  81   2.0000      -0.343270        -9.3408
  82   2.0000      -0.341881        -9.3031
  83   2.0000      -0.338662        -9.2155
  84   2.0000      -0.332192        -9.0394
  85   2.0000      -0.323456        -8.8017
  86   2.0000      -0.316456        -8.6112
  87   2.0000      -0.301639        -8.2080
  88   2.0000      -0.296078        -8.0567
  89   2.0000      -0.293005        -7.9731
  90   2.0000      -0.285967        -7.7816
  91   2.0000      -0.279262        -7.5991
  92   2.0000      -0.273920        -7.4537
  93   2.0000      -0.269656        -7.3377
  94   2.0000      -0.257124        -6.9967
  95   2.0000      -0.236988        -6.4488
  96   2.0000      -0.218875        -5.9559
  97   2.0000      -0.216616        -5.8944
  98   2.0000      -0.208585        -5.6759
  99   2.0000      -0.203971        -5.5503
 100   2.0000      -0.198635        -5.4051
 101   0.0000      -0.047661        -1.2969
 102   0.0000      -0.029161        -0.7935
 103   0.0000      -0.006340        -0.1725
 104   0.0000      -0.000059        -0.0016
 105   0.0000       0.009843         0.2678

MULLIKEN ATOMIC CHARGES
-----------------------
   0 C :   -0.318026
   1 C :   -0.005702
   2 O :   -0.369748
   3 P :    0.612758
   4 S :   -0.332592
   5 O :   -0.356365
   6 C :    0.000608
   7 C :   -0.307231
   8 S :   -0.074819
   9 C :   -0.353552
  10 S :   -0.121029
  11 P :    0.607177
  12 S :   -0.305958
  13 O :   -0.359412
  14 C :   -0.018098
  15 C :   -0.278169
  16 O :   -0.382262
  17 C :   -0.038307
  18 C :   -0.305498
  19 H :    0.120822
  20 H :    0.129468
  21 H :    0.115845
  22 H :    0.112279
  23 H :    0.107530
  24 H :    0.113521
  25 H :    0.103069
  26 H :    0.117091
  27 H :    0.122857
  28 H :    0.113730
  29 H :    0.195998
  30 H :    0.192217
  31 H :    0.111321
  32 H :    0.108195
  33 H :    0.110547
  34 H :    0.122424
  35 H :    0.124844
  36 H :    0.136860
  37 H :    0.096434
  38 H :    0.103482
  39 H :    0.113446
  40 H :    0.134243
Sum of atomic charges:    0.0000000

LOEWDIN ATOMIC CHARGES
----------------------
   0 C :   -0.369435
   1 C :   -0.118577
   2 O :   -0.241700
   3 P :    0.573592
   4 S :   -0.320553
   5 O :   -0.235938
   6 C :   -0.117030
   7 C :   -0.364634
   8 S :    0.106909
   9 C :   -0.485617
  10 S :    0.059591
  11 P :    0.566991
  12 S :   -0.295713
  13 O :   -0.237817
  14 C :   -0.112329
  15 C :   -0.349994
  16 O :   -0.248891
  17 C :   -0.124643
  18 C :   -0.368074
  19 H :    0.125772
  20 H :    0.122349
  21 H :    0.132555
  22 H :    0.111299
  23 H :    0.119872
  24 H :    0.111312
  25 H :    0.117552
  26 H :    0.126618
  27 H :    0.122625
  28 H :    0.131195
  29 H :    0.129138
  30 H :    0.129484
  31 H :    0.117537
  32 H :    0.103958
  33 H :    0.130089
  34 H :    0.130616
  35 H :    0.131620
  36 H :    0.106021
  37 H :    0.115336
  38 H :    0.127436
  39 H :    0.125323
  40 H :    0.116151

  Mayer bond orders larger than 0.100000
B(  0-C ,  1-C ) :   1.1663 B(  0-C , 19-H ) :   0.9445 B(  0-C , 20-H ) :   0.9355
B(  0-C , 21-H ) :   0.9375 B(  1-C ,  2-O ) :   0.9053 B(  1-C , 22-H ) :   0.9167
B(  1-C , 23-H ) :   0.9337 B(  2-O ,  3-P ) :   1.1149 B(  3-P ,  4-S ) :   1.5906
B(  3-P ,  5-O ) :   1.1144 B(  3-P ,  8-S ) :   0.9634 B(  4-S ,  8-S ) :   0.1074
B(  5-O ,  6-C ) :   0.9005 B(  6-C ,  7-C ) :   1.1640 B(  6-C , 24-H ) :   0.9169
B(  6-C , 25-H ) :   0.9341 B(  7-C , 26-H ) :   0.9458 B(  7-C , 27-H ) :   0.9364
B(  7-C , 28-H ) :   0.9391 B(  8-S ,  9-C ) :   0.9992 B(  9-C , 10-S ) :   1.0166
B(  9-C , 29-H ) :   0.8654 B(  9-C , 30-H ) :   0.8754 B( 10-S , 11-P ) :   0.9326
B( 10-S , 12-S ) :   0.1123 B( 11-P , 12-S ) :   1.6544 B( 11-P , 13-O ) :   1.1422
B( 11-P , 16-O ) :   1.0840 B( 13-O , 14-C ) :   0.8906 B( 14-C , 15-C ) :   1.1632
B( 14-C , 31-H ) :   0.9309 B( 14-C , 32-H ) :   0.9154 B( 15-C , 33-H ) :   0.9408
B( 15-C , 34-H ) :   0.9494 B( 15-C , 35-H ) :   0.9488 B( 16-O , 17-C ) :   0.9106
B( 17-C , 18-C ) :   1.1664 B( 17-C , 36-H ) :   0.8982 B( 17-C , 37-H ) :   0.9346
B( 18-C , 38-H ) :   0.9381 B( 18-C , 39-H ) :   0.9452 B( 18-C , 40-H ) :   0.9291

Dispersion correction           -0.064911052
FINAL SINGLE POINT ENERGY     -2929.524130026530

DIPOLE MOMENT
-------------

Method             : SCF
Type of density    : Electron Density
Multiplicity       :   1
Irrep              :   0
Energy             : -2929.6442394981977486 Eh
Relativity type    :
Basis              : AO
                                X                 Y                 Z
Electronic contribution:     -4.844577655       7.303007517     -10.878380633
Nuclear contribution   :      5.557913952      -7.952835281      12.382438659
                        -----------------------------------------
Total Dipole Moment    :      0.713336298      -0.649827764       1.504058027
                        -----------------------------------------
Magnitude (a.u.)       :      1.786984987
Magnitude (Debye)      :      4.542154867

Rotational constants in cm-1:             0.012418             0.004784             0.004407
Rotational constants in MHz :           372.271047           143.428206           132.108603

                             ****ORCA TERMINATED NORMALLY****
TOTAL RUN TIME: 0 days 0 hours 0 minutes 21 seconds 173 msec
