                         Program Version 6.0.0  -   RELEASE  -
|  1> ! wb97x-v def2-tzvp def2/J RIJCOSX DEFGRID2 scfconv7 GCP(DFT/TZ) printgap
|  2> %output
|  3>     printlevel normal
|  4> end
|  5> * xyz 0 1
|  6> C 5.6504752714431214 -1.730466291741669 -1.5932655244108498
|  7> C 4.492289214020727 -0.768275729674088 -1.6234392678826748
|  8> O 3.7398862546248095 -0.9540419672757569 -0.3723897679657413
|  9> P 2.706251178523995 0.1570601761821245 0.1584244823330094
| 10> S 3.324933176075619 1.9929135217844427 0.33397150141651794
| 11> O 2.28317249522764 -0.4397234868037146 1.5816301016311531
| 12> C 1.8618754487640905 -1.844369782092363 1.7529504854218174
| 13> C 2.949211475337151 -2.609966689410067 2.462948739379926
| 14> S 1.0946066446135565 -0.14413066147954265 -1.1987669457799557
| 15> C 0.014559130351830438 1.263008075693005 -0.7263653729155591
| 16> S -1.0389465518677956 1.0021835442772546 0.7515785288250996
| 17> P -2.8636421010127986 0.24849713780498803 -0.07573710450080982
| 18> S -2.851615287780445 0.008612542624914461 -2.007020124744928
| 19> O -3.9686102022478833 1.2376156176781778 0.552066482774687
| 20> C -4.056332757429216 2.621091066500285 0.06818629322849754
| 21> C -4.9160428672955385 3.382278152298798 1.0434485555522495
| 22> O -3.2495456576016992 -1.0143303802404071 0.8348258788901927
| 23> C -2.9470180360070546 -2.3967551484229856 0.43719655190974255
| 24> C -1.5171957778508909 -2.7660961472869268 0.7397108573342391
| 25> H 5.300656390157781 -2.7647922341914493 -1.5278872765921623
| 26> H 6.2260110659936965 -1.6176524349291002 -2.517255334416933
| 27> H 6.309974249575783 -1.5197386616672885 -0.7468296040679601
| 28> H 3.8143381911259544 -0.9726753121970582 -2.457557547686986
| 29> H 4.829790932720024 0.2715864750234641 -1.6742847000971188
| 30> H 0.946743829525225 -1.7896300722498382 2.3459080510685997
| 31> H 1.6240091446332272 -2.278491249745495 0.7771908118116587
| 32> H 2.6018532290605383 -3.633705688545422 2.63879464628929
| 33> H 3.86156561726468 -2.652563652776225 1.861724327343482
| 34> H 3.1790814478652174 -2.1545207906825916 3.4303358636615218
| 35> H -0.6221152148153576 1.4677486306469003 -1.590707018369352
| 36> H 0.6397681695256587 2.137173935635351 -0.5194603580896233
| 37> H -3.0461709935525376 3.0421312995230547 0.010739760429423621
| 38> H -4.494399334373708 2.5981950691307096 -0.9340711878524334
| 39> H -5.026829580726766 4.411152858621929 0.6880077687538191
| 40> H -5.910976849601134 2.935226756572861 1.1196981873979917
| 41> H -4.456520380155813 3.4059383415156126 2.0353842188468416
| 42> H -3.6505298259511836 -2.9890357913185355 1.0253949345008262
| 43> H -3.1858928739110217 -2.510109012640528 -0.6243243670408307
| 44> H -0.8156138194430946 -2.1948725587732274 0.12515928301784926
| 45> H -1.2851721883147231 -2.598845444298795 1.795152766479454
| 46> H -1.378184936622061 -3.829678933146905 0.5185105513747085
| 47> *
| 48>
| 49>                          ****END OF INPUT****

CARTESIAN COORDINATES (ANGSTROEM)
---------------------------------
  C      5.650475   -1.730466   -1.593266
  C      4.492289   -0.768276   -1.623439
  O      3.739886   -0.954042   -0.372390
  P      2.706251    0.157060    0.158424
  S      3.324933    1.992914    0.333972
  O      2.283172   -0.439723    1.581630
  C      1.861875   -1.844370    1.752950
  C      2.949211   -2.609967    2.462949
  S      1.094607   -0.144131   -1.198767
  C      0.014559    1.263008   -0.726365
  S     -1.038947    1.002184    0.751579
  P     -2.863642    0.248497   -0.075737
  S     -2.851615    0.008613   -2.007020
  O     -3.968610    1.237616    0.552066
  C     -4.056333    2.621091    0.068186
  C     -4.916043    3.382278    1.043449
  O     -3.249546   -1.014330    0.834826
  C     -2.947018   -2.396755    0.437197
  C     -1.517196   -2.766096    0.739711
  H      5.300656   -2.764792   -1.527887
  H      6.226011   -1.617652   -2.517255
  H      6.309974   -1.519739   -0.746830
  H      3.814338   -0.972675   -2.457558
  H      4.829791    0.271586   -1.674285
  H      0.946744   -1.789630    2.345908
  H      1.624009   -2.278491    0.777191
  H      2.601853   -3.633706    2.638795
  H      3.861566   -2.652564    1.861724
  H      3.179081   -2.154521    3.430336
  H     -0.622115    1.467749   -1.590707
  H      0.639768    2.137174   -0.519460
  H     -3.046171    3.042131    0.010740
  H     -4.494399    2.598195   -0.934071
  H     -5.026830    4.411153    0.688008
  H     -5.910977    2.935227    1.119698
  H     -4.456520    3.405938    2.035384
  H     -3.650530   -2.989036    1.025395
  H     -3.185893   -2.510109   -0.624324
  H     -0.815614   -2.194873    0.125159
  H     -1.285172   -2.598845    1.795153
  H     -1.378185   -3.829679    0.518511

 Total Charge           Charge          ....    0
 Multiplicity           Mult            ....    1
 Number of Electrons    NEL             ....  202
 Basis Dimension        Dim             ....  757

ORBITAL ENERGIES
----------------

  NO   OCC          E(Eh)            E(eV)
   0   2.0000     -94.145323     -2561.8245
   1   2.0000     -94.145194     -2561.8210
   2   2.0000     -94.090552     -2560.3341
   3   2.0000     -94.080294     -2560.0550
   4   2.0000     -82.123761     -2234.7012
   5   2.0000     -82.120392     -2234.6095
   6   2.0000     -21.717087      -590.9520
   7   2.0000     -21.713033      -590.8417
   8   2.0000     -21.710922      -590.7842
   9   2.0000     -21.710477      -590.7721
  10   2.0000     -12.123700      -329.9027
  11   2.0000     -12.121640      -329.8466
  12   2.0000     -12.119331      -329.7838
  13   2.0000     -12.119272      -329.7822
  14   2.0000     -12.116253      -329.7000
  15   2.0000     -12.054598      -328.0223
  16   2.0000     -12.051511      -327.9383
  17   2.0000     -12.049722      -327.8896
  18   2.0000     -12.049020      -327.8705
  19   2.0000      -9.656810      -262.7752
  20   2.0000      -9.656459      -262.7656
  21   2.0000      -9.603502      -261.3246
  22   2.0000      -9.593023      -261.0394
  23   2.0000      -8.236992      -224.1399
  24   2.0000      -8.233641      -224.0488
  25   2.0000      -7.634529      -207.7461
  26   2.0000      -7.634213      -207.7375
  27   2.0000      -7.633665      -207.7226
  28   2.0000      -7.633116      -207.7077
  29   2.0000      -7.632246      -207.6840
  30   2.0000      -7.631305      -207.6584
  31   2.0000      -7.581094      -206.2921
  32   2.0000      -7.579404      -206.2461
  33   2.0000      -7.579177      -206.2399
  34   2.0000      -7.570593      -206.0063
  35   2.0000      -7.568949      -205.9616
  36   2.0000      -7.568750      -205.9562
  37   2.0000      -6.401214      -174.1859
  38   2.0000      -6.401043      -174.1812
  39   2.0000      -6.400568      -174.1683
  40   2.0000      -6.398047      -174.0997
  41   2.0000      -6.397644      -174.0888
  42   2.0000      -6.396995      -174.0711
  43   2.0000      -1.725712       -46.9590
  44   2.0000      -1.724152       -46.9166
  45   2.0000      -1.700691       -46.2782
  46   2.0000      -1.698668       -46.2231
  47   2.0000      -1.330361       -36.2010
  48   2.0000      -1.318546       -35.8794
  49   2.0000      -1.308606       -35.6090
  50   2.0000      -1.295828       -35.2613
  51   2.0000      -1.289268       -35.0828
  52   2.0000      -1.255111       -34.1533
  53   2.0000      -1.231580       -33.5130
  54   2.0000      -1.209652       -32.9163
  55   2.0000      -1.180494       -32.1229
  56   2.0000      -1.167877       -31.7796
  57   2.0000      -1.154434       -31.4137
  58   2.0000      -1.146666       -31.2024
  59   2.0000      -1.121227       -30.5101
  60   2.0000      -1.083898       -29.4944
  61   2.0000      -1.074456       -29.2374
  62   2.0000      -1.055521       -28.7222
  63   2.0000      -1.050057       -28.5735
  64   2.0000      -0.999755       -27.2047
  65   2.0000      -0.995332       -27.0844
  66   2.0000      -0.992502       -27.0074
  67   2.0000      -0.988518       -26.8989
  68   2.0000      -0.975310       -26.5395
  69   2.0000      -0.970834       -26.4177
  70   2.0000      -0.968416       -26.3519
  71   2.0000      -0.963696       -26.2235
  72   2.0000      -0.919753       -25.0278
  73   2.0000      -0.897560       -24.4238
  74   2.0000      -0.886081       -24.1115
  75   2.0000      -0.881874       -23.9970
  76   2.0000      -0.879132       -23.9224
  77   2.0000      -0.872619       -23.7452
  78   2.0000      -0.865181       -23.5428
  79   2.0000      -0.850722       -23.1493
  80   2.0000      -0.849125       -23.1059
  81   2.0000      -0.843250       -22.9460
  82   2.0000      -0.840692       -22.8764
  83   2.0000      -0.834699       -22.7133
  84   2.0000      -0.831307       -22.6210
  85   2.0000      -0.828988       -22.5579
  86   2.0000      -0.826645       -22.4941
  87   2.0000      -0.824046       -22.4234
  88   2.0000      -0.822983       -22.3945
  89   2.0000      -0.794857       -21.6292
  90   2.0000      -0.793957       -21.6047
  91   2.0000      -0.792140       -21.5552
  92   2.0000      -0.788415       -21.4539
  93   2.0000      -0.771221       -20.9860
  94   2.0000      -0.753097       -20.4928
  95   2.0000      -0.691432       -18.8148
  96   2.0000      -0.679735       -18.4965
  97   2.0000      -0.652933       -17.7672
  98   2.0000      -0.648644       -17.6505
  99   2.0000      -0.643702       -17.5160
 100   2.0000      -0.635180       -17.2841
 101   0.0000      -0.323930        -8.8146
 102   0.0000      -0.316262        -8.6059
 103   0.0000      -0.271926        -7.3995
 104   0.0000      -0.243157        -6.6166
 105   0.0000      -0.237032        -6.4500

MULLIKEN ATOMIC CHARGES
-----------------------
   0 C :   -0.320209
   1 C :   -0.060245
   2 O :   -0.307196
   3 P :    0.599238
   4 S :   -0.398769
   5 O :   -0.283834
   6 C :   -0.029698
   7 C :   -0.331520
   8 S :   -0.141528
   9 C :   -0.180627
  10 S :   -0.130247
  11 P :    0.593873
  12 S :   -0.416095
  13 O :   -0.285261
  14 C :   -0.048638
  15 C :   -0.313789
  16 O :   -0.295621
  17 C :   -0.032304
  18 C :   -0.337532
  19 H :    0.115789
  20 H :    0.117551
  21 H :    0.125248
  22 H :    0.116682
  23 H :    0.127665
  24 H :    0.117123
  25 H :    0.108831
  26 H :    0.110775
  27 H :    0.127660
  28 H :    0.124254
  29 H :    0.173854
  30 H :    0.173129
  31 H :    0.105378
  32 H :    0.125028
  33 H :    0.112121
  34 H :    0.121658
  35 H :    0.120266
  36 H :    0.117942
  37 H :    0.130642
  38 H :    0.121366
  39 H :    0.108902
  40 H :    0.118140
Sum of atomic charges:    0.0000000

LOEWDIN ATOMIC CHARGES
----------------------
   0 C :   -0.303654
   1 C :   -0.317277
   2 O :    0.027365
   3 P :   -0.041592
   4 S :   -0.113157
   5 O :    0.037786
   6 C :   -0.316485
   7 C :   -0.305037
   8 S :    0.339507
   9 C :   -0.707971
  10 S :    0.345467
  11 P :   -0.020654
  12 S :   -0.106421
  13 O :    0.033164
  14 C :   -0.326793
  15 C :   -0.302229
  16 O :    0.036493
  17 C :   -0.315356
  18 C :   -0.318158
  19 H :    0.120999
  20 H :    0.127164
  21 H :    0.124167
  22 H :    0.119868
  23 H :    0.123745
  24 H :    0.124763
  25 H :    0.117253
  26 H :    0.124579
  27 H :    0.121923
  28 H :    0.124184
  29 H :    0.110695
  30 H :    0.113871
  31 H :    0.116695
  32 H :    0.123017
  33 H :    0.125505
  34 H :    0.123304
  35 H :    0.122957
  36 H :    0.127659
  37 H :    0.121346
  38 H :    0.115122
  39 H :    0.119467
  40 H :    0.126716

  Mayer bond orders larger than 0.100000
B(  0-C ,  1-C ) :   1.0090 B(  0-C , 19-H ) :   0.9748 B(  0-C , 20-H ) :   0.9683
B(  0-C , 21-H ) :   0.9754 B(  1-C ,  2-O ) :   0.8866 B(  1-C , 22-H ) :   0.9664
B(  1-C , 23-H ) :   0.9589 B(  2-O ,  3-P ) :   1.1588 B(  3-P ,  4-S ) :   1.8916
B(  3-P ,  5-O ) :   1.2331 B(  3-P ,  8-S ) :   1.0522 B(  5-O ,  6-C ) :   0.8599
B(  6-C ,  7-C ) :   1.0030 B(  6-C , 24-H ) :   0.9653 B(  6-C , 25-H ) :   0.9659
B(  7-C , 26-H ) :   0.9706 B(  7-C , 27-H ) :   0.9755 B(  7-C , 28-H ) :   0.9747
B(  8-S ,  9-C ) :   1.0120 B(  9-C , 10-S ) :   1.0124 B(  9-C , 29-H ) :   0.9268
B(  9-C , 30-H ) :   0.9273 B( 10-S , 11-P ) :   1.0736 B( 11-P , 12-S ) :   1.7939
B( 11-P , 13-O ) :   1.2286 B( 11-P , 16-O ) :   1.2316 B( 13-O , 14-C ) :   0.8893
B( 14-C , 15-C ) :   1.0102 B( 14-C , 31-H ) :   0.9588 B( 14-C , 32-H ) :   0.9659
B( 15-C , 33-H ) :   0.9695 B( 15-C , 34-H ) :   0.9757 B( 15-C , 35-H ) :   0.9747
B( 16-O , 17-C ) :   0.8888 B( 17-C , 18-C ) :   0.9980 B( 17-C , 36-H ) :   0.9708
B( 17-C , 37-H ) :   0.9776 B( 18-C , 38-H ) :   0.9620 B( 18-C , 39-H ) :   0.9696
B( 18-C , 40-H ) :   0.9656

FINAL SINGLE POINT ENERGY     -2932.533629833834

DIPOLE MOMENT
-------------

Method             : SCF
Type of density    : Electron Density
Multiplicity       :   1
Irrep              :   0
Energy             : -2932.5633351668338946 Eh
Relativity type    :
Basis              : AO
                                X                 Y                 Z
Electronic contribution:     -4.421677565      12.291282882      -4.886272677
Nuclear contribution   :      4.406732490     -13.561908809       4.826690425
                        -----------------------------------------
Total Dipole Moment    :     -0.014945075      -1.270625927      -0.059582252
                        -----------------------------------------
Magnitude (a.u.)       :      1.272109920
Magnitude (Debye)      :      3.233446449

Rotational constants in cm-1:             0.012474             0.003996             0.003697
Rotational constants in MHz :           373.950032           119.803107           110.844430

                             ****ORCA TERMINATED NORMALLY****
TOTAL RUN TIME: 0 days 0 hours 13 minutes 47 seconds 8 msec
