                         Program Version 6.0.0  -   RELEASE  -
|  1> ! wb97x-v def2-tzvp def2/J RIJCOSX DEFGRID2 scfconv7 GCP(DFT/TZ) printgap
|  2> %output
|  3>     printlevel normal
|  4> end
|  5> %cpcm
|  6>     smd true
|  7>     smdsolvent "water"
|  8> end
|  9> * xyz 0 1
| 10> C 5.6504752714431214 -1.730466291741669 -1.5932655244108498
| 11> C 4.492289214020727 -0.768275729674088 -1.6234392678826748
| 12> O 3.7398862546248095 -0.9540419672757569 -0.3723897679657413
| 13> P 2.706251178523995 0.1570601761821245 0.1584244823330094
| 14> S 3.324933176075619 1.9929135217844427 0.33397150141651794
| 15> O 2.28317249522764 -0.4397234868037146 1.5816301016311531
| 16> C 1.8618754487640905 -1.844369782092363 1.7529504854218174
| 17> C 2.949211475337151 -2.609966689410067 2.462948739379926
| 18> S 1.0946066446135565 -0.14413066147954265 -1.1987669457799557
| 19> C 0.014559130351830438 1.263008075693005 -0.7263653729155591
| 20> S -1.0389465518677956 1.0021835442772546 0.7515785288250996
| 21> P -2.8636421010127986 0.24849713780498803 -0.07573710450080982
| 22> S -2.851615287780445 0.008612542624914461 -2.007020124744928
| 23> O -3.9686102022478833 1.2376156176781778 0.552066482774687
| 24> C -4.056332757429216 2.621091066500285 0.06818629322849754
| 25> C -4.9160428672955385 3.382278152298798 1.0434485555522495
| 26> O -3.2495456576016992 -1.0143303802404071 0.8348258788901927
| 27> C -2.9470180360070546 -2.3967551484229856 0.43719655190974255
| 28> C -1.5171957778508909 -2.7660961472869268 0.7397108573342391
| 29> H 5.300656390157781 -2.7647922341914493 -1.5278872765921623
| 30> H 6.2260110659936965 -1.6176524349291002 -2.517255334416933
| 31> H 6.309974249575783 -1.5197386616672885 -0.7468296040679601
| 32> H 3.8143381911259544 -0.9726753121970582 -2.457557547686986
| 33> H 4.829790932720024 0.2715864750234641 -1.6742847000971188
| 34> H 0.946743829525225 -1.7896300722498382 2.3459080510685997
| 35> H 1.6240091446332272 -2.278491249745495 0.7771908118116587
| 36> H 2.6018532290605383 -3.633705688545422 2.63879464628929
| 37> H 3.86156561726468 -2.652563652776225 1.861724327343482
| 38> H 3.1790814478652174 -2.1545207906825916 3.4303358636615218
| 39> H -0.6221152148153576 1.4677486306469003 -1.590707018369352
| 40> H 0.6397681695256587 2.137173935635351 -0.5194603580896233
| 41> H -3.0461709935525376 3.0421312995230547 0.010739760429423621
| 42> H -4.494399334373708 2.5981950691307096 -0.9340711878524334
| 43> H -5.026829580726766 4.411152858621929 0.6880077687538191
| 44> H -5.910976849601134 2.935226756572861 1.1196981873979917
| 45> H -4.456520380155813 3.4059383415156126 2.0353842188468416
| 46> H -3.6505298259511836 -2.9890357913185355 1.0253949345008262
| 47> H -3.1858928739110217 -2.510109012640528 -0.6243243670408307
| 48> H -0.8156138194430946 -2.1948725587732274 0.12515928301784926
| 49> H -1.2851721883147231 -2.598845444298795 1.795152766479454
| 50> H -1.378184936622061 -3.829678933146905 0.5185105513747085
| 51> *
| 52>
| 53>                          ****END OF INPUT****

CARTESIAN COORDINATES (ANGSTROEM)
---------------------------------
  C      5.650475   -1.730466   -1.593266
  C      4.492289   -0.768276   -1.623439
  O      3.739886   -0.954042   -0.372390
  P      2.706251    0.157060    0.158424
  S      3.324933    1.992914    0.333972
  O      2.283172   -0.439723    1.581630
  C      1.861875   -1.844370    1.752950
  C      2.949211   -2.609967    2.462949
  S      1.094607   -0.144131   -1.198767
  C      0.014559    1.263008   -0.726365
  S     -1.038947    1.002184    0.751579
  P     -2.863642    0.248497   -0.075737
  S     -2.851615    0.008613   -2.007020
  O     -3.968610    1.237616    0.552066
  C     -4.056333    2.621091    0.068186
  C     -4.916043    3.382278    1.043449
  O     -3.249546   -1.014330    0.834826
  C     -2.947018   -2.396755    0.437197
  C     -1.517196   -2.766096    0.739711
  H      5.300656   -2.764792   -1.527887
  H      6.226011   -1.617652   -2.517255
  H      6.309974   -1.519739   -0.746830
  H      3.814338   -0.972675   -2.457558
  H      4.829791    0.271586   -1.674285
  H      0.946744   -1.789630    2.345908
  H      1.624009   -2.278491    0.777191
  H      2.601853   -3.633706    2.638795
  H      3.861566   -2.652564    1.861724
  H      3.179081   -2.154521    3.430336
  H     -0.622115    1.467749   -1.590707
  H      0.639768    2.137174   -0.519460
  H     -3.046171    3.042131    0.010740
  H     -4.494399    2.598195   -0.934071
  H     -5.026830    4.411153    0.688008
  H     -5.910977    2.935227    1.119698
  H     -4.456520    3.405938    2.035384
  H     -3.650530   -2.989036    1.025395
  H     -3.185893   -2.510109   -0.624324
  H     -0.815614   -2.194873    0.125159
  H     -1.285172   -2.598845    1.795153
  H     -1.378185   -3.829679    0.518511

 Total Charge           Charge          ....    0
 Multiplicity           Mult            ....    1
 Number of Electrons    NEL             ....  202
 Basis Dimension        Dim             ....  757

ORBITAL ENERGIES
----------------

  NO   OCC          E(Eh)            E(eV)
   0   2.0000     -94.147832     -2561.8927
   1   2.0000     -94.147379     -2561.8804
   2   2.0000     -94.096255     -2560.4893
   3   2.0000     -94.091584     -2560.3622
   4   2.0000     -82.128201     -2234.8220
   5   2.0000     -82.126763     -2234.7828
   6   2.0000     -21.715658      -590.9131
   7   2.0000     -21.714554      -590.8831
   8   2.0000     -21.714242      -590.8746
   9   2.0000     -21.713587      -590.8567
  10   2.0000     -12.122792      -329.8779
  11   2.0000     -12.108344      -329.4848
  12   2.0000     -12.106764      -329.4418
  13   2.0000     -12.106467      -329.4337
  14   2.0000     -12.106355      -329.4307
  15   2.0000     -12.035987      -327.5159
  16   2.0000     -12.035434      -327.5008
  17   2.0000     -12.034591      -327.4779
  18   2.0000     -12.033835      -327.4573
  19   2.0000      -9.659214      -262.8406
  20   2.0000      -9.658714      -262.8270
  21   2.0000      -9.609410      -261.4853
  22   2.0000      -9.604731      -261.3580
  23   2.0000      -8.241455      -224.2614
  24   2.0000      -8.239989      -224.2215
  25   2.0000      -7.636925      -207.8113
  26   2.0000      -7.636531      -207.8006
  27   2.0000      -7.636009      -207.7864
  28   2.0000      -7.635447      -207.7711
  29   2.0000      -7.634584      -207.7476
  30   2.0000      -7.633633      -207.7217
  31   2.0000      -7.587009      -206.4530
  32   2.0000      -7.585360      -206.4081
  33   2.0000      -7.585170      -206.4030
  34   2.0000      -7.582312      -206.3252
  35   2.0000      -7.580740      -206.2824
  36   2.0000      -7.580564      -206.2776
  37   2.0000      -6.405667      -174.3071
  38   2.0000      -6.405513      -174.3029
  39   2.0000      -6.405029      -174.2897
  40   2.0000      -6.404369      -174.2717
  41   2.0000      -6.404004      -174.2618
  42   2.0000      -6.403430      -174.2462
  43   2.0000      -1.726961       -46.9930
  44   2.0000      -1.726529       -46.9812
  45   2.0000      -1.702059       -46.3154
  46   2.0000      -1.701081       -46.2888
  47   2.0000      -1.330277       -36.1987
  48   2.0000      -1.313529       -35.7429
  49   2.0000      -1.302898       -35.4537
  50   2.0000      -1.284579       -34.9552
  51   2.0000      -1.278480       -34.7892
  52   2.0000      -1.254241       -34.1296
  53   2.0000      -1.233272       -33.5591
  54   2.0000      -1.213896       -33.0318
  55   2.0000      -1.175889       -31.9976
  56   2.0000      -1.164794       -31.6957
  57   2.0000      -1.146543       -31.1990
  58   2.0000      -1.139241       -31.0003
  59   2.0000      -1.120046       -30.4780
  60   2.0000      -1.079043       -29.3622
  61   2.0000      -1.071061       -29.1450
  62   2.0000      -1.051582       -28.6150
  63   2.0000      -1.047493       -28.5037
  64   2.0000      -0.999368       -27.1942
  65   2.0000      -0.992382       -27.0041
  66   2.0000      -0.990995       -26.9663
  67   2.0000      -0.987963       -26.8838
  68   2.0000      -0.971341       -26.4315
  69   2.0000      -0.969745       -26.3881
  70   2.0000      -0.966312       -26.2947
  71   2.0000      -0.962191       -26.1826
  72   2.0000      -0.920049       -25.0358
  73   2.0000      -0.895818       -24.3764
  74   2.0000      -0.876189       -23.8423
  75   2.0000      -0.871006       -23.7013
  76   2.0000      -0.866837       -23.5878
  77   2.0000      -0.865747       -23.5582
  78   2.0000      -0.860133       -23.4054
  79   2.0000      -0.844095       -22.9690
  80   2.0000      -0.837371       -22.7860
  81   2.0000      -0.835803       -22.7433
  82   2.0000      -0.831393       -22.6233
  83   2.0000      -0.829359       -22.5680
  84   2.0000      -0.828476       -22.5440
  85   2.0000      -0.811968       -22.0948
  86   2.0000      -0.811245       -22.0751
  87   2.0000      -0.810389       -22.0518
  88   2.0000      -0.809463       -22.0266
  89   2.0000      -0.782241       -21.2859
  90   2.0000      -0.779269       -21.2050
  91   2.0000      -0.777825       -21.1657
  92   2.0000      -0.777086       -21.1456
  93   2.0000      -0.772518       -21.0213
  94   2.0000      -0.756420       -20.5832
  95   2.0000      -0.693638       -18.8749
  96   2.0000      -0.682770       -18.5791
  97   2.0000      -0.658827       -17.9276
  98   2.0000      -0.656974       -17.8772
  99   2.0000      -0.654834       -17.8189
 100   2.0000      -0.647826       -17.6282
 101   0.0000      -0.327502        -8.9118
 102   0.0000      -0.320616        -8.7244
 103   0.0000      -0.273601        -7.4451
 104   0.0000      -0.244372        -6.6497
 105   0.0000      -0.239733        -6.5235

MULLIKEN ATOMIC CHARGES
-----------------------
   0 C :   -0.366413
   1 C :   -0.050088
   2 O :   -0.320124
   3 P :    0.617293
   4 S :   -0.458814
   5 O :   -0.332447
   6 C :   -0.029272
   7 C :   -0.379479
   8 S :   -0.142309
   9 C :   -0.178279
  10 S :   -0.150416
  11 P :    0.637792
  12 S :   -0.457333
  13 O :   -0.329536
  14 C :   -0.047331
  15 C :   -0.362037
  16 O :   -0.336521
  17 C :   -0.028582
  18 C :   -0.365510
  19 H :    0.134315
  20 H :    0.139738
  21 H :    0.133394
  22 H :    0.138287
  23 H :    0.130210
  24 H :    0.143417
  25 H :    0.136564
  26 H :    0.140012
  27 H :    0.134321
  28 H :    0.133098
  29 H :    0.194050
  30 H :    0.187099
  31 H :    0.129507
  32 H :    0.137563
  33 H :    0.137154
  34 H :    0.133315
  35 H :    0.132184
  36 H :    0.143986
  37 H :    0.133943
  38 H :    0.113306
  39 H :    0.130384
  40 H :    0.143561
Sum of atomic charges:    0.0000000

LOEWDIN ATOMIC CHARGES
----------------------
   0 C :   -0.305196
   1 C :   -0.311895
   2 O :    0.023857
   3 P :   -0.038543
   4 S :   -0.157298
   5 O :    0.016790
   6 C :   -0.308845
   7 C :   -0.307943
   8 S :    0.344343
   9 C :   -0.701178
  10 S :    0.338137
  11 P :   -0.014846
  12 S :   -0.129956
  13 O :    0.014665
  14 C :   -0.321609
  15 C :   -0.305565
  16 O :    0.019844
  17 C :   -0.310493
  18 C :   -0.316516
  19 H :    0.125076
  20 H :    0.133817
  21 H :    0.125013
  22 H :    0.126854
  23 H :    0.124656
  24 H :    0.132441
  25 H :    0.124952
  26 H :    0.133543
  27 H :    0.121673
  28 H :    0.124918
  29 H :    0.117342
  30 H :    0.117918
  31 H :    0.123461
  32 H :    0.127100
  33 H :    0.133107
  34 H :    0.124840
  35 H :    0.124419
  36 H :    0.135744
  37 H :    0.122388
  38 H :    0.113177
  39 H :    0.125011
  40 H :    0.134794

  Mayer bond orders larger than 0.100000
B(  0-C ,  1-C ) :   1.0156 B(  0-C , 19-H ) :   0.9716 B(  0-C , 20-H ) :   0.9639
B(  0-C , 21-H ) :   0.9725 B(  1-C ,  2-O ) :   0.8615 B(  1-C , 22-H ) :   0.9613
B(  1-C , 23-H ) :   0.9569 B(  2-O ,  3-P ) :   1.1791 B(  3-P ,  4-S ) :   1.8501
B(  3-P ,  5-O ) :   1.2362 B(  3-P ,  8-S ) :   1.0704 B(  5-O ,  6-C ) :   0.8168
B(  6-C ,  7-C ) :   1.0030 B(  6-C , 24-H ) :   0.9591 B(  6-C , 25-H ) :   0.9643
B(  7-C , 26-H ) :   0.9669 B(  7-C , 27-H ) :   0.9741 B(  7-C , 28-H ) :   0.9722
B(  8-S ,  9-C ) :   1.0047 B(  9-C , 10-S ) :   1.0008 B(  9-C , 29-H ) :   0.9243
B(  9-C , 30-H ) :   0.9269 B( 10-S , 11-P ) :   1.0758 B( 11-P , 12-S ) :   1.7725
B( 11-P , 13-O ) :   1.2249 B( 11-P , 16-O ) :   1.2315 B( 13-O , 14-C ) :   0.8591
B( 14-C , 15-C ) :   1.0114 B( 14-C , 31-H ) :   0.9581 B( 14-C , 32-H ) :   0.9631
B( 15-C , 33-H ) :   0.9659 B( 15-C , 34-H ) :   0.9720 B( 15-C , 35-H ) :   0.9724
B( 16-O , 17-C ) :   0.8559 B( 17-C , 18-C ) :   0.9984 B( 17-C , 36-H ) :   0.9637
B( 17-C , 37-H ) :   0.9773 B( 18-C , 38-H ) :   0.9650 B( 18-C , 39-H ) :   0.9681
B( 18-C , 40-H ) :   0.9622

FINAL SINGLE POINT ENERGY     -2932.546205983548

DIPOLE MOMENT
-------------

Method             : SCF
Type of density    : Electron Density
Multiplicity       :   1
Irrep              :   0
Energy             : -2932.5759113165481722 Eh
Relativity type    :
Basis              : AO
                                X                 Y                 Z
Electronic contribution:     -4.449819100      11.826500485      -5.141554273
Nuclear contribution   :      4.406732490     -13.561908809       4.826690425
                        -----------------------------------------
Total Dipole Moment    :     -0.043086610      -1.735408325      -0.314863848
                        -----------------------------------------
Magnitude (a.u.)       :      1.764266916
Magnitude (Debye)      :      4.484410119

Rotational constants in cm-1:             0.012474             0.003996             0.003697
Rotational constants in MHz :           373.950032           119.803107           110.844430

                             ****ORCA TERMINATED NORMALLY****
TOTAL RUN TIME: 0 days 0 hours 14 minutes 36 seconds 942 msec
