                         Program Version 6.0.0  -   RELEASE  -
|  1> ! r2scan-3c def2/J RI DEFGRID2 scfconv6 printgap
|  2> %output
|  3>     printlevel normal
|  4> end
|  5> * xyz 0 1
|  6> C 4.4955647849 -2.3692337041 0.0078389111
|  7> C 4.746673258 -0.8778172626 0.0950688493
|  8> O 3.5848822279 -0.1609312249 0.5503516199
|  9> P 2.2641986622 -0.0342287485 -0.330153741
| 10> S 2.6086127434 0.2329040883 -2.2470329967
| 11> O 1.5192419205 1.1472348255 0.4246335314
| 12> C 1.7853688194 2.5333025568 0.1232733811
| 13> C 0.6523026261 3.3635937425 0.6897084145
| 14> S 1.0709531824 -1.6521895584 0.2615712698
| 15> C -0.1393413513 -1.5768974835 -1.0966835081
| 16> S -0.8391564508 0.0689466146 -1.4061896229
| 17> P -2.1285932474 0.2443412108 0.2594530789
| 18> S -3.2258958141 1.8633163183 0.3464834906
| 19> O -1.079559596 0.0444285229 1.4272124273
| 20> C -1.3460859886 0.4605934354 2.7800225352
| 21> C -2.3834779117 -0.4196620741 3.4444813631
| 22> O -2.9397015397 -1.130634574 0.3109171288
| 23> C -4.2243942331 -1.2759236318 -0.3148768517
| 24> C -4.1224571973 -1.2933849 -1.8271715749
| 25> H 3.7733623859 -2.5778208604 -0.780300666
| 26> H 5.4263940371 -2.8768664797 -0.2237149037
| 27> H 4.103311834 -2.7425439534 0.9504252545
| 28> H 5.0358400349 -0.4781262391 -0.8821563461
| 29> H 5.509584572 -0.637672626 0.8367301752
| 30> H 2.7427479868 2.8026377008 0.5768060397
| 31> H 1.859068825 2.6444006677 -0.9644285713
| 32> H -0.2958658741 3.0631101524 0.2472452848
| 33> H 0.5929331679 3.2300419726 1.7662736897
| 34> H 0.8288154738 4.4103157427 0.4649049418
| 35> H -0.9301188189 -2.2760671625 -0.836182827
| 36> H 0.3496498282 -1.8548377465 -2.0289143465
| 37> H -0.3740008024 0.3852137591 3.2699509995
| 38> H -1.6761408897 1.5045233898 2.7622485928
| 39> H -2.0939353629 -1.4642755637 3.3656600783
| 40> H -2.4699081619 -0.1452641198 4.491197214
| 41> H -3.3498136783 -0.2818087082 2.961631073
| 42> H -4.6051645444 -2.2204937155 0.0760266993
| 43> H -4.8644272201 -0.4506351567 0.0132896416
| 44> H -3.74214945 -0.3364936406 -2.1844294416
| 45> H -3.4532202371 -2.0827620687 -2.1594972867
| 46> H -5.1079236998 -1.4586963843 -2.2507115736
| 47> *
| 48>
| 49>                          ****END OF INPUT****

CARTESIAN COORDINATES (ANGSTROEM)
---------------------------------
  C      4.495565   -2.369234    0.007839
  C      4.746673   -0.877817    0.095069
  O      3.584882   -0.160931    0.550352
  P      2.264199   -0.034229   -0.330154
  S      2.608613    0.232904   -2.247033
  O      1.519242    1.147235    0.424634
  C      1.785369    2.533303    0.123273
  C      0.652303    3.363594    0.689708
  S      1.070953   -1.652190    0.261571
  C     -0.139341   -1.576897   -1.096684
  S     -0.839156    0.068947   -1.406190
  P     -2.128593    0.244341    0.259453
  S     -3.225896    1.863316    0.346483
  O     -1.079560    0.044429    1.427212
  C     -1.346086    0.460593    2.780023
  C     -2.383478   -0.419662    3.444481
  O     -2.939702   -1.130635    0.310917
  C     -4.224394   -1.275924   -0.314877
  C     -4.122457   -1.293385   -1.827172
  H      3.773362   -2.577821   -0.780301
  H      5.426394   -2.876866   -0.223715
  H      4.103312   -2.742544    0.950425
  H      5.035840   -0.478126   -0.882156
  H      5.509585   -0.637673    0.836730
  H      2.742748    2.802638    0.576806
  H      1.859069    2.644401   -0.964429
  H     -0.295866    3.063110    0.247245
  H      0.592933    3.230042    1.766274
  H      0.828815    4.410316    0.464905
  H     -0.930119   -2.276067   -0.836183
  H      0.349650   -1.854838   -2.028914
  H     -0.374001    0.385214    3.269951
  H     -1.676141    1.504523    2.762249
  H     -2.093935   -1.464276    3.365660
  H     -2.469908   -0.145264    4.491197
  H     -3.349814   -0.281809    2.961631
  H     -4.605165   -2.220494    0.076027
  H     -4.864427   -0.450635    0.013290
  H     -3.742149   -0.336494   -2.184429
  H     -3.453220   -2.082762   -2.159497
  H     -5.107924   -1.458696   -2.250712

 Total Charge           Charge          ....    0
 Multiplicity           Mult            ....    1
 Number of Electrons    NEL             ....  202
 Basis Dimension        Dim             ....  539

ORBITAL ENERGIES
----------------

  NO   OCC          E(Eh)            E(eV)
   0   2.0000     -88.574851     -2410.2442
   1   2.0000     -88.574586     -2410.2370
   2   2.0000     -88.523476     -2408.8463
   3   2.0000     -88.518316     -2408.7058
   4   2.0000     -76.913473     -2092.9220
   5   2.0000     -76.911689     -2092.8735
   6   2.0000     -18.993035      -516.8267
   7   2.0000     -18.990566      -516.7596
   8   2.0000     -18.985914      -516.6330
   9   2.0000     -18.981797      -516.5210
  10   2.0000     -10.112274      -275.1690
  11   2.0000     -10.100215      -274.8408
  12   2.0000     -10.096683      -274.7447
  13   2.0000     -10.096185      -274.7312
  14   2.0000     -10.089530      -274.5501
  15   2.0000     -10.030984      -272.9570
  16   2.0000     -10.028918      -272.9007
  17   2.0000     -10.028281      -272.8834
  18   2.0000     -10.021068      -272.6871
  19   2.0000      -7.869379      -214.1367
  20   2.0000      -7.868983      -214.1259
  21   2.0000      -7.818096      -212.7412
  22   2.0000      -7.813008      -212.6028
  23   2.0000      -6.591986      -179.3771
  24   2.0000      -6.590124      -179.3264
  25   2.0000      -5.816412      -158.2726
  26   2.0000      -5.816401      -158.2723
  27   2.0000      -5.813249      -158.1866
  28   2.0000      -5.812490      -158.1659
  29   2.0000      -5.806230      -157.9955
  30   2.0000      -5.805895      -157.9864
  31   2.0000      -5.765706      -156.8928
  32   2.0000      -5.760587      -156.7535
  33   2.0000      -5.758463      -156.6957
  34   2.0000      -5.758077      -156.6852
  35   2.0000      -5.753367      -156.5571
  36   2.0000      -5.753021      -156.5477
  37   2.0000      -4.737251      -128.9072
  38   2.0000      -4.737072      -128.9023
  39   2.0000      -4.735799      -128.8676
  40   2.0000      -4.735566      -128.8613
  41   2.0000      -4.734999      -128.8459
  42   2.0000      -4.733982      -128.8182
  43   2.0000      -1.049423       -28.5563
  44   2.0000      -1.044986       -28.4355
  45   2.0000      -1.010827       -27.5060
  46   2.0000      -1.004727       -27.3400
  47   2.0000      -0.802770       -21.8445
  48   2.0000      -0.757526       -20.6133
  49   2.0000      -0.746628       -20.3168
  50   2.0000      -0.732127       -19.9222
  51   2.0000      -0.727246       -19.7894
  52   2.0000      -0.710588       -19.3361
  53   2.0000      -0.688530       -18.7359
  54   2.0000      -0.668675       -18.1956
  55   2.0000      -0.632404       -17.2086
  56   2.0000      -0.623946       -16.9784
  57   2.0000      -0.606592       -16.5062
  58   2.0000      -0.601426       -16.3656
  59   2.0000      -0.587987       -15.9999
  60   2.0000      -0.524906       -14.2834
  61   2.0000      -0.518952       -14.1214
  62   2.0000      -0.493548       -13.4301
  63   2.0000      -0.489366       -13.3163
  64   2.0000      -0.477956       -13.0059
  65   2.0000      -0.460424       -12.5288
  66   2.0000      -0.457649       -12.4533
  67   2.0000      -0.449646       -12.2355
  68   2.0000      -0.441660       -12.0182
  69   2.0000      -0.437168       -11.8960
  70   2.0000      -0.426588       -11.6080
  71   2.0000      -0.413462       -11.2509
  72   2.0000      -0.410853       -11.1799
  73   2.0000      -0.406825       -11.0703
  74   2.0000      -0.397767       -10.8238
  75   2.0000      -0.388813       -10.5801
  76   2.0000      -0.382905       -10.4194
  77   2.0000      -0.372668       -10.1408
  78   2.0000      -0.368297       -10.0219
  79   2.0000      -0.363518        -9.8918
  80   2.0000      -0.361539        -9.8380
  81   2.0000      -0.360172        -9.8008
  82   2.0000      -0.354929        -9.6581
  83   2.0000      -0.347855        -9.4656
  84   2.0000      -0.342923        -9.3314
  85   2.0000      -0.335444        -9.1279
  86   2.0000      -0.324952        -8.8424
  87   2.0000      -0.310805        -8.4574
  88   2.0000      -0.307469        -8.3667
  89   2.0000      -0.305916        -8.3244
  90   2.0000      -0.296773        -8.0756
  91   2.0000      -0.288244        -7.8435
  92   2.0000      -0.279771        -7.6130
  93   2.0000      -0.278076        -7.5668
  94   2.0000      -0.275421        -7.4946
  95   2.0000      -0.241320        -6.5666
  96   2.0000      -0.229995        -6.2585
  97   2.0000      -0.224661        -6.1133
  98   2.0000      -0.221557        -6.0289
  99   2.0000      -0.213212        -5.8018
 100   2.0000      -0.211664        -5.7597
 101   0.0000      -0.046204        -1.2573
 102   0.0000      -0.020937        -0.5697
 103   0.0000      -0.010114        -0.2752
 104   0.0000       0.002895         0.0788
 105   0.0000       0.005990         0.1630

MULLIKEN ATOMIC CHARGES
-----------------------
   0 C :   -0.455170
   1 C :   -0.150140
   2 O :   -0.314351
   3 P :    0.699884
   4 S :   -0.484016
   5 O :   -0.257090
   6 C :   -0.143069
   7 C :   -0.456354
   8 S :   -0.103605
   9 C :   -0.259685
  10 S :   -0.114559
  11 P :    0.669364
  12 S :   -0.471536
  13 O :   -0.225964
  14 C :   -0.172511
  15 C :   -0.441125
  16 O :   -0.303940
  17 C :   -0.162296
  18 C :   -0.431896
  19 H :    0.176691
  20 H :    0.147753
  21 H :    0.154661
  22 H :    0.174651
  23 H :    0.147118
  24 H :    0.144918
  25 H :    0.169945
  26 H :    0.182235
  27 H :    0.146349
  28 H :    0.144471
  29 H :    0.190398
  30 H :    0.208940
  31 H :    0.159902
  32 H :    0.172671
  33 H :    0.157127
  34 H :    0.146867
  35 H :    0.163158
  36 H :    0.148345
  37 H :    0.171016
  38 H :    0.176684
  39 H :    0.145645
  40 H :    0.148513
Sum of atomic charges:    0.0000000

LOEWDIN ATOMIC CHARGES
----------------------
   0 C :   -0.407790
   1 C :    0.018183
   2 O :   -0.660448
   3 P :    0.370423
   4 S :   -0.130715
   5 O :   -0.674162
   6 C :    0.021819
   7 C :   -0.389618
   8 S :    0.194781
   9 C :   -0.408849
  10 S :    0.193616
  11 P :    0.372210
  12 S :   -0.115328
  13 O :   -0.686150
  14 C :    0.021662
  15 C :   -0.398057
  16 O :   -0.681927
  17 C :    0.016461
  18 C :   -0.402931
  19 H :    0.165119
  20 H :    0.159085
  21 H :    0.159609
  22 H :    0.180150
  23 H :    0.178946
  24 H :    0.170097
  25 H :    0.181699
  26 H :    0.169953
  27 H :    0.157096
  28 H :    0.158877
  29 H :    0.187676
  30 H :    0.189759
  31 H :    0.182562
  32 H :    0.180297
  33 H :    0.161332
  34 H :    0.159026
  35 H :    0.163360
  36 H :    0.178520
  37 H :    0.180357
  38 H :    0.167603
  39 H :    0.155860
  40 H :    0.159836

  Mayer bond orders larger than 0.100000
B(  0-C ,  1-C ) :   0.9197 B(  0-C , 19-H ) :   0.9635 B(  0-C , 20-H ) :   0.9590
B(  0-C , 21-H ) :   0.9682 B(  1-C ,  2-O ) :   0.8166 B(  1-C , 22-H ) :   0.9688
B(  1-C , 23-H ) :   0.9585 B(  2-O ,  3-P ) :   1.0621 B(  3-P ,  4-S ) :   1.7250
B(  3-P ,  5-O ) :   1.1732 B(  3-P ,  8-S ) :   1.1206 B(  5-O ,  6-C ) :   0.7897
B(  6-C ,  7-C ) :   0.9486 B(  6-C , 24-H ) :   0.9425 B(  6-C , 25-H ) :   0.9580
B(  7-C , 26-H ) :   0.9637 B(  7-C , 27-H ) :   0.9690 B(  7-C , 28-H ) :   0.9633
B(  8-S ,  9-C ) :   0.9107 B(  9-C , 10-S ) :   0.9102 B(  9-C , 29-H ) :   0.9177
B(  9-C , 30-H ) :   0.9164 B( 10-S , 11-P ) :   1.0691 B( 11-P , 12-S ) :   1.7924
B( 11-P , 13-O ) :   1.1339 B( 11-P , 16-O ) :   1.0186 B( 13-O , 14-C ) :   0.7829
B( 14-C , 15-C ) :   0.9218 B( 14-C , 31-H ) :   0.9633 B( 14-C , 32-H ) :   0.9599
B( 15-C , 33-H ) :   0.9743 B( 15-C , 34-H ) :   0.9624 B( 15-C , 35-H ) :   0.9627
B( 16-O , 17-C ) :   0.8114 B( 17-C , 18-C ) :   0.9314 B( 17-C , 36-H ) :   0.9595
B( 17-C , 37-H ) :   0.9611 B( 18-C , 38-H ) :   0.9599 B( 18-C , 39-H ) :   0.9704
B( 18-C , 40-H ) :   0.9606

Dispersion correction           -0.022177136
FINAL SINGLE POINT ENERGY     -2932.459911218693

DIPOLE MOMENT
-------------

Method             : SCF
Type of density    : Electron Density
Multiplicity       :   1
Irrep              :   0
Energy             : -2932.4842236757353930 Eh
Relativity type    :
Basis              : AO
                                X                 Y                 Z
Electronic contribution:      2.744718019       2.748784663      -8.125001149
Nuclear contribution   :     -2.665430259      -3.810511328       9.077916031
                        -----------------------------------------
Total Dipole Moment    :      0.079287759      -1.061726665       0.952914882
                        -----------------------------------------
Magnitude (a.u.)       :      1.428844580
Magnitude (Debye)      :      3.631834295

Rotational constants in cm-1:             0.012643             0.005186             0.004931
Rotational constants in MHz :           379.039533           155.474619           147.814331

                             ****ORCA TERMINATED NORMALLY****
TOTAL RUN TIME: 0 days 0 hours 1 minutes 25 seconds 861 msec
