                         Program Version 6.0.0  -   RELEASE  -
|  1> ! r2scan-3c def2/J RI DEFGRID2 scfconv6 printgap
|  2> %output
|  3>     printlevel normal
|  4> end
|  5> %cpcm
|  6>     smd true
|  7>     smdsolvent "water"
|  8> end
|  9> * xyz 0 1
| 10> C 4.4955647849 -2.3692337041 0.0078389111
| 11> C 4.746673258 -0.8778172626 0.0950688493
| 12> O 3.5848822279 -0.1609312249 0.5503516199
| 13> P 2.2641986622 -0.0342287485 -0.330153741
| 14> S 2.6086127434 0.2329040883 -2.2470329967
| 15> O 1.5192419205 1.1472348255 0.4246335314
| 16> C 1.7853688194 2.5333025568 0.1232733811
| 17> C 0.6523026261 3.3635937425 0.6897084145
| 18> S 1.0709531824 -1.6521895584 0.2615712698
| 19> C -0.1393413513 -1.5768974835 -1.0966835081
| 20> S -0.8391564508 0.0689466146 -1.4061896229
| 21> P -2.1285932474 0.2443412108 0.2594530789
| 22> S -3.2258958141 1.8633163183 0.3464834906
| 23> O -1.079559596 0.0444285229 1.4272124273
| 24> C -1.3460859886 0.4605934354 2.7800225352
| 25> C -2.3834779117 -0.4196620741 3.4444813631
| 26> O -2.9397015397 -1.130634574 0.3109171288
| 27> C -4.2243942331 -1.2759236318 -0.3148768517
| 28> C -4.1224571973 -1.2933849 -1.8271715749
| 29> H 3.7733623859 -2.5778208604 -0.780300666
| 30> H 5.4263940371 -2.8768664797 -0.2237149037
| 31> H 4.103311834 -2.7425439534 0.9504252545
| 32> H 5.0358400349 -0.4781262391 -0.8821563461
| 33> H 5.509584572 -0.637672626 0.8367301752
| 34> H 2.7427479868 2.8026377008 0.5768060397
| 35> H 1.859068825 2.6444006677 -0.9644285713
| 36> H -0.2958658741 3.0631101524 0.2472452848
| 37> H 0.5929331679 3.2300419726 1.7662736897
| 38> H 0.8288154738 4.4103157427 0.4649049418
| 39> H -0.9301188189 -2.2760671625 -0.836182827
| 40> H 0.3496498282 -1.8548377465 -2.0289143465
| 41> H -0.3740008024 0.3852137591 3.2699509995
| 42> H -1.6761408897 1.5045233898 2.7622485928
| 43> H -2.0939353629 -1.4642755637 3.3656600783
| 44> H -2.4699081619 -0.1452641198 4.491197214
| 45> H -3.3498136783 -0.2818087082 2.961631073
| 46> H -4.6051645444 -2.2204937155 0.0760266993
| 47> H -4.8644272201 -0.4506351567 0.0132896416
| 48> H -3.74214945 -0.3364936406 -2.1844294416
| 49> H -3.4532202371 -2.0827620687 -2.1594972867
| 50> H -5.1079236998 -1.4586963843 -2.2507115736
| 51> *
| 52>
| 53>                          ****END OF INPUT****

CARTESIAN COORDINATES (ANGSTROEM)
---------------------------------
  C      4.495565   -2.369234    0.007839
  C      4.746673   -0.877817    0.095069
  O      3.584882   -0.160931    0.550352
  P      2.264199   -0.034229   -0.330154
  S      2.608613    0.232904   -2.247033
  O      1.519242    1.147235    0.424634
  C      1.785369    2.533303    0.123273
  C      0.652303    3.363594    0.689708
  S      1.070953   -1.652190    0.261571
  C     -0.139341   -1.576897   -1.096684
  S     -0.839156    0.068947   -1.406190
  P     -2.128593    0.244341    0.259453
  S     -3.225896    1.863316    0.346483
  O     -1.079560    0.044429    1.427212
  C     -1.346086    0.460593    2.780023
  C     -2.383478   -0.419662    3.444481
  O     -2.939702   -1.130635    0.310917
  C     -4.224394   -1.275924   -0.314877
  C     -4.122457   -1.293385   -1.827172
  H      3.773362   -2.577821   -0.780301
  H      5.426394   -2.876866   -0.223715
  H      4.103312   -2.742544    0.950425
  H      5.035840   -0.478126   -0.882156
  H      5.509585   -0.637673    0.836730
  H      2.742748    2.802638    0.576806
  H      1.859069    2.644401   -0.964429
  H     -0.295866    3.063110    0.247245
  H      0.592933    3.230042    1.766274
  H      0.828815    4.410316    0.464905
  H     -0.930119   -2.276067   -0.836183
  H      0.349650   -1.854838   -2.028914
  H     -0.374001    0.385214    3.269951
  H     -1.676141    1.504523    2.762249
  H     -2.093935   -1.464276    3.365660
  H     -2.469908   -0.145264    4.491197
  H     -3.349814   -0.281809    2.961631
  H     -4.605165   -2.220494    0.076027
  H     -4.864427   -0.450635    0.013290
  H     -3.742149   -0.336494   -2.184429
  H     -3.453220   -2.082762   -2.159497
  H     -5.107924   -1.458696   -2.250712

 Total Charge           Charge          ....    0
 Multiplicity           Mult            ....    1
 Number of Electrons    NEL             ....  202
 Basis Dimension        Dim             ....  539

ORBITAL ENERGIES
----------------

  NO   OCC          E(Eh)            E(eV)
   0   2.0000     -88.577225     -2410.3088
   1   2.0000     -88.577181     -2410.3076
   2   2.0000     -88.529912     -2409.0214
   3   2.0000     -88.526320     -2408.9236
   4   2.0000     -76.917578     -2093.0337
   5   2.0000     -76.917356     -2093.0277
   6   2.0000     -18.993978      -516.8524
   7   2.0000     -18.991974      -516.7979
   8   2.0000     -18.988486      -516.7030
   9   2.0000     -18.988045      -516.6910
  10   2.0000     -10.107598      -275.0417
  11   2.0000     -10.088665      -274.5265
  12   2.0000     -10.088513      -274.5224
  13   2.0000     -10.088266      -274.5157
  14   2.0000     -10.087106      -274.4841
  15   2.0000     -10.018288      -272.6115
  16   2.0000     -10.018241      -272.6102
  17   2.0000     -10.017901      -272.6010
  18   2.0000     -10.017644      -272.5940
  19   2.0000      -7.871896      -214.2052
  20   2.0000      -7.871498      -214.1944
  21   2.0000      -7.824885      -212.9260
  22   2.0000      -7.821322      -212.8290
  23   2.0000      -6.596082      -179.4885
  24   2.0000      -6.595895      -179.4834
  25   2.0000      -5.818917      -158.3408
  26   2.0000      -5.818878      -158.3397
  27   2.0000      -5.815754      -158.2547
  28   2.0000      -5.814981      -158.2337
  29   2.0000      -5.808788      -158.0652
  30   2.0000      -5.808477      -158.0567
  31   2.0000      -5.772411      -157.0753
  32   2.0000      -5.768832      -156.9779
  33   2.0000      -5.765275      -156.8811
  34   2.0000      -5.764862      -156.8699
  35   2.0000      -5.761672      -156.7831
  36   2.0000      -5.761353      -156.7744
  37   2.0000      -4.741504      -129.0229
  38   2.0000      -4.741099      -129.0119
  39   2.0000      -4.740978      -129.0086
  40   2.0000      -4.740964      -129.0082
  41   2.0000      -4.739974      -128.9813
  42   2.0000      -4.739805      -128.9766
  43   2.0000      -1.050186       -28.5770
  44   2.0000      -1.048953       -28.5435
  45   2.0000      -1.010824       -27.5059
  46   2.0000      -1.008842       -27.4520
  47   2.0000      -0.802462       -21.8361
  48   2.0000      -0.755510       -20.5585
  49   2.0000      -0.741805       -20.1855
  50   2.0000      -0.722356       -19.6563
  51   2.0000      -0.721811       -19.6415
  52   2.0000      -0.709518       -19.3070
  53   2.0000      -0.691987       -18.8299
  54   2.0000      -0.674478       -18.3535
  55   2.0000      -0.630362       -17.1530
  56   2.0000      -0.620967       -16.8974
  57   2.0000      -0.599451       -16.3119
  58   2.0000      -0.597271       -16.2526
  59   2.0000      -0.586070       -15.9478
  60   2.0000      -0.524056       -14.2603
  61   2.0000      -0.514257       -13.9936
  62   2.0000      -0.489360       -13.3162
  63   2.0000      -0.487842       -13.2748
  64   2.0000      -0.476657       -12.9705
  65   2.0000      -0.455985       -12.4080
  66   2.0000      -0.454016       -12.3544
  67   2.0000      -0.446652       -12.1540
  68   2.0000      -0.438517       -11.9326
  69   2.0000      -0.432973       -11.7818
  70   2.0000      -0.422468       -11.4959
  71   2.0000      -0.411260       -11.1910
  72   2.0000      -0.407685       -11.0937
  73   2.0000      -0.404138       -10.9971
  74   2.0000      -0.396490       -10.7890
  75   2.0000      -0.385912       -10.5012
  76   2.0000      -0.379718       -10.3327
  77   2.0000      -0.366529        -9.9738
  78   2.0000      -0.363102        -9.8805
  79   2.0000      -0.356803        -9.7091
  80   2.0000      -0.355165        -9.6645
  81   2.0000      -0.352323        -9.5872
  82   2.0000      -0.348357        -9.4793
  83   2.0000      -0.344481        -9.3738
  84   2.0000      -0.340996        -9.2790
  85   2.0000      -0.332791        -9.0557
  86   2.0000      -0.322484        -8.7752
  87   2.0000      -0.307536        -8.3685
  88   2.0000      -0.305022        -8.3001
  89   2.0000      -0.302098        -8.2205
  90   2.0000      -0.297582        -8.0976
  91   2.0000      -0.287899        -7.8341
  92   2.0000      -0.279828        -7.6145
  93   2.0000      -0.277359        -7.5473
  94   2.0000      -0.276455        -7.5227
  95   2.0000      -0.245100        -6.6695
  96   2.0000      -0.235731        -6.4146
  97   2.0000      -0.232207        -6.3187
  98   2.0000      -0.229097        -6.2341
  99   2.0000      -0.220139        -5.9903
 100   2.0000      -0.217810        -5.9269
 101   0.0000      -0.049259        -1.3404
 102   0.0000      -0.025567        -0.6957
 103   0.0000      -0.013527        -0.3681
 104   0.0000       0.000124         0.0034
 105   0.0000       0.003653         0.0994

MULLIKEN ATOMIC CHARGES
-----------------------
   0 C :   -0.489808
   1 C :   -0.149421
   2 O :   -0.341573
   3 P :    0.732089
   4 S :   -0.535602
   5 O :   -0.284084
   6 C :   -0.140530
   7 C :   -0.501255
   8 S :   -0.109279
   9 C :   -0.266517
  10 S :   -0.147706
  11 P :    0.710237
  12 S :   -0.528286
  13 O :   -0.257745
  14 C :   -0.166214
  15 C :   -0.482123
  16 O :   -0.318800
  17 C :   -0.157780
  18 C :   -0.471092
  19 H :    0.173140
  20 H :    0.172474
  21 H :    0.169026
  22 H :    0.177992
  23 H :    0.173973
  24 H :    0.170006
  25 H :    0.171760
  26 H :    0.171058
  27 H :    0.169230
  28 H :    0.169310
  29 H :    0.229981
  30 H :    0.234810
  31 H :    0.180703
  32 H :    0.177861
  33 H :    0.170227
  34 H :    0.171706
  35 H :    0.167323
  36 H :    0.174569
  37 H :    0.173888
  38 H :    0.166894
  39 H :    0.168619
  40 H :    0.170939
Sum of atomic charges:    0.0000000

LOEWDIN ATOMIC CHARGES
----------------------
   0 C :   -0.410406
   1 C :    0.023306
   2 O :   -0.673550
   3 P :    0.374929
   4 S :   -0.163493
   5 O :   -0.691237
   6 C :    0.025080
   7 C :   -0.395236
   8 S :    0.195039
   9 C :   -0.396523
  10 S :    0.177156
  11 P :    0.378201
  12 S :   -0.152242
  13 O :   -0.700107
  14 C :    0.025332
  15 C :   -0.401324
  16 O :   -0.684919
  17 C :    0.023006
  18 C :   -0.406922
  19 H :    0.161507
  20 H :    0.168196
  21 H :    0.163433
  22 H :    0.181132
  23 H :    0.190285
  24 H :    0.180098
  25 H :    0.181976
  26 H :    0.163439
  27 H :    0.163066
  28 H :    0.167995
  29 H :    0.202619
  30 H :    0.199034
  31 H :    0.190550
  32 H :    0.182178
  33 H :    0.164452
  34 H :    0.168305
  35 H :    0.162714
  36 H :    0.190063
  37 H :    0.180891
  38 H :    0.161587
  39 H :    0.162808
  40 H :    0.167580

  Mayer bond orders larger than 0.100000
B(  0-C ,  1-C ) :   0.9089 B(  0-C , 19-H ) :   0.9638 B(  0-C , 20-H ) :   0.9536
B(  0-C , 21-H ) :   0.9653 B(  1-C ,  2-O ) :   0.8045 B(  1-C , 22-H ) :   0.9666
B(  1-C , 23-H ) :   0.9489 B(  2-O ,  3-P ) :   1.0692 B(  3-P ,  4-S ) :   1.6804
B(  3-P ,  5-O ) :   1.1732 B(  3-P ,  8-S ) :   1.1393 B(  5-O ,  6-C ) :   0.7838
B(  6-C ,  7-C ) :   0.9386 B(  6-C , 24-H ) :   0.9343 B(  6-C , 25-H ) :   0.9563
B(  7-C , 26-H ) :   0.9674 B(  7-C , 27-H ) :   0.9655 B(  7-C , 28-H ) :   0.9573
B(  8-S ,  9-C ) :   0.9029 B(  9-C , 10-S ) :   0.9050 B(  9-C , 29-H ) :   0.9055
B(  9-C , 30-H ) :   0.9071 B( 10-S , 11-P ) :   1.0765 B( 11-P , 12-S ) :   1.7451
B( 11-P , 13-O ) :   1.1415 B( 11-P , 16-O ) :   1.0360 B( 13-O , 14-C ) :   0.7742
B( 14-C , 15-C ) :   0.9125 B( 14-C , 31-H ) :   0.9537 B( 14-C , 32-H ) :   0.9544
B( 15-C , 33-H ) :   0.9721 B( 15-C , 34-H ) :   0.9565 B( 15-C , 35-H ) :   0.9611
B( 16-O , 17-C ) :   0.7982 B( 17-C , 18-C ) :   0.9201 B( 17-C , 36-H ) :   0.9497
B( 17-C , 37-H ) :   0.9605 B( 18-C , 38-H ) :   0.9625 B( 18-C , 39-H ) :   0.9665
B( 18-C , 40-H ) :   0.9561

Dispersion correction           -0.022177136
FINAL SINGLE POINT ENERGY     -2932.469193549818

DIPOLE MOMENT
-------------

Method             : SCF
Type of density    : Electron Density
Multiplicity       :   1
Irrep              :   0
Energy             : -2932.4935060068596613 Eh
Relativity type    :
Basis              : AO
                                X                 Y                 Z
Electronic contribution:      2.818947279       2.184040071      -7.853656859
Nuclear contribution   :     -2.665430259      -3.810511328       9.077916031
                        -----------------------------------------
Total Dipole Moment    :      0.153517020      -1.626471257       1.224259172
                        -----------------------------------------
Magnitude (a.u.)       :      2.041515796
Magnitude (Debye)      :      5.189120768

Rotational constants in cm-1:             0.012643             0.005186             0.004931
Rotational constants in MHz :           379.039533           155.474619           147.814331

                             ****ORCA TERMINATED NORMALLY****
TOTAL RUN TIME: 0 days 0 hours 1 minutes 51 seconds 759 msec
