                         Program Version 6.0.0  -   RELEASE  -
|  1> ! pbe def2-sv(p) def2/J RI DEFGRID1 loosescf d4 GCP(DFT/SV(P)) printgap
|  2> %output
|  3>     printlevel normal
|  4> end
|  5> * xyz 0 1
|  6> C 5.2378209378 -1.3406141804 -2.0653197048
|  7> C 3.7446495178 -1.3032409082 -1.8096341571
|  8> O 3.5210521615 -0.5541169351 -0.6003269897
|  9> P 2.0609212574 -0.0771456233 -0.1749325863
| 10> S 1.1210329897 0.8840790419 -1.6073414769
| 11> O 2.3991912338 0.6682978655 1.1711859892
| 12> C 2.6068530843 2.0925700199 1.2427820668
| 13> C 3.8622999609 2.5135923486 0.5095241678
| 14> S 1.1587673583 -1.8551757297 0.5247844535
| 15> C -0.2779921807 -1.9569713138 -0.6003464847
| 16> S -1.8837304515 -1.8583214224 0.2296183829
| 17> P -2.0440182083 0.2492093557 0.4940140931
| 18> S -0.7100539609 1.12574445 1.6274130875
| 19> O -3.5370246293 0.3792681422 1.0190425293
| 20> C -3.906861878 -0.0151076475 2.356646054
| 21> C -5.2677820973 0.5800677524 2.6545241177
| 22> O -2.1292975542 0.8811743483 -0.9393783686
| 23> C -3.1216696467 0.4851656909 -1.9261986233
| 24> C -2.5352115811 0.7313144709 -3.3002079001
| 25> H 5.7456248167 -1.7935574287 -1.2188501458
| 26> H 5.4316299395 -1.9257966041 -2.9581270784
| 27> H 5.6191005349 -0.3333437501 -2.2060196024
| 28> H 3.3395140648 -2.3098910253 -1.6692279391
| 29> H 3.2077908788 -0.8104848155 -2.6274927954
| 30> H 1.7216334297 2.593065694 0.8363274665
| 31> H 2.6680553421 2.2895462715 2.3138963123
| 32> H 3.7504060355 2.3171745279 -0.5564603294
| 33> H 4.0262068696 3.576173066 0.6587117361
| 34> H 4.7168413627 1.9554240659 0.8827850744
| 35> H -0.2560035339 -2.935470513 -1.0719078967
| 36> H -0.1960845876 -1.1512849298 -1.3360699073
| 37> H -3.9296896824 -1.1074132883 2.3941799118
| 38> H -3.1441051488 0.3522879555 3.0510701144
| 39> H -5.5737090664 0.2855730332 3.6529127856
| 40> H -5.2210646167 1.6639982909 2.5982981767
| 41> H -5.9951679461 0.219978037 1.9330562
| 42> H -3.368544914 -0.5692624727 -1.7734495923
| 43> H -4.0095846908 1.0944437312 -1.7513260182
| 44> H -2.2827308986 1.7815716203 -3.4144785406
| 45> H -1.6273377884 0.149391001 -3.4363621536
| 46> H -3.262373107 0.4483304559 -4.0541187487
| 47> *
| 48>
| 49>                          ****END OF INPUT****

CARTESIAN COORDINATES (ANGSTROEM)
---------------------------------
  C      5.237821   -1.340614   -2.065320
  C      3.744650   -1.303241   -1.809634
  O      3.521052   -0.554117   -0.600327
  P      2.060921   -0.077146   -0.174933
  S      1.121033    0.884079   -1.607341
  O      2.399191    0.668298    1.171186
  C      2.606853    2.092570    1.242782
  C      3.862300    2.513592    0.509524
  S      1.158767   -1.855176    0.524784
  C     -0.277992   -1.956971   -0.600346
  S     -1.883730   -1.858321    0.229618
  P     -2.044018    0.249209    0.494014
  S     -0.710054    1.125744    1.627413
  O     -3.537025    0.379268    1.019043
  C     -3.906862   -0.015108    2.356646
  C     -5.267782    0.580068    2.654524
  O     -2.129298    0.881174   -0.939378
  C     -3.121670    0.485166   -1.926199
  C     -2.535212    0.731314   -3.300208
  H      5.745625   -1.793557   -1.218850
  H      5.431630   -1.925797   -2.958127
  H      5.619101   -0.333344   -2.206020
  H      3.339514   -2.309891   -1.669228
  H      3.207791   -0.810485   -2.627493
  H      1.721633    2.593066    0.836327
  H      2.668055    2.289546    2.313896
  H      3.750406    2.317175   -0.556460
  H      4.026207    3.576173    0.658712
  H      4.716841    1.955424    0.882785
  H     -0.256004   -2.935471   -1.071908
  H     -0.196085   -1.151285   -1.336070
  H     -3.929690   -1.107413    2.394180
  H     -3.144105    0.352288    3.051070
  H     -5.573709    0.285573    3.652913
  H     -5.221065    1.663998    2.598298
  H     -5.995168    0.219978    1.933056
  H     -3.368545   -0.569262   -1.773450
  H     -4.009585    1.094444   -1.751326
  H     -2.282731    1.781572   -3.414479
  H     -1.627338    0.149391   -3.436362
  H     -3.262373    0.448330   -4.054119

 Total Charge           Charge          ....    0
 Multiplicity           Mult            ....    1
 Number of Electrons    NEL             ....  202
 Basis Dimension        Dim             ....  334

ORBITAL ENERGIES
----------------

  NO   OCC          E(Eh)            E(eV)
   0   2.0000     -88.040206     -2395.6958
   1   2.0000     -88.036175     -2395.5861
   2   2.0000     -87.983727     -2394.1589
   3   2.0000     -87.974867     -2393.9178
   4   2.0000     -76.420109     -2079.4969
   5   2.0000     -76.419957     -2079.4927
   6   2.0000     -18.789397      -511.2855
   7   2.0000     -18.788979      -511.2741
   8   2.0000     -18.782706      -511.1034
   9   2.0000     -18.781049      -511.0583
  10   2.0000      -9.955238      -270.8958
  11   2.0000      -9.953121      -270.8382
  12   2.0000      -9.952086      -270.8100
  13   2.0000      -9.946751      -270.6649
  14   2.0000      -9.943253      -270.5697
  15   2.0000      -9.887944      -269.0646
  16   2.0000      -9.885273      -268.9919
  17   2.0000      -9.884783      -268.9786
  18   2.0000      -9.876529      -268.7540
  19   2.0000      -7.685409      -209.1306
  20   2.0000      -7.681600      -209.0270
  21   2.0000      -7.628638      -207.5858
  22   2.0000      -7.619919      -207.3485
  23   2.0000      -6.417664      -174.6335
  24   2.0000      -6.417573      -174.6310
  25   2.0000      -5.713043      -155.4598
  26   2.0000      -5.709808      -155.3718
  27   2.0000      -5.709459      -155.3623
  28   2.0000      -5.706205      -155.2737
  29   2.0000      -5.702715      -155.1788
  30   2.0000      -5.698435      -155.0623
  31   2.0000      -5.657340      -153.9441
  32   2.0000      -5.649754      -153.7376
  33   2.0000      -5.648925      -153.7151
  34   2.0000      -5.648479      -153.7029
  35   2.0000      -5.640506      -153.4860
  36   2.0000      -5.640000      -153.4722
  37   2.0000      -4.640657      -126.2787
  38   2.0000      -4.639747      -126.2539
  39   2.0000      -4.639603      -126.2500
  40   2.0000      -4.639239      -126.2401
  41   2.0000      -4.638481      -126.2195
  42   2.0000      -4.637529      -126.1936
  43   2.0000      -0.985902       -26.8278
  44   2.0000      -0.979483       -26.6531
  45   2.0000      -0.942625       -25.6501
  46   2.0000      -0.936699       -25.4889
  47   2.0000      -0.757492       -20.6124
  48   2.0000      -0.719047       -19.5663
  49   2.0000      -0.708563       -19.2810
  50   2.0000      -0.690557       -18.7910
  51   2.0000      -0.682459       -18.5707
  52   2.0000      -0.670353       -18.2412
  53   2.0000      -0.645411       -17.5625
  54   2.0000      -0.630460       -17.1557
  55   2.0000      -0.595081       -16.1930
  56   2.0000      -0.579512       -15.7693
  57   2.0000      -0.569471       -15.4961
  58   2.0000      -0.562951       -15.3187
  59   2.0000      -0.557153       -15.1609
  60   2.0000      -0.509352       -13.8602
  61   2.0000      -0.496693       -13.5157
  62   2.0000      -0.481326       -13.0975
  63   2.0000      -0.468981       -12.7616
  64   2.0000      -0.454802       -12.3758
  65   2.0000      -0.443389       -12.0652
  66   2.0000      -0.436847       -11.8872
  67   2.0000      -0.430793       -11.7225
  68   2.0000      -0.427327       -11.6282
  69   2.0000      -0.415925       -11.3179
  70   2.0000      -0.403530       -10.9806
  71   2.0000      -0.391456       -10.6520
  72   2.0000      -0.389927       -10.6105
  73   2.0000      -0.379760       -10.3338
  74   2.0000      -0.375802       -10.2261
  75   2.0000      -0.368502       -10.0274
  76   2.0000      -0.362347        -9.8600
  77   2.0000      -0.354429        -9.6445
  78   2.0000      -0.353183        -9.6106
  79   2.0000      -0.348148        -9.4736
  80   2.0000      -0.345176        -9.3927
  81   2.0000      -0.340248        -9.2586
  82   2.0000      -0.337951        -9.1961
  83   2.0000      -0.335123        -9.1192
  84   2.0000      -0.329963        -8.9788
  85   2.0000      -0.313310        -8.5256
  86   2.0000      -0.306732        -8.3466
  87   2.0000      -0.299207        -8.1418
  88   2.0000      -0.296553        -8.0696
  89   2.0000      -0.294746        -8.0204
  90   2.0000      -0.278995        -7.5918
  91   2.0000      -0.269747        -7.3402
  92   2.0000      -0.267230        -7.2717
  93   2.0000      -0.257878        -7.0172
  94   2.0000      -0.253008        -6.8847
  95   2.0000      -0.236458        -6.4343
  96   2.0000      -0.219364        -5.9692
  97   2.0000      -0.205877        -5.6022
  98   2.0000      -0.202524        -5.5110
  99   2.0000      -0.186203        -5.0668
 100   2.0000      -0.183377        -4.9899
 101   0.0000      -0.035163        -0.9568
 102   0.0000      -0.027095        -0.7373
 103   0.0000      -0.008817        -0.2399
 104   0.0000       0.006333         0.1723
 105   0.0000       0.026320         0.7162

MULLIKEN ATOMIC CHARGES
-----------------------
   0 C :   -0.279227
   1 C :   -0.005540
   2 O :   -0.373968
   3 P :    0.616806
   4 S :   -0.322560
   5 O :   -0.360035
   6 C :   -0.005529
   7 C :   -0.303639
   8 S :   -0.071196
   9 C :   -0.365541
  10 S :   -0.115136
  11 P :    0.599931
  12 S :   -0.304105
  13 O :   -0.387853
  14 C :   -0.013113
  15 C :   -0.280821
  16 O :   -0.348364
  17 C :   -0.013903
  18 C :   -0.284428
  19 H :    0.117147
  20 H :    0.108614
  21 H :    0.118063
  22 H :    0.090616
  23 H :    0.096975
  24 H :    0.124721
  25 H :    0.105967
  26 H :    0.122831
  27 H :    0.109899
  28 H :    0.115001
  29 H :    0.179883
  30 H :    0.200641
  31 H :    0.104622
  32 H :    0.107962
  33 H :    0.112630
  34 H :    0.121999
  35 H :    0.113776
  36 H :    0.099324
  37 H :    0.108527
  38 H :    0.124091
  39 H :    0.127148
  40 H :    0.107781
Sum of atomic charges:   -0.0000000

LOEWDIN ATOMIC CHARGES
----------------------
   0 C :   -0.350162
   1 C :   -0.124877
   2 O :   -0.251982
   3 P :    0.574147
   4 S :   -0.304283
   5 O :   -0.229450
   6 C :   -0.115187
   7 C :   -0.365832
   8 S :    0.084435
   9 C :   -0.484170
  10 S :    0.059905
  11 P :    0.561479
  12 S :   -0.302274
  13 O :   -0.253886
  14 C :   -0.119533
  15 C :   -0.350652
  16 O :   -0.227830
  17 C :   -0.115018
  18 C :   -0.351553
  19 H :    0.127215
  20 H :    0.129030
  21 H :    0.127386
  22 H :    0.103319
  23 H :    0.103633
  24 H :    0.112895
  25 H :    0.120268
  26 H :    0.121467
  27 H :    0.129705
  28 H :    0.125509
  29 H :    0.135389
  30 H :    0.118948
  31 H :    0.109033
  32 H :    0.110581
  33 H :    0.131183
  34 H :    0.129758
  35 H :    0.125552
  36 H :    0.101637
  37 H :    0.116906
  38 H :    0.131416
  39 H :    0.127287
  40 H :    0.128608

  Mayer bond orders larger than 0.100000
B(  0-C ,  1-C ) :   1.1611 B(  0-C , 19-H ) :   0.9506 B(  0-C , 20-H ) :   0.9425
B(  0-C , 21-H ) :   0.9522 B(  1-C ,  2-O ) :   0.9165 B(  1-C , 22-H ) :   0.9219
B(  1-C , 23-H ) :   0.9096 B(  2-O ,  3-P ) :   1.0869 B(  3-P ,  4-S ) :   1.5841
B(  3-P ,  5-O ) :   1.1580 B(  3-P ,  8-S ) :   0.9546 B(  4-S ,  8-S ) :   0.1183
B(  4-S , 30-H ) :   0.1119 B(  5-O ,  6-C ) :   0.8953 B(  6-C ,  7-C ) :   1.1633
B(  6-C , 24-H ) :   0.9148 B(  6-C , 25-H ) :   0.9356 B(  7-C , 26-H ) :   0.9349
B(  7-C , 27-H ) :   0.9386 B(  7-C , 28-H ) :   0.9451 B(  8-S ,  9-C ) :   1.0067
B(  9-C , 10-S ) :   0.9951 B(  9-C , 29-H ) :   0.9122 B(  9-C , 30-H ) :   0.8450
B( 10-S , 11-P ) :   0.9500 B( 10-S , 12-S ) :   0.1108 B( 11-P , 12-S ) :   1.6768
B( 11-P , 13-O ) :   1.0773 B( 11-P , 16-O ) :   1.1422 B( 13-O , 14-C ) :   0.9067
B( 14-C , 15-C ) :   1.1603 B( 14-C , 31-H ) :   0.9294 B( 14-C , 32-H ) :   0.9094
B( 15-C , 33-H ) :   0.9418 B( 15-C , 34-H ) :   0.9509 B( 15-C , 35-H ) :   0.9511
B( 16-O , 17-C ) :   0.8890 B( 17-C , 18-C ) :   1.1621 B( 17-C , 36-H ) :   0.9095
B( 17-C , 37-H ) :   0.9320 B( 18-C , 38-H ) :   0.9480 B( 18-C , 39-H ) :   0.9476
B( 18-C , 40-H ) :   0.9401

Dispersion correction           -0.064646558
FINAL SINGLE POINT ENERGY     -2929.518290249905

DIPOLE MOMENT
-------------

Method             : SCF
Type of density    : Electron Density
Multiplicity       :   1
Irrep              :   0
Energy             : -2929.6370254595335609 Eh
Relativity type    :
Basis              : AO
                                X                 Y                 Z
Electronic contribution:     -1.776249835      -5.887720684       8.802847217
Nuclear contribution   :      1.274042309       5.348374851      -9.447549405
                        -----------------------------------------
Total Dipole Moment    :     -0.502207526      -0.539345832      -0.644702188
                        -----------------------------------------
Magnitude (a.u.)       :      0.979156391
Magnitude (Debye)      :      2.488817755

Rotational constants in cm-1:             0.012775             0.004801             0.004530
Rotational constants in MHz :           382.987852           143.932362           135.797198

                             ****ORCA TERMINATED NORMALLY****
TOTAL RUN TIME: 0 days 0 hours 0 minutes 20 seconds 684 msec
