                         Program Version 6.0.0  -   RELEASE  -
|  1> ! wb97x-v def2-tzvp def2/J RIJCOSX DEFGRID2 scfconv7 GCP(DFT/TZ) printgap
|  2> %output
|  3>     printlevel normal
|  4> end
|  5> * xyz 0 1
|  6> C 0.6574394216671772 7.23574835834334e-05 -0.390951172718275
|  7> C -0.6576501722534471 0.0001504049807117634 0.3908576245421936
|  8> Cl -1.6154407234543502 1.4668447432549292 -0.03131488352621106
|  9> Cl -1.615508162137651 -1.4665233185367559 -0.03119339993587631
| 10> Cl 1.6153589449499373 1.466704222816807 0.0311346076752078
| 11> Cl 1.6151670497574304 -1.4666749247755648 0.03115204996002673
| 12> H 0.49699210031375474 7.064479529680886e-05 -1.4706701671649143
| 13> H -0.4972036652957455 0.00018515859571726522 1.4705767375523628
| 14> *
| 15>
| 16>                          ****END OF INPUT****

CARTESIAN COORDINATES (ANGSTROEM)
---------------------------------
  C      0.657439    0.000072   -0.390951
  C     -0.657650    0.000150    0.390858
  Cl    -1.615441    1.466845   -0.031315
  Cl    -1.615508   -1.466523   -0.031193
  Cl     1.615359    1.466704    0.031135
  Cl     1.615167   -1.466675    0.031152
  H      0.496992    0.000071   -1.470670
  H     -0.497204    0.000185    1.470577

 Total Charge           Charge          ....    0
 Multiplicity           Mult            ....    1
 Number of Electrons    NEL             ....   82
 Basis Dimension        Dim             ....  222

ORBITAL ENERGIES
----------------

  NO   OCC          E(Eh)            E(eV)
   0   2.0000    -107.165317     -2916.1165
   1   2.0000    -107.165312     -2916.1164
   2   2.0000    -107.165307     -2916.1162
   3   2.0000    -107.165302     -2916.1161
   4   2.0000     -12.209808      -332.2458
   5   2.0000     -12.208450      -332.2088
   6   2.0000     -11.318850      -308.0016
   7   2.0000     -11.318649      -307.9961
   8   2.0000     -11.318584      -307.9943
   9   2.0000     -11.318500      -307.9921
  10   2.0000      -9.111405      -247.9339
  11   2.0000      -9.110238      -247.9022
  12   2.0000      -9.110232      -247.9020
  13   2.0000      -9.109290      -247.8764
  14   2.0000      -9.108120      -247.8445
  15   2.0000      -9.107516      -247.8281
  16   2.0000      -9.107094      -247.8166
  17   2.0000      -9.107086      -247.8164
  18   2.0000      -9.107034      -247.8150
  19   2.0000      -9.106774      -247.8079
  20   2.0000      -9.106739      -247.8070
  21   2.0000      -9.106180      -247.7918
  22   2.0000      -1.483775       -40.3756
  23   2.0000      -1.443440       -39.2780
  24   2.0000      -1.407246       -38.2931
  25   2.0000      -1.398118       -38.0447
  26   2.0000      -1.261977       -34.3401
  27   2.0000      -1.130370       -30.7589
  28   2.0000      -0.979664       -26.6580
  29   2.0000      -0.964985       -26.2586
  30   2.0000      -0.964236       -26.2382
  31   2.0000      -0.912157       -24.8211
  32   2.0000      -0.911697       -24.8085
  33   2.0000      -0.820584       -22.3292
  34   2.0000      -0.819990       -22.3131
  35   2.0000      -0.817413       -22.2429
  36   2.0000      -0.813829       -22.1454
  37   2.0000      -0.805767       -21.9260
  38   2.0000      -0.804643       -21.8954
  39   2.0000      -0.797224       -21.6936
  40   2.0000      -0.787907       -21.4401
  41   0.0000      -0.354952        -9.6587
  42   0.0000      -0.329167        -8.9571
  43   0.0000      -0.305427        -8.3111
  44   0.0000      -0.227206        -6.1826
  45   0.0000      -0.110268        -3.0005

MULLIKEN ATOMIC CHARGES
-----------------------
   0 C :   -0.013964
   1 C :   -0.013965
   2 Cl:   -0.074273
   3 Cl:   -0.074267
   4 Cl:   -0.074271
   5 Cl:   -0.074270
   6 H :    0.162505
   7 H :    0.162505
Sum of atomic charges:   -0.0000000

LOEWDIN ATOMIC CHARGES
----------------------
   0 C :   -0.765126
   1 C :   -0.765123
   2 Cl:    0.317082
   3 Cl:    0.317090
   4 Cl:    0.317084
   5 Cl:    0.317087
   6 H :    0.130953
   7 H :    0.130953

  Mayer bond orders larger than 0.100000
B(  0-C ,  1-C ) :   1.0103 B(  0-C ,  4-Cl) :   1.1066 B(  0-C ,  5-Cl) :   1.1066
B(  0-C ,  6-H ) :   0.9454 B(  1-C ,  2-Cl) :   1.1066 B(  1-C ,  3-Cl) :   1.1066
B(  1-C ,  7-H ) :   0.9454

FINAL SINGLE POINT ENERGY     -1917.993504765519

DIPOLE MOMENT
-------------

Method             : SCF
Type of density    : Electron Density
Multiplicity       :   1
Irrep              :   0
Energy             : -1917.9985295183194012 Eh
Relativity type    :
Basis              : AO
                                X                 Y                 Z
Electronic contribution:     -0.000002521      -0.000079860      -0.000014803
Nuclear contribution   :      0.000000059       0.000089002       0.000020988
                        -----------------------------------------
Total Dipole Moment    :     -0.000002462       0.000009142       0.000006185
                        -----------------------------------------
Magnitude (a.u.)       :      0.000011309
Magnitude (Debye)      :      0.000028745

Rotational constants in cm-1:             0.053819             0.043325             0.024574
Rotational constants in MHz :          1613.445904          1298.842896           736.711891

                             ****ORCA TERMINATED NORMALLY****
TOTAL RUN TIME: 0 days 0 hours 1 minutes 42 seconds 855 msec
