                         Program Version 6.0.0  -   RELEASE  -
|  1> ! wb97x-v def2-tzvp def2/J RIJCOSX DEFGRID2 scfconv7 GCP(DFT/TZ) printgap
|  2> %output
|  3>     printlevel normal
|  4> end
|  5> %cpcm
|  6>     smd true
|  7>     smdsolvent "water"
|  8> end
|  9> * xyz 0 1
| 10> C 0.6574394216671772 7.23574835834334e-05 -0.390951172718275
| 11> C -0.6576501722534471 0.0001504049807117634 0.3908576245421936
| 12> Cl -1.6154407234543502 1.4668447432549292 -0.03131488352621106
| 13> Cl -1.615508162137651 -1.4665233185367559 -0.03119339993587631
| 14> Cl 1.6153589449499373 1.466704222816807 0.0311346076752078
| 15> Cl 1.6151670497574304 -1.4666749247755648 0.03115204996002673
| 16> H 0.49699210031375474 7.064479529680886e-05 -1.4706701671649143
| 17> H -0.4972036652957455 0.00018515859571726522 1.4705767375523628
| 18> *
| 19>
| 20>                          ****END OF INPUT****

CARTESIAN COORDINATES (ANGSTROEM)
---------------------------------
  C      0.657439    0.000072   -0.390951
  C     -0.657650    0.000150    0.390858
  Cl    -1.615441    1.466845   -0.031315
  Cl    -1.615508   -1.466523   -0.031193
  Cl     1.615359    1.466704    0.031135
  Cl     1.615167   -1.466675    0.031152
  H      0.496992    0.000071   -1.470670
  H     -0.497204    0.000185    1.470577

 Total Charge           Charge          ....    0
 Multiplicity           Mult            ....    1
 Number of Electrons    NEL             ....   82
 Basis Dimension        Dim             ....  222

ORBITAL ENERGIES
----------------

  NO   OCC          E(Eh)            E(eV)
   0   2.0000    -107.160244     -2915.9785
   1   2.0000    -107.160239     -2915.9783
   2   2.0000    -107.160234     -2915.9782
   3   2.0000    -107.160229     -2915.9781
   4   2.0000     -12.198788      -331.9459
   5   2.0000     -12.197429      -331.9089
   6   2.0000     -11.313810      -307.8644
   7   2.0000     -11.313604      -307.8588
   8   2.0000     -11.313539      -307.8570
   9   2.0000     -11.313458      -307.8548
  10   2.0000      -9.106345      -247.7963
  11   2.0000      -9.105185      -247.7647
  12   2.0000      -9.105176      -247.7644
  13   2.0000      -9.104220      -247.7384
  14   2.0000      -9.103131      -247.7088
  15   2.0000      -9.102500      -247.6916
  16   2.0000      -9.102102      -247.6808
  17   2.0000      -9.102079      -247.6802
  18   2.0000      -9.102032      -247.6789
  19   2.0000      -9.101774      -247.6719
  20   2.0000      -9.101757      -247.6714
  21   2.0000      -9.101201      -247.6563
  22   2.0000      -1.476673       -40.1823
  23   2.0000      -1.437656       -39.1206
  24   2.0000      -1.402044       -38.1516
  25   2.0000      -1.393082       -37.9077
  26   2.0000      -1.253488       -34.1091
  27   2.0000      -1.119598       -30.4658
  28   2.0000      -0.969740       -26.3880
  29   2.0000      -0.957665       -26.0594
  30   2.0000      -0.955673       -26.0052
  31   2.0000      -0.905726       -24.6460
  32   2.0000      -0.901917       -24.5424
  33   2.0000      -0.816069       -22.2064
  34   2.0000      -0.814953       -22.1760
  35   2.0000      -0.812621       -22.1126
  36   2.0000      -0.808940       -22.0124
  37   2.0000      -0.801353       -21.8059
  38   2.0000      -0.798820       -21.7370
  39   2.0000      -0.792968       -21.5778
  40   2.0000      -0.781119       -21.2553
  41   0.0000      -0.348524        -9.4838
  42   0.0000      -0.321169        -8.7395
  43   0.0000      -0.297544        -8.0966
  44   0.0000      -0.218262        -5.9392
  45   0.0000      -0.100005        -2.7213

MULLIKEN ATOMIC CHARGES
-----------------------
   0 C :   -0.020626
   1 C :   -0.020627
   2 Cl:   -0.097378
   3 Cl:   -0.097373
   4 Cl:   -0.097377
   5 Cl:   -0.097376
   6 H :    0.215377
   7 H :    0.215378
Sum of atomic charges:    0.0000000

LOEWDIN ATOMIC CHARGES
----------------------
   0 C :   -0.754742
   1 C :   -0.754739
   2 Cl:    0.304395
   3 Cl:    0.304403
   4 Cl:    0.304397
   5 Cl:    0.304400
   6 H :    0.145943
   7 H :    0.145943

  Mayer bond orders larger than 0.100000
B(  0-C ,  1-C ) :   1.0126 B(  0-C ,  4-Cl) :   1.0868 B(  0-C ,  5-Cl) :   1.0868
B(  0-C ,  6-H ) :   0.9297 B(  1-C ,  2-Cl) :   1.0868 B(  1-C ,  3-Cl) :   1.0868
B(  1-C ,  7-H ) :   0.9297

FINAL SINGLE POINT ENERGY     -1917.997821650289

DIPOLE MOMENT
-------------

Method             : SCF
Type of density    : Electron Density
Multiplicity       :   1
Irrep              :   0
Energy             : -1918.0028464030885971 Eh
Relativity type    :
Basis              : AO
                                X                 Y                 Z
Electronic contribution:     -0.000002138      -0.000073147      -0.000010829
Nuclear contribution   :      0.000000059       0.000089002       0.000020988
                        -----------------------------------------
Total Dipole Moment    :     -0.000002079       0.000015855       0.000010159
                        -----------------------------------------
Magnitude (a.u.)       :      0.000018944
Magnitude (Debye)      :      0.000048153

Rotational constants in cm-1:             0.053819             0.043325             0.024574
Rotational constants in MHz :          1613.445904          1298.842896           736.711891

                             ****ORCA TERMINATED NORMALLY****
TOTAL RUN TIME: 0 days 0 hours 1 minutes 45 seconds 174 msec
