                         Program Version 6.0.0  -   RELEASE  -
|  1> ! pbe def2-sv(p) def2/J RI DEFGRID1 loosescf d4 GCP(DFT/SV(P)) printgap
|  2> %output
|  3>     printlevel normal
|  4> end
|  5> * xyz 0 1
|  6> C 2.085879358 -2.1000441489 2.8048247528
|  7> C 0.9159821468 -1.8345567151 1.8813746256
|  8> O 0.9971376852 -0.5132271149 1.3120279993
|  9> P 2.0248895732 -0.1454921424 0.1697018188
| 10> S 2.7501387194 -1.6482955155 -0.8654399498
| 11> O 3.0463779553 0.7464058814 0.9948917146
| 12> C 4.1555471253 1.4379001271 0.3868519871
| 13> C 5.3986893198 0.5693132609 0.3670392284
| 14> S 0.9652744452 1.3074823781 -0.956538367
| 15> C 0.1883560928 0.1462202735 -2.1105895483
| 16> S -0.8901428385 -1.0567595283 -1.2952939854
| 17> P -2.2847017883 0.3428650673 -0.514876588
| 18> S -2.708111474 1.8617524893 -1.6646396739
| 19> O -1.6451784686 0.6833786042 0.9098965912
| 20> C -1.5066236651 2.020893237 1.4197260768
| 21> C -2.7847761322 2.4689166929 2.0986686114
| 22> O -3.567051174 -0.5224108233 -0.1862152541
| 23> C -3.6156126373 -1.5727442107 0.8121658649
| 24> C -3.3591687946 -2.931712008 0.1929777887
| 25> H 1.9685766923 -3.0744328131 3.2682498386
| 26> H 3.0119890206 -2.0880941222 2.2311084082
| 27> H 2.1400322492 -1.3340491375 3.5736697623
| 28> H -0.0352996251 -1.8357283794 2.4152030773
| 29> H 0.8860182363 -2.5672920704 1.0681957376
| 30> H 3.8759114549 1.7499155992 -0.6237414208
| 31> H 4.2985861337 2.3214277407 1.0118605319
| 32> H 6.2255730768 1.1387447943 -0.0449032729
| 33> H 5.6485524321 0.2514996492 1.375430844
| 34> H 5.2349409873 -0.3126646692 -0.2481350092
| 35> H 0.9575000218 -0.4298339282 -2.6245755334
| 36> H -0.3957983331 0.7469171709 -2.8071678365
| 37> H -0.6680633135 1.9607363884 2.1159451961
| 38> H -1.250808344 2.6928967426 0.5943820954
| 39> H -3.0482983999 1.7867523723 2.902394726
| 40> H -2.6456404214 3.4663475746 2.5031087793
| 41> H -3.5957805326 2.4910844282 1.3716318562
| 42> H -2.8902112475 -1.3475046322 1.5968166927
| 43> H -4.6286132671 -1.5071364407 1.2129019844
| 44> H -2.3448560346 -2.9930773551 -0.1966475836
| 45> H -3.4960393268 -3.6974382208 0.9501611695
| 46> H -4.054862945 -3.1057252965 -0.6231656925
| 47> *
| 48>
| 49>                          ****END OF INPUT****

CARTESIAN COORDINATES (ANGSTROEM)
---------------------------------
  C      2.085879   -2.100044    2.804825
  C      0.915982   -1.834557    1.881375
  O      0.997138   -0.513227    1.312028
  P      2.024890   -0.145492    0.169702
  S      2.750139   -1.648296   -0.865440
  O      3.046378    0.746406    0.994892
  C      4.155547    1.437900    0.386852
  C      5.398689    0.569313    0.367039
  S      0.965274    1.307482   -0.956538
  C      0.188356    0.146220   -2.110590
  S     -0.890143   -1.056760   -1.295294
  P     -2.284702    0.342865   -0.514877
  S     -2.708111    1.861752   -1.664640
  O     -1.645178    0.683379    0.909897
  C     -1.506624    2.020893    1.419726
  C     -2.784776    2.468917    2.098669
  O     -3.567051   -0.522411   -0.186215
  C     -3.615613   -1.572744    0.812166
  C     -3.359169   -2.931712    0.192978
  H      1.968577   -3.074433    3.268250
  H      3.011989   -2.088094    2.231108
  H      2.140032   -1.334049    3.573670
  H     -0.035300   -1.835728    2.415203
  H      0.886018   -2.567292    1.068196
  H      3.875911    1.749916   -0.623741
  H      4.298586    2.321428    1.011861
  H      6.225573    1.138745   -0.044903
  H      5.648552    0.251500    1.375431
  H      5.234941   -0.312665   -0.248135
  H      0.957500   -0.429834   -2.624576
  H     -0.395798    0.746917   -2.807168
  H     -0.668063    1.960736    2.115945
  H     -1.250808    2.692897    0.594382
  H     -3.048298    1.786752    2.902395
  H     -2.645640    3.466348    2.503109
  H     -3.595781    2.491084    1.371632
  H     -2.890211   -1.347505    1.596817
  H     -4.628613   -1.507136    1.212902
  H     -2.344856   -2.993077   -0.196648
  H     -3.496039   -3.697438    0.950161
  H     -4.054863   -3.105725   -0.623166

 Total Charge           Charge          ....    0
 Multiplicity           Mult            ....    1
 Number of Electrons    NEL             ....  202
 Basis Dimension        Dim             ....  334

ORBITAL ENERGIES
----------------

  NO   OCC          E(Eh)            E(eV)
   0   2.0000     -88.043807     -2395.7938
   1   2.0000     -88.040469     -2395.7030
   2   2.0000     -87.991778     -2394.3780
   3   2.0000     -87.985597     -2394.2098
   4   2.0000     -76.429518     -2079.7529
   5   2.0000     -76.425266     -2079.6372
   6   2.0000     -18.796877      -511.4890
   7   2.0000     -18.795195      -511.4432
   8   2.0000     -18.790791      -511.3234
   9   2.0000     -18.786626      -511.2101
  10   2.0000      -9.960839      -271.0482
  11   2.0000      -9.958141      -270.9748
  12   2.0000      -9.953602      -270.8513
  13   2.0000      -9.952792      -270.8292
  14   2.0000      -9.945614      -270.6339
  15   2.0000      -9.892021      -269.1756
  16   2.0000      -9.885019      -268.9850
  17   2.0000      -9.883716      -268.9496
  18   2.0000      -9.881462      -268.8882
  19   2.0000      -7.688541      -209.2158
  20   2.0000      -7.685254      -209.1264
  21   2.0000      -7.636657      -207.8040
  22   2.0000      -7.630878      -207.6468
  23   2.0000      -6.426889      -174.8845
  24   2.0000      -6.422831      -174.7741
  25   2.0000      -5.716366      -155.5502
  26   2.0000      -5.713103      -155.4614
  27   2.0000      -5.713078      -155.4607
  28   2.0000      -5.709897      -155.3742
  29   2.0000      -5.705561      -155.2562
  30   2.0000      -5.702143      -155.1632
  31   2.0000      -5.665418      -154.1639
  32   2.0000      -5.659890      -154.0134
  33   2.0000      -5.657252      -153.9417
  34   2.0000      -5.657015      -153.9352
  35   2.0000      -5.651387      -153.7821
  36   2.0000      -5.650996      -153.7714
  37   2.0000      -4.649257      -126.5127
  38   2.0000      -4.648748      -126.4989
  39   2.0000      -4.647466      -126.4640
  40   2.0000      -4.645734      -126.4168
  41   2.0000      -4.644192      -126.3749
  42   2.0000      -4.643408      -126.3536
  43   2.0000      -0.990259       -26.9463
  44   2.0000      -0.984730       -26.7959
  45   2.0000      -0.948399       -25.8072
  46   2.0000      -0.941928       -25.6312
  47   2.0000      -0.765310       -20.8251
  48   2.0000      -0.722898       -19.6711
  49   2.0000      -0.711495       -19.3608
  50   2.0000      -0.690521       -18.7900
  51   2.0000      -0.687830       -18.7168
  52   2.0000      -0.673806       -18.3352
  53   2.0000      -0.653329       -17.7780
  54   2.0000      -0.639969       -17.4144
  55   2.0000      -0.600045       -16.3281
  56   2.0000      -0.590811       -16.0768
  57   2.0000      -0.578911       -15.7530
  58   2.0000      -0.571573       -15.5533
  59   2.0000      -0.562552       -15.3078
  60   2.0000      -0.504968       -13.7409
  61   2.0000      -0.497291       -13.5320
  62   2.0000      -0.478318       -13.0157
  63   2.0000      -0.477276       -12.9873
  64   2.0000      -0.454307       -12.3623
  65   2.0000      -0.447985       -12.1903
  66   2.0000      -0.442348       -12.0369
  67   2.0000      -0.437764       -11.9122
  68   2.0000      -0.426866       -11.6156
  69   2.0000      -0.412394       -11.2218
  70   2.0000      -0.407259       -11.0821
  71   2.0000      -0.397776       -10.8240
  72   2.0000      -0.393667       -10.7122
  73   2.0000      -0.389954       -10.6112
  74   2.0000      -0.378808       -10.3079
  75   2.0000      -0.375957       -10.2303
  76   2.0000      -0.370456       -10.0806
  77   2.0000      -0.360279        -9.8037
  78   2.0000      -0.358111        -9.7447
  79   2.0000      -0.354030        -9.6336
  80   2.0000      -0.350108        -9.5269
  81   2.0000      -0.348812        -9.4917
  82   2.0000      -0.344163        -9.3651
  83   2.0000      -0.337768        -9.1911
  84   2.0000      -0.333257        -9.0684
  85   2.0000      -0.323793        -8.8108
  86   2.0000      -0.312491        -8.5033
  87   2.0000      -0.302743        -8.2381
  88   2.0000      -0.299854        -8.1594
  89   2.0000      -0.288898        -7.8613
  90   2.0000      -0.281599        -7.6627
  91   2.0000      -0.279082        -7.5942
  92   2.0000      -0.271126        -7.3777
  93   2.0000      -0.268177        -7.2975
  94   2.0000      -0.255754        -6.9594
  95   2.0000      -0.232940        -6.3386
  96   2.0000      -0.217504        -5.9186
  97   2.0000      -0.214238        -5.8297
  98   2.0000      -0.208921        -5.6850
  99   2.0000      -0.201252        -5.4764
 100   2.0000      -0.198402        -5.3988
 101   0.0000      -0.046111        -1.2548
 102   0.0000      -0.022706        -0.6178
 103   0.0000      -0.004140        -0.1127
 104   0.0000       0.002251         0.0612
 105   0.0000       0.006543         0.1780

MULLIKEN ATOMIC CHARGES
-----------------------
   0 C :   -0.299885
   1 C :   -0.013154
   2 O :   -0.351711
   3 P :    0.614478
   4 S :   -0.334647
   5 O :   -0.369125
   6 C :   -0.012723
   7 C :   -0.296227
   8 S :   -0.086920
   9 C :   -0.344162
  10 S :   -0.112048
  11 P :    0.633574
  12 S :   -0.315819
  13 O :   -0.382593
  14 C :   -0.007652
  15 C :   -0.293867
  16 O :   -0.365458
  17 C :   -0.030480
  18 C :   -0.307580
  19 H :    0.110298
  20 H :    0.123244
  21 H :    0.114106
  22 H :    0.103822
  23 H :    0.115279
  24 H :    0.105012
  25 H :    0.108478
  26 H :    0.108953
  27 H :    0.113731
  28 H :    0.130931
  29 H :    0.191562
  30 H :    0.192556
  31 H :    0.101078
  32 H :    0.114423
  33 H :    0.105905
  34 H :    0.109658
  35 H :    0.122296
  36 H :    0.116465
  37 H :    0.112177
  38 H :    0.137641
  39 H :    0.111967
  40 H :    0.126415
Sum of atomic charges:   -0.0000000

LOEWDIN ATOMIC CHARGES
----------------------
   0 C :   -0.363945
   1 C :   -0.119669
   2 O :   -0.228823
   3 P :    0.571004
   4 S :   -0.318119
   5 O :   -0.244017
   6 C :   -0.116231
   7 C :   -0.364316
   8 S :    0.091296
   9 C :   -0.480403
  10 S :    0.081949
  11 P :    0.572719
  12 S :   -0.308430
  13 O :   -0.246627
  14 C :   -0.123769
  15 C :   -0.362091
  16 O :   -0.242650
  17 C :   -0.115222
  18 C :   -0.362551
  19 H :    0.129700
  20 H :    0.122817
  21 H :    0.125344
  22 H :    0.114724
  23 H :    0.108495
  24 H :    0.107250
  25 H :    0.119509
  26 H :    0.129484
  27 H :    0.125597
  28 H :    0.124495
  29 H :    0.130632
  30 H :    0.131822
  31 H :    0.114955
  32 H :    0.105224
  33 H :    0.120364
  34 H :    0.129620
  35 H :    0.124602
  36 H :    0.110540
  37 H :    0.122544
  38 H :    0.118821
  39 H :    0.131190
  40 H :    0.132165

  Mayer bond orders larger than 0.100000
B(  0-C ,  1-C ) :   1.1636 B(  0-C , 19-H ) :   0.9400 B(  0-C , 20-H ) :   0.9351
B(  0-C , 21-H ) :   0.9464 B(  1-C ,  2-O ) :   0.9030 B(  1-C , 22-H ) :   0.9306
B(  1-C , 23-H ) :   0.9116 B(  2-O ,  3-P ) :   1.1315 B(  3-P ,  4-S ) :   1.5899
B(  3-P ,  5-O ) :   1.1200 B(  3-P ,  8-S ) :   0.9524 B(  4-S ,  8-S ) :   0.1088
B(  5-O ,  6-C ) :   0.9049 B(  6-C ,  7-C ) :   1.1668 B(  6-C , 24-H ) :   0.9158
B(  6-C , 25-H ) :   0.9360 B(  7-C , 26-H ) :   0.9391 B(  7-C , 27-H ) :   0.9472
B(  7-C , 28-H ) :   0.9316 B(  8-S ,  9-C ) :   1.0013 B(  9-C , 10-S ) :   1.0085
B(  9-C , 29-H ) :   0.8836 B(  9-C , 30-H ) :   0.8822 B( 10-S , 11-P ) :   0.9440
B( 10-S , 12-S ) :   0.1019 B( 11-P , 12-S ) :   1.6305 B( 11-P , 13-O ) :   1.0763
B( 11-P , 16-O ) :   1.1341 B( 13-O , 14-C ) :   0.8982 B( 14-C , 15-C ) :   1.1612
B( 14-C , 31-H ) :   0.9317 B( 14-C , 32-H ) :   0.9072 B( 15-C , 33-H ) :   0.9487
B( 15-C , 34-H ) :   0.9414 B( 15-C , 35-H ) :   0.9396 B( 16-O , 17-C ) :   0.9022
B( 17-C , 18-C ) :   1.1677 B( 17-C , 36-H ) :   0.9142 B( 17-C , 37-H ) :   0.9337
B( 18-C , 38-H ) :   0.9314 B( 18-C , 39-H ) :   0.9381 B( 18-C , 40-H ) :   0.9458

Dispersion correction           -0.067029073
FINAL SINGLE POINT ENERGY     -2929.523539824079

DIPOLE MOMENT
-------------

Method             : SCF
Type of density    : Electron Density
Multiplicity       :   1
Irrep              :   0
Energy             : -2929.6416535124740221 Eh
Relativity type    :
Basis              : AO
                                X                 Y                 Z
Electronic contribution:     -4.708006006       5.232512880     -18.629171942
Nuclear contribution   :      5.083752687      -5.519012053      20.214649558
                        -----------------------------------------
Total Dipole Moment    :      0.375746681      -0.286499174       1.585477616
                        -----------------------------------------
Magnitude (a.u.)       :      1.654390104
Magnitude (Debye)      :      4.205125457

Rotational constants in cm-1:             0.012017             0.005407             0.005023
Rotational constants in MHz :           360.270159           162.083109           150.597830

                             ****ORCA TERMINATED NORMALLY****
TOTAL RUN TIME: 0 days 0 hours 0 minutes 22 seconds 26 msec
