                         Program Version 6.0.0  -   RELEASE  -
|  1> ! pbe def2-sv(p) def2/J RI DEFGRID1 loosescf d4 GCP(DFT/SV(P)) printgap
|  2> %output
|  3>     printlevel normal
|  4> end
|  5> * xyz 0 1
|  6> C 2.9925541719 2.3594988205 -1.6375641853
|  7> C 1.741716463 1.6550302929 -1.1513012956
|  8> O 2.0674909109 0.2996083105 -0.8049238692
|  9> P 1.9036883336 -0.3630853455 0.6299740764
| 10> S 1.5326524755 0.9012394507 2.0834519903
| 11> O 3.219817108 -1.2457872486 0.7334260477
| 12> C 4.5432478413 -0.7573926763 0.4354292611
| 13> C 5.0438319215 0.2141997428 1.4857205664
| 14> S 0.6238926891 -2.0351706035 0.4980456517
| 15> C -0.7122344333 -1.5427759906 1.6346507645
| 16> S -2.3291621496 -1.3693220008 0.8352659283
| 17> P -1.8304771231 0.0331768825 -0.6960904294
| 18> S -0.8644178764 -0.5724792581 -2.2871945598
| 19> O -1.0541270422 1.1727118294 0.076031687
| 20> C -1.6924451628 2.0071453735 1.0827109807
| 21> C -2.1143460349 3.3307015888 0.4814640107
| 22> O -3.2336720552 0.7059859541 -1.0138843396
| 23> C -4.1369667597 0.1649004637 -1.993875762
| 24> C -4.6722371817 -1.1915623462 -1.585118841
| 25> H 2.7290846614 3.3607667989 -1.9623619845
| 26> H 3.7245306632 2.4259487933 -0.8357298417
| 27> H 3.4253578821 1.8150716712 -2.472389917
| 28> H 0.9812077012 1.5986768335 -1.9335673972
| 29> H 1.3225995607 2.1546065677 -0.2718002193
| 30> H 5.1496244971 -1.6644588915 0.4109324072
| 31> H 4.5303939468 -0.29686661 -0.5559377193
| 32> H 5.0064659637 -0.2449631426 2.4704326653
| 33> H 6.0675261955 0.4939342698 1.2576563946
| 34> H 4.4249096368 1.1101706758 1.5021103218
| 35> H -0.424473719 -0.6074412716 2.1235502056
| 36> H -0.8364605109 -2.339463842 2.3640935674
| 37> H -2.5477212585 1.4690111764 1.4982285953
| 38> H -0.9282567201 2.1444813549 1.8518042679
| 39> H -1.256648785 3.8323604378 0.0417327133
| 40> H -2.8644917574 3.173322651 -0.2886879248
| 41> H -2.5295025149 3.9548569803 1.2665028995
| 42> H -4.9308088823 0.9103114866 -2.0565527746
| 43> H -3.6088032253 0.0989869016 -2.9501815358
| 44> H -5.4297611841 -1.5087945657 -2.2945003335
| 45> H -3.8644839537 -1.9228693441 -1.581589667
| 46> H -5.1044771836 -1.1451038094 -0.5887727159
| 47> *
| 48>
| 49>                          ****END OF INPUT****

CARTESIAN COORDINATES (ANGSTROEM)
---------------------------------
  C      2.992554    2.359499   -1.637564
  C      1.741716    1.655030   -1.151301
  O      2.067491    0.299608   -0.804924
  P      1.903688   -0.363085    0.629974
  S      1.532652    0.901239    2.083452
  O      3.219817   -1.245787    0.733426
  C      4.543248   -0.757393    0.435429
  C      5.043832    0.214200    1.485721
  S      0.623893   -2.035171    0.498046
  C     -0.712234   -1.542776    1.634651
  S     -2.329162   -1.369322    0.835266
  P     -1.830477    0.033177   -0.696090
  S     -0.864418   -0.572479   -2.287195
  O     -1.054127    1.172712    0.076032
  C     -1.692445    2.007145    1.082711
  C     -2.114346    3.330702    0.481464
  O     -3.233672    0.705986   -1.013884
  C     -4.136967    0.164900   -1.993876
  C     -4.672237   -1.191562   -1.585119
  H      2.729085    3.360767   -1.962362
  H      3.724531    2.425949   -0.835730
  H      3.425358    1.815072   -2.472390
  H      0.981208    1.598677   -1.933567
  H      1.322600    2.154607   -0.271800
  H      5.149624   -1.664459    0.410932
  H      4.530394   -0.296867   -0.555938
  H      5.006466   -0.244963    2.470433
  H      6.067526    0.493934    1.257656
  H      4.424910    1.110171    1.502110
  H     -0.424474   -0.607441    2.123550
  H     -0.836461   -2.339464    2.364094
  H     -2.547721    1.469011    1.498229
  H     -0.928257    2.144481    1.851804
  H     -1.256649    3.832360    0.041733
  H     -2.864492    3.173323   -0.288688
  H     -2.529503    3.954857    1.266503
  H     -4.930809    0.910311   -2.056553
  H     -3.608803    0.098987   -2.950182
  H     -5.429761   -1.508795   -2.294500
  H     -3.864484   -1.922869   -1.581590
  H     -5.104477   -1.145104   -0.588773

 Total Charge           Charge          ....    0
 Multiplicity           Mult            ....    1
 Number of Electrons    NEL             ....  202
 Basis Dimension        Dim             ....  334

ORBITAL ENERGIES
----------------

  NO   OCC          E(Eh)            E(eV)
   0   2.0000     -88.040147     -2395.6942
   1   2.0000     -88.036605     -2395.5978
   2   2.0000     -87.988212     -2394.2810
   3   2.0000     -87.982295     -2394.1200
   4   2.0000     -76.426169     -2079.6618
   5   2.0000     -76.423706     -2079.5948
   6   2.0000     -18.795047      -511.4392
   7   2.0000     -18.793911      -511.4083
   8   2.0000     -18.787159      -511.2246
   9   2.0000     -18.786472      -511.2059
  10   2.0000      -9.955250      -270.8961
  11   2.0000      -9.952653      -270.8255
  12   2.0000      -9.952190      -270.8128
  13   2.0000      -9.950504      -270.7670
  14   2.0000      -9.938585      -270.4427
  15   2.0000      -9.887129      -269.0425
  16   2.0000      -9.885355      -268.9942
  17   2.0000      -9.882500      -268.9165
  18   2.0000      -9.882471      -268.9157
  19   2.0000      -7.685214      -209.1253
  20   2.0000      -7.681723      -209.0303
  21   2.0000      -7.633057      -207.7061
  22   2.0000      -7.627354      -207.5509
  23   2.0000      -6.423538      -174.7934
  24   2.0000      -6.421286      -174.7321
  25   2.0000      -5.713142      -155.4625
  26   2.0000      -5.709738      -155.3699
  27   2.0000      -5.709604      -155.3662
  28   2.0000      -5.706342      -155.2775
  29   2.0000      -5.702286      -155.1671
  30   2.0000      -5.698377      -155.0607
  31   2.0000      -5.661659      -154.0616
  32   2.0000      -5.656433      -153.9194
  33   2.0000      -5.654079      -153.8553
  34   2.0000      -5.653068      -153.8278
  35   2.0000      -5.647873      -153.6864
  36   2.0000      -5.647443      -153.6747
  37   2.0000      -4.646747      -126.4444
  38   2.0000      -4.645317      -126.4055
  39   2.0000      -4.643941      -126.3681
  40   2.0000      -4.643419      -126.3539
  41   2.0000      -4.642600      -126.3316
  42   2.0000      -4.642143      -126.3191
  43   2.0000      -0.990332       -26.9483
  44   2.0000      -0.982034       -26.7225
  45   2.0000      -0.947221       -25.7752
  46   2.0000      -0.937806       -25.5190
  47   2.0000      -0.758667       -20.6444
  48   2.0000      -0.720269       -19.5995
  49   2.0000      -0.708280       -19.2733
  50   2.0000      -0.691894       -18.8274
  51   2.0000      -0.684240       -18.6191
  52   2.0000      -0.671511       -18.2727
  53   2.0000      -0.650595       -17.7036
  54   2.0000      -0.637999       -17.3608
  55   2.0000      -0.598235       -16.2788
  56   2.0000      -0.588624       -16.0173
  57   2.0000      -0.574365       -15.6293
  58   2.0000      -0.570903       -15.5351
  59   2.0000      -0.557146       -15.1607
  60   2.0000      -0.503679       -13.7058
  61   2.0000      -0.493161       -13.4196
  62   2.0000      -0.476032       -12.9535
  63   2.0000      -0.472146       -12.8477
  64   2.0000      -0.452747       -12.3199
  65   2.0000      -0.450358       -12.2549
  66   2.0000      -0.436784       -11.8855
  67   2.0000      -0.428258       -11.6535
  68   2.0000      -0.426279       -11.5997
  69   2.0000      -0.419298       -11.4097
  70   2.0000      -0.408431       -11.1140
  71   2.0000      -0.397229       -10.8092
  72   2.0000      -0.391350       -10.6492
  73   2.0000      -0.382801       -10.4165
  74   2.0000      -0.379783       -10.3344
  75   2.0000      -0.371910       -10.1202
  76   2.0000      -0.363920        -9.9028
  77   2.0000      -0.358469        -9.7544
  78   2.0000      -0.356004        -9.6874
  79   2.0000      -0.350000        -9.5240
  80   2.0000      -0.346649        -9.4328
  81   2.0000      -0.343122        -9.3368
  82   2.0000      -0.340536        -9.2665
  83   2.0000      -0.337222        -9.1763
  84   2.0000      -0.333477        -9.0744
  85   2.0000      -0.319507        -8.6942
  86   2.0000      -0.308946        -8.4068
  87   2.0000      -0.300009        -8.1637
  88   2.0000      -0.294472        -8.0130
  89   2.0000      -0.288163        -7.8413
  90   2.0000      -0.285082        -7.7575
  91   2.0000      -0.272162        -7.4059
  92   2.0000      -0.269191        -7.3251
  93   2.0000      -0.261980        -7.1288
  94   2.0000      -0.257210        -6.9990
  95   2.0000      -0.237518        -6.4632
  96   2.0000      -0.222624        -6.0579
  97   2.0000      -0.206908        -5.6303
  98   2.0000      -0.204002        -5.5512
  99   2.0000      -0.195345        -5.3156
 100   2.0000      -0.186316        -5.0699
 101   0.0000      -0.043391        -1.1807
 102   0.0000      -0.028483        -0.7751
 103   0.0000      -0.013535        -0.3683
 104   0.0000       0.007486         0.2037
 105   0.0000       0.019821         0.5394

MULLIKEN ATOMIC CHARGES
-----------------------
   0 C :   -0.292045
   1 C :   -0.025056
   2 O :   -0.372053
   3 P :    0.657044
   4 S :   -0.345298
   5 O :   -0.373184
   6 C :   -0.014255
   7 C :   -0.316613
   8 S :   -0.065899
   9 C :   -0.355580
  10 S :   -0.109624
  11 P :    0.589087
  12 S :   -0.289707
  13 O :   -0.363324
  14 C :   -0.024528
  15 C :   -0.284359
  16 O :   -0.379174
  17 C :    0.001096
  18 C :   -0.331180
  19 H :    0.109819
  20 H :    0.111064
  21 H :    0.117441
  22 H :    0.110973
  23 H :    0.117530
  24 H :    0.108472
  25 H :    0.111213
  26 H :    0.121737
  27 H :    0.108693
  28 H :    0.133289
  29 H :    0.200593
  30 H :    0.182628
  31 H :    0.102096
  32 H :    0.121422
  33 H :    0.116454
  34 H :    0.118727
  35 H :    0.109734
  36 H :    0.104648
  37 H :    0.112475
  38 H :    0.117885
  39 H :    0.135880
  40 H :    0.121879
Sum of atomic charges:   -0.0000000

LOEWDIN ATOMIC CHARGES
----------------------
   0 C :   -0.356684
   1 C :   -0.126932
   2 O :   -0.233304
   3 P :    0.573425
   4 S :   -0.302404
   5 O :   -0.245527
   6 C :   -0.114391
   7 C :   -0.366938
   8 S :    0.107025
   9 C :   -0.483495
  10 S :    0.063522
  11 P :    0.564515
  12 S :   -0.295460
  13 O :   -0.234463
  14 C :   -0.123759
  15 C :   -0.356712
  16 O :   -0.245932
  17 C :   -0.118874
  18 C :   -0.373391
  19 H :    0.130185
  20 H :    0.120160
  21 H :    0.125191
  22 H :    0.109164
  23 H :    0.103049
  24 H :    0.121097
  25 H :    0.111060
  26 H :    0.130030
  27 H :    0.128549
  28 H :    0.119857
  29 H :    0.119933
  30 H :    0.138825
  31 H :    0.106114
  32 H :    0.112589
  33 H :    0.126149
  34 H :    0.124833
  35 H :    0.130399
  36 H :    0.118294
  37 H :    0.112036
  38 H :    0.133793
  39 H :    0.123986
  40 H :    0.124486

  Mayer bond orders larger than 0.100000
B(  0-C ,  1-C ) :   1.1548 B(  0-C , 19-H ) :   0.9414 B(  0-C , 20-H ) :   0.9434
B(  0-C , 21-H ) :   0.9468 B(  1-C ,  2-O ) :   0.9024 B(  1-C , 22-H ) :   0.9148
B(  1-C , 23-H ) :   0.9025 B(  2-O ,  3-P ) :   1.1171 B(  3-P ,  4-S ) :   1.5784
B(  3-P ,  5-O ) :   1.1168 B(  3-P ,  8-S ) :   0.9740 B(  4-S ,  8-S ) :   0.1169
B(  4-S , 29-H ) :   0.1086 B(  5-O ,  6-C ) :   0.9154 B(  6-C ,  7-C ) :   1.1634
B(  6-C , 24-H ) :   0.9352 B(  6-C , 25-H ) :   0.9231 B(  7-C , 26-H ) :   0.9449
B(  7-C , 27-H ) :   0.9381 B(  7-C , 28-H ) :   0.9316 B(  8-S ,  9-C ) :   1.0171
B(  9-C , 10-S ) :   0.9813 B(  9-C , 29-H ) :   0.8508 B(  9-C , 30-H ) :   0.9121
B( 10-S , 11-P ) :   0.9586 B( 10-S , 12-S ) :   0.1099 B( 11-P , 12-S ) :   1.6578
B( 11-P , 13-O ) :   1.1119 B( 11-P , 16-O ) :   1.0716 B( 13-O , 14-C ) :   0.8798
B( 14-C , 15-C ) :   1.1704 B( 14-C , 31-H ) :   0.9107 B( 14-C , 32-H ) :   0.9099
B( 15-C , 33-H ) :   0.9487 B( 15-C , 34-H ) :   0.9423 B( 15-C , 35-H ) :   0.9397
B( 16-O , 17-C ) :   0.9066 B( 17-C , 18-C ) :   1.1650 B( 17-C , 36-H ) :   0.9328
B( 17-C , 37-H ) :   0.9151 B( 18-C , 38-H ) :   0.9373 B( 18-C , 39-H ) :   0.9314
B( 18-C , 40-H ) :   0.9422

Dispersion correction           -0.068405363
FINAL SINGLE POINT ENERGY     -2929.515941660174

DIPOLE MOMENT
-------------

Method             : SCF
Type of density    : Electron Density
Multiplicity       :   1
Irrep              :   0
Energy             : -2929.6354366762329846 Eh
Relativity type    :
Basis              : AO
                                X                 Y                 Z
Electronic contribution:     -3.164747848     -17.246585451       2.845282263
Nuclear contribution   :      2.827519807      18.047018971      -2.807803886
                        -----------------------------------------
Total Dipole Moment    :     -0.337228041       0.800433519       0.037478378
                        -----------------------------------------
Magnitude (a.u.)       :      0.869379779
Magnitude (Debye)      :      2.209787782

Rotational constants in cm-1:             0.013222             0.005384             0.005070
Rotational constants in MHz :           396.400537           161.410738           151.981045

                             ****ORCA TERMINATED NORMALLY****
TOTAL RUN TIME: 0 days 0 hours 0 minutes 21 seconds 491 msec
