                         Program Version 6.0.0  -   RELEASE  -
|  1> ! pbe def2-sv(p) def2/J RI DEFGRID1 loosescf d4 GCP(DFT/SV(P)) printgap
|  2> %output
|  3>     printlevel normal
|  4> end
|  5> * xyz 0 1
|  6> C 4.2562508705 0.51178688 -2.2656840301
|  7> C 4.4114114792 -0.2844609693 -0.9850996435
|  8> O 3.6055788104 0.2947072974 0.0741528151
|  9> P 2.258808827 -0.3178894836 0.6081514876
| 10> S 1.6147125483 0.7131961174 2.138422629
| 11> O 2.6528599964 -1.8383649143 0.8543577875
| 12> C 1.7099140512 -2.8426856814 1.2783679997
| 13> C 1.5953657304 -2.8888085379 2.7896456647
| 14> S 0.9498002831 -0.506937199 -1.0768788645
| 15> C 0.5319747063 1.2447483708 -1.2763558921
| 16> S -0.7638768691 1.8360780446 -0.1490415022
| 17> P -2.1971552082 0.3182256334 -0.5957534765
| 18> S -2.2698363588 -0.3061266774 -2.4448800943
| 19> O -3.5507202822 0.9204652969 -0.0166189651
| 20> C -4.4371038564 1.7331319268 -0.8078025212
| 21> C -3.8165797633 3.0614609669 -1.1881446424
| 22> O -1.9039134424 -0.8512961907 0.4232790425
| 23> C -1.9483127527 -0.6917773558 1.8674122766
| 24> C -2.2543266499 -2.0467251298 2.4696516031
| 25> H 4.9650668338 0.1403842896 -2.9990568746
| 26> H 3.2505002345 0.4069347749 -2.6657335565
| 27> H 4.4570785218 1.5631775005 -2.0781274872
| 28> H 5.4337226783 -0.2320243332 -0.6077835876
| 29> H 4.1236002187 -1.3275202124 -1.1252135216
| 30> H 0.7415676699 -2.644726346 0.808835385
| 31> H 2.116678465 -3.7760407167 0.88362195
| 32> H 1.1958929295 -1.9515795606 3.1702540434
| 33> H 0.9352207623 -3.7015746531 3.075460574
| 34> H 2.5751546743 -3.0515578174 3.2301161071
| 35> H 0.1827408927 1.3484768107 -2.3026706195
| 36> H 1.4080550167 1.8622587685 -1.0878028338
| 37> H -4.7135773385 1.1675950135 -1.7028747016
| 38> H -5.3091485952 1.8639548429 -0.1654045157
| 39> H -2.9949032392 2.9017658577 -1.8846058296
| 40> H -4.5670325168 3.682658344 -1.6663343795
| 41> H -3.4350237766 3.5691445791 -0.3055373993
| 42> H -0.9738099656 -0.3137404817 2.191906075
| 43> H -2.7170647693 0.04058696 2.1184543571
| 44> H -2.2403108035 -1.9622160866 3.5514257082
| 45> H -3.2335425262 -2.387437429 2.1450094939
| 46> H -1.5095656624 -2.7726753994 2.1561140166
| 47> *
| 48>
| 49>                          ****END OF INPUT****

CARTESIAN COORDINATES (ANGSTROEM)
---------------------------------
  C      4.256251    0.511787   -2.265684
  C      4.411411   -0.284461   -0.985100
  O      3.605579    0.294707    0.074153
  P      2.258809   -0.317889    0.608151
  S      1.614713    0.713196    2.138423
  O      2.652860   -1.838365    0.854358
  C      1.709914   -2.842686    1.278368
  C      1.595366   -2.888809    2.789646
  S      0.949800   -0.506937   -1.076879
  C      0.531975    1.244748   -1.276356
  S     -0.763877    1.836078   -0.149042
  P     -2.197155    0.318226   -0.595753
  S     -2.269836   -0.306127   -2.444880
  O     -3.550720    0.920465   -0.016619
  C     -4.437104    1.733132   -0.807803
  C     -3.816580    3.061461   -1.188145
  O     -1.903913   -0.851296    0.423279
  C     -1.948313   -0.691777    1.867412
  C     -2.254327   -2.046725    2.469652
  H      4.965067    0.140384   -2.999057
  H      3.250500    0.406935   -2.665734
  H      4.457079    1.563178   -2.078127
  H      5.433723   -0.232024   -0.607784
  H      4.123600   -1.327520   -1.125214
  H      0.741568   -2.644726    0.808835
  H      2.116678   -3.776041    0.883622
  H      1.195893   -1.951580    3.170254
  H      0.935221   -3.701575    3.075461
  H      2.575155   -3.051558    3.230116
  H      0.182741    1.348477   -2.302671
  H      1.408055    1.862259   -1.087803
  H     -4.713577    1.167595   -1.702875
  H     -5.309149    1.863955   -0.165405
  H     -2.994903    2.901766   -1.884606
  H     -4.567033    3.682658   -1.666334
  H     -3.435024    3.569145   -0.305537
  H     -0.973810   -0.313740    2.191906
  H     -2.717065    0.040587    2.118454
  H     -2.240311   -1.962216    3.551426
  H     -3.233543   -2.387437    2.145009
  H     -1.509566   -2.772675    2.156114

 Total Charge           Charge          ....    0
 Multiplicity           Mult            ....    1
 Number of Electrons    NEL             ....  202
 Basis Dimension        Dim             ....  334

ORBITAL ENERGIES
----------------

  NO   OCC          E(Eh)            E(eV)
   0   2.0000     -88.043251     -2395.7787
   1   2.0000     -88.035793     -2395.5757
   2   2.0000     -87.985096     -2394.1962
   3   2.0000     -87.984196     -2394.1717
   4   2.0000     -76.427218     -2079.6903
   5   2.0000     -76.423619     -2079.5924
   6   2.0000     -18.796719      -511.4847
   7   2.0000     -18.794954      -511.4367
   8   2.0000     -18.792108      -511.3592
   9   2.0000     -18.784943      -511.1643
  10   2.0000      -9.959593      -271.0143
  11   2.0000      -9.959553      -271.0132
  12   2.0000      -9.957875      -270.9676
  13   2.0000      -9.952567      -270.8231
  14   2.0000      -9.944350      -270.5995
  15   2.0000      -9.890903      -269.1452
  16   2.0000      -9.885857      -269.0078
  17   2.0000      -9.884584      -268.9732
  18   2.0000      -9.882748      -268.9232
  19   2.0000      -7.687384      -209.1843
  20   2.0000      -7.680712      -209.0028
  21   2.0000      -7.630133      -207.6265
  22   2.0000      -7.629494      -207.6091
  23   2.0000      -6.424665      -174.8240
  24   2.0000      -6.420753      -174.7176
  25   2.0000      -5.715066      -155.5149
  26   2.0000      -5.712008      -155.4316
  27   2.0000      -5.708543      -155.3374
  28   2.0000      -5.705398      -155.2518
  29   2.0000      -5.704566      -155.2291
  30   2.0000      -5.697576      -155.0389
  31   2.0000      -5.659097      -153.9919
  32   2.0000      -5.658479      -153.9750
  33   2.0000      -5.650721      -153.7639
  34   2.0000      -5.650247      -153.7510
  35   2.0000      -5.650056      -153.7458
  36   2.0000      -5.649631      -153.7343
  37   2.0000      -4.647714      -126.4707
  38   2.0000      -4.646546      -126.4390
  39   2.0000      -4.644601      -126.3860
  40   2.0000      -4.643676      -126.3608
  41   2.0000      -4.642397      -126.3260
  42   2.0000      -4.641112      -126.2911
  43   2.0000      -0.991676       -26.9849
  44   2.0000      -0.984250       -26.7828
  45   2.0000      -0.948589       -25.8124
  46   2.0000      -0.939823       -25.5739
  47   2.0000      -0.761692       -20.7267
  48   2.0000      -0.721684       -19.6380
  49   2.0000      -0.711124       -19.3507
  50   2.0000      -0.693416       -18.8688
  51   2.0000      -0.687402       -18.7052
  52   2.0000      -0.673087       -18.3156
  53   2.0000      -0.650491       -17.7008
  54   2.0000      -0.638920       -17.3859
  55   2.0000      -0.592567       -16.1246
  56   2.0000      -0.587140       -15.9769
  57   2.0000      -0.580298       -15.7907
  58   2.0000      -0.567171       -15.4335
  59   2.0000      -0.564876       -15.3711
  60   2.0000      -0.511195       -13.9103
  61   2.0000      -0.499557       -13.5936
  62   2.0000      -0.481525       -13.1030
  63   2.0000      -0.471994       -12.8436
  64   2.0000      -0.459651       -12.5077
  65   2.0000      -0.446772       -12.1573
  66   2.0000      -0.443365       -12.0646
  67   2.0000      -0.435613       -11.8536
  68   2.0000      -0.424799       -11.5594
  69   2.0000      -0.419710       -11.4209
  70   2.0000      -0.405506       -11.0344
  71   2.0000      -0.401601       -10.9281
  72   2.0000      -0.390853       -10.6357
  73   2.0000      -0.387008       -10.5310
  74   2.0000      -0.377941       -10.2843
  75   2.0000      -0.371151       -10.0995
  76   2.0000      -0.363459        -9.8902
  77   2.0000      -0.358386        -9.7522
  78   2.0000      -0.356356        -9.6969
  79   2.0000      -0.354758        -9.6535
  80   2.0000      -0.350980        -9.5507
  81   2.0000      -0.347794        -9.4640
  82   2.0000      -0.338582        -9.2133
  83   2.0000      -0.335182        -9.1208
  84   2.0000      -0.333185        -9.0664
  85   2.0000      -0.322411        -8.7733
  86   2.0000      -0.315542        -8.5863
  87   2.0000      -0.303396        -8.2558
  88   2.0000      -0.299864        -8.1597
  89   2.0000      -0.296742        -8.0748
  90   2.0000      -0.292150        -7.9498
  91   2.0000      -0.277591        -7.5536
  92   2.0000      -0.267039        -7.2665
  93   2.0000      -0.261348        -7.1116
  94   2.0000      -0.257622        -7.0103
  95   2.0000      -0.239146        -6.5075
  96   2.0000      -0.214802        -5.8450
  97   2.0000      -0.207573        -5.6483
  98   2.0000      -0.203917        -5.5489
  99   2.0000      -0.199695        -5.4340
 100   2.0000      -0.186368        -5.0713
 101   0.0000      -0.042790        -1.1644
 102   0.0000      -0.027246        -0.7414
 103   0.0000      -0.004737        -0.1289
 104   0.0000       0.002891         0.0787
 105   0.0000       0.013893         0.3780

MULLIKEN ATOMIC CHARGES
-----------------------
   0 C :   -0.301160
   1 C :   -0.006301
   2 O :   -0.360968
   3 P :    0.591394
   4 S :   -0.298415
   5 O :   -0.380518
   6 C :   -0.038089
   7 C :   -0.298129
   8 S :   -0.091120
   9 C :   -0.346525
  10 S :   -0.074200
  11 P :    0.603372
  12 S :   -0.321973
  13 O :   -0.383155
  14 C :    0.000640
  15 C :   -0.317326
  16 O :   -0.362652
  17 C :   -0.035216
  18 C :   -0.292181
  19 H :    0.113369
  20 H :    0.124832
  21 H :    0.120621
  22 H :    0.112549
  23 H :    0.108309
  24 H :    0.130868
  25 H :    0.108433
  26 H :    0.132390
  27 H :    0.111854
  28 H :    0.116394
  29 H :    0.191126
  30 H :    0.183551
  31 H :    0.112765
  32 H :    0.104146
  33 H :    0.126578
  34 H :    0.112733
  35 H :    0.119391
  36 H :    0.127660
  37 H :    0.106410
  38 H :    0.111495
  39 H :    0.116211
  40 H :    0.120837
Sum of atomic charges:   -0.0000000

LOEWDIN ATOMIC CHARGES
----------------------
   0 C :   -0.362023
   1 C :   -0.110909
   2 O :   -0.238465
   3 P :    0.557593
   4 S :   -0.296021
   5 O :   -0.247783
   6 C :   -0.116469
   7 C :   -0.365037
   8 S :    0.082521
   9 C :   -0.476999
  10 S :    0.080315
  11 P :    0.568831
  12 S :   -0.320456
  13 O :   -0.248442
  14 C :   -0.115928
  15 C :   -0.371107
  16 O :   -0.240448
  17 C :   -0.124675
  18 C :   -0.349798
  19 H :    0.131924
  20 H :    0.120990
  21 H :    0.128039
  22 H :    0.122908
  23 H :    0.111718
  24 H :    0.110508
  25 H :    0.119976
  26 H :    0.123749
  27 H :    0.128214
  28 H :    0.128325
  29 H :    0.132902
  30 H :    0.132294
  31 H :    0.112578
  32 H :    0.118239
  33 H :    0.120965
  34 H :    0.130866
  35 H :    0.124208
  36 H :    0.104983
  37 H :    0.110667
  38 H :    0.130847
  39 H :    0.127088
  40 H :    0.123312

  Mayer bond orders larger than 0.100000
B(  0-C ,  1-C ) :   1.1670 B(  0-C , 19-H ) :   0.9396 B(  0-C , 20-H ) :   0.9353
B(  0-C , 21-H ) :   0.9456 B(  1-C ,  2-O ) :   0.8916 B(  1-C , 22-H ) :   0.9346
B(  1-C , 23-H ) :   0.9178 B(  2-O ,  3-P ) :   1.1286 B(  3-P ,  4-S ) :   1.6575
B(  3-P ,  5-O ) :   1.0839 B(  3-P ,  8-S ) :   0.9449 B(  4-S ,  8-S ) :   0.1152
B(  5-O ,  6-C ) :   0.9049 B(  6-C ,  7-C ) :   1.1691 B(  6-C , 24-H ) :   0.9118
B(  6-C , 25-H ) :   0.9344 B(  7-C , 26-H ) :   0.9301 B(  7-C , 27-H ) :   0.9344
B(  7-C , 28-H ) :   0.9447 B(  8-S ,  9-C ) :   0.9930 B(  9-C , 10-S ) :   1.0057
B(  9-C , 29-H ) :   0.8923 B(  9-C , 30-H ) :   0.8964 B( 10-S , 11-P ) :   0.9562
B( 10-S , 12-S ) :   0.1108 B( 11-P , 12-S ) :   1.6171 B( 11-P , 13-O ) :   1.0884
B( 11-P , 16-O ) :   1.1352 B( 13-O , 14-C ) :   0.9067 B( 14-C , 15-C ) :   1.1659
B( 14-C , 31-H ) :   0.9186 B( 14-C , 32-H ) :   0.9344 B( 15-C , 33-H ) :   0.9345
B( 15-C , 34-H ) :   0.9369 B( 15-C , 35-H ) :   0.9435 B( 16-O , 17-C ) :   0.8799
B( 17-C , 18-C ) :   1.1664 B( 17-C , 36-H ) :   0.9008 B( 17-C , 37-H ) :   0.9189
B( 18-C , 38-H ) :   0.9406 B( 18-C , 39-H ) :   0.9480 B( 18-C , 40-H ) :   0.9452

Dispersion correction           -0.065999001
FINAL SINGLE POINT ENERGY     -2929.519765163816

DIPOLE MOMENT
-------------

Method             : SCF
Type of density    : Electron Density
Multiplicity       :   1
Irrep              :   0
Energy             : -2929.6379899815406134 Eh
Relativity type    :
Basis              : AO
                                X                 Y                 Z
Electronic contribution:      0.576541430       5.004225949      -4.482540169
Nuclear contribution   :     -0.319215243      -5.301911633       4.500038069
                        -----------------------------------------
Total Dipole Moment    :      0.257326187      -0.297685684       0.017497900
                        -----------------------------------------
Magnitude (a.u.)       :      0.393877785
Magnitude (Debye)      :      1.001157766

Rotational constants in cm-1:             0.011554             0.005491             0.004634
Rotational constants in MHz :           346.390053           164.617816           138.913757

                             ****ORCA TERMINATED NORMALLY****
TOTAL RUN TIME: 0 days 0 hours 0 minutes 21 seconds 408 msec
