                         Program Version 6.0.0  -   RELEASE  -
|  1> ! r2scan-3c def2/J RI DEFGRID2 scfconv6 printgap
|  2> %output
|  3>     printlevel normal
|  4> end
|  5> * xyz 0 1
|  6> C 4.3492763453 -2.2755959012 0.2254671078
|  7> C 4.7915134667 -0.8646010789 -0.1050553491
|  8> O 3.7821206544 0.1118803948 0.2056087192
|  9> P 2.4019256489 0.1901219874 -0.5796985458
| 10> S 2.536541253 -0.1373634591 -2.5044751316
| 11> O 1.9199903294 1.6647224083 -0.2843050241
| 12> C 1.3987743455 2.1778704022 0.9629526634
| 13> C 2.3312918719 1.9463221892 2.1321256645
| 14> S 1.0990431867 -1.0962293631 0.5045382456
| 15> C -0.1083884651 -1.3337560073 -0.8177300467
| 16> S -0.9504431955 0.2035365193 -1.3254565982
| 17> P -2.456630979 0.2283013014 0.151755943
| 18> S -3.7642866434 1.6857835984 0.0820298558
| 19> O -1.5352454638 0.1747993966 1.4387228869
| 20> C -2.1093785384 0.093888602 2.7662806575
| 21> C -0.9973268198 0.3536862524 3.7605539458
| 22> O -3.1051427394 -1.2336853761 0.173094009
| 23> C -4.2917503206 -1.5407536961 -0.5759032771
| 24> C -4.0226111894 -1.5732343159 -2.0668703639
| 25> H 3.5481949367 -2.5806558305 -0.4456784857
| 26> H 5.188871001 -2.9514703694 0.0986778737
| 27> H 3.9919025599 -2.3314878774 1.250393718
| 28> H 5.039448518 -0.7788728224 -1.1676294548
| 29> H 5.6446534237 -0.5566955999 0.5010198042
| 30> H 1.2624540318 3.2408102385 0.7561637216
| 31> H 0.4231024702 1.7157257499 1.1414841086
| 32> H 3.318925406 2.3394302087 1.9058228078
| 33> H 1.9355207536 2.4524427476 3.0074722926
| 34> H 2.4149431483 0.8822192327 2.3430996745
| 35> H -0.8398723298 -2.0527399442 -0.4583298639
| 36> H 0.404892964 -1.6885467927 -1.7111547579
| 37> H -2.9096731298 0.8372657786 2.8421738374
| 38> H -2.5331362396 -0.9050456445 2.8901449585
| 39> H -0.6185994849 1.3652785489 3.6463708899
| 40> H -1.3841885307 0.2280874091 4.7664307038
| 41> H -0.1859739054 -0.3494274113 3.5938628912
| 42> H -4.6009133598 -2.5160232657 -0.1976819543
| 43> H -5.0522460852 -0.7892703221 -0.3411533581
| 44> H -4.9290143917 -1.8595274527 -2.5904487867
| 45> H -3.7172271491 -0.5839113329 -2.4082714585
| 46> H -3.2337542072 -2.2837104714 -2.3007652337
| 47> *
| 48>
| 49>                          ****END OF INPUT****

CARTESIAN COORDINATES (ANGSTROEM)
---------------------------------
  C      4.349276   -2.275596    0.225467
  C      4.791513   -0.864601   -0.105055
  O      3.782121    0.111880    0.205609
  P      2.401926    0.190122   -0.579699
  S      2.536541   -0.137363   -2.504475
  O      1.919990    1.664722   -0.284305
  C      1.398774    2.177870    0.962953
  C      2.331292    1.946322    2.132126
  S      1.099043   -1.096229    0.504538
  C     -0.108388   -1.333756   -0.817730
  S     -0.950443    0.203537   -1.325457
  P     -2.456631    0.228301    0.151756
  S     -3.764287    1.685784    0.082030
  O     -1.535245    0.174799    1.438723
  C     -2.109379    0.093889    2.766281
  C     -0.997327    0.353686    3.760554
  O     -3.105143   -1.233685    0.173094
  C     -4.291750   -1.540754   -0.575903
  C     -4.022611   -1.573234   -2.066870
  H      3.548195   -2.580656   -0.445678
  H      5.188871   -2.951470    0.098678
  H      3.991903   -2.331488    1.250394
  H      5.039449   -0.778873   -1.167629
  H      5.644653   -0.556696    0.501020
  H      1.262454    3.240810    0.756164
  H      0.423102    1.715726    1.141484
  H      3.318925    2.339430    1.905823
  H      1.935521    2.452443    3.007472
  H      2.414943    0.882219    2.343100
  H     -0.839872   -2.052740   -0.458330
  H      0.404893   -1.688547   -1.711155
  H     -2.909673    0.837266    2.842174
  H     -2.533136   -0.905046    2.890145
  H     -0.618599    1.365279    3.646371
  H     -1.384189    0.228087    4.766431
  H     -0.185974   -0.349427    3.593863
  H     -4.600913   -2.516023   -0.197682
  H     -5.052246   -0.789270   -0.341153
  H     -4.929014   -1.859527   -2.590449
  H     -3.717227   -0.583911   -2.408271
  H     -3.233754   -2.283710   -2.300765

 Total Charge           Charge          ....    0
 Multiplicity           Mult            ....    1
 Number of Electrons    NEL             ....  202
 Basis Dimension        Dim             ....  539

ORBITAL ENERGIES
----------------

  NO   OCC          E(Eh)            E(eV)
   0   2.0000     -88.578543     -2410.3447
   1   2.0000     -88.576764     -2410.2963
   2   2.0000     -88.522386     -2408.8166
   3   2.0000     -88.518583     -2408.7131
   4   2.0000     -76.915832     -2092.9862
   5   2.0000     -76.914494     -2092.9498
   6   2.0000     -18.996258      -516.9145
   7   2.0000     -18.994522      -516.8672
   8   2.0000     -18.993636      -516.8431
   9   2.0000     -18.987115      -516.6657
  10   2.0000     -10.110742      -275.1273
  11   2.0000     -10.104563      -274.9591
  12   2.0000     -10.100755      -274.8555
  13   2.0000     -10.099791      -274.8293
  14   2.0000     -10.096328      -274.7351
  15   2.0000     -10.039459      -273.1876
  16   2.0000     -10.031788      -272.9788
  17   2.0000     -10.031226      -272.9635
  18   2.0000     -10.030326      -272.9390
  19   2.0000      -7.872260      -214.2151
  20   2.0000      -7.871405      -214.1918
  21   2.0000      -7.816918      -212.7092
  22   2.0000      -7.813379      -212.6128
  23   2.0000      -6.594336      -179.4410
  24   2.0000      -6.592742      -179.3976
  25   2.0000      -5.819606      -158.3595
  26   2.0000      -5.818241      -158.3224
  27   2.0000      -5.815832      -158.2568
  28   2.0000      -5.815233      -158.2405
  29   2.0000      -5.809292      -158.0789
  30   2.0000      -5.808530      -158.0581
  31   2.0000      -5.764535      -156.8610
  32   2.0000      -5.761076      -156.7669
  33   2.0000      -5.757329      -156.6649
  34   2.0000      -5.756862      -156.6522
  35   2.0000      -5.753626      -156.5641
  36   2.0000      -5.753355      -156.5567
  37   2.0000      -4.739913      -128.9796
  38   2.0000      -4.739389      -128.9653
  39   2.0000      -4.738404      -128.9385
  40   2.0000      -4.737866      -128.9239
  41   2.0000      -4.737803      -128.9222
  42   2.0000      -4.736248      -128.8798
  43   2.0000      -1.054597       -28.6971
  44   2.0000      -1.048727       -28.5373
  45   2.0000      -1.014499       -27.6059
  46   2.0000      -1.009083       -27.4585
  47   2.0000      -0.803989       -21.8776
  48   2.0000      -0.762418       -20.7465
  49   2.0000      -0.751646       -20.4533
  50   2.0000      -0.736013       -20.0279
  51   2.0000      -0.734547       -19.9880
  52   2.0000      -0.714806       -19.4509
  53   2.0000      -0.689473       -18.7615
  54   2.0000      -0.669506       -18.2182
  55   2.0000      -0.631463       -17.1830
  56   2.0000      -0.624658       -16.9978
  57   2.0000      -0.612868       -16.6770
  58   2.0000      -0.607963       -16.5435
  59   2.0000      -0.594040       -16.1647
  60   2.0000      -0.535398       -14.5689
  61   2.0000      -0.517144       -14.0722
  62   2.0000      -0.497780       -13.5453
  63   2.0000      -0.490157       -13.3378
  64   2.0000      -0.478672       -13.0253
  65   2.0000      -0.468727       -12.7547
  66   2.0000      -0.462460       -12.5842
  67   2.0000      -0.455766       -12.4020
  68   2.0000      -0.452319       -12.3082
  69   2.0000      -0.441803       -12.0221
  70   2.0000      -0.426192       -11.5973
  71   2.0000      -0.416720       -11.3395
  72   2.0000      -0.413984       -11.2651
  73   2.0000      -0.411266       -11.1911
  74   2.0000      -0.396815       -10.7979
  75   2.0000      -0.390340       -10.6217
  76   2.0000      -0.383290       -10.4298
  77   2.0000      -0.377712       -10.2781
  78   2.0000      -0.376973       -10.2580
  79   2.0000      -0.370625       -10.0852
  80   2.0000      -0.366553        -9.9744
  81   2.0000      -0.361628        -9.8404
  82   2.0000      -0.358299        -9.7498
  83   2.0000      -0.354547        -9.6477
  84   2.0000      -0.347508        -9.4562
  85   2.0000      -0.339298        -9.2328
  86   2.0000      -0.327838        -8.9209
  87   2.0000      -0.316714        -8.6182
  88   2.0000      -0.311156        -8.4670
  89   2.0000      -0.309110        -8.4113
  90   2.0000      -0.306062        -8.3284
  91   2.0000      -0.294659        -8.0181
  92   2.0000      -0.286677        -7.8009
  93   2.0000      -0.277476        -7.5505
  94   2.0000      -0.276826        -7.5328
  95   2.0000      -0.246347        -6.7035
  96   2.0000      -0.231711        -6.3052
  97   2.0000      -0.221921        -6.0388
  98   2.0000      -0.218558        -5.9473
  99   2.0000      -0.217424        -5.9164
 100   2.0000      -0.214704        -5.8424
 101   0.0000      -0.045702        -1.2436
 102   0.0000      -0.025602        -0.6967
 103   0.0000      -0.014541        -0.3957
 104   0.0000       0.004246         0.1155
 105   0.0000       0.005827         0.1586

MULLIKEN ATOMIC CHARGES
-----------------------
   0 C :   -0.443431
   1 C :   -0.169047
   2 O :   -0.265814
   3 P :    0.654981
   4 S :   -0.454436
   5 O :   -0.261463
   6 C :   -0.164574
   7 C :   -0.434546
   8 S :   -0.153675
   9 C :   -0.266770
  10 S :   -0.105865
  11 P :    0.669531
  12 S :   -0.459732
  13 O :   -0.253776
  14 C :   -0.144766
  15 C :   -0.459520
  16 O :   -0.310119
  17 C :   -0.157648
  18 C :   -0.430540
  19 H :    0.176627
  20 H :    0.147808
  21 H :    0.151527
  22 H :    0.176885
  23 H :    0.148809
  24 H :    0.155894
  25 H :    0.185650
  26 H :    0.161460
  27 H :    0.146985
  28 H :    0.157532
  29 H :    0.204247
  30 H :    0.220298
  31 H :    0.169338
  32 H :    0.154090
  33 H :    0.154231
  34 H :    0.147208
  35 H :    0.161742
  36 H :    0.146639
  37 H :    0.172682
  38 H :    0.148204
  39 H :    0.175433
  40 H :    0.147922
Sum of atomic charges:    0.0000000

LOEWDIN ATOMIC CHARGES
----------------------
   0 C :   -0.408784
   1 C :    0.021069
   2 O :   -0.669953
   3 P :    0.381382
   4 S :   -0.103584
   5 O :   -0.651558
   6 C :    0.020883
   7 C :   -0.403259
   8 S :    0.152205
   9 C :   -0.414775
  10 S :    0.196960
  11 P :    0.361399
  12 S :   -0.113188
  13 O :   -0.705534
  14 C :    0.025478
  15 C :   -0.386983
  16 O :   -0.687566
  17 C :    0.017142
  18 C :   -0.401700
  19 H :    0.165273
  20 H :    0.159174
  21 H :    0.158725
  22 H :    0.181273
  23 H :    0.179392
  24 H :    0.184349
  25 H :    0.190601
  26 H :    0.164902
  27 H :    0.158958
  28 H :    0.161696
  29 H :    0.191018
  30 H :    0.193585
  31 H :    0.180812
  32 H :    0.173023
  33 H :    0.159363
  34 H :    0.160355
  35 H :    0.163438
  36 H :    0.178032
  37 H :    0.181463
  38 H :    0.160317
  39 H :    0.167799
  40 H :    0.156819

  Mayer bond orders larger than 0.100000
B(  0-C ,  1-C ) :   0.9116 B(  0-C , 19-H ) :   0.9648 B(  0-C , 20-H ) :   0.9573
B(  0-C , 21-H ) :   0.9685 B(  1-C ,  2-O ) :   0.8100 B(  1-C , 22-H ) :   0.9691
B(  1-C , 23-H ) :   0.9617 B(  2-O ,  3-P ) :   1.0410 B(  3-P ,  4-S ) :   1.8052
B(  3-P ,  5-O ) :   1.1803 B(  3-P ,  8-S ) :   0.9960 B(  5-O ,  6-C ) :   0.8148
B(  6-C ,  7-C ) :   0.8973 B(  6-C , 24-H ) :   0.9587 B(  6-C , 25-H ) :   0.9618
B(  7-C , 26-H ) :   0.9651 B(  7-C , 27-H ) :   0.9589 B(  7-C , 28-H ) :   0.9668
B(  8-S ,  9-C ) :   0.9148 B(  9-C , 10-S ) :   0.9007 B(  9-C , 29-H ) :   0.9130
B(  9-C , 30-H ) :   0.9127 B( 10-S , 11-P ) :   1.0793 B( 11-P , 12-S ) :   1.8229
B( 11-P , 13-O ) :   1.1231 B( 11-P , 16-O ) :   1.0079 B( 13-O , 14-C ) :   0.7833
B( 14-C , 15-C ) :   0.9572 B( 14-C , 31-H ) :   0.9491 B( 14-C , 32-H ) :   0.9473
B( 15-C , 33-H ) :   0.9699 B( 15-C , 34-H ) :   0.9610 B( 15-C , 35-H ) :   0.9677
B( 16-O , 17-C ) :   0.8126 B( 17-C , 18-C ) :   0.9337 B( 17-C , 36-H ) :   0.9598
B( 17-C , 37-H ) :   0.9599 B( 18-C , 38-H ) :   0.9603 B( 18-C , 39-H ) :   0.9591
B( 18-C , 40-H ) :   0.9697

Dispersion correction           -0.021879600
FINAL SINGLE POINT ENERGY     -2932.461160754847

DIPOLE MOMENT
-------------

Method             : SCF
Type of density    : Electron Density
Multiplicity       :   1
Irrep              :   0
Energy             : -2932.4857851085093898 Eh
Relativity type    :
Basis              : AO
                                X                 Y                 Z
Electronic contribution:     -2.919481233       7.557967306     -14.785943682
Nuclear contribution   :      3.068261487      -8.981615507      16.562342432
                        -----------------------------------------
Total Dipole Moment    :      0.148780255      -1.423648201       1.776398750
                        -----------------------------------------
Magnitude (a.u.)       :      2.281337827
Magnitude (Debye)      :      5.798699927

Rotational constants in cm-1:             0.012598             0.005017             0.004446
Rotational constants in MHz :           377.677898           150.403460           133.290064

                             ****ORCA TERMINATED NORMALLY****
TOTAL RUN TIME: 0 days 0 hours 1 minutes 19 seconds 965 msec
