                         Program Version 6.0.0  -   RELEASE  -
|  1> ! r2scan-3c def2/J RI DEFGRID2 scfconv6 printgap
|  2> %output
|  3>     printlevel normal
|  4> end
|  5> %cpcm
|  6>     smd true
|  7>     smdsolvent "water"
|  8> end
|  9> * xyz 0 1
| 10> C 4.3492763453 -2.2755959012 0.2254671078
| 11> C 4.7915134667 -0.8646010789 -0.1050553491
| 12> O 3.7821206544 0.1118803948 0.2056087192
| 13> P 2.4019256489 0.1901219874 -0.5796985458
| 14> S 2.536541253 -0.1373634591 -2.5044751316
| 15> O 1.9199903294 1.6647224083 -0.2843050241
| 16> C 1.3987743455 2.1778704022 0.9629526634
| 17> C 2.3312918719 1.9463221892 2.1321256645
| 18> S 1.0990431867 -1.0962293631 0.5045382456
| 19> C -0.1083884651 -1.3337560073 -0.8177300467
| 20> S -0.9504431955 0.2035365193 -1.3254565982
| 21> P -2.456630979 0.2283013014 0.151755943
| 22> S -3.7642866434 1.6857835984 0.0820298558
| 23> O -1.5352454638 0.1747993966 1.4387228869
| 24> C -2.1093785384 0.093888602 2.7662806575
| 25> C -0.9973268198 0.3536862524 3.7605539458
| 26> O -3.1051427394 -1.2336853761 0.173094009
| 27> C -4.2917503206 -1.5407536961 -0.5759032771
| 28> C -4.0226111894 -1.5732343159 -2.0668703639
| 29> H 3.5481949367 -2.5806558305 -0.4456784857
| 30> H 5.188871001 -2.9514703694 0.0986778737
| 31> H 3.9919025599 -2.3314878774 1.250393718
| 32> H 5.039448518 -0.7788728224 -1.1676294548
| 33> H 5.6446534237 -0.5566955999 0.5010198042
| 34> H 1.2624540318 3.2408102385 0.7561637216
| 35> H 0.4231024702 1.7157257499 1.1414841086
| 36> H 3.318925406 2.3394302087 1.9058228078
| 37> H 1.9355207536 2.4524427476 3.0074722926
| 38> H 2.4149431483 0.8822192327 2.3430996745
| 39> H -0.8398723298 -2.0527399442 -0.4583298639
| 40> H 0.404892964 -1.6885467927 -1.7111547579
| 41> H -2.9096731298 0.8372657786 2.8421738374
| 42> H -2.5331362396 -0.9050456445 2.8901449585
| 43> H -0.6185994849 1.3652785489 3.6463708899
| 44> H -1.3841885307 0.2280874091 4.7664307038
| 45> H -0.1859739054 -0.3494274113 3.5938628912
| 46> H -4.6009133598 -2.5160232657 -0.1976819543
| 47> H -5.0522460852 -0.7892703221 -0.3411533581
| 48> H -4.9290143917 -1.8595274527 -2.5904487867
| 49> H -3.7172271491 -0.5839113329 -2.4082714585
| 50> H -3.2337542072 -2.2837104714 -2.3007652337
| 51> *
| 52>
| 53>                          ****END OF INPUT****

CARTESIAN COORDINATES (ANGSTROEM)
---------------------------------
  C      4.349276   -2.275596    0.225467
  C      4.791513   -0.864601   -0.105055
  O      3.782121    0.111880    0.205609
  P      2.401926    0.190122   -0.579699
  S      2.536541   -0.137363   -2.504475
  O      1.919990    1.664722   -0.284305
  C      1.398774    2.177870    0.962953
  C      2.331292    1.946322    2.132126
  S      1.099043   -1.096229    0.504538
  C     -0.108388   -1.333756   -0.817730
  S     -0.950443    0.203537   -1.325457
  P     -2.456631    0.228301    0.151756
  S     -3.764287    1.685784    0.082030
  O     -1.535245    0.174799    1.438723
  C     -2.109379    0.093889    2.766281
  C     -0.997327    0.353686    3.760554
  O     -3.105143   -1.233685    0.173094
  C     -4.291750   -1.540754   -0.575903
  C     -4.022611   -1.573234   -2.066870
  H      3.548195   -2.580656   -0.445678
  H      5.188871   -2.951470    0.098678
  H      3.991903   -2.331488    1.250394
  H      5.039449   -0.778873   -1.167629
  H      5.644653   -0.556696    0.501020
  H      1.262454    3.240810    0.756164
  H      0.423102    1.715726    1.141484
  H      3.318925    2.339430    1.905823
  H      1.935521    2.452443    3.007472
  H      2.414943    0.882219    2.343100
  H     -0.839872   -2.052740   -0.458330
  H      0.404893   -1.688547   -1.711155
  H     -2.909673    0.837266    2.842174
  H     -2.533136   -0.905046    2.890145
  H     -0.618599    1.365279    3.646371
  H     -1.384189    0.228087    4.766431
  H     -0.185974   -0.349427    3.593863
  H     -4.600913   -2.516023   -0.197682
  H     -5.052246   -0.789270   -0.341153
  H     -4.929014   -1.859527   -2.590449
  H     -3.717227   -0.583911   -2.408271
  H     -3.233754   -2.283710   -2.300765

 Total Charge           Charge          ....    0
 Multiplicity           Mult            ....    1
 Number of Electrons    NEL             ....  202
 Basis Dimension        Dim             ....  539

ORBITAL ENERGIES
----------------

  NO   OCC          E(Eh)            E(eV)
   0   2.0000     -88.581165     -2410.4160
   1   2.0000     -88.577092     -2410.3052
   2   2.0000     -88.529480     -2409.0096
   3   2.0000     -88.528342     -2408.9787
   4   2.0000     -76.920094     -2093.1022
   5   2.0000     -76.918439     -2093.0571
   6   2.0000     -18.995028      -516.8810
   7   2.0000     -18.993479      -516.8388
   8   2.0000     -18.992910      -516.8234
   9   2.0000     -18.990673      -516.7625
  10   2.0000     -10.106440      -275.0102
  11   2.0000     -10.090084      -274.5651
  12   2.0000     -10.089782      -274.5569
  13   2.0000     -10.089551      -274.5506
  14   2.0000     -10.088191      -274.5136
  15   2.0000     -10.019871      -272.6545
  16   2.0000     -10.019486      -272.6441
  17   2.0000     -10.018388      -272.6142
  18   2.0000     -10.018108      -272.6066
  19   2.0000      -7.875104      -214.2925
  20   2.0000      -7.871554      -214.1959
  21   2.0000      -7.824431      -212.9136
  22   2.0000      -7.823521      -212.8888
  23   2.0000      -6.598445      -179.5528
  24   2.0000      -6.596927      -179.5115
  25   2.0000      -5.822390      -158.4353
  26   2.0000      -5.818628      -158.3329
  27   2.0000      -5.818448      -158.3280
  28   2.0000      -5.815404      -158.2452
  29   2.0000      -5.812233      -158.1589
  30   2.0000      -5.808628      -158.0608
  31   2.0000      -5.771926      -157.0621
  32   2.0000      -5.771090      -157.0394
  33   2.0000      -5.764832      -156.8691
  34   2.0000      -5.764429      -156.8581
  35   2.0000      -5.763763      -156.8400
  36   2.0000      -5.763558      -156.8344
  37   2.0000      -4.744092      -129.0933
  38   2.0000      -4.743424      -129.0751
  39   2.0000      -4.742392      -129.0470
  40   2.0000      -4.742069      -129.0382
  41   2.0000      -4.741953      -129.0351
  42   2.0000      -4.740653      -128.9997
  43   2.0000      -1.051913       -28.6240
  44   2.0000      -1.050842       -28.5949
  45   2.0000      -1.012204       -27.5435
  46   2.0000      -1.009996       -27.4834
  47   2.0000      -0.802843       -21.8465
  48   2.0000      -0.756334       -20.5809
  49   2.0000      -0.744934       -20.2707
  50   2.0000      -0.725716       -19.7477
  51   2.0000      -0.722991       -19.6736
  52   2.0000      -0.711082       -19.3495
  53   2.0000      -0.691680       -18.8216
  54   2.0000      -0.674538       -18.3551
  55   2.0000      -0.629743       -17.1362
  56   2.0000      -0.618040       -16.8177
  57   2.0000      -0.604184       -16.4407
  58   2.0000      -0.599806       -16.3215
  59   2.0000      -0.587941       -15.9987
  60   2.0000      -0.527104       -14.3432
  61   2.0000      -0.513487       -13.9727
  62   2.0000      -0.489631       -13.3235
  63   2.0000      -0.487378       -13.2622
  64   2.0000      -0.476189       -12.9578
  65   2.0000      -0.460344       -12.5266
  66   2.0000      -0.458563       -12.4781
  67   2.0000      -0.451097       -12.2750
  68   2.0000      -0.439498       -11.9593
  69   2.0000      -0.436139       -11.8679
  70   2.0000      -0.420572       -11.4443
  71   2.0000      -0.411237       -11.1903
  72   2.0000      -0.409348       -11.1389
  73   2.0000      -0.401983       -10.9385
  74   2.0000      -0.393959       -10.7202
  75   2.0000      -0.387466       -10.5435
  76   2.0000      -0.379336       -10.3223
  77   2.0000      -0.371388       -10.1060
  78   2.0000      -0.361184        -9.8283
  79   2.0000      -0.359708        -9.7882
  80   2.0000      -0.356934        -9.7127
  81   2.0000      -0.352477        -9.5914
  82   2.0000      -0.348713        -9.4890
  83   2.0000      -0.344607        -9.3772
  84   2.0000      -0.341028        -9.2799
  85   2.0000      -0.332398        -9.0450
  86   2.0000      -0.322350        -8.7716
  87   2.0000      -0.310991        -8.4625
  88   2.0000      -0.306560        -8.3419
  89   2.0000      -0.303821        -8.2674
  90   2.0000      -0.303028        -8.2458
  91   2.0000      -0.288653        -7.8547
  92   2.0000      -0.283013        -7.7012
  93   2.0000      -0.277489        -7.5509
  94   2.0000      -0.275817        -7.5054
  95   2.0000      -0.248324        -6.7572
  96   2.0000      -0.237341        -6.4584
  97   2.0000      -0.230952        -6.2845
  98   2.0000      -0.228441        -6.2162
  99   2.0000      -0.225148        -6.1266
 100   2.0000      -0.221535        -6.0283
 101   0.0000      -0.047728        -1.2988
 102   0.0000      -0.030180        -0.8212
 103   0.0000      -0.017460        -0.4751
 104   0.0000       0.002049         0.0558
 105   0.0000       0.005671         0.1543

MULLIKEN ATOMIC CHARGES
-----------------------
   0 C :   -0.480769
   1 C :   -0.161778
   2 O :   -0.286930
   3 P :    0.664841
   4 S :   -0.513852
   5 O :   -0.296841
   6 C :   -0.161296
   7 C :   -0.471564
   8 S :   -0.136841
   9 C :   -0.264290
  10 S :   -0.151196
  11 P :    0.703041
  12 S :   -0.528529
  13 O :   -0.266614
  14 C :   -0.133440
  15 C :   -0.504203
  16 O :   -0.319624
  17 C :   -0.148354
  18 C :   -0.471066
  19 H :    0.172908
  20 H :    0.171880
  21 H :    0.168400
  22 H :    0.179077
  23 H :    0.175706
  24 H :    0.177479
  25 H :    0.187181
  26 H :    0.170361
  27 H :    0.175242
  28 H :    0.165912
  29 H :    0.242196
  30 H :    0.235528
  31 H :    0.170877
  32 H :    0.174307
  33 H :    0.170945
  34 H :    0.168629
  35 H :    0.169639
  36 H :    0.174168
  37 H :    0.173240
  38 H :    0.170920
  39 H :    0.165340
  40 H :    0.169368
Sum of atomic charges:    0.0000000

LOEWDIN ATOMIC CHARGES
----------------------
   0 C :   -0.410959
   1 C :    0.026239
   2 O :   -0.678764
   3 P :    0.382901
   4 S :   -0.149309
   5 O :   -0.677642
   6 C :    0.024258
   7 C :   -0.403931
   8 S :    0.169253
   9 C :   -0.402859
  10 S :    0.170081
  11 P :    0.368282
  12 S :   -0.161214
  13 O :   -0.707470
  14 C :    0.031777
  15 C :   -0.389650
  16 O :   -0.685460
  17 C :    0.023495
  18 C :   -0.406057
  19 H :    0.161534
  20 H :    0.168006
  21 H :    0.163506
  22 H :    0.181550
  23 H :    0.190932
  24 H :    0.192627
  25 H :    0.191506
  26 H :    0.166151
  27 H :    0.170226
  28 H :    0.163319
  29 H :    0.205270
  30 H :    0.199036
  31 H :    0.181713
  32 H :    0.181164
  33 H :    0.163463
  34 H :    0.168546
  35 H :    0.164843
  36 H :    0.190043
  37 H :    0.181096
  38 H :    0.168040
  39 H :    0.161407
  40 H :    0.163052

  Mayer bond orders larger than 0.100000
B(  0-C ,  1-C ) :   0.9022 B(  0-C , 19-H ) :   0.9653 B(  0-C , 20-H ) :   0.9522
B(  0-C , 21-H ) :   0.9655 B(  1-C ,  2-O ) :   0.7984 B(  1-C , 22-H ) :   0.9671
B(  1-C , 23-H ) :   0.9508 B(  2-O ,  3-P ) :   1.0493 B(  3-P ,  4-S ) :   1.7826
B(  3-P ,  5-O ) :   1.1779 B(  3-P ,  8-S ) :   1.0194 B(  5-O ,  6-C ) :   0.8032
B(  6-C ,  7-C ) :   0.8948 B(  6-C , 24-H ) :   0.9491 B(  6-C , 25-H ) :   0.9533
B(  7-C , 26-H ) :   0.9661 B(  7-C , 27-H ) :   0.9512 B(  7-C , 28-H ) :   0.9619
B(  8-S ,  9-C ) :   0.9078 B(  9-C , 10-S ) :   0.8928 B(  9-C , 29-H ) :   0.9013
B(  9-C , 30-H ) :   0.9067 B( 10-S , 11-P ) :   1.0849 B( 11-P , 12-S ) :   1.7705
B( 11-P , 13-O ) :   1.1460 B( 11-P , 16-O ) :   1.0260 B( 13-O , 14-C ) :   0.7741
B( 14-C , 15-C ) :   0.9488 B( 14-C , 31-H ) :   0.9459 B( 14-C , 32-H ) :   0.9384
B( 15-C , 33-H ) :   0.9663 B( 15-C , 34-H ) :   0.9559 B( 15-C , 35-H ) :   0.9660
B( 16-O , 17-C ) :   0.8003 B( 17-C , 18-C ) :   0.9225 B( 17-C , 36-H ) :   0.9498
B( 17-C , 37-H ) :   0.9598 B( 18-C , 38-H ) :   0.9558 B( 18-C , 39-H ) :   0.9620
B( 18-C , 40-H ) :   0.9664

Dispersion correction           -0.021879600
FINAL SINGLE POINT ENERGY     -2932.472403109559

DIPOLE MOMENT
-------------

Method             : SCF
Type of density    : Electron Density
Multiplicity       :   1
Irrep              :   0
Energy             : -2932.4970274632210021 Eh
Relativity type    :
Basis              : AO
                                X                 Y                 Z
Electronic contribution:     -2.915096996       6.751547176     -13.970615478
Nuclear contribution   :      3.068261487      -8.981615507      16.562342432
                        -----------------------------------------
Total Dipole Moment    :      0.153164491      -2.230068331       2.591726954
                        -----------------------------------------
Magnitude (a.u.)       :      3.422530165
Magnitude (Debye)      :      8.699380328

Rotational constants in cm-1:             0.012598             0.005017             0.004446
Rotational constants in MHz :           377.677898           150.403460           133.290064

                             ****ORCA TERMINATED NORMALLY****
TOTAL RUN TIME: 0 days 0 hours 1 minutes 54 seconds 786 msec
