                         Program Version 6.0.0  -   RELEASE  -
|  1> ! pbe def2-sv(p) def2/J RI DEFGRID1 loosescf d4 GCP(DFT/SV(P)) printgap
|  2> %output
|  3>     printlevel normal
|  4> end
|  5> * xyz 0 1
|  6> C 1.351131528 1.4872336882 2.8347409193
|  7> C 2.8265238955 1.2072288407 2.6331500952
|  8> O 3.1799570435 1.1470223625 1.2385994106
|  9> P 2.8581955494 -0.1125298102 0.3355592291
| 10> S 2.9375339843 -1.8566276415 1.2376896681
| 11> O 3.9802968419 0.1711621257 -0.7456739077
| 12> C 4.4668872377 -0.84839596 -1.6358282861
| 13> C 3.4112194679 -1.3206546663 -2.6161577045
| 14> S 1.0391065882 0.3420753262 -0.6882856119
| 15> C -0.0067905999 -1.0197664639 -0.0895442705
| 16> S -1.3622946989 -0.4511629087 0.9502874916
| 17> P -2.6461681306 0.1404066143 -0.6509846122
| 18> S -2.6205065864 -1.0855931666 -2.1798033368
| 19> O -2.2417695183 1.5739178335 -1.1658250825
| 20> C -2.4339602748 2.8349789185 -0.4807843011
| 21> C -1.3996365667 3.056421364 0.6039752648
| 22> O -4.0260940956 0.4339939442 0.0769418534
| 23> C -4.6644190959 -0.4413161526 1.0262758593
| 24> C -4.8978143999 -1.8315472426 0.4739216415
| 25> H 1.1552804362 1.6254601759 3.8931361322
| 26> H 1.0629685811 2.3856288567 2.2958767241
| 27> H 0.7531037562 0.6496374124 2.4763952955
| 28> H 3.1110708593 0.2622598822 3.1077750438
| 29> H 3.4446842391 2.0165316684 3.0243634766
| 30> H 5.301759672 -0.3681262962 -2.1481428332
| 31> H 4.833908792 -1.6869433448 -1.0352337937
| 32> H 3.8683869091 -1.9858185646 -3.341904378
| 33> H 2.6255688686 -1.863452616 -2.0911788978
| 34> H 2.9674437518 -0.4738549689 -3.1343489667
| 35> H 0.6053987114 -1.7027779693 0.5044702972
| 36> H -0.4342126139 -1.523867106 -0.9587502554
| 37> H -2.332889624 3.5694312264 -1.2815820183
| 38> H -3.4473725051 2.8622392322 -0.0771409979
| 39> H -1.486897148 4.0740232786 0.9720166065
| 40> H -1.5538471159 2.3660180862 1.4299332366
| 41> H -0.4020704889 2.9068911361 0.1963670976
| 42> H -4.0431418389 -0.4815356288 1.9250082303
| 43> H -5.6066426203 0.0637512805 1.2462749198
| 44> H -5.4570218634 -1.7815745451 -0.4574598912
| 45> H -3.9461593098 -2.3226984191 0.2757159347
| 46> H -5.4546420991 -2.4185875458 1.1970837633
| 47> *
| 48>
| 49>                          ****END OF INPUT****

CARTESIAN COORDINATES (ANGSTROEM)
---------------------------------
  C      1.351132    1.487234    2.834741
  C      2.826524    1.207229    2.633150
  O      3.179957    1.147022    1.238599
  P      2.858196   -0.112530    0.335559
  S      2.937534   -1.856628    1.237690
  O      3.980297    0.171162   -0.745674
  C      4.466887   -0.848396   -1.635828
  C      3.411219   -1.320655   -2.616158
  S      1.039107    0.342075   -0.688286
  C     -0.006791   -1.019766   -0.089544
  S     -1.362295   -0.451163    0.950287
  P     -2.646168    0.140407   -0.650985
  S     -2.620507   -1.085593   -2.179803
  O     -2.241770    1.573918   -1.165825
  C     -2.433960    2.834979   -0.480784
  C     -1.399637    3.056421    0.603975
  O     -4.026094    0.433994    0.076942
  C     -4.664419   -0.441316    1.026276
  C     -4.897814   -1.831547    0.473922
  H      1.155280    1.625460    3.893136
  H      1.062969    2.385629    2.295877
  H      0.753104    0.649637    2.476395
  H      3.111071    0.262260    3.107775
  H      3.444684    2.016532    3.024363
  H      5.301760   -0.368126   -2.148143
  H      4.833909   -1.686943   -1.035234
  H      3.868387   -1.985819   -3.341904
  H      2.625569   -1.863453   -2.091179
  H      2.967444   -0.473855   -3.134349
  H      0.605399   -1.702778    0.504470
  H     -0.434213   -1.523867   -0.958750
  H     -2.332890    3.569431   -1.281582
  H     -3.447373    2.862239   -0.077141
  H     -1.486897    4.074023    0.972017
  H     -1.553847    2.366018    1.429933
  H     -0.402070    2.906891    0.196367
  H     -4.043142   -0.481536    1.925008
  H     -5.606643    0.063751    1.246275
  H     -5.457022   -1.781575   -0.457460
  H     -3.946159   -2.322698    0.275716
  H     -5.454642   -2.418588    1.197084

 Total Charge           Charge          ....    0
 Multiplicity           Mult            ....    1
 Number of Electrons    NEL             ....  202
 Basis Dimension        Dim             ....  334

ORBITAL ENERGIES
----------------

  NO   OCC          E(Eh)            E(eV)
   0   2.0000     -88.047393     -2395.8914
   1   2.0000     -88.043166     -2395.7764
   2   2.0000     -87.996859     -2394.5163
   3   2.0000     -87.982515     -2394.1260
   4   2.0000     -76.429612     -2079.7555
   5   2.0000     -76.428636     -2079.7289
   6   2.0000     -18.801184      -511.6062
   7   2.0000     -18.791985      -511.3559
   8   2.0000     -18.790889      -511.3261
   9   2.0000     -18.790111      -511.3049
  10   2.0000      -9.964078      -271.1363
  11   2.0000      -9.956308      -270.9249
  12   2.0000      -9.953904      -270.8595
  13   2.0000      -9.953209      -270.8406
  14   2.0000      -9.949817      -270.7483
  15   2.0000      -9.886312      -269.0202
  16   2.0000      -9.885967      -269.0108
  17   2.0000      -9.885914      -269.0094
  18   2.0000      -9.882566      -268.9183
  19   2.0000      -7.691754      -209.3033
  20   2.0000      -7.687805      -209.1958
  21   2.0000      -7.641625      -207.9392
  22   2.0000      -7.627794      -207.5628
  23   2.0000      -6.427173      -174.8923
  24   2.0000      -6.425912      -174.8580
  25   2.0000      -5.719312      -155.6304
  26   2.0000      -5.716396      -155.5510
  27   2.0000      -5.715572      -155.5286
  28   2.0000      -5.712377      -155.4417
  29   2.0000      -5.709040      -155.3509
  30   2.0000      -5.704877      -155.2376
  31   2.0000      -5.670296      -154.2966
  32   2.0000      -5.662278      -154.0784
  33   2.0000      -5.662031      -154.0717
  34   2.0000      -5.656878      -153.9315
  35   2.0000      -5.648429      -153.7016
  36   2.0000      -5.647737      -153.6827
  37   2.0000      -4.649288      -126.5136
  38   2.0000      -4.649110      -126.5087
  39   2.0000      -4.648986      -126.5053
  40   2.0000      -4.647816      -126.4735
  41   2.0000      -4.647763      -126.4721
  42   2.0000      -4.645838      -126.4197
  43   2.0000      -0.992467       -27.0064
  44   2.0000      -0.989636       -26.9294
  45   2.0000      -0.947841       -25.7921
  46   2.0000      -0.945696       -25.7337
  47   2.0000      -0.763538       -20.7769
  48   2.0000      -0.723648       -19.6914
  49   2.0000      -0.713972       -19.4282
  50   2.0000      -0.694142       -18.8886
  51   2.0000      -0.683881       -18.6093
  52   2.0000      -0.681799       -18.5527
  53   2.0000      -0.653891       -17.7933
  54   2.0000      -0.639228       -17.3943
  55   2.0000      -0.605269       -16.4702
  56   2.0000      -0.592694       -16.1280
  57   2.0000      -0.583151       -15.8683
  58   2.0000      -0.570290       -15.5184
  59   2.0000      -0.560282       -15.2460
  60   2.0000      -0.503112       -13.6904
  61   2.0000      -0.496212       -13.5026
  62   2.0000      -0.474980       -12.9248
  63   2.0000      -0.467876       -12.7316
  64   2.0000      -0.461271       -12.5518
  65   2.0000      -0.449751       -12.2384
  66   2.0000      -0.443012       -12.0550
  67   2.0000      -0.439289       -11.9537
  68   2.0000      -0.430116       -11.7040
  69   2.0000      -0.422470       -11.4960
  70   2.0000      -0.414669       -11.2837
  71   2.0000      -0.405856       -11.0439
  72   2.0000      -0.398051       -10.8315
  73   2.0000      -0.392040       -10.6680
  74   2.0000      -0.387951       -10.5567
  75   2.0000      -0.374205       -10.1826
  76   2.0000      -0.359288        -9.7767
  77   2.0000      -0.358407        -9.7528
  78   2.0000      -0.353743        -9.6258
  79   2.0000      -0.351173        -9.5559
  80   2.0000      -0.347092        -9.4448
  81   2.0000      -0.344318        -9.3694
  82   2.0000      -0.343788        -9.3550
  83   2.0000      -0.342457        -9.3187
  84   2.0000      -0.337669        -9.1884
  85   2.0000      -0.327014        -8.8985
  86   2.0000      -0.311350        -8.4723
  87   2.0000      -0.302138        -8.2216
  88   2.0000      -0.300987        -8.1903
  89   2.0000      -0.293450        -7.9852
  90   2.0000      -0.290179        -7.8962
  91   2.0000      -0.280031        -7.6200
  92   2.0000      -0.268857        -7.3160
  93   2.0000      -0.267568        -7.2809
  94   2.0000      -0.258253        -7.0274
  95   2.0000      -0.233267        -6.3475
  96   2.0000      -0.223001        -6.0682
  97   2.0000      -0.216964        -5.9039
  98   2.0000      -0.210494        -5.7278
  99   2.0000      -0.201908        -5.4942
 100   2.0000      -0.194773        -5.3000
 101   0.0000      -0.045187        -1.2296
 102   0.0000      -0.037014        -1.0072
 103   0.0000      -0.016609        -0.4520
 104   0.0000      -0.001482        -0.0403
 105   0.0000       0.009547         0.2598

MULLIKEN ATOMIC CHARGES
-----------------------
   0 C :   -0.329169
   1 C :   -0.000340
   2 O :   -0.357050
   3 P :    0.597595
   4 S :   -0.329265
   5 O :   -0.359068
   6 C :   -0.000410
   7 C :   -0.315916
   8 S :   -0.077291
   9 C :   -0.370943
  10 S :   -0.122450
  11 P :    0.616122
  12 S :   -0.308010
  13 O :   -0.352411
  14 C :    0.005131
  15 C :   -0.341060
  16 O :   -0.384811
  17 C :   -0.013957
  18 C :   -0.308769
  19 H :    0.109891
  20 H :    0.129878
  21 H :    0.126587
  22 H :    0.112642
  23 H :    0.107047
  24 H :    0.108493
  25 H :    0.112272
  26 H :    0.113689
  27 H :    0.124237
  28 H :    0.124510
  29 H :    0.192558
  30 H :    0.198517
  31 H :    0.110277
  32 H :    0.107830
  33 H :    0.109696
  34 H :    0.127782
  35 H :    0.141154
  36 H :    0.114941
  37 H :    0.110473
  38 H :    0.128241
  39 H :    0.128604
  40 H :    0.112754
Sum of atomic charges:    0.0000000

LOEWDIN ATOMIC CHARGES
----------------------
   0 C :   -0.366955
   1 C :   -0.116513
   2 O :   -0.237541
   3 P :    0.573656
   4 S :   -0.307269
   5 O :   -0.236819
   6 C :   -0.115340
   7 C :   -0.369089
   8 S :    0.088931
   9 C :   -0.494616
  10 S :    0.077013
  11 P :    0.568755
  12 S :   -0.304231
  13 O :   -0.234013
  14 C :   -0.109144
  15 C :   -0.372482
  16 O :   -0.244352
  17 C :   -0.114266
  18 C :   -0.368641
  19 H :    0.130378
  20 H :    0.127736
  21 H :    0.112729
  22 H :    0.109356
  23 H :    0.119934
  24 H :    0.120638
  25 H :    0.111673
  26 H :    0.131135
  27 H :    0.120695
  28 H :    0.127000
  29 H :    0.123561
  30 H :    0.125264
  31 H :    0.122790
  32 H :    0.112207
  33 H :    0.128964
  34 H :    0.117278
  35 H :    0.126043
  36 H :    0.108314
  37 H :    0.121692
  38 H :    0.131582
  39 H :    0.122974
  40 H :    0.130973

  Mayer bond orders larger than 0.100000
B(  0-C ,  1-C ) :   1.1603 B(  0-C , 19-H ) :   0.9375 B(  0-C , 20-H ) :   0.9389
B(  0-C , 21-H ) :   0.9333 B(  1-C ,  2-O ) :   0.9159 B(  1-C , 22-H ) :   0.9136
B(  1-C , 23-H ) :   0.9332 B(  2-O ,  3-P ) :   1.1280 B(  3-P ,  4-S ) :   1.5755
B(  3-P ,  5-O ) :   1.1328 B(  3-P ,  8-S ) :   0.9548 B(  4-S ,  8-S ) :   0.1231
B(  4-S , 29-H ) :   0.1172 B(  5-O ,  6-C ) :   0.9123 B(  6-C ,  7-C ) :   1.1636
B(  6-C , 24-H ) :   0.9344 B(  6-C , 25-H ) :   0.9203 B(  7-C , 26-H ) :   0.9372
B(  7-C , 27-H ) :   0.9393 B(  7-C , 28-H ) :   0.9423 B(  8-S ,  9-C ) :   1.0028
B(  9-C , 10-S ) :   1.0114 B(  9-C , 29-H ) :   0.8501 B(  9-C , 30-H ) :   0.8542
B( 10-S , 11-P ) :   0.9296 B( 10-S , 12-S ) :   0.1114 B( 11-P , 12-S ) :   1.6449
B( 11-P , 13-O ) :   1.1431 B( 11-P , 16-O ) :   1.0851 B( 12-S , 30-H ) :   0.1099
B( 13-O , 14-C ) :   0.9002 B( 14-C , 15-C ) :   1.1661 B( 14-C , 31-H ) :   0.9340
B( 14-C , 32-H ) :   0.9244 B( 15-C , 33-H ) :   0.9364 B( 15-C , 34-H ) :   0.9380
B( 15-C , 35-H ) :   0.9331 B( 16-O , 17-C ) :   0.9093 B( 17-C , 18-C ) :   1.1673
B( 17-C , 36-H ) :   0.9259 B( 17-C , 37-H ) :   0.9330 B( 18-C , 38-H ) :   0.9433
B( 18-C , 39-H ) :   0.9313 B( 18-C , 40-H ) :   0.9348

Dispersion correction           -0.064380696
FINAL SINGLE POINT ENERGY     -2929.516827339860

DIPOLE MOMENT
-------------

Method             : SCF
Type of density    : Electron Density
Multiplicity       :   1
Irrep              :   0
Energy             : -2929.6371527332894402 Eh
Relativity type    :
Basis              : AO
                                X                 Y                 Z
Electronic contribution:      3.952714110      -4.928167819      -6.741972245
Nuclear contribution   :     -4.337147484       5.903671347       7.815589943
                        -----------------------------------------
Total Dipole Moment    :     -0.384433374       0.975503529       1.073617697
                        -----------------------------------------
Magnitude (a.u.)       :      1.500683549
Magnitude (Debye)      :      3.814434443

Rotational constants in cm-1:             0.012392             0.004486             0.004145
Rotational constants in MHz :           371.513630           134.478589           124.260950

                             ****ORCA TERMINATED NORMALLY****
TOTAL RUN TIME: 0 days 0 hours 0 minutes 20 seconds 897 msec
