                         Program Version 6.0.0  -   RELEASE  -
|  1> ! pbe def2-sv(p) def2/J RI DEFGRID1 loosescf d4 GCP(DFT/SV(P)) printgap
|  2> %output
|  3>     printlevel normal
|  4> end
|  5> * xyz 0 1
|  6> C 4.3699769495 -0.116800767 -2.3012336265
|  7> C 4.5147642392 0.6237437128 -0.9874846128
|  8> O 3.8085566931 -0.0259513524 0.082843716
|  9> P 2.2239359414 -0.1356080442 0.1251268171
| 10> S 1.2780923922 1.4940288119 -0.4528633763
| 11> O 1.9614623075 -0.5813109243 1.6211003218
| 12> C 1.8122484207 0.3619474218 2.7001457022
| 13> C 3.1478666678 0.9184471044 3.1480691871
| 14> S 1.8099800023 -1.9564086963 -0.8403830562
| 15> C 0.0542019058 -1.7010682167 -1.2041486323
| 16> S -0.9523658525 -1.4043604658 0.2809185961
| 17> P -2.0673900977 0.3131894204 -0.3546062283
| 18> S -1.8473913097 0.8452452828 -2.2213447998
| 19> O -1.7885337362 1.4631413268 0.6793074848
| 20> C -1.9521855718 1.3116930846 2.1124030191
| 21> C -3.3261002127 1.7674198017 2.5580054802
| 22> O -3.5524665023 -0.1141707722 0.0305506327
| 23> C -4.24803841 -1.1293354957 -0.7191180274
| 24> C -5.7136180602 -1.0666946729 -0.3392028286
| 25> H 4.6384017528 -1.1629428456 -2.1773028926
| 26> H 3.3393298836 -0.0579051117 -2.6501436767
| 27> H 5.0172624119 0.3381269895 -3.044204737
| 28> H 4.1356855478 1.6467549918 -1.0801754933
| 29> H 5.5504297528 0.6392877174 -0.6452878918
| 30> H 1.1497853038 1.1675764009 2.3648313054
| 31> H 1.328120454 -0.2150338817 3.4894938882
| 32> H 3.580886229 1.5312909487 2.3594939783
| 33> H 3.002774538 1.5298243409 4.03333562
| 34> H 3.8320098339 0.1058352684 3.3762150712
| 35> H -0.2828072602 -2.6213486828 -1.6747930512
| 36> H -0.0737264237 -0.8474255115 -1.8765737717
| 37> H -1.7706409223 0.2664654193 2.379907385
| 38> H -1.1705212942 1.9446742365 2.5378930904
| 39> H -4.0944407893 1.1327777952 2.1260971033
| 40> H -3.3799867739 1.7136550965 3.6408955982
| 41> H -3.4974140411 2.7919959608 2.2394302084
| 42> H -4.1002986385 -0.9347945015 -1.7865250891
| 43> H -3.8105736788 -2.09944756 -0.4665252201
| 44> H -6.1185461726 -0.0871745625 -0.5774578965
| 45> H -6.2570584578 -1.8232702604 -0.895385439
| 46> H -5.8315335826 -1.2492338223 0.7249652596
| 47> *
| 48>
| 49>                          ****END OF INPUT****

CARTESIAN COORDINATES (ANGSTROEM)
---------------------------------
  C      4.369977   -0.116801   -2.301234
  C      4.514764    0.623744   -0.987485
  O      3.808557   -0.025951    0.082844
  P      2.223936   -0.135608    0.125127
  S      1.278092    1.494029   -0.452863
  O      1.961462   -0.581311    1.621100
  C      1.812248    0.361947    2.700146
  C      3.147867    0.918447    3.148069
  S      1.809980   -1.956409   -0.840383
  C      0.054202   -1.701068   -1.204149
  S     -0.952366   -1.404360    0.280919
  P     -2.067390    0.313189   -0.354606
  S     -1.847391    0.845245   -2.221345
  O     -1.788534    1.463141    0.679307
  C     -1.952186    1.311693    2.112403
  C     -3.326100    1.767420    2.558005
  O     -3.552467   -0.114171    0.030551
  C     -4.248038   -1.129335   -0.719118
  C     -5.713618   -1.066695   -0.339203
  H      4.638402   -1.162943   -2.177303
  H      3.339330   -0.057905   -2.650144
  H      5.017262    0.338127   -3.044205
  H      4.135686    1.646755   -1.080175
  H      5.550430    0.639288   -0.645288
  H      1.149785    1.167576    2.364831
  H      1.328120   -0.215034    3.489494
  H      3.580886    1.531291    2.359494
  H      3.002775    1.529824    4.033336
  H      3.832010    0.105835    3.376215
  H     -0.282807   -2.621349   -1.674793
  H     -0.073726   -0.847426   -1.876574
  H     -1.770641    0.266465    2.379907
  H     -1.170521    1.944674    2.537893
  H     -4.094441    1.132778    2.126097
  H     -3.379987    1.713655    3.640896
  H     -3.497414    2.791996    2.239430
  H     -4.100299   -0.934795   -1.786525
  H     -3.810574   -2.099448   -0.466525
  H     -6.118546   -0.087175   -0.577458
  H     -6.257058   -1.823270   -0.895385
  H     -5.831534   -1.249234    0.724965

 Total Charge           Charge          ....    0
 Multiplicity           Mult            ....    1
 Number of Electrons    NEL             ....  202
 Basis Dimension        Dim             ....  334

ORBITAL ENERGIES
----------------

  NO   OCC          E(Eh)            E(eV)
   0   2.0000     -88.041196     -2395.7227
   1   2.0000     -88.039067     -2395.6648
   2   2.0000     -87.981836     -2394.1075
   3   2.0000     -87.981174     -2394.0894
   4   2.0000     -76.422710     -2079.5677
   5   2.0000     -76.422206     -2079.5540
   6   2.0000     -18.790773      -511.3229
   7   2.0000     -18.789921      -511.2997
   8   2.0000     -18.789605      -511.2911
   9   2.0000     -18.784964      -511.1649
  10   2.0000      -9.958896      -270.9953
  11   2.0000      -9.951530      -270.7949
  12   2.0000      -9.950603      -270.7697
  13   2.0000      -9.950541      -270.7680
  14   2.0000      -9.950297      -270.7613
  15   2.0000      -9.888415      -269.0774
  16   2.0000      -9.886587      -269.0277
  17   2.0000      -9.884055      -268.9588
  18   2.0000      -9.881786      -268.8971
  19   2.0000      -7.686795      -209.1683
  20   2.0000      -7.683442      -209.0771
  21   2.0000      -7.626451      -207.5263
  22   2.0000      -7.626289      -207.5219
  23   2.0000      -6.420087      -174.6994
  24   2.0000      -6.419719      -174.6894
  25   2.0000      -5.714764      -155.5066
  26   2.0000      -5.711288      -155.4121
  27   2.0000      -5.711229      -155.4104
  28   2.0000      -5.707992      -155.3224
  29   2.0000      -5.703644      -155.2040
  30   2.0000      -5.700529      -155.1193
  31   2.0000      -5.655456      -153.8928
  32   2.0000      -5.655105      -153.8832
  33   2.0000      -5.647042      -153.6638
  34   2.0000      -5.647018      -153.6632
  35   2.0000      -5.646554      -153.6506
  36   2.0000      -5.646476      -153.6484
  37   2.0000      -4.642853      -126.3385
  38   2.0000      -4.642139      -126.3190
  39   2.0000      -4.641794      -126.3096
  40   2.0000      -4.641494      -126.3015
  41   2.0000      -4.640420      -126.2722
  42   2.0000      -4.640279      -126.2684
  43   2.0000      -0.986928       -26.8557
  44   2.0000      -0.983645       -26.7663
  45   2.0000      -0.943024       -25.6610
  46   2.0000      -0.942844       -25.6561
  47   2.0000      -0.759685       -20.6721
  48   2.0000      -0.720177       -19.5970
  49   2.0000      -0.708601       -19.2820
  50   2.0000      -0.692066       -18.8321
  51   2.0000      -0.685811       -18.6619
  52   2.0000      -0.672703       -18.3052
  53   2.0000      -0.647645       -17.6233
  54   2.0000      -0.632598       -17.2139
  55   2.0000      -0.598688       -16.2911
  56   2.0000      -0.588219       -16.0063
  57   2.0000      -0.571097       -15.5403
  58   2.0000      -0.569290       -15.4912
  59   2.0000      -0.560949       -15.2642
  60   2.0000      -0.507536       -13.8108
  61   2.0000      -0.491000       -13.3608
  62   2.0000      -0.481468       -13.1014
  63   2.0000      -0.470426       -12.8010
  64   2.0000      -0.447313       -12.1720
  65   2.0000      -0.446523       -12.1505
  66   2.0000      -0.441112       -12.0033
  67   2.0000      -0.436216       -11.8701
  68   2.0000      -0.430652       -11.7186
  69   2.0000      -0.419658       -11.4195
  70   2.0000      -0.408198       -11.1076
  71   2.0000      -0.392234       -10.6732
  72   2.0000      -0.388255       -10.5650
  73   2.0000      -0.386769       -10.5245
  74   2.0000      -0.380181       -10.3453
  75   2.0000      -0.373774       -10.1709
  76   2.0000      -0.363619        -9.8946
  77   2.0000      -0.356105        -9.6901
  78   2.0000      -0.355137        -9.6638
  79   2.0000      -0.351703        -9.5703
  80   2.0000      -0.347934        -9.4678
  81   2.0000      -0.344383        -9.3711
  82   2.0000      -0.342353        -9.3159
  83   2.0000      -0.337698        -9.1892
  84   2.0000      -0.334661        -9.1066
  85   2.0000      -0.315268        -8.5789
  86   2.0000      -0.311944        -8.4884
  87   2.0000      -0.298134        -8.1126
  88   2.0000      -0.294316        -8.0087
  89   2.0000      -0.290480        -7.9044
  90   2.0000      -0.279739        -7.6121
  91   2.0000      -0.276153        -7.5145
  92   2.0000      -0.269241        -7.3264
  93   2.0000      -0.261195        -7.1075
  94   2.0000      -0.255844        -6.9619
  95   2.0000      -0.231598        -6.3021
  96   2.0000      -0.221327        -6.0226
  97   2.0000      -0.211029        -5.7424
  98   2.0000      -0.197317        -5.3693
  99   2.0000      -0.195975        -5.3328
 100   2.0000      -0.185283        -5.0418
 101   0.0000      -0.040622        -1.1054
 102   0.0000      -0.031253        -0.8504
 103   0.0000      -0.007780        -0.2117
 104   0.0000       0.011109         0.3023
 105   0.0000       0.019224         0.5231

MULLIKEN ATOMIC CHARGES
-----------------------
   0 C :   -0.318404
   1 C :   -0.002852
   2 O :   -0.372245
   3 P :    0.603495
   4 S :   -0.312778
   5 O :   -0.359364
   6 C :   -0.030668
   7 C :   -0.294910
   8 S :   -0.088625
   9 C :   -0.341825
  10 S :   -0.127392
  11 P :    0.611406
  12 S :   -0.291656
  13 O :   -0.346798
  14 C :   -0.037263
  15 C :   -0.281591
  16 O :   -0.385068
  17 C :   -0.006950
  18 C :   -0.283060
  19 H :    0.118045
  20 H :    0.131569
  21 H :    0.113369
  22 H :    0.110732
  23 H :    0.104194
  24 H :    0.123982
  25 H :    0.102676
  26 H :    0.121167
  27 H :    0.107858
  28 H :    0.117707
  29 H :    0.176931
  30 H :    0.205498
  31 H :    0.107715
  32 H :    0.122072
  33 H :    0.126340
  34 H :    0.106812
  35 H :    0.121255
  36 H :    0.102565
  37 H :    0.096881
  38 H :    0.121929
  39 H :    0.112007
  40 H :    0.115246
Sum of atomic charges:   -0.0000000

LOEWDIN ATOMIC CHARGES
----------------------
   0 C :   -0.370140
   1 C :   -0.119427
   2 O :   -0.245126
   3 P :    0.561549
   4 S :   -0.306864
   5 O :   -0.239549
   6 C :   -0.120439
   7 C :   -0.360809
   8 S :    0.091995
   9 C :   -0.479744
  10 S :    0.052348
  11 P :    0.572415
  12 S :   -0.288591
  13 O :   -0.225764
  14 C :   -0.111524
  15 C :   -0.360148
  16 O :   -0.252423
  17 C :   -0.124365
  18 C :   -0.350650
  19 H :    0.123833
  20 H :    0.123043
  21 H :    0.131237
  22 H :    0.110744
  23 H :    0.118174
  24 H :    0.107549
  25 H :    0.116720
  26 H :    0.124536
  27 H :    0.128300
  28 H :    0.127369
  29 H :    0.134436
  30 H :    0.123237
  31 H :    0.105318
  32 H :    0.120145
  33 H :    0.126783
  34 H :    0.128526
  35 H :    0.130317
  36 H :    0.107584
  37 H :    0.104776
  38 H :    0.129093
  39 H :    0.130788
  40 H :    0.124747

  Mayer bond orders larger than 0.100000
B(  0-C ,  1-C ) :   1.1671 B(  0-C , 19-H ) :   0.9441 B(  0-C , 20-H ) :   0.9349
B(  0-C , 21-H ) :   0.9376 B(  1-C ,  2-O ) :   0.9081 B(  1-C , 22-H ) :   0.9155
B(  1-C , 23-H ) :   0.9339 B(  2-O ,  3-P ) :   1.1014 B(  3-P ,  4-S ) :   1.6189
B(  3-P ,  5-O ) :   1.1206 B(  3-P ,  8-S ) :   0.9587 B(  4-S ,  8-S ) :   0.1135
B(  5-O ,  6-C ) :   0.9134 B(  6-C ,  7-C ) :   1.1616 B(  6-C , 24-H ) :   0.9002
B(  6-C , 25-H ) :   0.9354 B(  7-C , 26-H ) :   0.9415 B(  7-C , 27-H ) :   0.9399
B(  7-C , 28-H ) :   0.9466 B(  8-S ,  9-C ) :   0.9989 B(  9-C , 10-S ) :   0.9983
B(  9-C , 29-H ) :   0.9119 B(  9-C , 30-H ) :   0.8470 B( 10-S , 11-P ) :   0.9383
B( 10-S , 12-S ) :   0.1202 B( 11-P , 12-S ) :   1.6458 B( 11-P , 13-O ) :   1.1444
B( 11-P , 16-O ) :   1.0642 B( 12-S , 30-H ) :   0.1092 B( 13-O , 14-C ) :   0.8972
B( 14-C , 15-C ) :   1.1633 B( 14-C , 31-H ) :   0.9164 B( 14-C , 32-H ) :   0.9248
B( 15-C , 33-H ) :   0.9375 B( 15-C , 34-H ) :   0.9390 B( 15-C , 35-H ) :   0.9457
B( 16-O , 17-C ) :   0.9105 B( 17-C , 18-C ) :   1.1594 B( 17-C , 36-H ) :   0.9097
B( 17-C , 37-H ) :   0.9220 B( 18-C , 38-H ) :   0.9512 B( 18-C , 39-H ) :   0.9423
B( 18-C , 40-H ) :   0.9508

Dispersion correction           -0.065514601
FINAL SINGLE POINT ENERGY     -2929.518225939607

DIPOLE MOMENT
-------------

Method             : SCF
Type of density    : Electron Density
Multiplicity       :   1
Irrep              :   0
Energy             : -2929.6369817803556543 Eh
Relativity type    :
Basis              : AO
                                X                 Y                 Z
Electronic contribution:      4.575970770      -3.935048580     -10.782965750
Nuclear contribution   :     -4.657158224       3.362209484      11.966021831
                        -----------------------------------------
Total Dipole Moment    :     -0.081187455      -0.572839096       1.183056082
                        -----------------------------------------
Magnitude (a.u.)       :      1.316950160
Magnitude (Debye)      :      3.347421284

Rotational constants in cm-1:             0.012861             0.005083             0.004482
Rotational constants in MHz :           385.570898           152.378804           134.368404

                             ****ORCA TERMINATED NORMALLY****
TOTAL RUN TIME: 0 days 0 hours 0 minutes 20 seconds 767 msec
