                         Program Version 6.0.0  -   RELEASE  -
|  1> ! pbe def2-sv(p) def2/J RI DEFGRID1 loosescf d4 GCP(DFT/SV(P)) printgap
|  2> %output
|  3>     printlevel normal
|  4> end
|  5> * xyz 0 1
|  6> C 4.1010349583 -1.3497011967 -2.5775698892
|  7> C 4.1826681939 0.1061651166 -2.1675283536
|  8> O 3.5950795905 0.3500234404 -0.8754374149
|  9> P 2.0422024028 0.1756994912 -0.5838306222
| 10> S 0.8426103182 0.7750071561 -2.0062709456
| 11> O 1.8714567005 0.9943440166 0.7517105672
| 12> C 2.7188475427 0.8207988664 1.9191780261
| 13> C 1.9350735309 0.1737418129 3.0431769643
| 14> S 1.8486584573 -1.8712559892 -0.0581803474
| 15> C 0.0502863241 -1.9798979323 -0.2099510395
| 16> S -0.8466618586 -1.3715170182 1.2590747149
| 17> P -1.8500538977 0.3749707754 0.621020589
| 18> S -1.0714032919 2.1660435142 0.7472254617
| 19> O -3.1231242842 0.3695121995 1.5694054881
| 20> C -3.8777654552 -0.7704053335 2.0424922656
| 21> C -4.5293106745 -1.5518967618 0.9210401228
| 22> O -2.2867734446 -0.088819341 -0.8466064614
| 23> C -2.6346671439 0.8620605738 -1.8648310925
| 24> C -4.0066084364 1.4538482949 -1.6205884688
| 25> H 4.493009244 -1.9887632832 -1.7903848587
| 26> H 3.0663979522 -1.6251114389 -2.7741015769
| 27> H 4.6809842445 -1.4955821697 -3.4832219813
| 28> H 3.6765048504 0.7422408423 -2.9000360871
| 29> H 5.2158429871 0.4339102269 -2.043364067
| 30> H 3.5919754315 0.2268751503 1.6416682327
| 31> H 3.0284639385 1.8326944725 2.1848292613
| 32> H 1.0157252328 0.7292735871 3.2170663976
| 33> H 1.6807844703 -0.8555587169 2.8001701792
| 34> H 2.5360512246 0.187758491 3.9466668903
| 35> H -0.1846934317 -3.0368752543 -0.2996960376
| 36> H -0.2725921383 -1.4178140036 -1.086940892
| 37> H -3.2095484087 -1.4071270546 2.6267652701
| 38> H -4.6217631871 -0.3176863558 2.7002819484
| 39> H -3.772925164 -1.9713519315 0.2615278189
| 40> H -5.1134661448 -2.3605158864 1.349314164
| 41> H -5.184624617 -0.9063530664 0.3422858928
| 42> H -1.8716455922 1.6472055431 -1.8892263888
| 43> H -2.5900833975 0.2908643814 -2.7933736414
| 44> H -4.0127569997 1.9747207676 -0.6631312716
| 45> H -4.2363073093 2.1624223826 -2.4099761944
| 46> H -4.7599548117 0.6709220511 -1.6077707021
| 47> *
| 48>
| 49>                          ****END OF INPUT****

CARTESIAN COORDINATES (ANGSTROEM)
---------------------------------
  C      4.101035   -1.349701   -2.577570
  C      4.182668    0.106165   -2.167528
  O      3.595080    0.350023   -0.875437
  P      2.042202    0.175699   -0.583831
  S      0.842610    0.775007   -2.006271
  O      1.871457    0.994344    0.751711
  C      2.718848    0.820799    1.919178
  C      1.935074    0.173742    3.043177
  S      1.848658   -1.871256   -0.058180
  C      0.050286   -1.979898   -0.209951
  S     -0.846662   -1.371517    1.259075
  P     -1.850054    0.374971    0.621021
  S     -1.071403    2.166044    0.747225
  O     -3.123124    0.369512    1.569405
  C     -3.877765   -0.770405    2.042492
  C     -4.529311   -1.551897    0.921040
  O     -2.286773   -0.088819   -0.846606
  C     -2.634667    0.862061   -1.864831
  C     -4.006608    1.453848   -1.620588
  H      4.493009   -1.988763   -1.790385
  H      3.066398   -1.625111   -2.774102
  H      4.680984   -1.495582   -3.483222
  H      3.676505    0.742241   -2.900036
  H      5.215843    0.433910   -2.043364
  H      3.591975    0.226875    1.641668
  H      3.028464    1.832694    2.184829
  H      1.015725    0.729274    3.217066
  H      1.680784   -0.855559    2.800170
  H      2.536051    0.187758    3.946667
  H     -0.184693   -3.036875   -0.299696
  H     -0.272592   -1.417814   -1.086941
  H     -3.209548   -1.407127    2.626765
  H     -4.621763   -0.317686    2.700282
  H     -3.772925   -1.971352    0.261528
  H     -5.113466   -2.360516    1.349314
  H     -5.184625   -0.906353    0.342286
  H     -1.871646    1.647206   -1.889226
  H     -2.590083    0.290864   -2.793374
  H     -4.012757    1.974721   -0.663131
  H     -4.236307    2.162422   -2.409976
  H     -4.759955    0.670922   -1.607771

 Total Charge           Charge          ....    0
 Multiplicity           Mult            ....    1
 Number of Electrons    NEL             ....  202
 Basis Dimension        Dim             ....  334

ORBITAL ENERGIES
----------------

  NO   OCC          E(Eh)            E(eV)
   0   2.0000     -88.044869     -2395.8227
   1   2.0000     -88.041189     -2395.7226
   2   2.0000     -87.985378     -2394.2038
   3   2.0000     -87.966724     -2393.6963
   4   2.0000     -76.424725     -2079.6225
   5   2.0000     -76.416464     -2079.3977
   6   2.0000     -18.793720      -511.4031
   7   2.0000     -18.784868      -511.1622
   8   2.0000     -18.782960      -511.1103
   9   2.0000     -18.782235      -511.0906
  10   2.0000      -9.959420      -271.0096
  11   2.0000      -9.954867      -270.8857
  12   2.0000      -9.952831      -270.8303
  13   2.0000      -9.949425      -270.7376
  14   2.0000      -9.940204      -270.4867
  15   2.0000      -9.886351      -269.0213
  16   2.0000      -9.886274      -269.0192
  17   2.0000      -9.877664      -268.7849
  18   2.0000      -9.874418      -268.6966
  19   2.0000      -7.690031      -209.2564
  20   2.0000      -7.686299      -209.1548
  21   2.0000      -7.630332      -207.6319
  22   2.0000      -7.611971      -207.1323
  23   2.0000      -6.422308      -174.7599
  24   2.0000      -6.413833      -174.5293
  25   2.0000      -5.717736      -155.5875
  26   2.0000      -5.714498      -155.4994
  27   2.0000      -5.714430      -155.4975
  28   2.0000      -5.710404      -155.3880
  29   2.0000      -5.707176      -155.3001
  30   2.0000      -5.703344      -155.1959
  31   2.0000      -5.659225      -153.9953
  32   2.0000      -5.650929      -153.7696
  33   2.0000      -5.650486      -153.7575
  34   2.0000      -5.641224      -153.5055
  35   2.0000      -5.632615      -153.2712
  36   2.0000      -5.631729      -153.2471
  37   2.0000      -4.645131      -126.4004
  38   2.0000      -4.643956      -126.3685
  39   2.0000      -4.642653      -126.3330
  40   2.0000      -4.636755      -126.1725
  41   2.0000      -4.635756      -126.1453
  42   2.0000      -4.633865      -126.0939
  43   2.0000      -0.985453       -26.8155
  44   2.0000      -0.974968       -26.5302
  45   2.0000      -0.940396       -25.5895
  46   2.0000      -0.938122       -25.5276
  47   2.0000      -0.762298       -20.7432
  48   2.0000      -0.717508       -19.5244
  49   2.0000      -0.707555       -19.2535
  50   2.0000      -0.688425       -18.7330
  51   2.0000      -0.686078       -18.6691
  52   2.0000      -0.671436       -18.2707
  53   2.0000      -0.647654       -17.6236
  54   2.0000      -0.631184       -17.1754
  55   2.0000      -0.596756       -16.2386
  56   2.0000      -0.583122       -15.8676
  57   2.0000      -0.572252       -15.5718
  58   2.0000      -0.568929       -15.4813
  59   2.0000      -0.561653       -15.2833
  60   2.0000      -0.499857       -13.6018
  61   2.0000      -0.489244       -13.3130
  62   2.0000      -0.471467       -12.8293
  63   2.0000      -0.469007       -12.7623
  64   2.0000      -0.453620       -12.3436
  65   2.0000      -0.445658       -12.1270
  66   2.0000      -0.440138       -11.9768
  67   2.0000      -0.432052       -11.7567
  68   2.0000      -0.425324       -11.5736
  69   2.0000      -0.418019       -11.3749
  70   2.0000      -0.407191       -11.0802
  71   2.0000      -0.403990       -10.9931
  72   2.0000      -0.388488       -10.5713
  73   2.0000      -0.382040       -10.3958
  74   2.0000      -0.378620       -10.3028
  75   2.0000      -0.367364        -9.9965
  76   2.0000      -0.361698        -9.8423
  77   2.0000      -0.352983        -9.6051
  78   2.0000      -0.350357        -9.5337
  79   2.0000      -0.349506        -9.5105
  80   2.0000      -0.343504        -9.3472
  81   2.0000      -0.339988        -9.2516
  82   2.0000      -0.337740        -9.1904
  83   2.0000      -0.334705        -9.1078
  84   2.0000      -0.329482        -8.9657
  85   2.0000      -0.313467        -8.5299
  86   2.0000      -0.307375        -8.3641
  87   2.0000      -0.301300        -8.1988
  88   2.0000      -0.296983        -8.0813
  89   2.0000      -0.293630        -7.9901
  90   2.0000      -0.270654        -7.3649
  91   2.0000      -0.268116        -7.2958
  92   2.0000      -0.264760        -7.2045
  93   2.0000      -0.261188        -7.1073
  94   2.0000      -0.255645        -6.9564
  95   2.0000      -0.235002        -6.3947
  96   2.0000      -0.220144        -5.9904
  97   2.0000      -0.211394        -5.7523
  98   2.0000      -0.202361        -5.5065
  99   2.0000      -0.184735        -5.0269
 100   2.0000      -0.172584        -4.6963
 101   0.0000      -0.040002        -1.0885
 102   0.0000      -0.025213        -0.6861
 103   0.0000      -0.020774        -0.5653
 104   0.0000       0.003430         0.0933
 105   0.0000       0.017130         0.4661

MULLIKEN ATOMIC CHARGES
-----------------------
   0 C :   -0.318440
   1 C :    0.000440
   2 O :   -0.380333
   3 P :    0.609395
   4 S :   -0.306418
   5 O :   -0.336340
   6 C :   -0.012082
   7 C :   -0.289259
   8 S :   -0.105357
   9 C :   -0.348833
  10 S :   -0.118782
  11 P :    0.618700
  12 S :   -0.290762
  13 O :   -0.372901
  14 C :   -0.014761
  15 C :   -0.312980
  16 O :   -0.388716
  17 C :   -0.018719
  18 C :   -0.310052
  19 H :    0.117192
  20 H :    0.126554
  21 H :    0.114393
  22 H :    0.113959
  23 H :    0.105819
  24 H :    0.100798
  25 H :    0.112126
  26 H :    0.126209
  27 H :    0.121139
  28 H :    0.101775
  29 H :    0.182400
  30 H :    0.208520
  31 H :    0.115419
  32 H :    0.109833
  33 H :    0.120442
  34 H :    0.109773
  35 H :    0.124073
  36 H :    0.132958
  37 H :    0.099082
  38 H :    0.128795
  39 H :    0.110558
  40 H :    0.114386
Sum of atomic charges:    0.0000000

LOEWDIN ATOMIC CHARGES
----------------------
   0 C :   -0.372000
   1 C :   -0.115416
   2 O :   -0.247062
   3 P :    0.572469
   4 S :   -0.290575
   5 O :   -0.224703
   6 C :   -0.109117
   7 C :   -0.363758
   8 S :    0.073536
   9 C :   -0.476159
  10 S :    0.080661
  11 P :    0.558475
  12 S :   -0.296564
  13 O :   -0.245556
  14 C :   -0.118173
  15 C :   -0.367321
  16 O :   -0.248845
  17 C :   -0.126898
  18 C :   -0.365050
  19 H :    0.122967
  20 H :    0.120940
  21 H :    0.131836
  22 H :    0.113714
  23 H :    0.119211
  24 H :    0.106295
  25 H :    0.123270
  26 H :    0.129332
  27 H :    0.114092
  28 H :    0.125730
  29 H :    0.137775
  30 H :    0.129356
  31 H :    0.107077
  32 H :    0.121816
  33 H :    0.121027
  34 H :    0.129778
  35 H :    0.125876
  36 H :    0.110331
  37 H :    0.115053
  38 H :    0.126189
  39 H :    0.130645
  40 H :    0.119748

  Mayer bond orders larger than 0.100000
B(  0-C ,  1-C ) :   1.1667 B(  0-C , 19-H ) :   0.9436 B(  0-C , 20-H ) :   0.9343
B(  0-C , 21-H ) :   0.9369 B(  1-C ,  2-O ) :   0.9052 B(  1-C , 22-H ) :   0.9185
B(  1-C , 23-H ) :   0.9344 B(  2-O ,  3-P ) :   1.0924 B(  3-P ,  4-S ) :   1.6238
B(  3-P ,  5-O ) :   1.1649 B(  3-P ,  8-S ) :   0.9321 B(  4-S ,  8-S ) :   0.1057
B(  5-O ,  6-C ) :   0.8859 B(  6-C ,  7-C ) :   1.1668 B(  6-C , 24-H ) :   0.9193
B(  6-C , 25-H ) :   0.9336 B(  7-C , 26-H ) :   0.9403 B(  7-C , 27-H ) :   0.9342
B(  7-C , 28-H ) :   0.9372 B(  8-S ,  9-C ) :   1.0155 B(  9-C , 10-S ) :   0.9917
B(  9-C , 29-H ) :   0.9111 B(  9-C , 30-H ) :   0.8555 B( 10-S , 11-P ) :   0.9455
B( 10-S , 12-S ) :   0.1026 B( 11-P , 12-S ) :   1.6722 B( 11-P , 13-O ) :   1.1024
B( 11-P , 16-O ) :   1.0651 B( 13-O , 14-C ) :   0.9097 B( 14-C , 15-C ) :   1.1643
B( 14-C , 31-H ) :   0.9215 B( 14-C , 32-H ) :   0.9341 B( 15-C , 33-H ) :   0.9365
B( 15-C , 34-H ) :   0.9363 B( 15-C , 35-H ) :   0.9400 B( 16-O , 17-C ) :   0.8973
B( 17-C , 18-C ) :   1.1616 B( 17-C , 36-H ) :   0.9032 B( 17-C , 37-H ) :   0.9347
B( 18-C , 38-H ) :   0.9355 B( 18-C , 39-H ) :   0.9393 B( 18-C , 40-H ) :   0.9398

Dispersion correction           -0.068671226
FINAL SINGLE POINT ENERGY     -2929.511098854587

DIPOLE MOMENT
-------------

Method             : SCF
Type of density    : Electron Density
Multiplicity       :   1
Irrep              :   0
Energy             : -2929.6287821450255251 Eh
Relativity type    :
Basis              : AO
                                X                 Y                 Z
Electronic contribution:      6.799957689       5.107427599       2.402800347
Nuclear contribution   :     -6.614659812      -6.542191686      -2.528200018
                        -----------------------------------------
Total Dipole Moment    :      0.185297877      -1.434764087      -0.125399671
                        -----------------------------------------
Magnitude (a.u.)       :      1.452104806
Magnitude (Debye)      :      3.690957091

Rotational constants in cm-1:             0.012943             0.005428             0.005056
Rotational constants in MHz :           388.029903           162.712603           151.571338

                             ****ORCA TERMINATED NORMALLY****
TOTAL RUN TIME: 0 days 0 hours 0 minutes 21 seconds 750 msec
