                         Program Version 6.0.0  -   RELEASE  -
|  1> ! pbe def2-sv(p) def2/J RI DEFGRID1 loosescf d4 GCP(DFT/SV(P)) printgap
|  2> %output
|  3>     printlevel normal
|  4> end
|  5> * xyz 0 1
|  6> C 4.8927833135 1.354371 -0.0397640569
|  7> C 3.5677422706 1.4705671041 -0.7625608598
|  8> O 2.9135192443 0.1894767277 -0.8498609318
|  9> P 2.2308471355 -0.4890082608 0.4091283699
| 10> S 1.6595429714 0.7756688211 1.8013994181
| 11> O 3.3457728636 -1.5273058861 0.8586875438
| 12> C 3.1084992823 -2.758070126 1.5656166019
| 13> C 2.1534336511 -2.5960362435 2.7298983156
| 14> S 0.7771934852 -1.7159164018 -0.5465717427
| 15> C 0.1863869566 -0.5383715708 -1.7950661113
| 16> S -0.4288784653 1.0135786858 -1.1063037748
| 17> P -2.4773843635 0.4540116755 -0.7887196413
| 18> S -3.071791844 -1.1500310936 -1.7323184192
| 19> O -3.2928085617 1.7064912467 -1.2766022334
| 20> C -3.0627243148 3.054048234 -0.7924362471
| 21> C -4.0748459547 3.4196100359 0.2735855967
| 22> O -2.690556052 0.5295764469 0.786796866
| 23> C -1.9855718297 -0.2273705325 1.7832175123
| 24> C -2.2477014312 -1.7162398549 1.6846498967
| 25> H 5.5262755172 0.620863213 -0.5310753056
| 26> H 5.3891327369 2.3195433778 -0.0340270863
| 27> H 4.7197655424 1.0354059293 0.9876765288
| 28> H 3.6936304881 1.7782854326 -1.8012920744
| 29> H 2.9016605968 2.1698735973 -0.2463339845
| 30> H 2.7206364189 -3.48753212 0.8488930293
| 31> H 4.1023973651 -3.0597744684 1.9010613815
| 32> H 2.0667699045 -3.5391928234 3.2596525446
| 33> H 2.5115585774 -1.8294146976 3.4132396877
| 34> H 1.1694306236 -2.3031285498 2.3632399356
| 35> H -0.6269830557 -1.0459820009 -2.3194258707
| 36> H 1.0032512319 -0.2903806229 -2.4669488638
| 37> H -2.0398835941 3.1277702075 -0.4124349079
| 38> H -3.1710054207 3.6838930975 -1.6772089438
| 39> H -5.0821552237 3.305466983 -0.1171625948
| 40> H -3.9602830017 2.7743342222 1.1403412979
| 41> H -3.9190885742 4.4517269799 0.5716908457
| 42> H -0.916166915 -0.0052442265 1.7047994807
| 43> H -2.3605177267 0.1774254384 2.7251462346
| 44> H -3.3178616177 -1.9078768691 1.6753639593
| 45> H -1.8152862595 -2.1264889243 0.7734918733
| 46> H -1.801658658 -2.2127880745 2.5407337863
| 47> *
| 48>
| 49>                          ****END OF INPUT****

CARTESIAN COORDINATES (ANGSTROEM)
---------------------------------
  C      4.892783    1.354371   -0.039764
  C      3.567742    1.470567   -0.762561
  O      2.913519    0.189477   -0.849861
  P      2.230847   -0.489008    0.409128
  S      1.659543    0.775669    1.801399
  O      3.345773   -1.527306    0.858688
  C      3.108499   -2.758070    1.565617
  C      2.153434   -2.596036    2.729898
  S      0.777193   -1.715916   -0.546572
  C      0.186387   -0.538372   -1.795066
  S     -0.428878    1.013579   -1.106304
  P     -2.477384    0.454012   -0.788720
  S     -3.071792   -1.150031   -1.732318
  O     -3.292809    1.706491   -1.276602
  C     -3.062724    3.054048   -0.792436
  C     -4.074846    3.419610    0.273586
  O     -2.690556    0.529576    0.786797
  C     -1.985572   -0.227371    1.783218
  C     -2.247701   -1.716240    1.684650
  H      5.526276    0.620863   -0.531075
  H      5.389133    2.319543   -0.034027
  H      4.719766    1.035406    0.987677
  H      3.693630    1.778285   -1.801292
  H      2.901661    2.169874   -0.246334
  H      2.720636   -3.487532    0.848893
  H      4.102397   -3.059774    1.901061
  H      2.066770   -3.539193    3.259653
  H      2.511559   -1.829415    3.413240
  H      1.169431   -2.303129    2.363240
  H     -0.626983   -1.045982   -2.319426
  H      1.003251   -0.290381   -2.466949
  H     -2.039884    3.127770   -0.412435
  H     -3.171005    3.683893   -1.677209
  H     -5.082155    3.305467   -0.117163
  H     -3.960283    2.774334    1.140341
  H     -3.919089    4.451727    0.571691
  H     -0.916167   -0.005244    1.704799
  H     -2.360518    0.177425    2.725146
  H     -3.317862   -1.907877    1.675364
  H     -1.815286   -2.126489    0.773492
  H     -1.801659   -2.212788    2.540734

 Total Charge           Charge          ....    0
 Multiplicity           Mult            ....    1
 Number of Electrons    NEL             ....  202
 Basis Dimension        Dim             ....  334

ORBITAL ENERGIES
----------------

  NO   OCC          E(Eh)            E(eV)
   0   2.0000     -88.045630     -2395.8434
   1   2.0000     -88.040619     -2395.7070
   2   2.0000     -87.989137     -2394.3062
   3   2.0000     -87.984647     -2394.1840
   4   2.0000     -76.432360     -2079.8303
   5   2.0000     -76.424781     -2079.6240
   6   2.0000     -18.798156      -511.5238
   7   2.0000     -18.794573      -511.4263
   8   2.0000     -18.789753      -511.2952
   9   2.0000     -18.788752      -511.2679
  10   2.0000      -9.963020      -271.1075
  11   2.0000      -9.958197      -270.9763
  12   2.0000      -9.956375      -270.9267
  13   2.0000      -9.955114      -270.8924
  14   2.0000      -9.942392      -270.5463
  15   2.0000      -9.890466      -269.1333
  16   2.0000      -9.885950      -269.0104
  17   2.0000      -9.885894      -269.0088
  18   2.0000      -9.872147      -268.6348
  19   2.0000      -7.690506      -209.2693
  20   2.0000      -7.685388      -209.1300
  21   2.0000      -7.633767      -207.7254
  22   2.0000      -7.629882      -207.6196
  23   2.0000      -6.429510      -174.9558
  24   2.0000      -6.422158      -174.7558
  25   2.0000      -5.718494      -155.6081
  26   2.0000      -5.715026      -155.5138
  27   2.0000      -5.713264      -155.4658
  28   2.0000      -5.709928      -155.3750
  29   2.0000      -5.707395      -155.3061
  30   2.0000      -5.702383      -155.1697
  31   2.0000      -5.662665      -154.0890
  32   2.0000      -5.658888      -153.9862
  33   2.0000      -5.654451      -153.8654
  34   2.0000      -5.653929      -153.8512
  35   2.0000      -5.650609      -153.7609
  36   2.0000      -5.649785      -153.7385
  37   2.0000      -4.652176      -126.5921
  38   2.0000      -4.651578      -126.5759
  39   2.0000      -4.649671      -126.5240
  40   2.0000      -4.644853      -126.3929
  41   2.0000      -4.644040      -126.3708
  42   2.0000      -4.642433      -126.3270
  43   2.0000      -0.991905       -26.9911
  44   2.0000      -0.985712       -26.8226
  45   2.0000      -0.951711       -25.8974
  46   2.0000      -0.941229       -25.6121
  47   2.0000      -0.763702       -20.7814
  48   2.0000      -0.722405       -19.6576
  49   2.0000      -0.711893       -19.3716
  50   2.0000      -0.692769       -18.8512
  51   2.0000      -0.684613       -18.6293
  52   2.0000      -0.673683       -18.3318
  53   2.0000      -0.655320       -17.8322
  54   2.0000      -0.640973       -17.4418
  55   2.0000      -0.599631       -16.3168
  56   2.0000      -0.586541       -15.9606
  57   2.0000      -0.579089       -15.7578
  58   2.0000      -0.573803       -15.6140
  59   2.0000      -0.566385       -15.4121
  60   2.0000      -0.505673       -13.7601
  61   2.0000      -0.495394       -13.4804
  62   2.0000      -0.475237       -12.9319
  63   2.0000      -0.469747       -12.7825
  64   2.0000      -0.463363       -12.6088
  65   2.0000      -0.445751       -12.1295
  66   2.0000      -0.443171       -12.0593
  67   2.0000      -0.439244       -11.9524
  68   2.0000      -0.424811       -11.5597
  69   2.0000      -0.422361       -11.4930
  70   2.0000      -0.405905       -11.0452
  71   2.0000      -0.400030       -10.8854
  72   2.0000      -0.397599       -10.8192
  73   2.0000      -0.392363       -10.6767
  74   2.0000      -0.383924       -10.4471
  75   2.0000      -0.376758       -10.2521
  76   2.0000      -0.362735        -9.8705
  77   2.0000      -0.355321        -9.6688
  78   2.0000      -0.354200        -9.6383
  79   2.0000      -0.351759        -9.5719
  80   2.0000      -0.350963        -9.5502
  81   2.0000      -0.348193        -9.4748
  82   2.0000      -0.339293        -9.2326
  83   2.0000      -0.337345        -9.1796
  84   2.0000      -0.331593        -9.0231
  85   2.0000      -0.320776        -8.7288
  86   2.0000      -0.315678        -8.5900
  87   2.0000      -0.302630        -8.2350
  88   2.0000      -0.293746        -7.9932
  89   2.0000      -0.290038        -7.8923
  90   2.0000      -0.286285        -7.7902
  91   2.0000      -0.279802        -7.6138
  92   2.0000      -0.275911        -7.5079
  93   2.0000      -0.264505        -7.1975
  94   2.0000      -0.255795        -6.9605
  95   2.0000      -0.243294        -6.6204
  96   2.0000      -0.218977        -5.9587
  97   2.0000      -0.206406        -5.6166
  98   2.0000      -0.204012        -5.5514
  99   2.0000      -0.201196        -5.4748
 100   2.0000      -0.192079        -5.2267
 101   0.0000      -0.051979        -1.4144
 102   0.0000      -0.027073        -0.7367
 103   0.0000      -0.024340        -0.6623
 104   0.0000      -0.003041        -0.0827
 105   0.0000       0.012636         0.3438

MULLIKEN ATOMIC CHARGES
-----------------------
   0 C :   -0.302083
   1 C :   -0.011618
   2 O :   -0.371098
   3 P :    0.610127
   4 S :   -0.312534
   5 O :   -0.370808
   6 C :   -0.006638
   7 C :   -0.330983
   8 S :   -0.111356
   9 C :   -0.331152
  10 S :   -0.118037
  11 P :    0.609579
  12 S :   -0.306718
  13 O :   -0.355436
  14 C :   -0.019618
  15 C :   -0.286732
  16 O :   -0.376927
  17 C :   -0.033579
  18 C :   -0.315153
  19 H :    0.116693
  20 H :    0.112710
  21 H :    0.124940
  22 H :    0.104952
  23 H :    0.116173
  24 H :    0.115695
  25 H :    0.113010
  26 H :    0.116052
  27 H :    0.130690
  28 H :    0.134903
  29 H :    0.193365
  30 H :    0.190933
  31 H :    0.111471
  32 H :    0.112897
  33 H :    0.121265
  34 H :    0.125286
  35 H :    0.109291
  36 H :    0.135541
  37 H :    0.098619
  38 H :    0.114669
  39 H :    0.132080
  40 H :    0.109530
Sum of atomic charges:    0.0000000

LOEWDIN ATOMIC CHARGES
----------------------
   0 C :   -0.363234
   1 C :   -0.121067
   2 O :   -0.239329
   3 P :    0.574191
   4 S :   -0.304463
   5 O :   -0.245187
   6 C :   -0.113613
   7 C :   -0.372516
   8 S :    0.079982
   9 C :   -0.478782
  10 S :    0.064121
  11 P :    0.569982
  12 S :   -0.295614
  13 O :   -0.235541
  14 C :   -0.111850
  15 C :   -0.357798
  16 O :   -0.242371
  17 C :   -0.124451
  18 C :   -0.371849
  19 H :    0.126644
  20 H :    0.131035
  21 H :    0.123971
  22 H :    0.118010
  23 H :    0.110114
  24 H :    0.111533
  25 H :    0.123570
  26 H :    0.132140
  27 H :    0.130678
  28 H :    0.119825
  29 H :    0.127948
  30 H :    0.134799
  31 H :    0.106676
  32 H :    0.122475
  33 H :    0.129837
  34 H :    0.128456
  35 H :    0.129334
  36 H :    0.099691
  37 H :    0.117220
  38 H :    0.125453
  39 H :    0.113058
  40 H :    0.126922

  Mayer bond orders larger than 0.100000
B(  0-C ,  1-C ) :   1.1654 B(  0-C , 19-H ) :   0.9463 B(  0-C , 20-H ) :   0.9395
B(  0-C , 21-H ) :   0.9350 B(  1-C ,  2-O ) :   0.8975 B(  1-C , 22-H ) :   0.9327
B(  1-C , 23-H ) :   0.9105 B(  2-O ,  3-P ) :   1.1125 B(  3-P ,  4-S ) :   1.6105
B(  3-P ,  5-O ) :   1.1089 B(  3-P ,  8-S ) :   0.9484 B(  4-S ,  8-S ) :   0.1071
B(  5-O ,  6-C ) :   0.9162 B(  6-C ,  7-C ) :   1.1646 B(  6-C , 24-H ) :   0.9260
B(  6-C , 25-H ) :   0.9338 B(  7-C , 26-H ) :   0.9334 B(  7-C , 27-H ) :   0.9388
B(  7-C , 28-H ) :   0.9314 B(  8-S ,  9-C ) :   0.9986 B(  9-C , 10-S ) :   1.0277
B(  9-C , 29-H ) :   0.8560 B(  9-C , 30-H ) :   0.8977 B( 10-S , 11-P ) :   0.9311
B( 10-S , 12-S ) :   0.1126 B( 11-P , 12-S ) :   1.6467 B( 11-P , 13-O ) :   1.1464
B( 11-P , 16-O ) :   1.0902 B( 12-S , 29-H ) :   0.1118 B( 13-O , 14-C ) :   0.8922
B( 14-C , 15-C ) :   1.1664 B( 14-C , 31-H ) :   0.9159 B( 14-C , 32-H ) :   0.9357
B( 15-C , 33-H ) :   0.9468 B( 15-C , 34-H ) :   0.9420 B( 15-C , 35-H ) :   0.9394
B( 16-O , 17-C ) :   0.9041 B( 17-C , 18-C ) :   1.1674 B( 17-C , 36-H ) :   0.8946
B( 17-C , 37-H ) :   0.9342 B( 18-C , 38-H ) :   0.9426 B( 18-C , 39-H ) :   0.9268
B( 18-C , 40-H ) :   0.9339

Dispersion correction           -0.065865704
FINAL SINGLE POINT ENERGY     -2929.514611430350

DIPOLE MOMENT
-------------

Method             : SCF
Type of density    : Electron Density
Multiplicity       :   1
Irrep              :   0
Energy             : -2929.6341292540801078 Eh
Relativity type    :
Basis              : AO
                                X                 Y                 Z
Electronic contribution:     -5.447088448      -3.026808182     -13.261608173
Nuclear contribution   :      6.628748535       3.487669433      13.793203460
                        -----------------------------------------
Total Dipole Moment    :      1.181660088       0.460861250       0.531595287
                        -----------------------------------------
Magnitude (a.u.)       :      1.375248052
Magnitude (Debye)      :      3.495602748

Rotational constants in cm-1:             0.012244             0.004994             0.004556
Rotational constants in MHz :           367.063212           149.708568           136.599018

                             ****ORCA TERMINATED NORMALLY****
TOTAL RUN TIME: 0 days 0 hours 0 minutes 20 seconds 998 msec
