                         Program Version 6.0.0  -   RELEASE  -
|  1> ! pbe def2-sv(p) def2/J RI DEFGRID1 loosescf d4 GCP(DFT/SV(P)) printgap
|  2> %output
|  3>     printlevel normal
|  4> end
|  5> * xyz 0 1
|  6> C 4.3419444977 -0.778734401 -2.9419380856
|  7> C 4.4195629423 -0.095516919 -1.5906351795
|  8> O 3.4664304614 -0.6749524913 -0.6775268311
|  9> P 2.0809710062 0.0629760187 -0.3481126389
| 10> S 1.0961538313 0.6011697699 -1.952320283
| 11> O 2.4488564939 1.3314263535 0.5257261369
| 12> C 2.7633705477 1.3411687775 1.9373238146
| 13> C 3.9327261849 0.4448874998 2.2861766055
| 14> S 1.2883731032 -1.4479839249 0.8797378022
| 15> C -0.0135013482 -2.0601929598 -0.235967413
| 16> S -1.6912813665 -1.8755735251 0.4225053704
| 17> P -1.9573886576 0.2342878894 0.2879811571
| 18> S -0.6903478348 1.3776638923 1.2461104511
| 19> O -3.4562864075 0.3725788338 0.7901537481
| 20> C -3.7994468216 0.2037870825 2.1821134255
| 21> C -5.1746171206 0.801677624 2.3983158196
| 22> O -2.0468277835 0.5899909428 -1.2381700967
| 23> C -2.9385658624 -0.0575412594 -2.1809042129
| 24> C -4.2239896056 0.7287172572 -2.3305912236
| 25> H 5.1149980654 -0.3801650416 -3.591084568
| 26> H 4.4841660862 -1.8488839858 -2.8226312106
| 27> H 3.3690477554 -0.6004198536 -3.3949030365
| 28> H 4.2277105935 0.9789777196 -1.6809971815
| 29> H 5.3928677554 -0.2546144083 -1.1220971448
| 30> H 2.9824953382 2.3919713088 2.1337267638
| 31> H 1.8606149087 1.0536063452 2.4831620695
| 32> H 4.1428882339 0.5421222702 3.3466710548
| 33> H 3.6928296566 -0.5948320148 2.0679947305
| 34> H 4.8137438416 0.7335048963 1.7180579822
| 35> H 0.1316845496 -3.1297672945 -0.3621046031
| 36> H 0.068199925 -1.5282533649 -1.1881117186
| 37> H -3.7870080979 -0.8659225656 2.4060436757
| 38> H -3.0408984688 0.7079100068 2.7897630786
| 39> H -5.9034966991 0.2964938132 1.771333542
| 40> H -5.4531082501 0.6823601539 3.4400803152
| 41> H -5.165434957 1.8590841136 2.1487322513
| 42> H -2.3684565059 -0.0782075698 -3.1120413456
| 43> H -3.136012386 -1.0775224876 -1.8390984825
| 44> H -4.0023619974 1.7506686134 -2.6260132315
| 45> H -4.8379024599 0.2596400748 -3.0930811396
| 46> H -4.7667549432 0.7451639369 -1.3893691173
| 47> *
| 48>
| 49>                          ****END OF INPUT****

CARTESIAN COORDINATES (ANGSTROEM)
---------------------------------
  C      4.341944   -0.778734   -2.941938
  C      4.419563   -0.095517   -1.590635
  O      3.466430   -0.674952   -0.677527
  P      2.080971    0.062976   -0.348113
  S      1.096154    0.601170   -1.952320
  O      2.448856    1.331426    0.525726
  C      2.763371    1.341169    1.937324
  C      3.932726    0.444887    2.286177
  S      1.288373   -1.447984    0.879738
  C     -0.013501   -2.060193   -0.235967
  S     -1.691281   -1.875574    0.422505
  P     -1.957389    0.234288    0.287981
  S     -0.690348    1.377664    1.246110
  O     -3.456286    0.372579    0.790154
  C     -3.799447    0.203787    2.182113
  C     -5.174617    0.801678    2.398316
  O     -2.046828    0.589991   -1.238170
  C     -2.938566   -0.057541   -2.180904
  C     -4.223990    0.728717   -2.330591
  H      5.114998   -0.380165   -3.591085
  H      4.484166   -1.848884   -2.822631
  H      3.369048   -0.600420   -3.394903
  H      4.227711    0.978978   -1.680997
  H      5.392868   -0.254614   -1.122097
  H      2.982495    2.391971    2.133727
  H      1.860615    1.053606    2.483162
  H      4.142888    0.542122    3.346671
  H      3.692830   -0.594832    2.067995
  H      4.813744    0.733505    1.718058
  H      0.131685   -3.129767   -0.362105
  H      0.068200   -1.528253   -1.188112
  H     -3.787008   -0.865923    2.406044
  H     -3.040898    0.707910    2.789763
  H     -5.903497    0.296494    1.771334
  H     -5.453108    0.682360    3.440080
  H     -5.165435    1.859084    2.148732
  H     -2.368457   -0.078208   -3.112041
  H     -3.136012   -1.077522   -1.839098
  H     -4.002362    1.750669   -2.626013
  H     -4.837902    0.259640   -3.093081
  H     -4.766755    0.745164   -1.389369

 Total Charge           Charge          ....    0
 Multiplicity           Mult            ....    1
 Number of Electrons    NEL             ....  202
 Basis Dimension        Dim             ....  334

ORBITAL ENERGIES
----------------

  NO   OCC          E(Eh)            E(eV)
   0   2.0000     -88.040754     -2395.7107
   1   2.0000     -88.038476     -2395.6487
   2   2.0000     -87.975923     -2393.9466
   3   2.0000     -87.975340     -2393.9307
   4   2.0000     -76.420881     -2079.5179
   5   2.0000     -76.417513     -2079.4262
   6   2.0000     -18.790715      -511.3213
   7   2.0000     -18.786685      -511.2117
   8   2.0000     -18.784389      -511.1492
   9   2.0000     -18.775977      -510.9203
  10   2.0000      -9.955587      -270.9053
  11   2.0000      -9.952896      -270.8321
  12   2.0000      -9.951453      -270.7928
  13   2.0000      -9.950181      -270.7582
  14   2.0000      -9.945182      -270.6222
  15   2.0000      -9.889013      -269.0937
  16   2.0000      -9.887147      -269.0430
  17   2.0000      -9.882794      -268.9245
  18   2.0000      -9.874220      -268.6912
  19   2.0000      -7.685878      -209.1434
  20   2.0000      -7.683806      -209.0870
  21   2.0000      -7.620912      -207.3756
  22   2.0000      -7.620609      -207.3673
  23   2.0000      -6.418432      -174.6544
  24   2.0000      -6.415166      -174.5655
  25   2.0000      -5.713477      -155.4716
  26   2.0000      -5.711733      -155.4242
  27   2.0000      -5.710297      -155.3851
  28   2.0000      -5.708510      -155.3365
  29   2.0000      -5.703216      -155.1924
  30   2.0000      -5.700436      -155.1167
  31   2.0000      -5.649904      -153.7417
  32   2.0000      -5.649644      -153.7346
  33   2.0000      -5.641805      -153.5213
  34   2.0000      -5.641492      -153.5128
  35   2.0000      -5.641013      -153.4998
  36   2.0000      -5.639952      -153.4709
  37   2.0000      -4.641426      -126.2996
  38   2.0000      -4.640360      -126.2706
  39   2.0000      -4.638337      -126.2156
  40   2.0000      -4.638032      -126.2073
  41   2.0000      -4.636832      -126.1746
  42   2.0000      -4.635488      -126.1380
  43   2.0000      -0.985670       -26.8214
  44   2.0000      -0.974021       -26.5045
  45   2.0000      -0.943240       -25.6669
  46   2.0000      -0.932949       -25.3868
  47   2.0000      -0.759786       -20.6748
  48   2.0000      -0.718016       -19.5382
  49   2.0000      -0.707478       -19.2515
  50   2.0000      -0.690808       -18.7978
  51   2.0000      -0.687240       -18.7008
  52   2.0000      -0.669298       -18.2125
  53   2.0000      -0.644713       -17.5435
  54   2.0000      -0.631187       -17.1755
  55   2.0000      -0.588523       -16.0145
  56   2.0000      -0.583841       -15.8871
  57   2.0000      -0.575165       -15.6510
  58   2.0000      -0.566776       -15.4228
  59   2.0000      -0.557348       -15.1662
  60   2.0000      -0.507035       -13.7971
  61   2.0000      -0.491633       -13.3780
  62   2.0000      -0.479821       -13.0566
  63   2.0000      -0.468535       -12.7495
  64   2.0000      -0.450918       -12.2701
  65   2.0000      -0.444711       -12.1012
  66   2.0000      -0.440440       -11.9850
  67   2.0000      -0.432356       -11.7650
  68   2.0000      -0.425919       -11.5899
  69   2.0000      -0.413722       -11.2579
  70   2.0000      -0.403301       -10.9744
  71   2.0000      -0.396830       -10.7983
  72   2.0000      -0.387978       -10.5574
  73   2.0000      -0.381090       -10.3700
  74   2.0000      -0.376614       -10.2482
  75   2.0000      -0.362033        -9.8514
  76   2.0000      -0.360517        -9.8102
  77   2.0000      -0.354916        -9.6577
  78   2.0000      -0.352266        -9.5857
  79   2.0000      -0.350823        -9.5464
  80   2.0000      -0.347530        -9.4568
  81   2.0000      -0.343009        -9.3337
  82   2.0000      -0.342518        -9.3204
  83   2.0000      -0.336017        -9.1435
  84   2.0000      -0.330265        -8.9870
  85   2.0000      -0.315250        -8.5784
  86   2.0000      -0.305919        -8.3245
  87   2.0000      -0.299209        -8.1419
  88   2.0000      -0.297772        -8.1028
  89   2.0000      -0.288004        -7.8370
  90   2.0000      -0.273443        -7.4408
  91   2.0000      -0.269942        -7.3455
  92   2.0000      -0.265327        -7.2199
  93   2.0000      -0.259131        -7.0513
  94   2.0000      -0.256870        -6.9898
  95   2.0000      -0.240578        -6.5465
  96   2.0000      -0.216618        -5.8945
  97   2.0000      -0.202181        -5.5016
  98   2.0000      -0.195292        -5.3142
  99   2.0000      -0.184700        -5.0259
 100   2.0000      -0.178263        -4.8508
 101   0.0000      -0.038194        -1.0393
 102   0.0000      -0.027440        -0.7467
 103   0.0000      -0.007419        -0.2019
 104   0.0000       0.004528         0.1232
 105   0.0000       0.027055         0.7362

MULLIKEN ATOMIC CHARGES
-----------------------
   0 C :   -0.280568
   1 C :   -0.017513
   2 O :   -0.381034
   3 P :    0.609688
   4 S :   -0.301822
   5 O :   -0.367613
   6 C :   -0.013339
   7 C :   -0.321440
   8 S :   -0.084044
   9 C :   -0.337138
  10 S :   -0.123053
  11 P :    0.606705
  12 S :   -0.304787
  13 O :   -0.384223
  14 C :   -0.011563
  15 C :   -0.283688
  16 O :   -0.338272
  17 C :   -0.012770
  18 C :   -0.292447
  19 H :    0.102901
  20 H :    0.108370
  21 H :    0.122376
  22 H :    0.104566
  23 H :    0.100011
  24 H :    0.110549
  25 H :    0.128015
  26 H :    0.115255
  27 H :    0.133264
  28 H :    0.117210
  29 H :    0.183620
  30 H :    0.188092
  31 H :    0.104559
  32 H :    0.105399
  33 H :    0.116144
  34 H :    0.112702
  35 H :    0.123597
  36 H :    0.112149
  37 H :    0.097979
  38 H :    0.122427
  39 H :    0.107929
  40 H :    0.121810
Sum of atomic charges:    0.0000000

LOEWDIN ATOMIC CHARGES
----------------------
   0 C :   -0.361546
   1 C :   -0.119945
   2 O :   -0.264011
   3 P :    0.572059
   4 S :   -0.297688
   5 O :   -0.236119
   6 C :   -0.117151
   7 C :   -0.367471
   8 S :    0.088582
   9 C :   -0.479307
  10 S :    0.057408
  11 P :    0.562953
  12 S :   -0.300948
  13 O :   -0.250256
  14 C :   -0.120624
  15 C :   -0.350883
  16 O :   -0.220723
  17 C :   -0.114989
  18 C :   -0.360116
  19 H :    0.126229
  20 H :    0.123794
  21 H :    0.123500
  22 H :    0.108971
  23 H :    0.113231
  24 H :    0.123190
  25 H :    0.111162
  26 H :    0.132574
  27 H :    0.119961
  28 H :    0.125721
  29 H :    0.138394
  30 H :    0.121238
  31 H :    0.108991
  32 H :    0.109450
  33 H :    0.125489
  34 H :    0.131294
  35 H :    0.130310
  36 H :    0.121716
  37 H :    0.101721
  38 H :    0.129942
  39 H :    0.128789
  40 H :    0.125105

  Mayer bond orders larger than 0.100000
B(  0-C ,  1-C ) :   1.1690 B(  0-C , 19-H ) :   0.9407 B(  0-C , 20-H ) :   0.9474
B(  0-C , 21-H ) :   0.9335 B(  1-C ,  2-O ) :   0.9071 B(  1-C , 22-H ) :   0.9135
B(  1-C , 23-H ) :   0.9331 B(  2-O ,  3-P ) :   1.0746 B(  3-P ,  4-S ) :   1.6080
B(  3-P ,  5-O ) :   1.1198 B(  3-P ,  8-S ) :   0.9576 B(  4-S ,  8-S ) :   0.1106
B(  4-S , 30-H ) :   0.1212 B(  5-O ,  6-C ) :   0.9046 B(  6-C ,  7-C ) :   1.1613
B(  6-C , 24-H ) :   0.9355 B(  6-C , 25-H ) :   0.9141 B(  7-C , 26-H ) :   0.9364
B(  7-C , 27-H ) :   0.9355 B(  7-C , 28-H ) :   0.9441 B(  8-S ,  9-C ) :   1.0076
B(  9-C , 10-S ) :   0.9902 B(  9-C , 29-H ) :   0.9118 B(  9-C , 30-H ) :   0.8497
B( 10-S , 11-P ) :   0.9498 B( 10-S , 12-S ) :   0.1150 B( 11-P , 12-S ) :   1.6627
B( 11-P , 13-O ) :   1.0745 B( 11-P , 16-O ) :   1.1517 B( 13-O , 14-C ) :   0.9052
B( 14-C , 15-C ) :   1.1598 B( 14-C , 31-H ) :   0.9290 B( 14-C , 32-H ) :   0.9069
B( 15-C , 33-H ) :   0.9509 B( 15-C , 34-H ) :   0.9418 B( 15-C , 35-H ) :   0.9507
B( 16-O , 17-C ) :   0.8949 B( 17-C , 18-C ) :   1.1663 B( 17-C , 36-H ) :   0.9326
B( 17-C , 37-H ) :   0.9087 B( 18-C , 38-H ) :   0.9471 B( 18-C , 39-H ) :   0.9396
B( 18-C , 40-H ) :   0.9409

Dispersion correction           -0.065949767
FINAL SINGLE POINT ENERGY     -2929.509710196978

DIPOLE MOMENT
-------------

Method             : SCF
Type of density    : Electron Density
Multiplicity       :   1
Irrep              :   0
Energy             : -2929.6282494315696567 Eh
Relativity type    :
Basis              : AO
                                X                 Y                 Z
Electronic contribution:      1.917614149      -2.060127906       2.119452702
Nuclear contribution   :     -2.149791959       1.338633743      -1.769915497
                        -----------------------------------------
Total Dipole Moment    :     -0.232177810      -0.721494163       0.349537205
                        -----------------------------------------
Magnitude (a.u.)       :      0.834647603
Magnitude (Debye)      :      2.121505607

Rotational constants in cm-1:             0.013328             0.004991             0.004427
Rotational constants in MHz :           399.561745           149.628680           132.703798

                             ****ORCA TERMINATED NORMALLY****
TOTAL RUN TIME: 0 days 0 hours 0 minutes 20 seconds 765 msec
