                         Program Version 6.0.0  -   RELEASE  -
|  1> ! r2scan-3c def2/J RI DEFGRID2 scfconv6 printgap
|  2> %output
|  3>     printlevel normal
|  4> end
|  5> * xyz 0 1
|  6> C 2.127518883 2.0367532804 -1.6167310605
|  7> C 2.4263129283 2.3999953158 -0.177001771
|  8> O 1.8017163335 1.4983101659 0.7710818601
|  9> P 2.1358064809 -0.0378280126 0.9233732563
| 10> S 1.6541715568 -0.676250241 2.7093806714
| 11> O 3.6712217641 -0.0577892037 0.509425129
| 12> C 4.4445303565 -1.2592969352 0.3343021702
| 13> C 4.9330786745 -1.8171185123 1.6565204542
| 14> S 1.1893708651 -1.0819780536 -0.6895091061
| 15> C -0.0657427455 -1.9992108012 0.2301078513
| 16> S -1.3805456027 -0.9616892379 0.9260907727
| 17> P -1.9923212536 -0.0041355765 -0.8842626207
| 18> S -1.7567449096 -1.0187553626 -2.5359222407
| 19> O -1.2572130381 1.3921969489 -0.8952032186
| 20> C -1.4566645015 2.3724037517 0.1550638848
| 21> C -2.4085436007 3.4541514956 -0.3092766507
| 22> O -3.4889163974 0.4096464613 -0.5470375119
| 23> C -4.539801302 -0.5779788001 -0.5128853744
| 24> C -5.8660425098 0.1536693581 -0.5486568837
| 25> H 2.5262070137 2.8092853059 -2.2669464185
| 26> H 2.5900953742 1.0854976427 -1.8746761931
| 27> H 1.0552891181 1.9520362984 -1.7810573301
| 28> H 2.008244727 3.3728359287 0.0876924301
| 29> H 3.5012810297 2.3979744938 0.0098998589
| 30> H 3.8404035918 -1.9938000601 -0.2061941694
| 31> H 5.2808655613 -0.9437133116 -0.2928067653
| 32> H 4.0927841377 -2.1221614024 2.2759236974
| 33> H 5.566790109 -2.677773076 1.4682031379
| 34> H 5.5015198398 -1.0630575881 2.1941881489
| 35> H 0.3882067531 -2.5073020341 1.0799794579
| 36> H -0.4966105504 -2.7023188678 -0.4809538114
| 37> H -1.8317547391 1.8654966866 1.0489046921
| 38> H -0.4624856406 2.7714787359 0.3628358439
| 39> H -3.388218603 3.0288988438 -0.5099854898
| 40> H -2.4955191961 4.2070172907 0.4678607372
| 41> H -2.0329428012 3.9152950946 -1.2184462619
| 42> H -4.4218665337 -1.2397741294 -1.3770867715
| 43> H -4.4289712242 -1.1626446468 0.4044462071
| 44> H -5.9479539334 0.733441437 -1.4636371654
| 45> H -6.6723973806 -0.571235306 -0.5115610691
| 46> H -5.945474869 0.82281787 0.3031479097
| 47> *
| 48>
| 49>                          ****END OF INPUT****

CARTESIAN COORDINATES (ANGSTROEM)
---------------------------------
  C      2.127519    2.036753   -1.616731
  C      2.426313    2.399995   -0.177002
  O      1.801716    1.498310    0.771082
  P      2.135806   -0.037828    0.923373
  S      1.654172   -0.676250    2.709381
  O      3.671222   -0.057789    0.509425
  C      4.444530   -1.259297    0.334302
  C      4.933079   -1.817119    1.656520
  S      1.189371   -1.081978   -0.689509
  C     -0.065743   -1.999211    0.230108
  S     -1.380546   -0.961689    0.926091
  P     -1.992321   -0.004136   -0.884263
  S     -1.756745   -1.018755   -2.535922
  O     -1.257213    1.392197   -0.895203
  C     -1.456665    2.372404    0.155064
  C     -2.408544    3.454151   -0.309277
  O     -3.488916    0.409646   -0.547038
  C     -4.539801   -0.577979   -0.512885
  C     -5.866043    0.153669   -0.548657
  H      2.526207    2.809285   -2.266946
  H      2.590095    1.085498   -1.874676
  H      1.055289    1.952036   -1.781057
  H      2.008245    3.372836    0.087692
  H      3.501281    2.397974    0.009900
  H      3.840404   -1.993800   -0.206194
  H      5.280866   -0.943713   -0.292807
  H      4.092784   -2.122161    2.275924
  H      5.566790   -2.677773    1.468203
  H      5.501520   -1.063058    2.194188
  H      0.388207   -2.507302    1.079979
  H     -0.496611   -2.702319   -0.480954
  H     -1.831755    1.865497    1.048905
  H     -0.462486    2.771479    0.362836
  H     -3.388219    3.028899   -0.509985
  H     -2.495519    4.207017    0.467861
  H     -2.032943    3.915295   -1.218446
  H     -4.421867   -1.239774   -1.377087
  H     -4.428971   -1.162645    0.404446
  H     -5.947954    0.733441   -1.463637
  H     -6.672397   -0.571235   -0.511561
  H     -5.945475    0.822818    0.303148

 Total Charge           Charge          ....    0
 Multiplicity           Mult            ....    1
 Number of Electrons    NEL             ....  202
 Basis Dimension        Dim             ....  539

ORBITAL ENERGIES
----------------

  NO   OCC          E(Eh)            E(eV)
   0   2.0000     -88.572910     -2410.1914
   1   2.0000     -88.570058     -2410.1138
   2   2.0000     -88.517525     -2408.6843
   3   2.0000     -88.515910     -2408.6404
   4   2.0000     -76.913597     -2092.9254
   5   2.0000     -76.911701     -2092.8738
   6   2.0000     -18.995329      -516.8892
   7   2.0000     -18.993337      -516.8350
   8   2.0000     -18.991244      -516.7780
   9   2.0000     -18.991035      -516.7723
  10   2.0000     -10.103908      -274.9413
  11   2.0000     -10.102998      -274.9165
  12   2.0000     -10.102555      -274.9045
  13   2.0000     -10.100255      -274.8419
  14   2.0000     -10.099243      -274.8144
  15   2.0000     -10.034654      -273.0568
  16   2.0000     -10.031041      -272.9585
  17   2.0000     -10.030192      -272.9354
  18   2.0000     -10.025918      -272.8191
  19   2.0000      -7.866927      -214.0700
  20   2.0000      -7.864074      -213.9923
  21   2.0000      -7.812398      -212.5861
  22   2.0000      -7.810871      -212.5446
  23   2.0000      -6.591664      -179.3683
  24   2.0000      -6.590240      -179.3295
  25   2.0000      -5.813898      -158.2042
  26   2.0000      -5.810995      -158.1252
  27   2.0000      -5.810563      -158.1135
  28   2.0000      -5.807873      -158.0403
  29   2.0000      -5.804203      -157.9404
  30   2.0000      -5.801268      -157.8605
  31   2.0000      -5.760153      -156.7417
  32   2.0000      -5.758648      -156.7008
  33   2.0000      -5.752513      -156.5338
  34   2.0000      -5.752430      -156.5316
  35   2.0000      -5.750997      -156.4926
  36   2.0000      -5.750869      -156.4891
  37   2.0000      -4.737602      -128.9167
  38   2.0000      -4.736539      -128.8878
  39   2.0000      -4.736075      -128.8751
  40   2.0000      -4.735213      -128.8517
  41   2.0000      -4.735109      -128.8489
  42   2.0000      -4.733619      -128.8083
  43   2.0000      -1.052705       -28.6455
  44   2.0000      -1.051926       -28.6244
  45   2.0000      -1.010635       -27.5008
  46   2.0000      -1.009740       -27.4764
  47   2.0000      -0.797299       -21.6956
  48   2.0000      -0.758014       -20.6266
  49   2.0000      -0.751867       -20.4593
  50   2.0000      -0.737024       -20.0554
  51   2.0000      -0.735403       -20.0113
  52   2.0000      -0.707030       -19.2393
  53   2.0000      -0.683162       -18.5898
  54   2.0000      -0.668619       -18.1941
  55   2.0000      -0.622419       -16.9369
  56   2.0000      -0.618768       -16.8375
  57   2.0000      -0.613299       -16.6887
  58   2.0000      -0.604026       -16.4364
  59   2.0000      -0.595320       -16.1995
  60   2.0000      -0.534870       -14.5546
  61   2.0000      -0.524706       -14.2780
  62   2.0000      -0.500625       -13.6227
  63   2.0000      -0.494818       -13.4647
  64   2.0000      -0.473456       -12.8834
  65   2.0000      -0.467501       -12.7213
  66   2.0000      -0.463282       -12.6066
  67   2.0000      -0.452448       -12.3117
  68   2.0000      -0.443684       -12.0733
  69   2.0000      -0.431989       -11.7550
  70   2.0000      -0.423106       -11.5133
  71   2.0000      -0.420179       -11.4337
  72   2.0000      -0.408786       -11.1236
  73   2.0000      -0.400893       -10.9088
  74   2.0000      -0.398397       -10.8409
  75   2.0000      -0.385884       -10.5004
  76   2.0000      -0.376441       -10.2435
  77   2.0000      -0.371569       -10.1109
  78   2.0000      -0.369209       -10.0467
  79   2.0000      -0.368554       -10.0289
  80   2.0000      -0.364926        -9.9302
  81   2.0000      -0.359795        -9.7905
  82   2.0000      -0.357966        -9.7407
  83   2.0000      -0.355506        -9.6738
  84   2.0000      -0.349428        -9.5084
  85   2.0000      -0.337259        -9.1773
  86   2.0000      -0.325229        -8.8499
  87   2.0000      -0.316508        -8.6126
  88   2.0000      -0.313750        -8.5376
  89   2.0000      -0.310001        -8.4356
  90   2.0000      -0.306519        -8.3408
  91   2.0000      -0.293380        -7.9833
  92   2.0000      -0.288049        -7.8382
  93   2.0000      -0.277237        -7.5440
  94   2.0000      -0.269253        -7.3267
  95   2.0000      -0.247568        -6.7367
  96   2.0000      -0.226031        -6.1506
  97   2.0000      -0.222932        -6.0663
  98   2.0000      -0.219783        -5.9806
  99   2.0000      -0.207315        -5.6413
 100   2.0000      -0.203307        -5.5323
 101   0.0000      -0.044161        -1.2017
 102   0.0000      -0.026289        -0.7154
 103   0.0000      -0.002154        -0.0586
 104   0.0000       0.004426         0.1205
 105   0.0000       0.013557         0.3689

MULLIKEN ATOMIC CHARGES
-----------------------
   0 C :   -0.486559
   1 C :   -0.106905
   2 O :   -0.271606
   3 P :    0.681274
   4 S :   -0.447122
   5 O :   -0.297316
   6 C :   -0.167942
   7 C :   -0.427578
   8 S :   -0.154298
   9 C :   -0.236809
  10 S :   -0.164826
  11 P :    0.669031
  12 S :   -0.444290
  13 O :   -0.278414
  14 C :   -0.085710
  15 C :   -0.480351
  16 O :   -0.279421
  17 C :   -0.153299
  18 C :   -0.443892
  19 H :    0.150719
  20 H :    0.155574
  21 H :    0.190371
  22 H :    0.148925
  23 H :    0.160977
  24 H :    0.158852
  25 H :    0.148052
  26 H :    0.176131
  27 H :    0.143793
  28 H :    0.152076
  29 H :    0.203540
  30 H :    0.209498
  31 H :    0.158130
  32 H :    0.165217
  33 H :    0.167810
  34 H :    0.148733
  35 H :    0.154727
  36 H :    0.169874
  37 H :    0.154775
  38 H :    0.158933
  39 H :    0.147629
  40 H :    0.151697
Sum of atomic charges:    0.0000000

LOEWDIN ATOMIC CHARGES
----------------------
   0 C :   -0.402773
   1 C :    0.025848
   2 O :   -0.655104
   3 P :    0.391891
   4 S :   -0.100618
   5 O :   -0.679393
   6 C :    0.021923
   7 C :   -0.403076
   8 S :    0.139718
   9 C :   -0.429009
  10 S :    0.128785
  11 P :    0.376224
  12 S :   -0.098818
  13 O :   -0.659998
  14 C :    0.022556
  15 C :   -0.391697
  16 O :   -0.681240
  17 C :    0.018096
  18 C :   -0.386754
  19 H :    0.159416
  20 H :    0.161266
  21 H :    0.177371
  22 H :    0.179178
  23 H :    0.179883
  24 H :    0.175763
  25 H :    0.178846
  26 H :    0.168696
  27 H :    0.157451
  28 H :    0.160491
  29 H :    0.190223
  30 H :    0.188426
  31 H :    0.179470
  32 H :    0.186209
  33 H :    0.166358
  34 H :    0.159323
  35 H :    0.160195
  36 H :    0.181072
  37 H :    0.173156
  38 H :    0.161350
  39 H :    0.160657
  40 H :    0.158640

  Mayer bond orders larger than 0.100000
B(  0-C ,  1-C ) :   0.9060 B(  0-C , 19-H ) :   0.9652 B(  0-C , 20-H ) :   0.9628
B(  0-C , 21-H ) :   0.9559 B(  1-C ,  2-O ) :   0.7706 B(  1-C , 22-H ) :   0.9616
B(  1-C , 23-H ) :   0.9634 B(  2-O ,  3-P ) :   1.1354 B(  3-P ,  4-S ) :   1.8116
B(  3-P ,  5-O ) :   1.0597 B(  3-P ,  8-S ) :   0.9942 B(  5-O ,  6-C ) :   0.7974
B(  6-C ,  7-C ) :   0.9528 B(  6-C , 24-H ) :   0.9561 B(  6-C , 25-H ) :   0.9645
B(  7-C , 26-H ) :   0.9520 B(  7-C , 27-H ) :   0.9645 B(  7-C , 28-H ) :   0.9715
B(  8-S ,  9-C ) :   0.9000 B(  9-C , 10-S ) :   0.9185 B(  9-C , 29-H ) :   0.9125
B(  9-C , 30-H ) :   0.9159 B( 10-S , 11-P ) :   0.9884 B( 11-P , 12-S ) :   1.8293
B( 11-P , 13-O ) :   1.1417 B( 11-P , 16-O ) :   1.0557 B( 13-O , 14-C ) :   0.7233
B( 14-C , 15-C ) :   0.9273 B( 14-C , 31-H ) :   0.9642 B( 14-C , 32-H ) :   0.9545
B( 15-C , 33-H ) :   0.9697 B( 15-C , 34-H ) :   0.9671 B( 15-C , 35-H ) :   0.9730
B( 16-O , 17-C ) :   0.7861 B( 17-C , 18-C ) :   0.9539 B( 17-C , 36-H ) :   0.9500
B( 17-C , 37-H ) :   0.9408 B( 18-C , 38-H ) :   0.9720 B( 18-C , 39-H ) :   0.9635
B( 18-C , 40-H ) :   0.9718

Dispersion correction           -0.021729902
FINAL SINGLE POINT ENERGY     -2932.460464112661

DIPOLE MOMENT
-------------

Method             : SCF
Type of density    : Electron Density
Multiplicity       :   1
Irrep              :   0
Energy             : -2932.4850676642922735 Eh
Relativity type    :
Basis              : AO
                                X                 Y                 Z
Electronic contribution:      1.905425819     -10.764441217       2.047552461
Nuclear contribution   :     -1.771854598      11.431437738      -2.188494777
                        -----------------------------------------
Total Dipole Moment    :      0.133571221       0.666996520      -0.140942316
                        -----------------------------------------
Magnitude (a.u.)       :      0.694687243
Magnitude (Debye)      :      1.765754645

Rotational constants in cm-1:             0.013657             0.004850             0.004544
Rotational constants in MHz :           409.422501           145.413193           136.212034

                             ****ORCA TERMINATED NORMALLY****
TOTAL RUN TIME: 0 days 0 hours 1 minutes 20 seconds 538 msec
