                         Program Version 6.0.0  -   RELEASE  -
|  1> ! r2scan-3c def2/J RI DEFGRID2 scfconv6 printgap
|  2> %output
|  3>     printlevel normal
|  4> end
|  5> %cpcm
|  6>     smd true
|  7>     smdsolvent "water"
|  8> end
|  9> * xyz 0 1
| 10> C 2.127518883 2.0367532804 -1.6167310605
| 11> C 2.4263129283 2.3999953158 -0.177001771
| 12> O 1.8017163335 1.4983101659 0.7710818601
| 13> P 2.1358064809 -0.0378280126 0.9233732563
| 14> S 1.6541715568 -0.676250241 2.7093806714
| 15> O 3.6712217641 -0.0577892037 0.509425129
| 16> C 4.4445303565 -1.2592969352 0.3343021702
| 17> C 4.9330786745 -1.8171185123 1.6565204542
| 18> S 1.1893708651 -1.0819780536 -0.6895091061
| 19> C -0.0657427455 -1.9992108012 0.2301078513
| 20> S -1.3805456027 -0.9616892379 0.9260907727
| 21> P -1.9923212536 -0.0041355765 -0.8842626207
| 22> S -1.7567449096 -1.0187553626 -2.5359222407
| 23> O -1.2572130381 1.3921969489 -0.8952032186
| 24> C -1.4566645015 2.3724037517 0.1550638848
| 25> C -2.4085436007 3.4541514956 -0.3092766507
| 26> O -3.4889163974 0.4096464613 -0.5470375119
| 27> C -4.539801302 -0.5779788001 -0.5128853744
| 28> C -5.8660425098 0.1536693581 -0.5486568837
| 29> H 2.5262070137 2.8092853059 -2.2669464185
| 30> H 2.5900953742 1.0854976427 -1.8746761931
| 31> H 1.0552891181 1.9520362984 -1.7810573301
| 32> H 2.008244727 3.3728359287 0.0876924301
| 33> H 3.5012810297 2.3979744938 0.0098998589
| 34> H 3.8404035918 -1.9938000601 -0.2061941694
| 35> H 5.2808655613 -0.9437133116 -0.2928067653
| 36> H 4.0927841377 -2.1221614024 2.2759236974
| 37> H 5.566790109 -2.677773076 1.4682031379
| 38> H 5.5015198398 -1.0630575881 2.1941881489
| 39> H 0.3882067531 -2.5073020341 1.0799794579
| 40> H -0.4966105504 -2.7023188678 -0.4809538114
| 41> H -1.8317547391 1.8654966866 1.0489046921
| 42> H -0.4624856406 2.7714787359 0.3628358439
| 43> H -3.388218603 3.0288988438 -0.5099854898
| 44> H -2.4955191961 4.2070172907 0.4678607372
| 45> H -2.0329428012 3.9152950946 -1.2184462619
| 46> H -4.4218665337 -1.2397741294 -1.3770867715
| 47> H -4.4289712242 -1.1626446468 0.4044462071
| 48> H -5.9479539334 0.733441437 -1.4636371654
| 49> H -6.6723973806 -0.571235306 -0.5115610691
| 50> H -5.945474869 0.82281787 0.3031479097
| 51> *
| 52>
| 53>                          ****END OF INPUT****

CARTESIAN COORDINATES (ANGSTROEM)
---------------------------------
  C      2.127519    2.036753   -1.616731
  C      2.426313    2.399995   -0.177002
  O      1.801716    1.498310    0.771082
  P      2.135806   -0.037828    0.923373
  S      1.654172   -0.676250    2.709381
  O      3.671222   -0.057789    0.509425
  C      4.444530   -1.259297    0.334302
  C      4.933079   -1.817119    1.656520
  S      1.189371   -1.081978   -0.689509
  C     -0.065743   -1.999211    0.230108
  S     -1.380546   -0.961689    0.926091
  P     -1.992321   -0.004136   -0.884263
  S     -1.756745   -1.018755   -2.535922
  O     -1.257213    1.392197   -0.895203
  C     -1.456665    2.372404    0.155064
  C     -2.408544    3.454151   -0.309277
  O     -3.488916    0.409646   -0.547038
  C     -4.539801   -0.577979   -0.512885
  C     -5.866043    0.153669   -0.548657
  H      2.526207    2.809285   -2.266946
  H      2.590095    1.085498   -1.874676
  H      1.055289    1.952036   -1.781057
  H      2.008245    3.372836    0.087692
  H      3.501281    2.397974    0.009900
  H      3.840404   -1.993800   -0.206194
  H      5.280866   -0.943713   -0.292807
  H      4.092784   -2.122161    2.275924
  H      5.566790   -2.677773    1.468203
  H      5.501520   -1.063058    2.194188
  H      0.388207   -2.507302    1.079979
  H     -0.496611   -2.702319   -0.480954
  H     -1.831755    1.865497    1.048905
  H     -0.462486    2.771479    0.362836
  H     -3.388219    3.028899   -0.509985
  H     -2.495519    4.207017    0.467861
  H     -2.032943    3.915295   -1.218446
  H     -4.421867   -1.239774   -1.377087
  H     -4.428971   -1.162645    0.404446
  H     -5.947954    0.733441   -1.463637
  H     -6.672397   -0.571235   -0.511561
  H     -5.945475    0.822818    0.303148

 Total Charge           Charge          ....    0
 Multiplicity           Mult            ....    1
 Number of Electrons    NEL             ....  202
 Basis Dimension        Dim             ....  539

ORBITAL ENERGIES
----------------

  NO   OCC          E(Eh)            E(eV)
   0   2.0000     -88.577219     -2410.3087
   1   2.0000     -88.575552     -2410.2633
   2   2.0000     -88.528948     -2408.9951
   3   2.0000     -88.526211     -2408.9207
   4   2.0000     -76.919444     -2093.0845
   5   2.0000     -76.918921     -2093.0703
   6   2.0000     -18.995513      -516.8942
   7   2.0000     -18.995364      -516.8901
   8   2.0000     -18.995034      -516.8812
   9   2.0000     -18.993733      -516.8458
  10   2.0000     -10.102947      -274.9152
  11   2.0000     -10.092194      -274.6226
  12   2.0000     -10.091675      -274.6084
  13   2.0000     -10.090944      -274.5885
  14   2.0000     -10.090185      -274.5679
  15   2.0000     -10.019715      -272.6503
  16   2.0000     -10.019638      -272.6482
  17   2.0000     -10.018794      -272.6252
  18   2.0000     -10.016270      -272.5566
  19   2.0000      -7.871255      -214.1877
  20   2.0000      -7.869594      -214.1425
  21   2.0000      -7.824170      -212.9065
  22   2.0000      -7.821538      -212.8349
  23   2.0000      -6.597574      -179.5291
  24   2.0000      -6.597493      -179.5269
  25   2.0000      -5.818233      -158.3222
  26   2.0000      -5.816489      -158.2747
  27   2.0000      -5.814917      -158.2319
  28   2.0000      -5.813397      -158.1906
  29   2.0000      -5.808511      -158.0576
  30   2.0000      -5.806821      -158.0116
  31   2.0000      -5.771818      -157.0592
  32   2.0000      -5.769205      -156.9880
  33   2.0000      -5.764317      -156.8550
  34   2.0000      -5.764213      -156.8522
  35   2.0000      -5.761667      -156.7829
  36   2.0000      -5.761573      -156.7804
  37   2.0000      -4.743430      -129.0753
  38   2.0000      -4.743255      -129.0705
  39   2.0000      -4.742451      -129.0487
  40   2.0000      -4.742430      -129.0481
  41   2.0000      -4.741159      -129.0135
  42   2.0000      -4.741000      -129.0092
  43   2.0000      -1.054796       -28.7025
  44   2.0000      -1.053460       -28.6661
  45   2.0000      -1.012561       -27.5532
  46   2.0000      -1.010184       -27.4885
  47   2.0000      -0.800332       -21.7781
  48   2.0000      -0.754489       -20.5307
  49   2.0000      -0.745945       -20.2982
  50   2.0000      -0.727412       -19.7939
  51   2.0000      -0.726078       -19.7576
  52   2.0000      -0.707443       -19.2505
  53   2.0000      -0.687263       -18.7014
  54   2.0000      -0.675373       -18.3778
  55   2.0000      -0.622260       -16.9326
  56   2.0000      -0.614689       -16.7265
  57   2.0000      -0.606331       -16.4991
  58   2.0000      -0.597976       -16.2718
  59   2.0000      -0.592733       -16.1291
  60   2.0000      -0.532185       -14.4815
  61   2.0000      -0.519551       -14.1377
  62   2.0000      -0.497793       -13.5456
  63   2.0000      -0.489479       -13.3194
  64   2.0000      -0.472219       -12.8497
  65   2.0000      -0.463647       -12.6165
  66   2.0000      -0.458490       -12.4762
  67   2.0000      -0.446328       -12.1452
  68   2.0000      -0.435667       -11.8551
  69   2.0000      -0.428182       -11.6514
  70   2.0000      -0.421427       -11.4676
  71   2.0000      -0.415648       -11.3104
  72   2.0000      -0.406061       -11.0495
  73   2.0000      -0.397738       -10.8230
  74   2.0000      -0.392860       -10.6903
  75   2.0000      -0.386199       -10.5090
  76   2.0000      -0.373437       -10.1617
  77   2.0000      -0.366508        -9.9732
  78   2.0000      -0.361893        -9.8476
  79   2.0000      -0.360205        -9.8017
  80   2.0000      -0.358622        -9.7586
  81   2.0000      -0.353920        -9.6306
  82   2.0000      -0.349903        -9.5214
  83   2.0000      -0.348023        -9.4702
  84   2.0000      -0.343964        -9.3597
  85   2.0000      -0.334572        -9.1042
  86   2.0000      -0.323678        -8.8077
  87   2.0000      -0.313822        -8.5395
  88   2.0000      -0.307762        -8.3746
  89   2.0000      -0.304758        -8.2929
  90   2.0000      -0.300575        -8.1791
  91   2.0000      -0.291626        -7.9355
  92   2.0000      -0.287370        -7.8197
  93   2.0000      -0.278512        -7.5787
  94   2.0000      -0.272100        -7.4042
  95   2.0000      -0.252763        -6.8780
  96   2.0000      -0.236132        -6.4255
  97   2.0000      -0.233318        -6.3489
  98   2.0000      -0.229791        -6.2529
  99   2.0000      -0.217561        -5.9201
 100   2.0000      -0.213664        -5.8141
 101   0.0000      -0.049977        -1.3599
 102   0.0000      -0.034193        -0.9305
 103   0.0000      -0.007302        -0.1987
 104   0.0000      -0.001014        -0.0276
 105   0.0000       0.012407         0.3376

MULLIKEN ATOMIC CHARGES
-----------------------
   0 C :   -0.535235
   1 C :   -0.089244
   2 O :   -0.307773
   3 P :    0.705490
   4 S :   -0.502570
   5 O :   -0.317041
   6 C :   -0.146914
   7 C :   -0.476325
   8 S :   -0.164456
   9 C :   -0.239578
  10 S :   -0.181921
  11 P :    0.687444
  12 S :   -0.495526
  13 O :   -0.305772
  14 C :   -0.083990
  15 C :   -0.523998
  16 O :   -0.297470
  17 C :   -0.141407
  18 C :   -0.482157
  19 H :    0.176759
  20 H :    0.166217
  21 H :    0.181664
  22 H :    0.178106
  23 H :    0.176689
  24 H :    0.166682
  25 H :    0.175587
  26 H :    0.167596
  27 H :    0.168807
  28 H :    0.166663
  29 H :    0.224805
  30 H :    0.234686
  31 H :    0.171111
  32 H :    0.187483
  33 H :    0.170402
  34 H :    0.172443
  35 H :    0.168638
  36 H :    0.171621
  37 H :    0.170316
  38 H :    0.166796
  39 H :    0.169383
  40 H :    0.165988
Sum of atomic charges:    0.0000000

LOEWDIN ATOMIC CHARGES
----------------------
   0 C :   -0.405135
   1 C :    0.034715
   2 O :   -0.672569
   3 P :    0.395310
   4 S :   -0.142759
   5 O :   -0.683097
   6 C :    0.029595
   7 C :   -0.407975
   8 S :    0.137024
   9 C :   -0.421674
  10 S :    0.122442
  11 P :    0.378692
  12 S :   -0.138567
  13 O :   -0.676777
  14 C :    0.025805
  15 C :   -0.393296
  16 O :   -0.687079
  17 C :    0.023101
  18 C :   -0.389556
  19 H :    0.169689
  20 H :    0.161645
  21 H :    0.171193
  22 H :    0.192288
  23 H :    0.186654
  24 H :    0.179905
  25 H :    0.190695
  26 H :    0.162580
  27 H :    0.167152
  28 H :    0.162553
  29 H :    0.197673
  30 H :    0.196514
  31 H :    0.183344
  32 H :    0.194749
  33 H :    0.165409
  34 H :    0.169313
  35 H :    0.163898
  36 H :    0.181525
  37 H :    0.179717
  38 H :    0.163088
  39 H :    0.169013
  40 H :    0.163203

  Mayer bond orders larger than 0.100000
B(  0-C ,  1-C ) :   0.8894 B(  0-C , 19-H ) :   0.9569 B(  0-C , 20-H ) :   0.9618
B(  0-C , 21-H ) :   0.9620 B(  1-C ,  2-O ) :   0.7632 B(  1-C , 22-H ) :   0.9494
B(  1-C , 23-H ) :   0.9580 B(  2-O ,  3-P ) :   1.1434 B(  3-P ,  4-S ) :   1.7830
B(  3-P ,  5-O ) :   1.0765 B(  3-P ,  8-S ) :   0.9993 B(  5-O ,  6-C ) :   0.7888
B(  6-C ,  7-C ) :   0.9364 B(  6-C , 24-H ) :   0.9512 B(  6-C , 25-H ) :   0.9555
B(  7-C , 26-H ) :   0.9571 B(  7-C , 27-H ) :   0.9587 B(  7-C , 28-H ) :   0.9723
B(  8-S ,  9-C ) :   0.8897 B(  9-C , 10-S ) :   0.9037 B(  9-C , 29-H ) :   0.9070
B(  9-C , 30-H ) :   0.9089 B( 10-S , 11-P ) :   0.9941 B( 11-P , 12-S ) :   1.8058
B( 11-P , 13-O ) :   1.1483 B( 11-P , 16-O ) :   1.0685 B( 13-O , 14-C ) :   0.7079
B( 14-C , 15-C ) :   0.9249 B( 14-C , 31-H ) :   0.9542 B( 14-C , 32-H ) :   0.9440
B( 15-C , 33-H ) :   0.9690 B( 15-C , 34-H ) :   0.9595 B( 15-C , 35-H ) :   0.9718
B( 16-O , 17-C ) :   0.7777 B( 17-C , 18-C ) :   0.9533 B( 17-C , 36-H ) :   0.9476
B( 17-C , 37-H ) :   0.9324 B( 18-C , 38-H ) :   0.9695 B( 18-C , 39-H ) :   0.9580
B( 18-C , 40-H ) :   0.9681

Dispersion correction           -0.021729902
FINAL SINGLE POINT ENERGY     -2932.471649925822

DIPOLE MOMENT
-------------

Method             : SCF
Type of density    : Electron Density
Multiplicity       :   1
Irrep              :   0
Energy             : -2932.4962534774531377 Eh
Relativity type    :
Basis              : AO
                                X                 Y                 Z
Electronic contribution:      2.060074459     -10.674210411       2.003176536
Nuclear contribution   :     -1.771854598      11.431437738      -2.188494777
                        -----------------------------------------
Total Dipole Moment    :      0.288219861       0.757227326      -0.185318241
                        -----------------------------------------
Magnitude (a.u.)       :      0.831147858
Magnitude (Debye)      :      2.112609964

Rotational constants in cm-1:             0.013657             0.004850             0.004544
Rotational constants in MHz :           409.422501           145.413193           136.212034

                             ****ORCA TERMINATED NORMALLY****
TOTAL RUN TIME: 0 days 0 hours 1 minutes 50 seconds 880 msec
