                         Program Version 6.0.0  -   RELEASE  -
|  1> ! r2scan-3c def2/J RI DEFGRID2 scfconv6 printgap
|  2> %output
|  3>     printlevel normal
|  4> end
|  5> * xyz 0 1
|  6> C -0.8414775402 -0.6150648546 -0.9564829894
|  7> C 0.5188864123 0.0247425726 -0.7968832179
|  8> Cl 1.5095257302 -0.8644473691 0.3956470369
|  9> Cl 0.3713436624 1.7248147743 -0.2655192816
| 10> Cl -1.7401764449 -0.6125482345 0.5968452029
| 11> H -1.438363846 -0.0530099704 -1.6733079256
| 12> H -0.7346073127 -1.6544597261 -1.2635797315
| 13> H 1.068321453 0.0251162787 -1.7400821519
| 14> *
| 15>
| 16>                          ****END OF INPUT****

CARTESIAN COORDINATES (ANGSTROEM)
---------------------------------
  C     -0.841478   -0.615065   -0.956483
  C      0.518886    0.024743   -0.796883
  Cl     1.509526   -0.864447    0.395647
  Cl     0.371344    1.724815   -0.265519
  Cl    -1.740176   -0.612548    0.596845
  H     -1.438364   -0.053010   -1.673308
  H     -0.734607   -1.654460   -1.263580
  H      1.068321    0.025116   -1.740082

 Total Charge           Charge          ....    0
 Multiplicity           Mult            ....    1
 Number of Electrons    NEL             ....   66
 Basis Dimension        Dim             ....  134

ORBITAL ENERGIES
----------------

  NO   OCC          E(Eh)            E(eV)
   0   2.0000    -101.228615     -2754.5706
   1   2.0000    -101.228544     -2754.5687
   2   2.0000    -101.218227     -2754.2880
   3   2.0000     -10.181229      -277.0453
   4   2.0000     -10.127292      -275.5776
   5   2.0000      -9.384518      -255.3657
   6   2.0000      -9.384454      -255.3640
   7   2.0000      -9.373848      -255.0754
   8   2.0000      -7.131291      -194.0523
   9   2.0000      -7.131225      -194.0505
  10   2.0000      -7.120650      -193.7627
  11   2.0000      -7.120480      -193.7581
  12   2.0000      -7.120418      -193.7564
  13   2.0000      -7.120091      -193.7475
  14   2.0000      -7.120027      -193.7458
  15   2.0000      -7.109730      -193.4656
  16   2.0000      -7.109506      -193.4595
  17   2.0000      -0.895137       -24.3579
  18   2.0000      -0.821020       -22.3411
  19   2.0000      -0.793279       -21.5862
  20   2.0000      -0.703501       -19.1432
  21   2.0000      -0.590580       -16.0705
  22   2.0000      -0.487441       -13.2639
  23   2.0000      -0.477031       -12.9807
  24   2.0000      -0.441573       -12.0158
  25   2.0000      -0.402894       -10.9633
  26   2.0000      -0.393529       -10.7085
  27   2.0000      -0.316613        -8.6155
  28   2.0000      -0.304697        -8.2912
  29   2.0000      -0.289574        -7.8797
  30   2.0000      -0.283904        -7.7254
  31   2.0000      -0.283495        -7.7143
  32   2.0000      -0.277241        -7.5441
  33   0.0000      -0.050853        -1.3838
  34   0.0000      -0.008439        -0.2296
  35   0.0000       0.000973         0.0265
  36   0.0000       0.074145         2.0176
  37   0.0000       0.106543         2.8992

MULLIKEN ATOMIC CHARGES
-----------------------
   0 C :   -0.188703
   1 C :    0.028983
   2 Cl:   -0.120245
   3 Cl:   -0.120060
   4 Cl:   -0.149887
   5 H :    0.177161
   6 H :    0.177273
   7 H :    0.195478
Sum of atomic charges:    0.0000000

LOEWDIN ATOMIC CHARGES
----------------------
   0 C :   -0.354531
   1 C :   -0.343493
   2 Cl:    0.070974
   3 Cl:    0.071114
   4 Cl:    0.037877
   5 H :    0.172938
   6 H :    0.173000
   7 H :    0.172121

  Mayer bond orders larger than 0.100000
B(  0-C ,  1-C ) :   0.9423 B(  0-C ,  4-Cl) :   1.0143 B(  0-C ,  5-H ) :   0.9406
B(  0-C ,  6-H ) :   0.9406 B(  1-C ,  2-Cl) :   1.0127 B(  1-C ,  3-Cl) :   1.0128
B(  1-C ,  7-H ) :   0.9171

Dispersion correction           -0.002572763
FINAL SINGLE POINT ENERGY     -1458.519845987696

DIPOLE MOMENT
-------------

Method             : SCF
Type of density    : Electron Density
Multiplicity       :   1
Irrep              :   0
Energy             : -1458.5268158746671361 Eh
Relativity type    :
Basis              : AO
                                X                 Y                 Z
Electronic contribution:      1.211877742       1.626814134       4.274081983
Nuclear contribution   :     -1.225196713      -1.910971219      -5.363577606
                        -----------------------------------------
Total Dipole Moment    :     -0.013318971      -0.284157084      -1.089495623
                        -----------------------------------------
Magnitude (a.u.)       :      1.126021028
Magnitude (Debye)      :      2.862117997

Rotational constants in cm-1:             0.089382             0.065663             0.045501
Rotational constants in MHz :          2679.610581          1968.537512          1364.073640

                             ****ORCA TERMINATED NORMALLY****
TOTAL RUN TIME: 0 days 0 hours 0 minutes 21 seconds 273 msec
