                         Program Version 6.0.0  -   RELEASE  -
|  1> ! r2scan-3c def2/J RI DEFGRID2 scfconv6 printgap
|  2> %output
|  3>     printlevel normal
|  4> end
|  5> %cpcm
|  6>     smd true
|  7>     smdsolvent "water"
|  8> end
|  9> * xyz 0 1
| 10> C -0.8414775402 -0.6150648546 -0.9564829894
| 11> C 0.5188864123 0.0247425726 -0.7968832179
| 12> Cl 1.5095257302 -0.8644473691 0.3956470369
| 13> Cl 0.3713436624 1.7248147743 -0.2655192816
| 14> Cl -1.7401764449 -0.6125482345 0.5968452029
| 15> H -1.438363846 -0.0530099704 -1.6733079256
| 16> H -0.7346073127 -1.6544597261 -1.2635797315
| 17> H 1.068321453 0.0251162787 -1.7400821519
| 18> *
| 19>
| 20>                          ****END OF INPUT****

CARTESIAN COORDINATES (ANGSTROEM)
---------------------------------
  C     -0.841478   -0.615065   -0.956483
  C      0.518886    0.024743   -0.796883
  Cl     1.509526   -0.864447    0.395647
  Cl     0.371344    1.724815   -0.265519
  Cl    -1.740176   -0.612548    0.596845
  H     -1.438364   -0.053010   -1.673308
  H     -0.734607   -1.654460   -1.263580
  H      1.068321    0.025116   -1.740082

 Total Charge           Charge          ....    0
 Multiplicity           Mult            ....    1
 Number of Electrons    NEL             ....   66
 Basis Dimension        Dim             ....  134

ORBITAL ENERGIES
----------------

  NO   OCC          E(Eh)            E(eV)
   0   2.0000    -101.224191     -2754.4503
   1   2.0000    -101.224128     -2754.4486
   2   2.0000    -101.213509     -2754.1596
   3   2.0000     -10.167839      -276.6810
   4   2.0000     -10.108408      -275.0638
   5   2.0000      -9.380354      -255.2524
   6   2.0000      -9.380297      -255.2509
   7   2.0000      -9.369492      -254.9568
   8   2.0000      -7.126861      -193.9317
   9   2.0000      -7.126801      -193.9301
  10   2.0000      -7.116418      -193.6476
  11   2.0000      -7.116363      -193.6461
  12   2.0000      -7.116046      -193.6375
  13   2.0000      -7.115990      -193.6359
  14   2.0000      -7.115838      -193.6318
  15   2.0000      -7.105563      -193.3522
  16   2.0000      -7.105361      -193.3467
  17   2.0000      -0.886437       -24.1212
  18   2.0000      -0.814449       -22.1623
  19   2.0000      -0.789020       -21.4703
  20   2.0000      -0.690774       -18.7969
  21   2.0000      -0.576409       -15.6849
  22   2.0000      -0.472366       -12.8537
  23   2.0000      -0.462029       -12.5724
  24   2.0000      -0.431529       -11.7425
  25   2.0000      -0.391951       -10.6655
  26   2.0000      -0.382635       -10.4120
  27   2.0000      -0.313162        -8.5216
  28   2.0000      -0.301117        -8.1938
  29   2.0000      -0.284219        -7.7340
  30   2.0000      -0.281471        -7.6592
  31   2.0000      -0.280506        -7.6330
  32   2.0000      -0.273665        -7.4468
  33   0.0000      -0.042695        -1.1618
  34   0.0000       0.001391         0.0379
  35   0.0000       0.011149         0.3034
  36   0.0000       0.097622         2.6564
  37   0.0000       0.121779         3.3138

MULLIKEN ATOMIC CHARGES
-----------------------
   0 C :   -0.199389
   1 C :    0.035094
   2 Cl:   -0.158403
   3 Cl:   -0.158083
   4 Cl:   -0.202542
   5 H :    0.216264
   6 H :    0.216551
   7 H :    0.250508
Sum of atomic charges:    0.0000000

LOEWDIN ATOMIC CHARGES
----------------------
   0 C :   -0.340503
   1 C :   -0.330426
   2 Cl:    0.047933
   3 Cl:    0.048089
   4 Cl:    0.002840
   5 H :    0.188787
   6 H :    0.188884
   7 H :    0.194397

  Mayer bond orders larger than 0.100000
B(  0-C ,  1-C ) :   0.9473 B(  0-C ,  4-Cl) :   0.9677 B(  0-C ,  5-H ) :   0.9293
B(  0-C ,  6-H ) :   0.9293 B(  1-C ,  2-Cl) :   0.9825 B(  1-C ,  3-Cl) :   0.9828
B(  1-C ,  7-H ) :   0.9027

Dispersion correction           -0.002572763
FINAL SINGLE POINT ENERGY     -1458.527780733076

DIPOLE MOMENT
-------------

Method             : SCF
Type of density    : Electron Density
Multiplicity       :   1
Irrep              :   0
Energy             : -1458.5347506200473617 Eh
Relativity type    :
Basis              : AO
                                X                 Y                 Z
Electronic contribution:      1.218685139       1.496604997       3.753449869
Nuclear contribution   :     -1.225196713      -1.910971219      -5.363577606
                        -----------------------------------------
Total Dipole Moment    :     -0.006511575      -0.414366222      -1.610127737
                        -----------------------------------------
Magnitude (a.u.)       :      1.662604311
Magnitude (Debye)      :      4.226004312

Rotational constants in cm-1:             0.089382             0.065663             0.045501
Rotational constants in MHz :          2679.610581          1968.537512          1364.073640

                             ****ORCA TERMINATED NORMALLY****
TOTAL RUN TIME: 0 days 0 hours 1 minutes 1 seconds 583 msec
