                         Program Version 6.0.0  -   RELEASE  -
|  1> ! pbe def2-sv(p) def2/J RI DEFGRID1 loosescf d4 GCP(DFT/SV(P)) printgap
|  2> %output
|  3>     printlevel normal
|  4> end
|  5> * xyz 0 1
|  6> C 2.2955259302 2.9824617527 -1.1923744288
|  7> C 1.6497992633 1.6386025914 -1.4583530534
|  8> O 1.3871503687 0.9522483795 -0.2113589665
|  9> P 2.3480689367 -0.221412349 0.2594158171
| 10> S 4.2737557472 0.1049978969 0.1323368415
| 11> O 1.8420214164 -1.4270076662 -0.6606533364
| 12> C 2.6437504331 -2.5974989585 -0.8819967064
| 13> C 2.7144292625 -3.4736445836 0.3528195954
| 14> S 1.5570562834 -0.5725660028 2.1765559892
| 15> C -0.1706289333 -0.9191160073 1.7383891632
| 16> S -1.191801803 0.5919108872 1.6802514622
| 17> P -2.2331427836 0.1536422879 -0.0977354176
| 18> S -1.2414273695 -0.5600898821 -1.6399717586
| 19> O -3.0842985915 1.461585202 -0.395490032
| 20> C -2.5794674326 2.5517525574 -1.1840013047
| 21> C -1.6224095182 3.4199132639 -0.3920914576
| 22> O -3.3146317377 -0.8367848477 0.5023417135
| 23> C -4.1056537719 -1.7159356702 -0.3239976871
| 24> C -5.1101872143 -0.9526982873 -1.1611421094
| 25> H 2.4117160309 3.5136225607 -2.131500512
| 26> H 1.6799484555 3.5701993555 -0.5170561143
| 27> H 3.2746280506 2.8399064527 -0.7397259689
| 28> H 2.2897581105 1.0106469515 -2.0845476544
| 29> H 0.6751575058 1.7388267511 -1.9402815765
| 30> H 2.1492524224 -3.1022614823 -1.7133802681
| 31> H 3.646791648 -2.277115062 -1.1822413717
| 32> H 1.7163675064 -3.7512365057 0.6822836942
| 33> H 3.2782923558 -4.3717070401 0.1220808168
| 34> H 3.216715338 -2.9374381413 1.1577779351
| 35> H -0.5530252452 -1.5686715161 2.5207970365
| 36> H -0.2013076481 -1.399455835 0.7591550257
| 37> H -2.0923706304 2.1403788649 -2.0752195484
| 38> H -3.4724537147 3.1061386076 -1.4768881971
| 39> H -0.7412156831 2.8468193795 -0.1084378031
| 40> H -1.3172229707 4.2663021619 -0.9994310735
| 41> H -2.1047196991 3.7794250223 0.5130574673
| 42> H -3.4292292862 -2.2922187975 -0.9636939292
| 43> H -4.5944021116 -2.3767472508 0.3929787113
| 44> H -5.7082879501 -0.3025343589 -0.5283055625
| 45> H -4.591531649 -0.3443550157 -1.9006196049
| 46> H -5.7588055021 -1.6554796605 -1.6747907887
| 47> *
| 48>
| 49>                          ****END OF INPUT****

CARTESIAN COORDINATES (ANGSTROEM)
---------------------------------
  C      2.295526    2.982462   -1.192374
  C      1.649799    1.638603   -1.458353
  O      1.387150    0.952248   -0.211359
  P      2.348069   -0.221412    0.259416
  S      4.273756    0.104998    0.132337
  O      1.842021   -1.427008   -0.660653
  C      2.643750   -2.597499   -0.881997
  C      2.714429   -3.473645    0.352820
  S      1.557056   -0.572566    2.176556
  C     -0.170629   -0.919116    1.738389
  S     -1.191802    0.591911    1.680251
  P     -2.233143    0.153642   -0.097735
  S     -1.241427   -0.560090   -1.639972
  O     -3.084299    1.461585   -0.395490
  C     -2.579467    2.551753   -1.184001
  C     -1.622410    3.419913   -0.392091
  O     -3.314632   -0.836785    0.502342
  C     -4.105654   -1.715936   -0.323998
  C     -5.110187   -0.952698   -1.161142
  H      2.411716    3.513623   -2.131501
  H      1.679948    3.570199   -0.517056
  H      3.274628    2.839906   -0.739726
  H      2.289758    1.010647   -2.084548
  H      0.675158    1.738827   -1.940282
  H      2.149252   -3.102261   -1.713380
  H      3.646792   -2.277115   -1.182241
  H      1.716368   -3.751237    0.682284
  H      3.278292   -4.371707    0.122081
  H      3.216715   -2.937438    1.157778
  H     -0.553025   -1.568672    2.520797
  H     -0.201308   -1.399456    0.759155
  H     -2.092371    2.140379   -2.075220
  H     -3.472454    3.106139   -1.476888
  H     -0.741216    2.846819   -0.108438
  H     -1.317223    4.266302   -0.999431
  H     -2.104720    3.779425    0.513057
  H     -3.429229   -2.292219   -0.963694
  H     -4.594402   -2.376747    0.392979
  H     -5.708288   -0.302534   -0.528306
  H     -4.591532   -0.344355   -1.900620
  H     -5.758806   -1.655480   -1.674791

 Total Charge           Charge          ....    0
 Multiplicity           Mult            ....    1
 Number of Electrons    NEL             ....  202
 Basis Dimension        Dim             ....  334

ORBITAL ENERGIES
----------------

  NO   OCC          E(Eh)            E(eV)
   0   2.0000     -88.045743     -2395.8465
   1   2.0000     -88.042514     -2395.7586
   2   2.0000     -87.992397     -2394.3948
   3   2.0000     -87.985524     -2394.2078
   4   2.0000     -76.429492     -2079.7522
   5   2.0000     -76.423161     -2079.5799
   6   2.0000     -18.800166      -511.5785
   7   2.0000     -18.792768      -511.3772
   8   2.0000     -18.788248      -511.2542
   9   2.0000     -18.784876      -511.1625
  10   2.0000      -9.959143      -271.0020
  11   2.0000      -9.958557      -270.9861
  12   2.0000      -9.954273      -270.8695
  13   2.0000      -9.947469      -270.6844
  14   2.0000      -9.945821      -270.6395
  15   2.0000      -9.889274      -269.1008
  16   2.0000      -9.887256      -269.0459
  17   2.0000      -9.882590      -268.9190
  18   2.0000      -9.877394      -268.7775
  19   2.0000      -7.691168      -209.2873
  20   2.0000      -7.687907      -209.1986
  21   2.0000      -7.637151      -207.8174
  22   2.0000      -7.630708      -207.6421
  23   2.0000      -6.427323      -174.8963
  24   2.0000      -6.421104      -174.7271
  25   2.0000      -5.719446      -155.6340
  26   2.0000      -5.715858      -155.5364
  27   2.0000      -5.715396      -155.5238
  28   2.0000      -5.712658      -155.4493
  29   2.0000      -5.707957      -155.3214
  30   2.0000      -5.704496      -155.2272
  31   2.0000      -5.665892      -154.1768
  32   2.0000      -5.659669      -154.0074
  33   2.0000      -5.657879      -153.9587
  34   2.0000      -5.657398      -153.9456
  35   2.0000      -5.651458      -153.7840
  36   2.0000      -5.650687      -153.7630
  37   2.0000      -4.649873      -126.5295
  38   2.0000      -4.649012      -126.5060
  39   2.0000      -4.647824      -126.4737
  40   2.0000      -4.643502      -126.3561
  41   2.0000      -4.643064      -126.3442
  42   2.0000      -4.641536      -126.3026
  43   2.0000      -0.991491       -26.9798
  44   2.0000      -0.981579       -26.7101
  45   2.0000      -0.951108       -25.8810
  46   2.0000      -0.939768       -25.5724
  47   2.0000      -0.764400       -20.8004
  48   2.0000      -0.724161       -19.7054
  49   2.0000      -0.707177       -19.2433
  50   2.0000      -0.692188       -18.8354
  51   2.0000      -0.682548       -18.5731
  52   2.0000      -0.675659       -18.3856
  53   2.0000      -0.654786       -17.8176
  54   2.0000      -0.639772       -17.4091
  55   2.0000      -0.605232       -16.4692
  56   2.0000      -0.588651       -16.0180
  57   2.0000      -0.576712       -15.6931
  58   2.0000      -0.570740       -15.5306
  59   2.0000      -0.559078       -15.2133
  60   2.0000      -0.499259       -13.5855
  61   2.0000      -0.497347       -13.5335
  62   2.0000      -0.479838       -13.0571
  63   2.0000      -0.465741       -12.6735
  64   2.0000      -0.459216       -12.4959
  65   2.0000      -0.448034       -12.1916
  66   2.0000      -0.443633       -12.0719
  67   2.0000      -0.435807       -11.8589
  68   2.0000      -0.429182       -11.6786
  69   2.0000      -0.417105       -11.3500
  70   2.0000      -0.411349       -11.1934
  71   2.0000      -0.397446       -10.8150
  72   2.0000      -0.394892       -10.7456
  73   2.0000      -0.391146       -10.6436
  74   2.0000      -0.385251       -10.4832
  75   2.0000      -0.375907       -10.2289
  76   2.0000      -0.368773       -10.0348
  77   2.0000      -0.360792        -9.8176
  78   2.0000      -0.354068        -9.6347
  79   2.0000      -0.350814        -9.5461
  80   2.0000      -0.347751        -9.4628
  81   2.0000      -0.345614        -9.4046
  82   2.0000      -0.340723        -9.2715
  83   2.0000      -0.337374        -9.1804
  84   2.0000      -0.329055        -8.9540
  85   2.0000      -0.319968        -8.7068
  86   2.0000      -0.309368        -8.4183
  87   2.0000      -0.299228        -8.1424
  88   2.0000      -0.291128        -7.9220
  89   2.0000      -0.289079        -7.8662
  90   2.0000      -0.285485        -7.7684
  91   2.0000      -0.277089        -7.5400
  92   2.0000      -0.271056        -7.3758
  93   2.0000      -0.269781        -7.3411
  94   2.0000      -0.262177        -7.1342
  95   2.0000      -0.232294        -6.3210
  96   2.0000      -0.220940        -6.0121
  97   2.0000      -0.211230        -5.7479
  98   2.0000      -0.208767        -5.6808
  99   2.0000      -0.202008        -5.4969
 100   2.0000      -0.200784        -5.4636
 101   0.0000      -0.040590        -1.1045
 102   0.0000      -0.029311        -0.7976
 103   0.0000      -0.021921        -0.5965
 104   0.0000       0.005879         0.1600
 105   0.0000       0.017466         0.4753

MULLIKEN ATOMIC CHARGES
-----------------------
   0 C :   -0.286124
   1 C :   -0.012601
   2 O :   -0.373408
   3 P :    0.607431
   4 S :   -0.320363
   5 O :   -0.369622
   6 C :   -0.005989
   7 C :   -0.314448
   8 S :   -0.064968
   9 C :   -0.370501
  10 S :   -0.058712
  11 P :    0.601484
  12 S :   -0.320774
  13 O :   -0.370454
  14 C :   -0.013735
  15 C :   -0.353525
  16 O :   -0.368574
  17 C :   -0.004418
  18 C :   -0.306715
  19 H :    0.104542
  20 H :    0.113327
  21 H :    0.123713
  22 H :    0.103822
  23 H :    0.109107
  24 H :    0.105659
  25 H :    0.111223
  26 H :    0.113140
  27 H :    0.112500
  28 H :    0.125820
  29 H :    0.186839
  30 H :    0.202755
  31 H :    0.113070
  32 H :    0.107822
  33 H :    0.170652
  34 H :    0.115455
  35 H :    0.120378
  36 H :    0.108436
  37 H :    0.105450
  38 H :    0.118953
  39 H :    0.120826
  40 H :    0.112528
Sum of atomic charges:    0.0000000

LOEWDIN ATOMIC CHARGES
----------------------
   0 C :   -0.360027
   1 C :   -0.120057
   2 O :   -0.244222
   3 P :    0.569089
   4 S :   -0.318715
   5 O :   -0.240606
   6 C :   -0.123231
   7 C :   -0.367167
   8 S :    0.099426
   9 C :   -0.477590
  10 S :    0.095331
  11 P :    0.570214
  12 S :   -0.304932
  13 O :   -0.239827
  14 C :   -0.119281
  15 C :   -0.371986
  16 O :   -0.245665
  17 C :   -0.118538
  18 C :   -0.364079
  19 H :    0.127515
  20 H :    0.123395
  21 H :    0.126236
  22 H :    0.109738
  23 H :    0.108042
  24 H :    0.118759
  25 H :    0.108463
  26 H :    0.122450
  27 H :    0.130766
  28 H :    0.121330
  29 H :    0.137487
  30 H :    0.125822
  31 H :    0.107079
  32 H :    0.119853
  33 H :    0.126387
  34 H :    0.131550
  35 H :    0.128328
  36 H :    0.109089
  37 H :    0.118948
  38 H :    0.127495
  39 H :    0.122588
  40 H :    0.130542

  Mayer bond orders larger than 0.100000
B(  0-C ,  1-C ) :   1.1712 B(  0-C , 19-H ) :   0.9408 B(  0-C , 20-H ) :   0.9469
B(  0-C , 21-H ) :   0.9337 B(  1-C ,  2-O ) :   0.8739 B(  1-C , 22-H ) :   0.9118
B(  1-C , 23-H ) :   0.9159 B(  2-O ,  3-P ) :   1.1228 B(  3-P ,  4-S ) :   1.6357
B(  3-P ,  5-O ) :   1.0715 B(  3-P ,  8-S ) :   0.9781 B(  5-O ,  6-C ) :   0.9125
B(  6-C ,  7-C ) :   1.1621 B(  6-C , 24-H ) :   0.9321 B(  6-C , 25-H ) :   0.9110
B(  7-C , 26-H ) :   0.9477 B(  7-C , 27-H ) :   0.9396 B(  7-C , 28-H ) :   0.9356
B(  8-S ,  9-C ) :   0.9955 B(  9-C , 10-S ) :   0.9784 B(  9-C , 29-H ) :   0.9091
B(  9-C , 30-H ) :   0.8549 B( 10-S , 11-P ) :   0.9834 B( 10-S , 12-S ) :   0.1161
B( 11-P , 12-S ) :   1.5913 B( 11-P , 13-O ) :   1.1066 B( 11-P , 16-O ) :   1.1183
B( 13-O , 14-C ) :   0.9067 B( 14-C , 15-C ) :   1.1643 B( 14-C , 31-H ) :   0.9113
B( 14-C , 32-H ) :   0.9321 B( 15-C , 33-H ) :   0.9167 B( 15-C , 34-H ) :   0.9382
B( 15-C , 35-H ) :   0.9430 B( 16-O , 17-C ) :   0.9100 B( 17-C , 18-C ) :   1.1652
B( 17-C , 36-H ) :   0.9150 B( 17-C , 37-H ) :   0.9346 B( 18-C , 38-H ) :   0.9463
B( 18-C , 39-H ) :   0.9387 B( 18-C , 40-H ) :   0.9388

Dispersion correction           -0.066181957
FINAL SINGLE POINT ENERGY     -2929.520531481522

DIPOLE MOMENT
-------------

Method             : SCF
Type of density    : Electron Density
Multiplicity       :   1
Irrep              :   0
Energy             : -2929.6408633139649282 Eh
Relativity type    :
Basis              : AO
                                X                 Y                 Z
Electronic contribution:      8.336461180      -2.614211947      12.634239603
Nuclear contribution   :     -9.841675300       2.358003381     -13.253116428
                        -----------------------------------------
Total Dipole Moment    :     -1.505214120      -0.256208567      -0.618876826
                        -----------------------------------------
Magnitude (a.u.)       :      1.647519621
Magnitude (Debye)      :      4.187662079

Rotational constants in cm-1:             0.011956             0.005408             0.004707
Rotational constants in MHz :           358.425266           162.133407           141.109688

                             ****ORCA TERMINATED NORMALLY****
TOTAL RUN TIME: 0 days 0 hours 0 minutes 21 seconds 481 msec
