                         Program Version 6.0.0  -   RELEASE  -
|  1> ! wb97x-v def2-tzvp def2/J RIJCOSX DEFGRID2 scfconv7 GCP(DFT/TZ) printgap
|  2> %output
|  3>     printlevel normal
|  4> end
|  5> * xyz 0 1
|  6> C 1.8694231083177015 0.2834213254884973 -0.004693935032416925
|  7> C 0.5769597482956593 -0.5221286538827709 0.010626301829655332
|  8> C -0.6550403296541842 0.33003433057537424 -0.016096942289206256
|  9> O -1.7906601226342231 -0.11598085469115832 0.01250036453798668
| 10> H 2.73766330142193 -0.3798236824934386 0.01418035006972126
| 11> H 1.9300574146534306 0.9440439708540729 0.8657792658211158
| 12> H 1.9359237033929346 0.9009948400166397 -0.9058373713053166
| 13> H 0.5145360894883966 -1.2021129001562694 -0.8499060979856904
| 14> H 0.5082465849027781 -1.1630459747923128 0.8997352620092797
| 15> H -0.4962076722775964 1.4287128867187222 -0.06628507594752273
| 16> *
| 17>
| 18>                          ****END OF INPUT****

CARTESIAN COORDINATES (ANGSTROEM)
---------------------------------
  C      1.869423    0.283421   -0.004694
  C      0.576960   -0.522129    0.010626
  C     -0.655040    0.330034   -0.016097
  O     -1.790660   -0.115981    0.012500
  H      2.737663   -0.379824    0.014180
  H      1.930057    0.944044    0.865779
  H      1.935924    0.900995   -0.905837
  H      0.514536   -1.202113   -0.849906
  H      0.508247   -1.163046    0.899735
  H     -0.496208    1.428713   -0.066285

 Total Charge           Charge          ....    0
 Multiplicity           Mult            ....    1
 Number of Electrons    NEL             ....   32
 Basis Dimension        Dim             ....  160

ORBITAL ENERGIES
----------------

  NO   OCC          E(Eh)            E(eV)
   0   2.0000     -21.672474      -589.7380
   1   2.0000     -12.141237      -330.3799
   2   2.0000     -12.064155      -328.2823
   3   2.0000     -12.055294      -328.0412
   4   2.0000      -1.714857       -46.6636
   5   2.0000      -1.307729       -35.5851
   6   2.0000      -1.174036       -31.9472
   7   2.0000      -1.093233       -29.7484
   8   2.0000      -1.004904       -27.3448
   9   2.0000      -0.961912       -26.1750
  10   2.0000      -0.916132       -24.9292
  11   2.0000      -0.873566       -23.7709
  12   2.0000      -0.849848       -23.1255
  13   2.0000      -0.833562       -22.6824
  14   2.0000      -0.791216       -21.5301
  15   2.0000      -0.774497       -21.0751
  16   0.0000      -0.314113        -8.5474
  17   0.0000      -0.046740        -1.2719
  18   0.0000      -0.027505        -0.7485
  19   0.0000      -0.013893        -0.3781
  20   0.0000       0.010894         0.2964

MULLIKEN ATOMIC CHARGES
-----------------------
   0 C :   -0.375137
   1 C :   -0.100142
   2 C :    0.080136
   3 O :   -0.290743
   4 H :    0.124042
   5 H :    0.118144
   6 H :    0.117863
   7 H :    0.121198
   8 H :    0.121245
   9 H :    0.083392
Sum of atomic charges:   -0.0000000

LOEWDIN ATOMIC CHARGES
----------------------
   0 C :   -0.305558
   1 C :   -0.285679
   2 C :   -0.276569
   3 O :    0.093378
   4 H :    0.121303
   5 H :    0.119928
   6 H :    0.119858
   7 H :    0.151938
   8 H :    0.151427
   9 H :    0.109973

  Mayer bond orders larger than 0.100000
B(  0-C ,  1-C ) :   0.9677 B(  0-C ,  4-H ) :   0.9775 B(  0-C ,  5-H ) :   0.9766
B(  0-C ,  6-H ) :   0.9764 B(  1-C ,  2-C ) :   0.9067 B(  1-C ,  7-H ) :   0.9483
B(  1-C ,  8-H ) :   0.9487 B(  2-C ,  3-O ) :   2.1315 B(  2-C ,  9-H ) :   0.9828

FINAL SINGLE POINT ENERGY      -193.150303952829

DIPOLE MOMENT
-------------

Method             : SCF
Type of density    : Electron Density
Multiplicity       :   1
Irrep              :   0
Energy             :  -193.1564245300286018 Eh
Relativity type    :
Basis              : AO
                                X                 Y                 Z
Electronic contribution:     -5.492349710      -0.331048197       0.024240476
Nuclear contribution   :      6.657644085       0.516290683      -0.042955422
                        -----------------------------------------
Total Dipole Moment    :      1.165294375       0.185242486      -0.018714946
                        -----------------------------------------
Magnitude (a.u.)       :      1.180074578
Magnitude (Debye)      :      2.999511201

Rotational constants in cm-1:             1.088846             0.138657             0.128880
Rotational constants in MHz :         32642.768705          4156.844183          3863.719851

                             ****ORCA TERMINATED NORMALLY****
TOTAL RUN TIME: 0 days 0 hours 0 minutes 37 seconds 243 msec
