                         Program Version 6.0.0  -   RELEASE  -
|  1> ! wb97x-v def2-tzvp def2/J RIJCOSX DEFGRID2 scfconv7 GCP(DFT/TZ) printgap
|  2> %output
|  3>     printlevel normal
|  4> end
|  5> %cpcm
|  6>     smd true
|  7>     smdsolvent "water"
|  8> end
|  9> * xyz 0 1
| 10> C 1.8694231083177015 0.2834213254884973 -0.004693935032416925
| 11> C 0.5769597482956593 -0.5221286538827709 0.010626301829655332
| 12> C -0.6550403296541842 0.33003433057537424 -0.016096942289206256
| 13> O -1.7906601226342231 -0.11598085469115832 0.01250036453798668
| 14> H 2.73766330142193 -0.3798236824934386 0.01418035006972126
| 15> H 1.9300574146534306 0.9440439708540729 0.8657792658211158
| 16> H 1.9359237033929346 0.9009948400166397 -0.9058373713053166
| 17> H 0.5145360894883966 -1.2021129001562694 -0.8499060979856904
| 18> H 0.5082465849027781 -1.1630459747923128 0.8997352620092797
| 19> H -0.4962076722775964 1.4287128867187222 -0.06628507594752273
| 20> *
| 21>
| 22>                          ****END OF INPUT****

CARTESIAN COORDINATES (ANGSTROEM)
---------------------------------
  C      1.869423    0.283421   -0.004694
  C      0.576960   -0.522129    0.010626
  C     -0.655040    0.330034   -0.016097
  O     -1.790660   -0.115981    0.012500
  H      2.737663   -0.379824    0.014180
  H      1.930057    0.944044    0.865779
  H      1.935924    0.900995   -0.905837
  H      0.514536   -1.202113   -0.849906
  H      0.508247   -1.163046    0.899735
  H     -0.496208    1.428713   -0.066285

 Total Charge           Charge          ....    0
 Multiplicity           Mult            ....    1
 Number of Electrons    NEL             ....   32
 Basis Dimension        Dim             ....  160

ORBITAL ENERGIES
----------------

  NO   OCC          E(Eh)            E(eV)
   0   2.0000     -21.678033      -589.8893
   1   2.0000     -12.142922      -330.4257
   2   2.0000     -12.048326      -327.8516
   3   2.0000     -12.033312      -327.4431
   4   2.0000      -1.724195       -46.9177
   5   2.0000      -1.292435       -35.1689
   6   2.0000      -1.164190       -31.6792
   7   2.0000      -1.092058       -29.7164
   8   2.0000      -1.005312       -27.3559
   9   2.0000      -0.958896       -26.0929
  10   2.0000      -0.922471       -25.1017
  11   2.0000      -0.861125       -23.4324
  12   2.0000      -0.831306       -22.6210
  13   2.0000      -0.819909       -22.3109
  14   2.0000      -0.772014       -21.0076
  15   2.0000      -0.766770       -20.8649
  16   0.0000      -0.306738        -8.3468
  17   0.0000      -0.036665        -0.9977
  18   0.0000      -0.009619        -0.2618
  19   0.0000       0.007969         0.2168
  20   0.0000       0.030731         0.8362

MULLIKEN ATOMIC CHARGES
-----------------------
   0 C :   -0.413362
   1 C :   -0.133701
   2 C :    0.156733
   3 O :   -0.424356
   4 H :    0.137742
   5 H :    0.132596
   6 H :    0.132712
   7 H :    0.142763
   8 H :    0.141743
   9 H :    0.127130
Sum of atomic charges:   -0.0000000

LOEWDIN ATOMIC CHARGES
----------------------
   0 C :   -0.304660
   1 C :   -0.279124
   2 C :   -0.244241
   3 O :    0.012774
   4 H :    0.123994
   5 H :    0.123573
   6 H :    0.123627
   7 H :    0.159113
   8 H :    0.158126
   9 H :    0.126819

  Mayer bond orders larger than 0.100000
B(  0-C ,  1-C ) :   0.9741 B(  0-C ,  4-H ) :   0.9735 B(  0-C ,  5-H ) :   0.9745
B(  0-C ,  6-H ) :   0.9744 B(  1-C ,  2-C ) :   0.9361 B(  1-C ,  7-H ) :   0.9387
B(  1-C ,  8-H ) :   0.9398 B(  2-C ,  3-O ) :   1.9958 B(  2-C ,  9-H ) :   0.9730

FINAL SINGLE POINT ENERGY      -193.156546973154

DIPOLE MOMENT
-------------

Method             : SCF
Type of density    : Electron Density
Multiplicity       :   1
Irrep              :   0
Energy             :  -193.1626675503537740 Eh
Relativity type    :
Basis              : AO
                                X                 Y                 Z
Electronic contribution:     -5.098024970      -0.199213849       0.013362160
Nuclear contribution   :      6.657644085       0.516290683      -0.042955422
                        -----------------------------------------
Total Dipole Moment    :      1.559619115       0.317076834      -0.029593262
                        -----------------------------------------
Magnitude (a.u.)       :      1.591799379
Magnitude (Debye)      :      4.046032479

Rotational constants in cm-1:             1.088846             0.138657             0.128880
Rotational constants in MHz :         32642.768705          4156.844183          3863.719851

                             ****ORCA TERMINATED NORMALLY****
TOTAL RUN TIME: 0 days 0 hours 0 minutes 34 seconds 828 msec
