                         Program Version 6.0.0  -   RELEASE  -
|  1> ! pbe def2-sv(p) def2/J RI DEFGRID1 loosescf d4 GCP(DFT/SV(P)) printgap
|  2> %output
|  3>     printlevel normal
|  4> end
|  5> * xyz 0 1
|  6> C 5.2385869425 0.4152858633 1.6846407843
|  7> C 4.2802380544 -0.7557242469 1.6102292802
|  8> O 3.8916716273 -1.0179330868 0.2377379914
|  9> P 2.5584428103 -0.4982555278 -0.4138003549
| 10> S 2.4037639849 -1.1646489809 -2.2453299242
| 11> O 2.6886761676 1.0778080651 -0.1853195421
| 12> C 1.6452446925 2.0393543547 -0.3957030869
| 13> C 1.4411137347 2.3533367741 -1.8642783809
| 14> S 1.0209083691 -1.0879815555 0.9491346962
| 15> C -0.1943455411 -1.6885772412 -0.2472342175
| 16> S -0.9489321971 -0.3808949175 -1.2657437209
| 17> P -2.3714009965 0.3472776675 0.113439342
| 18> S -3.5727734656 1.7332843708 -0.5756079662
| 19> O -1.3817671313 0.7223628964 1.2938965767
| 20> C -1.8093315538 1.0104009443 2.6444430168
| 21> C -2.2228671321 2.4602984885 2.7964872001
| 22> O -3.1202915549 -0.9255604488 0.7283431834
| 23> C -4.3648802393 -1.3949977684 0.1866607763
| 24> C -4.1727799301 -2.0757918012 -1.1536267383
| 25> H 4.7535482174 1.3244141956 1.3399775238
| 26> H 5.5605239385 0.5463179715 2.7130670068
| 27> H 6.1056855125 0.2247011501 1.0582964947
| 28> H 3.3810916636 -0.5755629221 2.2058425439
| 29> H 4.7578588338 -1.6808829408 1.9374694419
| 30> H 0.718462565 1.670326766 0.0566735119
| 31> H 1.9847739134 2.9216321509 0.1508948551
| 32> H 2.3710639135 2.6998210154 -2.3071015433
| 33> H 1.1091547794 1.4669889007 -2.4021185293
| 34> H 0.6831242735 3.1244492549 -1.9634146505
| 35> H -0.9648773019 -2.1982848728 0.3252248066
| 36> H 0.2967761542 -2.35586999 -0.9541039896
| 37> H -2.6262316692 0.3355941126 2.9084553517
| 38> H -0.9305898724 0.7771206644 3.2488882079
| 39> H -3.082241677 2.6776078842 2.1652946794
| 40> H -2.4863150459 2.6501154628 3.8321980886
| 41> H -1.407079427 3.1171917623 2.5073843592
| 42> H -4.7423371536 -2.0858574034 0.9418586233
| 43> H -5.0430127739 -0.5413835192 0.0869139019
| 44> H -5.1260298939 -2.4612382034 -1.5007064941
| 45> H -3.7979301097 -1.3574739337 -1.8826540869
| 46> H -3.4639040513 -2.8959270472 -1.0716975245
| 47> *
| 48>
| 49>                          ****END OF INPUT****

CARTESIAN COORDINATES (ANGSTROEM)
---------------------------------
  C      5.238587    0.415286    1.684641
  C      4.280238   -0.755724    1.610229
  O      3.891672   -1.017933    0.237738
  P      2.558443   -0.498256   -0.413800
  S      2.403764   -1.164649   -2.245330
  O      2.688676    1.077808   -0.185320
  C      1.645245    2.039354   -0.395703
  C      1.441114    2.353337   -1.864278
  S      1.020908   -1.087982    0.949135
  C     -0.194346   -1.688577   -0.247234
  S     -0.948932   -0.380895   -1.265744
  P     -2.371401    0.347278    0.113439
  S     -3.572773    1.733284   -0.575608
  O     -1.381767    0.722363    1.293897
  C     -1.809332    1.010401    2.644443
  C     -2.222867    2.460298    2.796487
  O     -3.120292   -0.925560    0.728343
  C     -4.364880   -1.394998    0.186661
  C     -4.172780   -2.075792   -1.153627
  H      4.753548    1.324414    1.339978
  H      5.560524    0.546318    2.713067
  H      6.105686    0.224701    1.058296
  H      3.381092   -0.575563    2.205843
  H      4.757859   -1.680883    1.937469
  H      0.718463    1.670327    0.056674
  H      1.984774    2.921632    0.150895
  H      2.371064    2.699821   -2.307102
  H      1.109155    1.466989   -2.402119
  H      0.683124    3.124449   -1.963415
  H     -0.964877   -2.198285    0.325225
  H      0.296776   -2.355870   -0.954104
  H     -2.626232    0.335594    2.908455
  H     -0.930590    0.777121    3.248888
  H     -3.082242    2.677608    2.165295
  H     -2.486315    2.650115    3.832198
  H     -1.407079    3.117192    2.507384
  H     -4.742337   -2.085857    0.941859
  H     -5.043013   -0.541384    0.086914
  H     -5.126030   -2.461238   -1.500706
  H     -3.797930   -1.357474   -1.882654
  H     -3.463904   -2.895927   -1.071698

 Total Charge           Charge          ....    0
 Multiplicity           Mult            ....    1
 Number of Electrons    NEL             ....  202
 Basis Dimension        Dim             ....  334

ORBITAL ENERGIES
----------------

  NO   OCC          E(Eh)            E(eV)
   0   2.0000     -88.047000     -2395.8807
   1   2.0000     -88.042798     -2395.7663
   2   2.0000     -87.990741     -2394.3498
   3   2.0000     -87.986332     -2394.2298
   4   2.0000     -76.430531     -2079.7805
   5   2.0000     -76.427136     -2079.6881
   6   2.0000     -18.800545      -511.5888
   7   2.0000     -18.796809      -511.4872
   8   2.0000     -18.792738      -511.3764
   9   2.0000     -18.790780      -511.3231
  10   2.0000      -9.961338      -271.0618
  11   2.0000      -9.959923      -271.0233
  12   2.0000      -9.959224      -271.0043
  13   2.0000      -9.956604      -270.9330
  14   2.0000      -9.946314      -270.6530
  15   2.0000      -9.888846      -269.0892
  16   2.0000      -9.888161      -269.0705
  17   2.0000      -9.886499      -269.0253
  18   2.0000      -9.871262      -268.6107
  19   2.0000      -7.691513      -209.2967
  20   2.0000      -7.687733      -209.1938
  21   2.0000      -7.635829      -207.7815
  22   2.0000      -7.631550      -207.6650
  23   2.0000      -6.428040      -174.9159
  24   2.0000      -6.424430      -174.8176
  25   2.0000      -5.719779      -155.6431
  26   2.0000      -5.715756      -155.5336
  27   2.0000      -5.715650      -155.5307
  28   2.0000      -5.712246      -155.4381
  29   2.0000      -5.708443      -155.3346
  30   2.0000      -5.704688      -155.2325
  31   2.0000      -5.664762      -154.1460
  32   2.0000      -5.660647      -154.0340
  33   2.0000      -5.656455      -153.9200
  34   2.0000      -5.655988      -153.9073
  35   2.0000      -5.652145      -153.8027
  36   2.0000      -5.651521      -153.7857
  37   2.0000      -4.650798      -126.5547
  38   2.0000      -4.649915      -126.5306
  39   2.0000      -4.648242      -126.4851
  40   2.0000      -4.647149      -126.4554
  41   2.0000      -4.646353      -126.4337
  42   2.0000      -4.644673      -126.3880
  43   2.0000      -0.993598       -27.0372
  44   2.0000      -0.987595       -26.8738
  45   2.0000      -0.950823       -25.8732
  46   2.0000      -0.943558       -25.6755
  47   2.0000      -0.765206       -20.8223
  48   2.0000      -0.725035       -19.7292
  49   2.0000      -0.712776       -19.3956
  50   2.0000      -0.692018       -18.8308
  51   2.0000      -0.686472       -18.6799
  52   2.0000      -0.676353       -18.4045
  53   2.0000      -0.654427       -17.8079
  54   2.0000      -0.641274       -17.4499
  55   2.0000      -0.597003       -16.2453
  56   2.0000      -0.586927       -15.9711
  57   2.0000      -0.582542       -15.8518
  58   2.0000      -0.575330       -15.6555
  59   2.0000      -0.567154       -15.4331
  60   2.0000      -0.507954       -13.8221
  61   2.0000      -0.501309       -13.6413
  62   2.0000      -0.476213       -12.9584
  63   2.0000      -0.475290       -12.9333
  64   2.0000      -0.465223       -12.6594
  65   2.0000      -0.448024       -12.1914
  66   2.0000      -0.444075       -12.0839
  67   2.0000      -0.435733       -11.8569
  68   2.0000      -0.427669       -11.6375
  69   2.0000      -0.422953       -11.5091
  70   2.0000      -0.411004       -11.1840
  71   2.0000      -0.401654       -10.9296
  72   2.0000      -0.395499       -10.7621
  73   2.0000      -0.389665       -10.6033
  74   2.0000      -0.385743       -10.4966
  75   2.0000      -0.371708       -10.1147
  76   2.0000      -0.366787        -9.9808
  77   2.0000      -0.359544        -9.7837
  78   2.0000      -0.357255        -9.7214
  79   2.0000      -0.353000        -9.6056
  80   2.0000      -0.348974        -9.4961
  81   2.0000      -0.346483        -9.4283
  82   2.0000      -0.339385        -9.2351
  83   2.0000      -0.335843        -9.1387
  84   2.0000      -0.330433        -8.9915
  85   2.0000      -0.326666        -8.8890
  86   2.0000      -0.317430        -8.6377
  87   2.0000      -0.302582        -8.2337
  88   2.0000      -0.297930        -8.1071
  89   2.0000      -0.289871        -7.8878
  90   2.0000      -0.288315        -7.8454
  91   2.0000      -0.282287        -7.6814
  92   2.0000      -0.277868        -7.5612
  93   2.0000      -0.268613        -7.3093
  94   2.0000      -0.259189        -7.0529
  95   2.0000      -0.236768        -6.4428
  96   2.0000      -0.217155        -5.9091
  97   2.0000      -0.209926        -5.7124
  98   2.0000      -0.207206        -5.6384
  99   2.0000      -0.204705        -5.5703
 100   2.0000      -0.199221        -5.4211
 101   0.0000      -0.045971        -1.2509
 102   0.0000      -0.026308        -0.7159
 103   0.0000      -0.011987        -0.3262
 104   0.0000      -0.003348        -0.0911
 105   0.0000       0.004920         0.1339

MULLIKEN ATOMIC CHARGES
-----------------------
   0 C :   -0.288447
   1 C :   -0.016959
   2 O :   -0.355323
   3 P :    0.605268
   4 S :   -0.304394
   5 O :   -0.378746
   6 C :   -0.034898
   7 C :   -0.303533
   8 S :   -0.116504
   9 C :   -0.339836
  10 S :   -0.057095
  11 P :    0.609487
  12 S :   -0.317003
  13 O :   -0.366576
  14 C :   -0.006578
  15 C :   -0.299795
  16 O :   -0.388644
  17 C :   -0.008405
  18 C :   -0.314235
  19 H :    0.125048
  20 H :    0.108884
  21 H :    0.122617
  22 H :    0.105474
  23 H :    0.113786
  24 H :    0.126661
  25 H :    0.097766
  26 H :    0.110326
  27 H :    0.140215
  28 H :    0.110008
  29 H :    0.180988
  30 H :    0.196136
  31 H :    0.104496
  32 H :    0.105586
  33 H :    0.130174
  34 H :    0.108837
  35 H :    0.115726
  36 H :    0.103946
  37 H :    0.114298
  38 H :    0.115527
  39 H :    0.131179
  40 H :    0.114538
Sum of atomic charges:    0.0000000

LOEWDIN ATOMIC CHARGES
----------------------
   0 C :   -0.358591
   1 C :   -0.111281
   2 O :   -0.236015
   3 P :    0.566335
   4 S :   -0.297339
   5 O :   -0.245753
   6 C :   -0.125832
   7 C :   -0.366850
   8 S :    0.065297
   9 C :   -0.478838
  10 S :    0.116509
  11 P :    0.559124
  12 S :   -0.316865
  13 O :   -0.240448
  14 C :   -0.112198
  15 C :   -0.363626
  16 O :   -0.249962
  17 C :   -0.123955
  18 C :   -0.366315
  19 H :    0.127961
  20 H :    0.128941
  21 H :    0.130658
  22 H :    0.103664
  23 H :    0.123059
  24 H :    0.101842
  25 H :    0.114873
  26 H :    0.124112
  27 H :    0.119746
  28 H :    0.130558
  29 H :    0.130912
  30 H :    0.133876
  31 H :    0.111153
  32 H :    0.117340
  33 H :    0.124575
  34 H :    0.129071
  35 H :    0.126925
  36 H :    0.117281
  37 H :    0.110207
  38 H :    0.132529
  39 H :    0.123997
  40 H :    0.123322

  Mayer bond orders larger than 0.100000
B(  0-C ,  1-C ) :   1.1654 B(  0-C , 19-H ) :   0.9414 B(  0-C , 20-H ) :   0.9394
B(  0-C , 21-H ) :   0.9465 B(  1-C ,  2-O ) :   0.8941 B(  1-C , 22-H ) :   0.9160
B(  1-C , 23-H ) :   0.9358 B(  2-O ,  3-P ) :   1.1436 B(  3-P ,  4-S ) :   1.6523
B(  3-P ,  5-O ) :   1.0790 B(  3-P ,  8-S ) :   0.9453 B(  4-S ,  8-S ) :   0.1131
B(  5-O ,  6-C ) :   0.9093 B(  6-C ,  7-C ) :   1.1661 B(  6-C , 24-H ) :   0.9008
B(  6-C , 25-H ) :   0.9339 B(  7-C , 26-H ) :   0.9458 B(  7-C , 27-H ) :   0.9309
B(  7-C , 28-H ) :   0.9380 B(  8-S ,  9-C ) :   1.0124 B(  9-C , 10-S ) :   0.9792
B(  9-C , 29-H ) :   0.8901 B(  9-C , 30-H ) :   0.8806 B( 10-S , 11-P ) :   0.9799
B( 11-P , 12-S ) :   1.6591 B( 11-P , 13-O ) :   1.0966 B( 11-P , 16-O ) :   1.0494
B( 13-O , 14-C ) :   0.8980 B( 14-C , 15-C ) :   1.1685 B( 14-C , 31-H ) :   0.9219
B( 14-C , 32-H ) :   0.9333 B( 15-C , 33-H ) :   0.9333 B( 15-C , 34-H ) :   0.9389
B( 15-C , 35-H ) :   0.9486 B( 16-O , 17-C ) :   0.9063 B( 17-C , 18-C ) :   1.1629
B( 17-C , 36-H ) :   0.9329 B( 17-C , 37-H ) :   0.9105 B( 18-C , 38-H ) :   0.9389
B( 18-C , 39-H ) :   0.9347 B( 18-C , 40-H ) :   0.9472

Dispersion correction           -0.064864156
FINAL SINGLE POINT ENERGY     -2929.521027182077

DIPOLE MOMENT
-------------

Method             : SCF
Type of density    : Electron Density
Multiplicity       :   1
Irrep              :   0
Energy             : -2929.6419292526143181 Eh
Relativity type    :
Basis              : AO
                                X                 Y                 Z
Electronic contribution:      1.679360272      -7.336303539     -10.889231145
Nuclear contribution   :     -1.932600866       7.086109790      12.958275857
                        -----------------------------------------
Total Dipole Moment    :     -0.253240594      -0.250193749       2.069044712
                        -----------------------------------------
Magnitude (a.u.)       :      2.099446054
Magnitude (Debye)      :      5.336367780

Rotational constants in cm-1:             0.012607             0.004766             0.004434
Rotational constants in MHz :           377.962966           142.880872           132.917376

                             ****ORCA TERMINATED NORMALLY****
TOTAL RUN TIME: 0 days 0 hours 0 minutes 20 seconds 983 msec
