                         Program Version 6.0.0  -   RELEASE  -
|  1> ! pbe def2-sv(p) def2/J RI DEFGRID1 loosescf d4 GCP(DFT/SV(P)) printgap
|  2> %output
|  3>     printlevel normal
|  4> end
|  5> * xyz 0 1
|  6> C 1.0203684519 -3.2606309763 0.8925782975
|  7> C 2.2553083692 -2.5215955952 0.4196427195
|  8> O 2.0691230771 -1.1105037457 0.6660525119
|  9> P 2.6402190082 0.0383108003 -0.2866839604
| 10> S 2.9971587611 -0.4938489161 -2.1325324438
| 11> O 3.957472709 0.5748235874 0.4138169234
| 12> C 4.029645817 0.9191101827 1.8208341091
| 13> C 3.8888168503 2.4148187553 2.0196157577
| 14> S 1.1926193677 1.5431956163 0.0123680387
| 15> C 0.041777039 0.971324456 -1.2663292831
| 16> S -0.8490335872 -0.5326783232 -0.8200766406
| 17> P -2.726863513 0.3125604019 -0.22190361
| 18> S -2.8787715012 2.2604576757 -0.3437748622
| 19> O -3.0593105303 -0.2921124683 1.2112462173
| 20> C -2.6630805808 0.336988303 2.4398450821
| 21> C -1.1668584914 0.2581746532 2.6659282403
| 22> O -3.7889431309 -0.4031594121 -1.1402231999
| 23> C -3.7527319965 -1.7761726187 -1.5981665503
| 24> C -3.6140801446 -2.7682111083 -0.4644166623
| 25> H 0.1523035696 -2.9290644612 0.329538412
| 26> H 1.1644179952 -4.3245312512 0.7357788904
| 27> H 0.8551576908 -3.0722483543 1.9494124235
| 28> H 2.4253833598 -2.6709095424 -0.6516627477
| 29> H 3.1448441319 -2.8380564693 0.9701252049
| 30> H 3.2546217006 0.371267185 2.3616511278
| 31> H 5.0167371476 0.5718637434 2.1312100527
| 32> H 4.62880571 2.9405248596 1.4224885626
| 33> H 2.8973750496 2.7503747054 1.7224703407
| 34> H 4.0431174864 2.6483608511 3.0683546848
| 35> H 0.6099283245 0.7580880161 -2.1718441402
| 36> H -0.6756260802 1.7802105863 -1.4197096296
| 37> H -2.9955642599 1.3798379992 2.4218894082
| 38> H -3.2144980925 -0.214501706 3.2029540632
| 39> H -0.936391636 0.6059820851 3.6677329409
| 40> H -0.8198781369 -0.7657028387 2.5505750775
| 41> H -0.6455424695 0.8924691627 1.9504823331
| 42> H -4.703432967 -1.8884054303 -2.121409946
| 43> H -2.9260904491 -1.876785333 -2.3064519567
| 44> H -4.4071137901 -2.6224172651 0.2639652112
| 45> H -3.6712187354 -3.775592465 -0.8648915218
| 46> H -2.6531656506 -2.6368788653 0.029553005
| 47> *
| 48>
| 49>                          ****END OF INPUT****

CARTESIAN COORDINATES (ANGSTROEM)
---------------------------------
  C      1.020368   -3.260631    0.892578
  C      2.255308   -2.521596    0.419643
  O      2.069123   -1.110504    0.666053
  P      2.640219    0.038311   -0.286684
  S      2.997159   -0.493849   -2.132532
  O      3.957473    0.574824    0.413817
  C      4.029646    0.919110    1.820834
  C      3.888817    2.414819    2.019616
  S      1.192619    1.543196    0.012368
  C      0.041777    0.971324   -1.266329
  S     -0.849034   -0.532678   -0.820077
  P     -2.726864    0.312560   -0.221904
  S     -2.878772    2.260458   -0.343775
  O     -3.059311   -0.292112    1.211246
  C     -2.663081    0.336988    2.439845
  C     -1.166858    0.258175    2.665928
  O     -3.788943   -0.403159   -1.140223
  C     -3.752732   -1.776173   -1.598167
  C     -3.614080   -2.768211   -0.464417
  H      0.152304   -2.929064    0.329538
  H      1.164418   -4.324531    0.735779
  H      0.855158   -3.072248    1.949412
  H      2.425383   -2.670910   -0.651663
  H      3.144844   -2.838056    0.970125
  H      3.254622    0.371267    2.361651
  H      5.016737    0.571864    2.131210
  H      4.628806    2.940525    1.422489
  H      2.897375    2.750375    1.722470
  H      4.043117    2.648361    3.068355
  H      0.609928    0.758088   -2.171844
  H     -0.675626    1.780211   -1.419710
  H     -2.995564    1.379838    2.421889
  H     -3.214498   -0.214502    3.202954
  H     -0.936392    0.605982    3.667733
  H     -0.819878   -0.765703    2.550575
  H     -0.645542    0.892469    1.950482
  H     -4.703433   -1.888405   -2.121410
  H     -2.926090   -1.876785   -2.306452
  H     -4.407114   -2.622417    0.263965
  H     -3.671219   -3.775592   -0.864892
  H     -2.653166   -2.636879    0.029553

 Total Charge           Charge          ....    0
 Multiplicity           Mult            ....    1
 Number of Electrons    NEL             ....  202
 Basis Dimension        Dim             ....  334

ORBITAL ENERGIES
----------------

  NO   OCC          E(Eh)            E(eV)
   0   2.0000     -88.045951     -2395.8521
   1   2.0000     -88.045896     -2395.8506
   2   2.0000     -87.989317     -2394.3111
   3   2.0000     -87.987860     -2394.2714
   4   2.0000     -76.429290     -2079.7467
   5   2.0000     -76.427534     -2079.6989
   6   2.0000     -18.795663      -511.4560
   7   2.0000     -18.793527      -511.3979
   8   2.0000     -18.793158      -511.3878
   9   2.0000     -18.793063      -511.3853
  10   2.0000      -9.962049      -271.0811
  11   2.0000      -9.960329      -271.0343
  12   2.0000      -9.953705      -270.8541
  13   2.0000      -9.952755      -270.8282
  14   2.0000      -9.952631      -270.8249
  15   2.0000      -9.893705      -269.2214
  16   2.0000      -9.892432      -269.1868
  17   2.0000      -9.888783      -269.0875
  18   2.0000      -9.881648      -268.8933
  19   2.0000      -7.690650      -209.2732
  20   2.0000      -7.690336      -209.2647
  21   2.0000      -7.634448      -207.7439
  22   2.0000      -7.633149      -207.7085
  23   2.0000      -6.426673      -174.8787
  24   2.0000      -6.425593      -174.8493
  25   2.0000      -5.718385      -155.6052
  26   2.0000      -5.718136      -155.5984
  27   2.0000      -5.715266      -155.5203
  28   2.0000      -5.714781      -155.5071
  29   2.0000      -5.707664      -155.3134
  30   2.0000      -5.707548      -155.3103
  31   2.0000      -5.663401      -154.1090
  32   2.0000      -5.662141      -154.0747
  33   2.0000      -5.655086      -153.8827
  34   2.0000      -5.654526      -153.8675
  35   2.0000      -5.653709      -153.8452
  36   2.0000      -5.653226      -153.8321
  37   2.0000      -4.649315      -126.5143
  38   2.0000      -4.648536      -126.4931
  39   2.0000      -4.648342      -126.4878
  40   2.0000      -4.647200      -126.4567
  41   2.0000      -4.646940      -126.4497
  42   2.0000      -4.646059      -126.4257
  43   2.0000      -0.988756       -26.9054
  44   2.0000      -0.987166       -26.8622
  45   2.0000      -0.947239       -25.7757
  46   2.0000      -0.945907       -25.7394
  47   2.0000      -0.765500       -20.8303
  48   2.0000      -0.725779       -19.7495
  49   2.0000      -0.715337       -19.4653
  50   2.0000      -0.696617       -18.9559
  51   2.0000      -0.692210       -18.8360
  52   2.0000      -0.679206       -18.4821
  53   2.0000      -0.652426       -17.7534
  54   2.0000      -0.640222       -17.4213
  55   2.0000      -0.603239       -16.4150
  56   2.0000      -0.592028       -16.1099
  57   2.0000      -0.579914       -15.7803
  58   2.0000      -0.577697       -15.7199
  59   2.0000      -0.558039       -15.1850
  60   2.0000      -0.511314       -13.9136
  61   2.0000      -0.496268       -13.5041
  62   2.0000      -0.483394       -13.1538
  63   2.0000      -0.474444       -12.9103
  64   2.0000      -0.461751       -12.5649
  65   2.0000      -0.449804       -12.2398
  66   2.0000      -0.447023       -12.1641
  67   2.0000      -0.438942       -11.9442
  68   2.0000      -0.435917       -11.8619
  69   2.0000      -0.425381       -11.5752
  70   2.0000      -0.407669       -11.0932
  71   2.0000      -0.402204       -10.9445
  72   2.0000      -0.393530       -10.7085
  73   2.0000      -0.388749       -10.5784
  74   2.0000      -0.377688       -10.2774
  75   2.0000      -0.375319       -10.2130
  76   2.0000      -0.367949       -10.0124
  77   2.0000      -0.364202        -9.9104
  78   2.0000      -0.358822        -9.7640
  79   2.0000      -0.357689        -9.7332
  80   2.0000      -0.357052        -9.7159
  81   2.0000      -0.351006        -9.5514
  82   2.0000      -0.346110        -9.4181
  83   2.0000      -0.340378        -9.2622
  84   2.0000      -0.338776        -9.2186
  85   2.0000      -0.323549        -8.8042
  86   2.0000      -0.314033        -8.5453
  87   2.0000      -0.305985        -8.3263
  88   2.0000      -0.297043        -8.0830
  89   2.0000      -0.294223        -8.0062
  90   2.0000      -0.285264        -7.7624
  91   2.0000      -0.278466        -7.5775
  92   2.0000      -0.274785        -7.4773
  93   2.0000      -0.270460        -7.3596
  94   2.0000      -0.258894        -7.0449
  95   2.0000      -0.230692        -6.2775
  96   2.0000      -0.221058        -6.0153
  97   2.0000      -0.213946        -5.8218
  98   2.0000      -0.205592        -5.5944
  99   2.0000      -0.205347        -5.5878
 100   2.0000      -0.203115        -5.5270
 101   0.0000      -0.045757        -1.2451
 102   0.0000      -0.031660        -0.8615
 103   0.0000      -0.015819        -0.4305
 104   0.0000       0.002486         0.0676
 105   0.0000       0.007708         0.2097

MULLIKEN ATOMIC CHARGES
-----------------------
   0 C :   -0.307499
   1 C :   -0.013839
   2 O :   -0.386617
   3 P :    0.618508
   4 S :   -0.310739
   5 O :   -0.364776
   6 C :   -0.028914
   7 C :   -0.300342
   8 S :   -0.098211
   9 C :   -0.342547
  10 S :   -0.118761
  11 P :    0.599667
  12 S :   -0.307553
  13 O :   -0.372822
  14 C :    0.000344
  15 C :   -0.335822
  16 O :   -0.357726
  17 C :   -0.004711
  18 C :   -0.325777
  19 H :    0.143960
  20 H :    0.109193
  21 H :    0.118334
  22 H :    0.112566
  23 H :    0.099073
  24 H :    0.110075
  25 H :    0.112357
  26 H :    0.126299
  27 H :    0.135132
  28 H :    0.112867
  29 H :    0.195836
  30 H :    0.194897
  31 H :    0.112513
  32 H :    0.102180
  33 H :    0.106727
  34 H :    0.120345
  35 H :    0.139793
  36 H :    0.114327
  37 H :    0.115102
  38 H :    0.126182
  39 H :    0.116634
  40 H :    0.133749
Sum of atomic charges:    0.0000000

LOEWDIN ATOMIC CHARGES
----------------------
   0 C :   -0.357563
   1 C :   -0.118035
   2 O :   -0.257568
   3 P :    0.566460
   4 S :   -0.303601
   5 O :   -0.244086
   6 C :   -0.117185
   7 C :   -0.360594
   8 S :    0.100539
   9 C :   -0.486448
  10 S :    0.081358
  11 P :    0.571140
  12 S :   -0.300968
  13 O :   -0.242503
  14 C :   -0.117488
  15 C :   -0.374279
  16 O :   -0.236064
  17 C :   -0.114217
  18 C :   -0.367195
  19 H :    0.120246
  20 H :    0.129631
  21 H :    0.124088
  22 H :    0.107757
  23 H :    0.111141
  24 H :    0.110768
  25 H :    0.122179
  26 H :    0.132091
  27 H :    0.119939
  28 H :    0.131670
  29 H :    0.130110
  30 H :    0.128297
  31 H :    0.111694
  32 H :    0.117228
  33 H :    0.128760
  34 H :    0.123751
  35 H :    0.111971
  36 H :    0.124576
  37 H :    0.110732
  38 H :    0.131154
  39 H :    0.132775
  40 H :    0.117743

  Mayer bond orders larger than 0.100000
B(  0-C ,  1-C ) :   1.1638 B(  0-C , 19-H ) :   0.9384 B(  0-C , 20-H ) :   0.9389
B(  0-C , 21-H ) :   0.9455 B(  1-C ,  2-O ) :   0.9002 B(  1-C , 22-H ) :   0.9033
B(  1-C , 23-H ) :   0.9341 B(  2-O ,  3-P ) :   1.0762 B(  3-P ,  4-S ) :   1.6452
B(  3-P ,  5-O ) :   1.1309 B(  3-P ,  8-S ) :   0.9667 B(  4-S ,  8-S ) :   0.1008
B(  5-O ,  6-C ) :   0.9016 B(  6-C ,  7-C ) :   1.1667 B(  6-C , 24-H ) :   0.9163
B(  6-C , 25-H ) :   0.9340 B(  7-C , 26-H ) :   0.9458 B(  7-C , 27-H ) :   0.9348
B(  7-C , 28-H ) :   0.9382 B(  8-S ,  9-C ) :   1.0098 B(  9-C , 10-S ) :   1.0145
B(  9-C , 29-H ) :   0.8698 B(  9-C , 30-H ) :   0.8534 B( 10-S , 11-P ) :   0.9369
B( 10-S , 12-S ) :   0.1111 B( 11-P , 12-S ) :   1.6264 B( 11-P , 13-O ) :   1.0909
B( 11-P , 16-O ) :   1.1484 B( 12-S , 30-H ) :   0.1095 B( 13-O , 14-C ) :   0.9103
B( 14-C , 15-C ) :   1.1610 B( 14-C , 31-H ) :   0.9158 B( 14-C , 32-H ) :   0.9338
B( 15-C , 33-H ) :   0.9371 B( 15-C , 34-H ) :   0.9413 B( 15-C , 35-H ) :   0.9226
B( 16-O , 17-C ) :   0.9035 B( 17-C , 18-C ) :   1.1684 B( 17-C , 36-H ) :   0.9333
B( 17-C , 37-H ) :   0.9198 B( 18-C , 38-H ) :   0.9415 B( 18-C , 39-H ) :   0.9350
B( 18-C , 40-H ) :   0.9324

Dispersion correction           -0.064140349
FINAL SINGLE POINT ENERGY     -2929.516458354080

DIPOLE MOMENT
-------------

Method             : SCF
Type of density    : Electron Density
Multiplicity       :   1
Irrep              :   0
Energy             : -2929.6376605126165487 Eh
Relativity type    :
Basis              : AO
                                X                 Y                 Z
Electronic contribution:     -0.471297809      13.005850311     -16.956595791
Nuclear contribution   :      0.562400464     -14.406004317      18.619034309
                        -----------------------------------------
Total Dipole Moment    :      0.091102655      -1.400154006       1.662438518
                        -----------------------------------------
Magnitude (a.u.)       :      2.175415537
Magnitude (Debye)      :      5.529466861

Rotational constants in cm-1:             0.011641             0.004919             0.004519
Rotational constants in MHz :           348.981619           147.475154           135.487406

                             ****ORCA TERMINATED NORMALLY****
TOTAL RUN TIME: 0 days 0 hours 0 minutes 21 seconds 378 msec
