                         Program Version 6.0.0  -   RELEASE  -
|  1> ! pbe def2-sv(p) def2/J RI DEFGRID1 loosescf d4 GCP(DFT/SV(P)) printgap
|  2> %output
|  3>     printlevel normal
|  4> end
|  5> * xyz 0 1
|  6> C 5.1894200041 -0.8419123013 -2.3642301724
|  7> C 3.7401306691 -1.1173913985 -2.0171763115
|  8> O 3.5042974407 -0.6427187509 -0.6766137171
|  9> P 2.0557972616 -0.2571694364 -0.1538089363
| 10> S 1.0339637511 0.8384271156 -1.4242094826
| 11> O 2.3555682142 0.3672328433 1.2658812674
| 12> C 2.6125432605 1.7714979899 1.4659547952
| 13> C 3.8705641177 2.2220882656 0.7561931894
| 14> S 1.3126248761 -2.1436348211 0.4220540965
| 15> C -0.3212530837 -1.7006655811 1.0726058631
| 16> S -1.5327214619 -1.3205965853 -0.2321972808
| 17> P -2.2387358407 0.5290666057 0.5552569243
| 18> S -0.944623754 1.6136806991 1.5433195658
| 19> O -3.4347111051 0.1569346959 1.5104851604
| 20> C -4.5745134422 -0.6424627644 1.09682526
| 21> C -4.5186415006 -2.0077441456 1.7525093562
| 22> O -3.0065296893 1.2240234291 -0.6447109449
| 23> C -2.3916593344 1.832812459 -1.7968684962
| 24> C -2.3674582838 0.8725118784 -2.9688717895
| 25> H 5.840404417 -1.3288343412 -1.6440647453
| 26> H 5.3963907786 -1.2286922845 -3.3565704982
| 27> H 5.3838542141 0.2268763874 -2.3486280061
| 28> H 3.5210976174 -2.1879475922 -2.0392459279
| 29> H 3.0578513938 -0.5965626667 -2.6979116111
| 30> H 1.7393516727 2.335650554 1.1226014616
| 31> H 2.69568805 1.864868297 2.5495227397
| 32> H 4.0776728765 3.2555827867 1.0154483477
| 33> H 4.709882751 1.5964394977 1.0486882124
| 34> H 3.7321921817 2.1483249729 -0.3220070543
| 35> H -0.2281157613 -0.8292651679 1.7254649202
| 36> H -0.6597787019 -2.5758190255 1.6207156705
| 37> H -5.4455715236 -0.0760608754 1.4292225345
| 38> H -4.5811819206 -0.7217843795 0.0082129786
| 39> H -4.4113002519 -1.8986432907 2.8281406599
| 40> H -5.4392578418 -2.5406234824 1.5369614187
| 41> H -3.6794454037 -2.5819004613 1.3680153619
| 42> H -3.0163784009 2.7025715394 -2.0084185118
| 43> H -1.3815143034 2.1637959444 -1.5399498595
| 44> H -1.9916854677 1.3961562115 -3.8416969443
| 45> H -1.7089586891 0.0328833974 -2.7587681172
| 46> H -3.3679335282 0.5009099492 -3.1707745311
| 47> *
| 48>
| 49>                          ****END OF INPUT****

CARTESIAN COORDINATES (ANGSTROEM)
---------------------------------
  C      5.189420   -0.841912   -2.364230
  C      3.740131   -1.117391   -2.017176
  O      3.504297   -0.642719   -0.676614
  P      2.055797   -0.257169   -0.153809
  S      1.033964    0.838427   -1.424209
  O      2.355568    0.367233    1.265881
  C      2.612543    1.771498    1.465955
  C      3.870564    2.222088    0.756193
  S      1.312625   -2.143635    0.422054
  C     -0.321253   -1.700666    1.072606
  S     -1.532721   -1.320597   -0.232197
  P     -2.238736    0.529067    0.555257
  S     -0.944624    1.613681    1.543320
  O     -3.434711    0.156935    1.510485
  C     -4.574513   -0.642463    1.096825
  C     -4.518642   -2.007744    1.752509
  O     -3.006530    1.224023   -0.644711
  C     -2.391659    1.832812   -1.796868
  C     -2.367458    0.872512   -2.968872
  H      5.840404   -1.328834   -1.644065
  H      5.396391   -1.228692   -3.356570
  H      5.383854    0.226876   -2.348628
  H      3.521098   -2.187948   -2.039246
  H      3.057851   -0.596563   -2.697912
  H      1.739352    2.335651    1.122601
  H      2.695688    1.864868    2.549523
  H      4.077673    3.255583    1.015448
  H      4.709883    1.596439    1.048688
  H      3.732192    2.148325   -0.322007
  H     -0.228116   -0.829265    1.725465
  H     -0.659779   -2.575819    1.620716
  H     -5.445572   -0.076061    1.429223
  H     -4.581182   -0.721784    0.008213
  H     -4.411300   -1.898643    2.828141
  H     -5.439258   -2.540623    1.536961
  H     -3.679445   -2.581900    1.368015
  H     -3.016378    2.702572   -2.008419
  H     -1.381514    2.163796   -1.539950
  H     -1.991685    1.396156   -3.841697
  H     -1.708959    0.032883   -2.758768
  H     -3.367934    0.500910   -3.170775

 Total Charge           Charge          ....    0
 Multiplicity           Mult            ....    1
 Number of Electrons    NEL             ....  202
 Basis Dimension        Dim             ....  334

ORBITAL ENERGIES
----------------

  NO   OCC          E(Eh)            E(eV)
   0   2.0000     -88.040486     -2395.7034
   1   2.0000     -88.039818     -2395.6852
   2   2.0000     -87.981793     -2394.1063
   3   2.0000     -87.979220     -2394.0363
   4   2.0000     -76.423175     -2079.5803
   5   2.0000     -76.422660     -2079.5663
   6   2.0000     -18.792303      -511.3646
   7   2.0000     -18.790492      -511.3153
   8   2.0000     -18.785989      -511.1927
   9   2.0000     -18.785168      -511.1704
  10   2.0000      -9.954584      -270.8780
  11   2.0000      -9.954570      -270.8776
  12   2.0000      -9.951341      -270.7898
  13   2.0000      -9.948663      -270.7169
  14   2.0000      -9.943083      -270.5650
  15   2.0000      -9.887697      -269.0579
  16   2.0000      -9.886304      -269.0200
  17   2.0000      -9.879713      -268.8407
  18   2.0000      -9.878385      -268.8045
  19   2.0000      -7.686198      -209.1521
  20   2.0000      -7.684504      -209.1060
  21   2.0000      -7.626562      -207.5293
  22   2.0000      -7.624433      -207.4714
  23   2.0000      -6.420734      -174.7170
  24   2.0000      -6.420207      -174.7027
  25   2.0000      -5.714060      -155.4875
  26   2.0000      -5.712297      -155.4395
  27   2.0000      -5.710720      -155.3966
  28   2.0000      -5.709133      -155.3534
  29   2.0000      -5.703067      -155.1883
  30   2.0000      -5.701487      -155.1453
  31   2.0000      -5.655291      -153.8883
  32   2.0000      -5.653474      -153.8389
  33   2.0000      -5.647212      -153.6684
  34   2.0000      -5.646874      -153.6593
  35   2.0000      -5.645193      -153.6135
  36   2.0000      -5.644237      -153.5875
  37   2.0000      -4.643213      -126.3482
  38   2.0000      -4.643009      -126.3427
  39   2.0000      -4.642571      -126.3308
  40   2.0000      -4.642011      -126.3156
  41   2.0000      -4.641222      -126.2941
  42   2.0000      -4.640422      -126.2723
  43   2.0000      -0.985181       -26.8081
  44   2.0000      -0.983800       -26.7705
  45   2.0000      -0.942991       -25.6601
  46   2.0000      -0.940761       -25.5994
  47   2.0000      -0.759790       -20.6749
  48   2.0000      -0.720364       -19.6021
  49   2.0000      -0.709510       -19.3067
  50   2.0000      -0.687269       -18.7015
  51   2.0000      -0.685772       -18.6608
  52   2.0000      -0.671893       -18.2831
  53   2.0000      -0.648257       -17.6400
  54   2.0000      -0.631662       -17.1884
  55   2.0000      -0.596038       -16.2190
  56   2.0000      -0.586778       -15.9670
  57   2.0000      -0.572776       -15.5860
  58   2.0000      -0.564095       -15.3498
  59   2.0000      -0.560189       -15.2435
  60   2.0000      -0.504188       -13.7196
  61   2.0000      -0.498215       -13.5571
  62   2.0000      -0.475631       -12.9426
  63   2.0000      -0.472336       -12.8529
  64   2.0000      -0.451738       -12.2924
  65   2.0000      -0.445519       -12.1232
  66   2.0000      -0.438123       -11.9219
  67   2.0000      -0.435348       -11.8464
  68   2.0000      -0.427107       -11.6222
  69   2.0000      -0.414577       -11.2812
  70   2.0000      -0.405673       -11.0389
  71   2.0000      -0.397734       -10.8229
  72   2.0000      -0.391869       -10.6633
  73   2.0000      -0.380683       -10.3589
  74   2.0000      -0.376039       -10.2325
  75   2.0000      -0.371575       -10.1111
  76   2.0000      -0.363705        -9.8969
  77   2.0000      -0.356093        -9.6898
  78   2.0000      -0.355807        -9.6820
  79   2.0000      -0.348402        -9.4805
  80   2.0000      -0.346883        -9.4392
  81   2.0000      -0.342962        -9.3325
  82   2.0000      -0.339863        -9.2481
  83   2.0000      -0.332949        -9.0600
  84   2.0000      -0.330547        -8.9946
  85   2.0000      -0.313716        -8.5366
  86   2.0000      -0.310709        -8.4548
  87   2.0000      -0.297915        -8.1067
  88   2.0000      -0.296361        -8.0644
  89   2.0000      -0.289424        -7.8756
  90   2.0000      -0.280828        -7.6417
  91   2.0000      -0.271692        -7.3931
  92   2.0000      -0.267539        -7.2801
  93   2.0000      -0.262002        -7.1294
  94   2.0000      -0.257993        -7.0204
  95   2.0000      -0.240608        -6.5473
  96   2.0000      -0.223376        -6.0784
  97   2.0000      -0.204401        -5.5620
  98   2.0000      -0.199862        -5.4385
  99   2.0000      -0.192117        -5.2278
 100   2.0000      -0.181944        -4.9510
 101   0.0000      -0.038238        -1.0405
 102   0.0000      -0.030360        -0.8261
 103   0.0000      -0.010782        -0.2934
 104   0.0000       0.004915         0.1337
 105   0.0000       0.021127         0.5749

MULLIKEN ATOMIC CHARGES
-----------------------
   0 C :   -0.284402
   1 C :   -0.010259
   2 O :   -0.378045
   3 P :    0.629797
   4 S :   -0.336385
   5 O :   -0.363668
   6 C :   -0.010197
   7 C :   -0.310604
   8 S :   -0.094309
   9 C :   -0.347140
  10 S :   -0.105268
  11 P :    0.606635
  12 S :   -0.307949
  13 O :   -0.358958
  14 C :   -0.007537
  15 C :   -0.290011
  16 O :   -0.379129
  17 C :   -0.012388
  18 C :   -0.310344
  19 H :    0.117503
  20 H :    0.111585
  21 H :    0.120708
  22 H :    0.102384
  23 H :    0.104816
  24 H :    0.130785
  25 H :    0.104988
  26 H :    0.111185
  27 H :    0.115046
  28 H :    0.121879
  29 H :    0.195711
  30 H :    0.181318
  31 H :    0.111196
  32 H :    0.102667
  33 H :    0.119711
  34 H :    0.108595
  35 H :    0.116324
  36 H :    0.104688
  37 H :    0.128396
  38 H :    0.111377
  39 H :    0.140652
  40 H :    0.108649
Sum of atomic charges:    0.0000000

LOEWDIN ATOMIC CHARGES
----------------------
   0 C :   -0.350882
   1 C :   -0.121014
   2 O :   -0.246594
   3 P :    0.570905
   4 S :   -0.317480
   5 O :   -0.234358
   6 C :   -0.117898
   7 C :   -0.367364
   8 S :    0.080142
   9 C :   -0.478521
  10 S :    0.069007
  11 P :    0.569091
  12 S :   -0.298399
  13 O :   -0.242116
  14 C :   -0.113048
  15 C :   -0.360399
  16 O :   -0.241774
  17 C :   -0.114516
  18 C :   -0.365597
  19 H :    0.127201
  20 H :    0.130672
  21 H :    0.128122
  22 H :    0.111069
  23 H :    0.106475
  24 H :    0.110992
  25 H :    0.119942
  26 H :    0.130308
  27 H :    0.124955
  28 H :    0.120125
  29 H :    0.124757
  30 H :    0.134925
  31 H :    0.121907
  32 H :    0.107180
  33 H :    0.128803
  34 H :    0.129263
  35 H :    0.118672
  36 H :    0.118749
  37 H :    0.110499
  38 H :    0.131862
  39 H :    0.122487
  40 H :    0.121855

  Mayer bond orders larger than 0.100000
B(  0-C ,  1-C ) :   1.1605 B(  0-C , 19-H ) :   0.9503 B(  0-C , 20-H ) :   0.9417
B(  0-C , 21-H ) :   0.9514 B(  1-C ,  2-O ) :   0.9051 B(  1-C , 22-H ) :   0.9311
B(  1-C , 23-H ) :   0.9041 B(  2-O ,  3-P ) :   1.1002 B(  3-P ,  4-S ) :   1.6157
B(  3-P ,  5-O ) :   1.1412 B(  3-P ,  8-S ) :   0.9690 B(  4-S ,  8-S ) :   0.1159
B(  5-O ,  6-C ) :   0.8967 B(  6-C ,  7-C ) :   1.1632 B(  6-C , 24-H ) :   0.9101
B(  6-C , 25-H ) :   0.9359 B(  7-C , 26-H ) :   0.9382 B(  7-C , 27-H ) :   0.9447
B(  7-C , 28-H ) :   0.9333 B(  8-S ,  9-C ) :   1.0053 B(  9-C , 10-S ) :   0.9883
B(  9-C , 29-H ) :   0.8531 B(  9-C , 30-H ) :   0.9106 B( 10-S , 11-P ) :   0.9405
B( 10-S , 12-S ) :   0.1134 B( 11-P , 12-S ) :   1.6341 B( 11-P , 13-O ) :   1.1303
B( 11-P , 16-O ) :   1.1134 B( 12-S , 29-H ) :   0.1040 B( 13-O , 14-C ) :   0.8921
B( 14-C , 15-C ) :   1.1638 B( 14-C , 31-H ) :   0.9347 B( 14-C , 32-H ) :   0.9176
B( 15-C , 33-H ) :   0.9464 B( 15-C , 34-H ) :   0.9401 B( 15-C , 35-H ) :   0.9380
B( 16-O , 17-C ) :   0.8946 B( 17-C , 18-C ) :   1.1722 B( 17-C , 36-H ) :   0.9339
B( 17-C , 37-H ) :   0.9048 B( 18-C , 38-H ) :   0.9399 B( 18-C , 39-H ) :   0.9307
B( 18-C , 40-H ) :   0.9471

Dispersion correction           -0.065563006
FINAL SINGLE POINT ENERGY     -2929.517768366558

DIPOLE MOMENT
-------------

Method             : SCF
Type of density    : Electron Density
Multiplicity       :   1
Irrep              :   0
Energy             : -2929.6362419281549592 Eh
Relativity type    :
Basis              : AO
                                X                 Y                 Z
Electronic contribution:     -4.279431563      -1.921369950       8.624549979
Nuclear contribution   :      4.139542067       1.358148308      -9.235307041
                        -----------------------------------------
Total Dipole Moment    :     -0.139889495      -0.563221642      -0.610757062
                        -----------------------------------------
Magnitude (a.u.)       :      0.842503340
Magnitude (Debye)      :      2.141473304

Rotational constants in cm-1:             0.012831             0.004820             0.004730
Rotational constants in MHz :           384.664808           144.498059           141.787853

                             ****ORCA TERMINATED NORMALLY****
TOTAL RUN TIME: 0 days 0 hours 0 minutes 20 seconds 785 msec
