                         Program Version 6.0.0  -   RELEASE  -
|  1> ! pbe def2-sv(p) def2/J RI DEFGRID1 loosescf d4 GCP(DFT/SV(P)) printgap
|  2> %output
|  3>     printlevel normal
|  4> end
|  5> * xyz 0 1
|  6> C 3.716581507 -1.1607471672 -2.6856469144
|  7> C 3.973538817 0.198514621 -2.0689806851
|  8> O 3.562435514 0.2592030443 -0.6907022938
|  9> P 2.0420777815 0.1347570539 -0.2455451472
| 10> S 0.7888307346 1.0887123201 -1.4060977367
| 11> O 2.0381154203 0.7219358792 1.2151216161
| 12> C 2.8809511263 0.2628240793 2.3003731684
| 13> C 4.1504895819 1.0843803091 2.3841731775
| 14> S 1.8306086982 -1.9713998687 0.0017349337
| 15> C 0.153250937 -2.0570265271 0.6775558381
| 16> S -1.1414370677 -1.6628737507 -0.5450930236
| 17> P -1.9934262781 0.0205937627 0.4008950896
| 18> S -1.0949304479 0.8125297884 1.9429730998
| 19> O -3.3925856896 -0.6764933265 0.7646171259
| 20> C -4.2731130543 -0.14717775 1.7716300979
| 21> C -4.9644323762 1.1191014595 1.3073960602
| 22> O -2.3038082892 1.0845824084 -0.7281381353
| 23> C -2.8247243317 0.699709821 -2.0238460503
| 24> C -3.6120355917 1.868910853 -2.5767292533
| 25> H 4.1496831927 -1.9448939801 -2.0696580116
| 26> H 2.6445435218 -1.3330162193 -2.771665433
| 27> H 4.1575455077 -1.1933931195 -3.6767301435
| 28> H 3.4400376644 0.9788037152 -2.6203896309
| 29> H 5.0386715039 0.4310007603 -2.031977228
| 30> H 2.2594943962 0.3924220652 3.1892670046
| 31> H 3.1061762692 -0.7970298168 2.1512248812
| 32> H 3.9051654544 2.1390270327 2.4760736137
| 33> H 4.7165563475 0.7704816105 3.2555888401
| 34> H 4.7527830121 0.9394887801 1.491407893
| 35> H 0.0557437327 -1.3668136414 1.5201807563
| 36> H 0.0160430694 -3.0889912279 0.9891838443
| 37> H -4.983542899 -0.9552426026 1.9516403105
| 38> H -3.6876727551 0.0431696525 2.6770083237
| 39> H -5.6486187232 1.459270968 2.0784244422
| 40> H -4.2235314289 1.8971009596 1.1227836851
| 41> H -5.5187507641 0.9325194145 0.3909563313
| 42> H -1.9655072276 0.4636551182 -2.6575779452
| 43> H -3.4478439469 -0.1917963522 -1.9049266866
| 44> H -4.4583207348 2.0959448053 -1.9341998715
| 45> H -2.9707237684 2.743865403 -2.635461001
| 46> H -3.9692037735 1.6167185784 -3.5698051587
| 47> *
| 48>
| 49>                          ****END OF INPUT****

CARTESIAN COORDINATES (ANGSTROEM)
---------------------------------
  C      3.716582   -1.160747   -2.685647
  C      3.973539    0.198515   -2.068981
  O      3.562436    0.259203   -0.690702
  P      2.042078    0.134757   -0.245545
  S      0.788831    1.088712   -1.406098
  O      2.038115    0.721936    1.215122
  C      2.880951    0.262824    2.300373
  C      4.150490    1.084380    2.384173
  S      1.830609   -1.971400    0.001735
  C      0.153251   -2.057027    0.677556
  S     -1.141437   -1.662874   -0.545093
  P     -1.993426    0.020594    0.400895
  S     -1.094930    0.812530    1.942973
  O     -3.392586   -0.676493    0.764617
  C     -4.273113   -0.147178    1.771630
  C     -4.964432    1.119101    1.307396
  O     -2.303808    1.084582   -0.728138
  C     -2.824724    0.699710   -2.023846
  C     -3.612036    1.868911   -2.576729
  H      4.149683   -1.944894   -2.069658
  H      2.644544   -1.333016   -2.771665
  H      4.157546   -1.193393   -3.676730
  H      3.440038    0.978804   -2.620390
  H      5.038672    0.431001   -2.031977
  H      2.259494    0.392422    3.189267
  H      3.106176   -0.797030    2.151225
  H      3.905165    2.139027    2.476074
  H      4.716556    0.770482    3.255589
  H      4.752783    0.939489    1.491408
  H      0.055744   -1.366814    1.520181
  H      0.016043   -3.088991    0.989184
  H     -4.983543   -0.955243    1.951640
  H     -3.687673    0.043170    2.677008
  H     -5.648619    1.459271    2.078424
  H     -4.223531    1.897101    1.122784
  H     -5.518751    0.932519    0.390956
  H     -1.965507    0.463655   -2.657578
  H     -3.447844   -0.191796   -1.904927
  H     -4.458321    2.095945   -1.934200
  H     -2.970724    2.743865   -2.635461
  H     -3.969204    1.616719   -3.569805

 Total Charge           Charge          ....    0
 Multiplicity           Mult            ....    1
 Number of Electrons    NEL             ....  202
 Basis Dimension        Dim             ....  334

ORBITAL ENERGIES
----------------

  NO   OCC          E(Eh)            E(eV)
   0   2.0000     -88.040498     -2395.7037
   1   2.0000     -88.034053     -2395.5284
   2   2.0000     -87.981134     -2394.0884
   3   2.0000     -87.976877     -2393.9725
   4   2.0000     -76.420515     -2079.5079
   5   2.0000     -76.417495     -2079.4258
   6   2.0000     -18.789560      -511.2899
   7   2.0000     -18.785765      -511.1867
   8   2.0000     -18.783679      -511.1299
   9   2.0000     -18.778722      -510.9950
  10   2.0000      -9.954225      -270.8682
  11   2.0000      -9.951572      -270.7960
  12   2.0000      -9.951060      -270.7821
  13   2.0000      -9.949465      -270.7387
  14   2.0000      -9.944419      -270.6014
  15   2.0000      -9.886659      -269.0297
  16   2.0000      -9.883125      -268.9335
  17   2.0000      -9.881772      -268.8967
  18   2.0000      -9.881325      -268.8845
  19   2.0000      -7.685401      -209.1304
  20   2.0000      -7.679528      -208.9706
  21   2.0000      -7.626364      -207.5239
  22   2.0000      -7.621841      -207.4008
  23   2.0000      -6.417915      -174.6403
  24   2.0000      -6.415503      -174.5747
  25   2.0000      -5.713065      -155.4604
  26   2.0000      -5.709850      -155.3729
  27   2.0000      -5.707465      -155.3080
  28   2.0000      -5.704378      -155.2240
  29   2.0000      -5.702664      -155.1774
  30   2.0000      -5.695997      -154.9960
  31   2.0000      -5.655351      -153.8899
  32   2.0000      -5.650852      -153.7675
  33   2.0000      -5.647388      -153.6732
  34   2.0000      -5.645938      -153.6338
  35   2.0000      -5.642338      -153.5358
  36   2.0000      -5.642026      -153.5273
  37   2.0000      -4.640925      -126.2860
  38   2.0000      -4.639745      -126.2539
  39   2.0000      -4.638250      -126.2132
  40   2.0000      -4.637940      -126.2048
  41   2.0000      -4.636924      -126.1771
  42   2.0000      -4.636115      -126.1551
  43   2.0000      -0.982977       -26.7482
  44   2.0000      -0.976859       -26.5817
  45   2.0000      -0.940973       -25.6052
  46   2.0000      -0.935365       -25.4526
  47   2.0000      -0.757937       -20.6245
  48   2.0000      -0.716707       -19.5026
  49   2.0000      -0.707189       -19.2436
  50   2.0000      -0.687565       -18.7096
  51   2.0000      -0.687137       -18.6980
  52   2.0000      -0.669524       -18.2187
  53   2.0000      -0.646807       -17.6005
  54   2.0000      -0.633514       -17.2388
  55   2.0000      -0.593430       -16.1481
  56   2.0000      -0.583677       -15.8827
  57   2.0000      -0.571848       -15.5608
  58   2.0000      -0.567818       -15.4511
  59   2.0000      -0.556480       -15.1426
  60   2.0000      -0.501231       -13.6392
  61   2.0000      -0.495013       -13.4700
  62   2.0000      -0.472174       -12.8485
  63   2.0000      -0.471091       -12.8190
  64   2.0000      -0.447302       -12.1717
  65   2.0000      -0.445642       -12.1265
  66   2.0000      -0.436820       -11.8865
  67   2.0000      -0.436321       -11.8729
  68   2.0000      -0.425320       -11.5735
  69   2.0000      -0.417131       -11.3507
  70   2.0000      -0.400050       -10.8859
  71   2.0000      -0.392019       -10.6674
  72   2.0000      -0.389697       -10.6042
  73   2.0000      -0.384806       -10.4711
  74   2.0000      -0.377130       -10.2622
  75   2.0000      -0.364852        -9.9281
  76   2.0000      -0.360764        -9.8169
  77   2.0000      -0.356390        -9.6979
  78   2.0000      -0.351898        -9.5756
  79   2.0000      -0.349358        -9.5065
  80   2.0000      -0.345188        -9.3930
  81   2.0000      -0.343174        -9.3382
  82   2.0000      -0.338933        -9.2228
  83   2.0000      -0.336037        -9.1440
  84   2.0000      -0.331228        -9.0132
  85   2.0000      -0.313557        -8.5323
  86   2.0000      -0.311761        -8.4834
  87   2.0000      -0.304046        -8.2735
  88   2.0000      -0.291460        -7.9310
  89   2.0000      -0.286859        -7.8058
  90   2.0000      -0.272264        -7.4087
  91   2.0000      -0.266735        -7.2582
  92   2.0000      -0.264891        -7.2081
  93   2.0000      -0.260577        -7.0907
  94   2.0000      -0.256906        -6.9908
  95   2.0000      -0.236908        -6.4466
  96   2.0000      -0.214444        -5.8353
  97   2.0000      -0.204205        -5.5567
  98   2.0000      -0.198343        -5.3972
  99   2.0000      -0.186217        -5.0672
 100   2.0000      -0.184139        -5.0107
 101   0.0000      -0.037939        -1.0324
 102   0.0000      -0.026752        -0.7279
 103   0.0000      -0.007324        -0.1993
 104   0.0000       0.005290         0.1440
 105   0.0000       0.027786         0.7561

MULLIKEN ATOMIC CHARGES
-----------------------
   0 C :   -0.326358
   1 C :    0.001874
   2 O :   -0.381682
   3 P :    0.603798
   4 S :   -0.302749
   5 O :   -0.341717
   6 C :   -0.014068
   7 C :   -0.289919
   8 S :   -0.112719
   9 C :   -0.342945
  10 S :   -0.083083
  11 P :    0.611310
  12 S :   -0.299713
  13 O :   -0.383691
  14 C :   -0.005598
  15 C :   -0.321346
  16 O :   -0.360509
  17 C :   -0.032638
  18 C :   -0.281852
  19 H :    0.118775
  20 H :    0.133167
  21 H :    0.114216
  22 H :    0.112631
  23 H :    0.103464
  24 H :    0.110335
  25 H :    0.097926
  26 H :    0.121616
  27 H :    0.107045
  28 H :    0.120841
  29 H :    0.189871
  30 H :    0.182689
  31 H :    0.101123
  32 H :    0.107186
  33 H :    0.110722
  34 H :    0.133857
  35 H :    0.114477
  36 H :    0.122682
  37 H :    0.105398
  38 H :    0.117176
  39 H :    0.127925
  40 H :    0.110485
Sum of atomic charges:   -0.0000000

LOEWDIN ATOMIC CHARGES
----------------------
   0 C :   -0.373596
   1 C :   -0.117941
   2 O :   -0.248280
   3 P :    0.565983
   4 S :   -0.302267
   5 O :   -0.224849
   6 C :   -0.116780
   7 C :   -0.359807
   8 S :    0.072049
   9 C :   -0.479695
  10 S :    0.079239
  11 P :    0.571799
  12 S :   -0.289389
  13 O :   -0.264120
  14 C :   -0.122411
  15 C :   -0.366642
  16 O :   -0.234758
  17 C :   -0.121785
  18 C :   -0.349463
  19 H :    0.122850
  20 H :    0.123432
  21 H :    0.131847
  22 H :    0.112598
  23 H :    0.117680
  24 H :    0.120313
  25 H :    0.100762
  26 H :    0.129501
  27 H :    0.128401
  28 H :    0.125359
  29 H :    0.120751
  30 H :    0.137614
  31 H :    0.116274
  32 H :    0.107003
  33 H :    0.129869
  34 H :    0.126816
  35 H :    0.121173
  36 H :    0.115458
  37 H :    0.105907
  38 H :    0.125253
  39 H :    0.133419
  40 H :    0.130433

  Mayer bond orders larger than 0.100000
B(  0-C ,  1-C ) :   1.1657 B(  0-C , 19-H ) :   0.9425 B(  0-C , 20-H ) :   0.9326
B(  0-C , 21-H ) :   0.9371 B(  1-C ,  2-O ) :   0.9059 B(  1-C , 22-H ) :   0.9163
B(  1-C , 23-H ) :   0.9336 B(  2-O ,  3-P ) :   1.0780 B(  3-P ,  4-S ) :   1.6541
B(  3-P ,  5-O ) :   1.1429 B(  3-P ,  8-S ) :   0.9469 B(  4-S ,  8-S ) :   0.1146
B(  5-O ,  6-C ) :   0.8986 B(  6-C ,  7-C ) :   1.1662 B(  6-C , 24-H ) :   0.9321
B(  6-C , 25-H ) :   0.9074 B(  7-C , 26-H ) :   0.9475 B(  7-C , 27-H ) :   0.9396
B(  7-C , 28-H ) :   0.9417 B(  8-S ,  9-C ) :   0.9881 B(  9-C , 10-S ) :   1.0118
B(  9-C , 29-H ) :   0.8533 B(  9-C , 30-H ) :   0.9122 B( 10-S , 11-P ) :   0.9556
B( 10-S , 12-S ) :   0.1101 B( 11-P , 12-S ) :   1.6237 B( 11-P , 13-O ) :   1.0674
B( 11-P , 16-O ) :   1.1188 B( 12-S , 29-H ) :   0.1120 B( 13-O , 14-C ) :   0.9241
B( 14-C , 15-C ) :   1.1592 B( 14-C , 31-H ) :   0.9350 B( 14-C , 32-H ) :   0.9111
B( 15-C , 33-H ) :   0.9386 B( 15-C , 34-H ) :   0.9366 B( 15-C , 35-H ) :   0.9437
B( 16-O , 17-C ) :   0.8980 B( 17-C , 18-C ) :   1.1681 B( 17-C , 36-H ) :   0.9188
B( 17-C , 37-H ) :   0.9159 B( 18-C , 38-H ) :   0.9486 B( 18-C , 39-H ) :   0.9479
B( 18-C , 40-H ) :   0.9404

Dispersion correction           -0.066633943
FINAL SINGLE POINT ENERGY     -2929.512419708217

DIPOLE MOMENT
-------------

Method             : SCF
Type of density    : Electron Density
Multiplicity       :   1
Irrep              :   0
Energy             : -2929.6306643500647624 Eh
Relativity type    :
Basis              : AO
                                X                 Y                 Z
Electronic contribution:      2.568693443      -6.236431443       2.418972107
Nuclear contribution   :     -2.524564165       5.591260547      -2.549529230
                        -----------------------------------------
Total Dipole Moment    :      0.044129278      -0.645170897      -0.130557124
                        -----------------------------------------
Magnitude (a.u.)       :      0.659725732
Magnitude (Debye)      :      1.676889546

Rotational constants in cm-1:             0.012841             0.005143             0.004658
Rotational constants in MHz :           384.966979           154.176908           139.654503

                             ****ORCA TERMINATED NORMALLY****
TOTAL RUN TIME: 0 days 0 hours 0 minutes 20 seconds 821 msec
