                         Program Version 6.0.0  -   RELEASE  -
|  1> ! pbe def2-sv(p) def2/J RI DEFGRID1 loosescf d4 GCP(DFT/SV(P)) printgap
|  2> %output
|  3>     printlevel normal
|  4> end
|  5> * xyz 0 1
|  6> C 4.2916981522 -1.0021400463 -2.3335809398
|  7> C 4.4776683605 -1.4456899642 -0.8969126793
|  8> O 3.2239281749 -1.5929910837 -0.2077515534
|  9> P 2.2995937689 -0.3519618469 0.1504037492
| 10> S 3.2505520027 1.2725450668 0.7084020132
| 11> O 1.311411048 -0.9815032573 1.2179129681
| 12> C 1.5798177181 -0.9013816175 2.6354299877
| 13> C 2.7839505008 -1.7307487284 3.0286451412
| 14> S 0.9910691369 -0.1785920741 -1.5021345111
| 15> C 0.3785203535 1.4774321764 -1.0901339329
| 16> S -0.6986034326 1.4887062273 0.3612278832
| 17> P -2.2789447451 0.3452494931 -0.5179990794
| 18> S -2.5734659065 0.6611396124 -2.422783942
| 19> O -3.5018418418 0.6778745759 0.4386169812
| 20> C -4.1414012501 1.9715664935 0.4018000564
| 21> C -5.4708018257 1.8525593098 1.1187142124
| 22> O -1.9850181059 -1.1656891529 -0.1937088649
| 23> C -1.8716588747 -1.680353596 1.1562378777
| 24> C -3.1665602856 -2.3395689934 1.5826219658
| 25> H 5.2498963548 -1.0191395708 -2.8429264826
| 26> H 3.5971155965 -1.6625031617 -2.8471114534
| 27> H 3.8944085606 0.011869383 -2.3626744882
| 28> H 5.0899022335 -0.721989961 -0.3491153817
| 29> H 4.9283405436 -2.4371303001 -0.8361228941
| 30> H 1.7294025521 0.1506421557 2.8983663029
| 31> H 0.664877068 -1.2728443442 3.0984236885
| 32> H 3.6858806671 -1.3062880702 2.5893318548
| 33> H 2.8844644098 -1.7288483783 4.109460055
| 34> H 2.6689754703 -2.7522822991 2.6758548127
| 35> H -0.1823050338 1.8251496764 -1.9575610197
| 36> H 1.2185522952 2.1343425544 -0.863867499
| 37> H -3.4822278573 2.6912850305 0.8945576088
| 38> H -4.2730534286 2.2637167567 -0.6450288338
| 39> H -5.9656567207 2.8180492703 1.1104857024
| 40> H -6.101305276 1.1234325264 0.6176508684
| 41> H -5.3134640994 1.5385885287 2.1464612159
| 42> H -1.0494429715 -2.3971594526 1.1070217273
| 43> H -1.6048030646 -0.8572786713 1.8253452179
| 44> H -3.9676817509 -1.6059299469 1.6133887654
| 45> H -3.4342126074 -3.121604872 0.8775272296
| 46> H -3.0374602403 -2.7736871942 2.5691567743
| 47> *
| 48>
| 49>                          ****END OF INPUT****

CARTESIAN COORDINATES (ANGSTROEM)
---------------------------------
  C      4.291698   -1.002140   -2.333581
  C      4.477668   -1.445690   -0.896913
  O      3.223928   -1.592991   -0.207752
  P      2.299594   -0.351962    0.150404
  S      3.250552    1.272545    0.708402
  O      1.311411   -0.981503    1.217913
  C      1.579818   -0.901382    2.635430
  C      2.783951   -1.730749    3.028645
  S      0.991069   -0.178592   -1.502135
  C      0.378520    1.477432   -1.090134
  S     -0.698603    1.488706    0.361228
  P     -2.278945    0.345249   -0.517999
  S     -2.573466    0.661140   -2.422784
  O     -3.501842    0.677875    0.438617
  C     -4.141401    1.971566    0.401800
  C     -5.470802    1.852559    1.118714
  O     -1.985018   -1.165689   -0.193709
  C     -1.871659   -1.680354    1.156238
  C     -3.166560   -2.339569    1.582622
  H      5.249896   -1.019140   -2.842926
  H      3.597116   -1.662503   -2.847111
  H      3.894409    0.011869   -2.362674
  H      5.089902   -0.721990   -0.349115
  H      4.928341   -2.437130   -0.836123
  H      1.729403    0.150642    2.898366
  H      0.664877   -1.272844    3.098424
  H      3.685881   -1.306288    2.589332
  H      2.884464   -1.728848    4.109460
  H      2.668975   -2.752282    2.675855
  H     -0.182305    1.825150   -1.957561
  H      1.218552    2.134343   -0.863867
  H     -3.482228    2.691285    0.894558
  H     -4.273053    2.263717   -0.645029
  H     -5.965657    2.818049    1.110486
  H     -6.101305    1.123433    0.617651
  H     -5.313464    1.538589    2.146461
  H     -1.049443   -2.397159    1.107022
  H     -1.604803   -0.857279    1.825345
  H     -3.967682   -1.605930    1.613389
  H     -3.434213   -3.121605    0.877527
  H     -3.037460   -2.773687    2.569157

 Total Charge           Charge          ....    0
 Multiplicity           Mult            ....    1
 Number of Electrons    NEL             ....  202
 Basis Dimension        Dim             ....  334

ORBITAL ENERGIES
----------------

  NO   OCC          E(Eh)            E(eV)
   0   2.0000     -88.040871     -2395.7139
   1   2.0000     -88.038749     -2395.6562
   2   2.0000     -87.991925     -2394.3820
   3   2.0000     -87.983767     -2394.1600
   4   2.0000     -76.428182     -2079.7166
   5   2.0000     -76.424575     -2079.6184
   6   2.0000     -18.797237      -511.4988
   7   2.0000     -18.796671      -511.4834
   8   2.0000     -18.793124      -511.3869
   9   2.0000     -18.790592      -511.3180
  10   2.0000      -9.955407      -270.9004
  11   2.0000      -9.954961      -270.8883
  12   2.0000      -9.954831      -270.8847
  13   2.0000      -9.953736      -270.8549
  14   2.0000      -9.950185      -270.7583
  15   2.0000      -9.891398      -269.1586
  16   2.0000      -9.887374      -269.0491
  17   2.0000      -9.885898      -269.0089
  18   2.0000      -9.884665      -268.9754
  19   2.0000      -7.685925      -209.1447
  20   2.0000      -7.683703      -209.0842
  21   2.0000      -7.636828      -207.8087
  22   2.0000      -7.629133      -207.5993
  23   2.0000      -6.425913      -174.8580
  24   2.0000      -6.422230      -174.7578
  25   2.0000      -5.713753      -155.4791
  26   2.0000      -5.711377      -155.4145
  27   2.0000      -5.710624      -155.3940
  28   2.0000      -5.708303      -155.3308
  29   2.0000      -5.702743      -155.1795
  30   2.0000      -5.700841      -155.1278
  31   2.0000      -5.665522      -154.1667
  32   2.0000      -5.658134      -153.9657
  33   2.0000      -5.657517      -153.9489
  34   2.0000      -5.657171      -153.9395
  35   2.0000      -5.649605      -153.7336
  36   2.0000      -5.649307      -153.7255
  37   2.0000      -4.648340      -126.4878
  38   2.0000      -4.647628      -126.4684
  39   2.0000      -4.646504      -126.4378
  40   2.0000      -4.645149      -126.4009
  41   2.0000      -4.643979      -126.3691
  42   2.0000      -4.642359      -126.3250
  43   2.0000      -0.990280       -26.9469
  44   2.0000      -0.989751       -26.9325
  45   2.0000      -0.949228       -25.8298
  46   2.0000      -0.946350       -25.7515
  47   2.0000      -0.763163       -20.7667
  48   2.0000      -0.722186       -19.6517
  49   2.0000      -0.710804       -19.3419
  50   2.0000      -0.693702       -18.8766
  51   2.0000      -0.689555       -18.7637
  52   2.0000      -0.674773       -18.3615
  53   2.0000      -0.650390       -17.6980
  54   2.0000      -0.638051       -17.3623
  55   2.0000      -0.603462       -16.4210
  56   2.0000      -0.588615       -16.0170
  57   2.0000      -0.575146       -15.6505
  58   2.0000      -0.570351       -15.5200
  59   2.0000      -0.562573       -15.3084
  60   2.0000      -0.509953       -13.8765
  61   2.0000      -0.494957       -13.4685
  62   2.0000      -0.482333       -13.1249
  63   2.0000      -0.475670       -12.9437
  64   2.0000      -0.458438       -12.4747
  65   2.0000      -0.445530       -12.1235
  66   2.0000      -0.442851       -12.0506
  67   2.0000      -0.439809       -11.9678
  68   2.0000      -0.431226       -11.7343
  69   2.0000      -0.415546       -11.3076
  70   2.0000      -0.406621       -11.0647
  71   2.0000      -0.398007       -10.8303
  72   2.0000      -0.390134       -10.6161
  73   2.0000      -0.388639       -10.5754
  74   2.0000      -0.382002       -10.3948
  75   2.0000      -0.375739       -10.2244
  76   2.0000      -0.367678       -10.0050
  77   2.0000      -0.360113        -9.7992
  78   2.0000      -0.356845        -9.7103
  79   2.0000      -0.353381        -9.6160
  80   2.0000      -0.351607        -9.5677
  81   2.0000      -0.347096        -9.4450
  82   2.0000      -0.345168        -9.3925
  83   2.0000      -0.342542        -9.3210
  84   2.0000      -0.336259        -9.1501
  85   2.0000      -0.322463        -8.7747
  86   2.0000      -0.312248        -8.4967
  87   2.0000      -0.302561        -8.2331
  88   2.0000      -0.298323        -8.1178
  89   2.0000      -0.293623        -7.9899
  90   2.0000      -0.287037        -7.8107
  91   2.0000      -0.279463        -7.6046
  92   2.0000      -0.270962        -7.3733
  93   2.0000      -0.266472        -7.2511
  94   2.0000      -0.258061        -7.0222
  95   2.0000      -0.233475        -6.3532
  96   2.0000      -0.217987        -5.9317
  97   2.0000      -0.214647        -5.8408
  98   2.0000      -0.206497        -5.6191
  99   2.0000      -0.201362        -5.4793
 100   2.0000      -0.198583        -5.4037
 101   0.0000      -0.043157        -1.1744
 102   0.0000      -0.022874        -0.6224
 103   0.0000       0.000467         0.0127
 104   0.0000       0.002907         0.0791
 105   0.0000       0.011831         0.3219

MULLIKEN ATOMIC CHARGES
-----------------------
   0 C :   -0.315119
   1 C :   -0.006103
   2 O :   -0.371234
   3 P :    0.610372
   4 S :   -0.339015
   5 O :   -0.360432
   6 C :   -0.008079
   7 C :   -0.304501
   8 S :   -0.054873
   9 C :   -0.373422
  10 S :   -0.100675
  11 P :    0.601040
  12 S :   -0.314345
  13 O :   -0.386334
  14 C :   -0.011161
  15 C :   -0.282915
  16 O :   -0.346390
  17 C :   -0.023706
  18 C :   -0.284066
  19 H :    0.113953
  20 H :    0.121684
  21 H :    0.127479
  22 H :    0.111160
  23 H :    0.106509
  24 H :    0.114723
  25 H :    0.100889
  26 H :    0.123834
  27 H :    0.112235
  28 H :    0.116757
  29 H :    0.195462
  30 H :    0.191149
  31 H :    0.105059
  32 H :    0.107695
  33 H :    0.114315
  34 H :    0.122889
  35 H :    0.115389
  36 H :    0.118257
  37 H :    0.105415
  38 H :    0.120025
  39 H :    0.120279
  40 H :    0.105799
Sum of atomic charges:    0.0000000

LOEWDIN ATOMIC CHARGES
----------------------
   0 C :   -0.369038
   1 C :   -0.119004
   2 O :   -0.242828
   3 P :    0.574879
   4 S :   -0.324261
   5 O :   -0.238550
   6 C :   -0.117549
   7 C :   -0.364808
   8 S :    0.105503
   9 C :   -0.487104
  10 S :    0.060707
  11 P :    0.568165
  12 S :   -0.309978
  13 O :   -0.250754
  14 C :   -0.120029
  15 C :   -0.350617
  16 O :   -0.227576
  17 C :   -0.113976
  18 C :   -0.358851
  19 H :    0.131633
  20 H :    0.126202
  21 H :    0.121697
  22 H :    0.110414
  23 H :    0.119320
  24 H :    0.111955
  25 H :    0.113275
  26 H :    0.122875
  27 H :    0.130609
  28 H :    0.126445
  29 H :    0.129565
  30 H :    0.127781
  31 H :    0.109222
  32 H :    0.110895
  33 H :    0.132100
  34 H :    0.129573
  35 H :    0.125491
  36 H :    0.121140
  37 H :    0.103290
  38 H :    0.125301
  39 H :    0.129227
  40 H :    0.127660

  Mayer bond orders larger than 0.100000
B(  0-C ,  1-C ) :   1.1667 B(  0-C , 19-H ) :   0.9376 B(  0-C , 20-H ) :   0.9444
B(  0-C , 21-H ) :   0.9353 B(  1-C ,  2-O ) :   0.9061 B(  1-C , 22-H ) :   0.9163
B(  1-C , 23-H ) :   0.9337 B(  2-O ,  3-P ) :   1.1119 B(  3-P ,  4-S ) :   1.5833
B(  3-P ,  5-O ) :   1.1186 B(  3-P ,  8-S ) :   0.9676 B(  4-S ,  8-S ) :   0.1097
B(  5-O ,  6-C ) :   0.9053 B(  6-C ,  7-C ) :   1.1648 B(  6-C , 24-H ) :   0.9169
B(  6-C , 25-H ) :   0.9293 B(  7-C , 26-H ) :   0.9355 B(  7-C , 27-H ) :   0.9386
B(  7-C , 28-H ) :   0.9458 B(  8-S ,  9-C ) :   1.0059 B(  9-C , 10-S ) :   1.0054
B(  9-C , 29-H ) :   0.8755 B(  9-C , 30-H ) :   0.8757 B( 10-S , 11-P ) :   0.9461
B( 10-S , 12-S ) :   0.1107 B( 11-P , 12-S ) :   1.6506 B( 11-P , 13-O ) :   1.0753
B( 11-P , 16-O ) :   1.1491 B( 13-O , 14-C ) :   0.9033 B( 14-C , 15-C ) :   1.1594
B( 14-C , 31-H ) :   0.9273 B( 14-C , 32-H ) :   0.9110 B( 15-C , 33-H ) :   0.9418
B( 15-C , 34-H ) :   0.9506 B( 15-C , 35-H ) :   0.9508 B( 16-O , 17-C ) :   0.8901
B( 17-C , 18-C ) :   1.1563 B( 17-C , 36-H ) :   0.9304 B( 17-C , 37-H ) :   0.9111
B( 18-C , 38-H ) :   0.9414 B( 18-C , 39-H ) :   0.9464 B( 18-C , 40-H ) :   0.9408

Dispersion correction           -0.064893951
FINAL SINGLE POINT ENERGY     -2929.525488648887

DIPOLE MOMENT
-------------

Method             : SCF
Type of density    : Electron Density
Multiplicity       :   1
Irrep              :   0
Energy             : -2929.6457922833183147 Eh
Relativity type    :
Basis              : AO
                                X                 Y                 Z
Electronic contribution:      2.700292716       8.125551525     -13.527150178
Nuclear contribution   :     -2.687298869      -8.670252679      14.904388654
                        -----------------------------------------
Total Dipole Moment    :      0.012993848      -0.544701154       1.377238476
                        -----------------------------------------
Magnitude (a.u.)       :      1.481098918
Magnitude (Debye)      :      3.764654269

Rotational constants in cm-1:             0.013130             0.004738             0.004307
Rotational constants in MHz :           393.625368           142.031398           129.120550

                             ****ORCA TERMINATED NORMALLY****
TOTAL RUN TIME: 0 days 0 hours 0 minutes 21 seconds 263 msec
