                         Program Version 6.0.1  -  RELEASE   -
|  1> ! pbe def2-sv(p) def2/J RI DEFGRID1 loosescf d4 GCP(DFT/SV(P)) printgap
|  2> %output
|  3>     printlevel normal
|  4> end
|  5> * xyz 0 1
|  6> C 5.2997174977 -0.7388395763 -1.8284702708
|  7> C 4.5226199912 -1.3841749746 -0.6978622217
|  8> O 3.1201450647 -1.310340856 -1.0167055109
|  9> C 2.2807005472 -1.9370804904 -0.211283102
| 10> O 2.6233798928 -2.6229485959 0.7251137424
| 11> C 0.8370966166 -1.7588878274 -0.6461413167
| 12> C 0.5487561226 -0.298261996 -0.9730865567
| 13> H 1.1633455797 0.0136566012 -1.8249144751
| 14> C 0.9180521047 0.6070417704 0.1875470972
| 15> O 1.843621476 0.3611625438 0.9262770528
| 16> O 0.1716880443 1.6925785311 0.2405612007
| 17> C 0.4754168991 2.6786703764 1.2477116751
| 18> C 1.5049330855 3.6688572133 0.7315145897
| 19> S -1.1626897715 -0.0394855452 -1.5333347347
| 20> P -2.1892448237 0.16824483 0.3158820095
| 21> S -1.3632039737 -0.5897445707 1.9276268677
| 22> O -2.5926516357 1.6838592135 0.4938951368
| 23> C -3.274232029 2.421660364 -0.54314128
| 24> O -3.6156319751 -0.4621312313 -0.0467358944
| 25> C -3.7793617152 -1.8689681778 -0.2555867299
| 26> H 6.3606961151 -0.7969114424 -1.609959358
| 27> H 5.0964431789 -1.2551133261 -2.7617985289
| 28> H 5.0124793769 0.3031039327 -1.9313082643
| 29> H 4.6765002946 -0.8670973972 0.2548692454
| 30> H 4.7907618317 -2.4370023121 -0.5643065664
| 31> H 0.2026599174 -2.1129607671 0.1689786825
| 32> H 0.6638318073 -2.3710198404 -1.5325075906
| 33> H -0.4817191757 3.1573084827 1.4570612825
| 34> H 0.8349872712 2.1574660928 2.1398802776
| 35> H 2.4488650685 3.1622796597 0.543540012
| 36> H 1.1550620786 4.1274669558 -0.1891262085
| 37> H 1.6618077324 4.4384010985 1.4797944186
| 38> H -2.681990994 2.4069347571 -1.4577934931
| 39> H -3.3663643049 3.4335620536 -0.1576778694
| 40> H -4.2544872913 1.9858110584 -0.7238489727
| 41> H -3.3535064162 -2.1518824567 -1.217957608
| 42> H -4.8521244972 -2.0440205801 -0.2444515393
| 43> H -3.2959661539 -2.4277047726 0.5474533769
| 44> *
| 45>
| 46>                          ****END OF INPUT****

CARTESIAN COORDINATES (ANGSTROEM)
---------------------------------
  C      5.299717   -0.738840   -1.828470
  C      4.522620   -1.384175   -0.697862
  O      3.120145   -1.310341   -1.016706
  C      2.280701   -1.937080   -0.211283
  O      2.623380   -2.622949    0.725114
  C      0.837097   -1.758888   -0.646141
  C      0.548756   -0.298262   -0.973087
  H      1.163346    0.013657   -1.824914
  C      0.918052    0.607042    0.187547
  O      1.843621    0.361163    0.926277
  O      0.171688    1.692579    0.240561
  C      0.475417    2.678670    1.247712
  C      1.504933    3.668857    0.731515
  S     -1.162690   -0.039486   -1.533335
  P     -2.189245    0.168245    0.315882
  S     -1.363204   -0.589745    1.927627
  O     -2.592652    1.683859    0.493895
  C     -3.274232    2.421660   -0.543141
  O     -3.615632   -0.462131   -0.046736
  C     -3.779362   -1.868968   -0.255587
  H      6.360696   -0.796911   -1.609959
  H      5.096443   -1.255113   -2.761799
  H      5.012479    0.303104   -1.931308
  H      4.676500   -0.867097    0.254869
  H      4.790762   -2.437002   -0.564307
  H      0.202660   -2.112961    0.168979
  H      0.663832   -2.371020   -1.532508
  H     -0.481719    3.157308    1.457061
  H      0.834987    2.157466    2.139880
  H      2.448865    3.162280    0.543540
  H      1.155062    4.127467   -0.189126
  H      1.661808    4.438401    1.479794
  H     -2.681991    2.406935   -1.457793
  H     -3.366364    3.433562   -0.157678
  H     -4.254487    1.985811   -0.723849
  H     -3.353506   -2.151882   -1.217958
  H     -4.852124   -2.044021   -0.244452
  H     -3.295966   -2.427705    0.547453

 Total Charge           Charge          ....    0
 Multiplicity           Mult            ....    1
 Number of Electrons    NEL             ....  174
 Basis Dimension        Dim             ....  316

ORBITAL ENERGIES
----------------

  NO   OCC          E(Eh)            E(eV)
   0   2.0000     -88.044931     -2395.8244
   1   2.0000     -87.987834     -2394.2707
   2   2.0000     -76.430965     -2079.7923
   3   2.0000     -18.812099      -511.9032
   4   2.0000     -18.799738      -511.5669
   5   2.0000     -18.796991      -511.4921
   6   2.0000     -18.790534      -511.3164
   7   2.0000     -18.742463      -510.0083
   8   2.0000     -18.719152      -509.3740
   9   2.0000     -10.021363      -272.6952
  10   2.0000      -9.996633      -272.0222
  11   2.0000      -9.955210      -270.8950
  12   2.0000      -9.951935      -270.8059
  13   2.0000      -9.948231      -270.7051
  14   2.0000      -9.947164      -270.6761
  15   2.0000      -9.938980      -270.4534
  16   2.0000      -9.900694      -269.4116
  17   2.0000      -9.889767      -269.1142
  18   2.0000      -9.885077      -268.9866
  19   2.0000      -7.689815      -209.2505
  20   2.0000      -7.632679      -207.6958
  21   2.0000      -6.427866      -174.9111
  22   2.0000      -5.717676      -155.5859
  23   2.0000      -5.714212      -155.4916
  24   2.0000      -5.706910      -155.2929
  25   2.0000      -5.661896      -154.0680
  26   2.0000      -5.653050      -153.8273
  27   2.0000      -5.652797      -153.8204
  28   2.0000      -4.650645      -126.5505
  29   2.0000      -4.649765      -126.5265
  30   2.0000      -4.648154      -126.4827
  31   2.0000      -1.019249       -27.7352
  32   2.0000      -0.997052       -27.1312
  33   2.0000      -0.992364       -27.0036
  34   2.0000      -0.947899       -25.7936
  35   2.0000      -0.924057       -25.1449
  36   2.0000      -0.897753       -24.4291
  37   2.0000      -0.768457       -20.9108
  38   2.0000      -0.711000       -19.3473
  39   2.0000      -0.704553       -19.1719
  40   2.0000      -0.693610       -18.8741
  41   2.0000      -0.658940       -17.9307
  42   2.0000      -0.641712       -17.4619
  43   2.0000      -0.627081       -17.0637
  44   2.0000      -0.617781       -16.8107
  45   2.0000      -0.584628       -15.9085
  46   2.0000      -0.565018       -15.3749
  47   2.0000      -0.520213       -14.1557
  48   2.0000      -0.503021       -13.6879
  49   2.0000      -0.501839       -13.6557
  50   2.0000      -0.486249       -13.2315
  51   2.0000      -0.480495       -13.0749
  52   2.0000      -0.449608       -12.2345
  53   2.0000      -0.441172       -12.0049
  54   2.0000      -0.438806       -11.9405
  55   2.0000      -0.437878       -11.9153
  56   2.0000      -0.428787       -11.6679
  57   2.0000      -0.420075       -11.4308
  58   2.0000      -0.417592       -11.3633
  59   2.0000      -0.406715       -11.0673
  60   2.0000      -0.404262       -11.0005
  61   2.0000      -0.398352       -10.8397
  62   2.0000      -0.387273       -10.5382
  63   2.0000      -0.382067       -10.3966
  64   2.0000      -0.372149       -10.1267
  65   2.0000      -0.359758        -9.7895
  66   2.0000      -0.357528        -9.7288
  67   2.0000      -0.348288        -9.4774
  68   2.0000      -0.344188        -9.3658
  69   2.0000      -0.341256        -9.2861
  70   2.0000      -0.336592        -9.1591
  71   2.0000      -0.330004        -8.9799
  72   2.0000      -0.321347        -8.7443
  73   2.0000      -0.310687        -8.4542
  74   2.0000      -0.308693        -8.4000
  75   2.0000      -0.301085        -8.1929
  76   2.0000      -0.299279        -8.1438
  77   2.0000      -0.293394        -7.9837
  78   2.0000      -0.277271        -7.5449
  79   2.0000      -0.266997        -7.2654
  80   2.0000      -0.265183        -7.2160
  81   2.0000      -0.246391        -6.7046
  82   2.0000      -0.242080        -6.5873
  83   2.0000      -0.220854        -6.0098
  84   2.0000      -0.206941        -5.6312
  85   2.0000      -0.204880        -5.5751
  86   2.0000      -0.199853        -5.4383
  87   0.0000      -0.042579        -1.1586
  88   0.0000      -0.032895        -0.8951
  89   0.0000      -0.004391        -0.1195
  90   0.0000       0.002725         0.0742
  91   0.0000       0.012669         0.3447

MULLIKEN ATOMIC CHARGES
-----------------------
   0 C :   -0.274097
   1 C :   -0.024086
   2 O :   -0.256520
   3 C :    0.109453
   4 O :   -0.194639
   5 C :   -0.028195
   6 C :   -0.304596
   7 H :    0.159012
   8 C :    0.181265
   9 O :   -0.175001
  10 O :   -0.230877
  11 C :   -0.012782
  12 C :   -0.302007
  13 S :   -0.099882
  14 P :    0.604742
  15 S :   -0.286942
  16 O :   -0.363210
  17 C :   -0.108899
  18 O :   -0.388199
  19 C :   -0.102274
  20 H :    0.110272
  21 H :    0.110658
  22 H :    0.110470
  23 H :    0.111301
  24 H :    0.104870
  25 H :    0.115965
  26 H :    0.109242
  27 H :    0.107666
  28 H :    0.121023
  29 H :    0.122907
  30 H :    0.110748
  31 H :    0.116153
  32 H :    0.122434
  33 H :    0.130481
  34 H :    0.127886
  35 H :    0.116300
  36 H :    0.126972
  37 H :    0.122385
Sum of atomic charges:    0.0000000

LOEWDIN ATOMIC CHARGES
----------------------
   0 C :   -0.351525
   1 C :   -0.105991
   2 O :   -0.075519
   3 C :    0.025936
   4 O :   -0.157439
   5 C :   -0.249489
   6 C :   -0.269401
   7 H :    0.153600
   8 C :    0.010324
   9 O :   -0.134555
  10 O :   -0.059601
  11 C :   -0.110501
  12 C :   -0.355211
  13 S :    0.093440
  14 P :    0.572080
  15 S :   -0.281827
  16 O :   -0.236101
  17 C :   -0.210872
  18 O :   -0.260077
  19 C :   -0.216021
  20 H :    0.130059
  21 H :    0.124340
  22 H :    0.124017
  23 H :    0.120473
  24 H :    0.115985
  25 H :    0.135547
  26 H :    0.140416
  27 H :    0.118147
  28 H :    0.125236
  29 H :    0.128717
  30 H :    0.123218
  31 H :    0.132229
  32 H :    0.110777
  33 H :    0.125205
  34 H :    0.117903
  35 H :    0.109354
  36 H :    0.123567
  37 H :    0.113560

  Mayer bond orders larger than 0.100000
B(  0-C ,  1-C ) :   1.1492 B(  0-C , 20-H ) :   0.9449 B(  0-C , 21-H ) :   0.9509
B(  0-C , 22-H ) :   0.9498 B(  1-C ,  2-O ) :   0.9124 B(  1-C , 23-H ) :   0.9311
B(  1-C , 24-H ) :   0.9298 B(  2-O ,  3-C ) :   1.1812 B(  3-C ,  4-O ) :   2.0809
B(  3-C ,  5-C ) :   1.0256 B(  5-C ,  6-C ) :   1.0366 B(  5-C , 25-H ) :   0.8840
B(  5-C , 26-H ) :   0.8832 B(  6-C ,  7-H ) :   0.8530 B(  6-C ,  8-C ) :   0.9121
B(  6-C , 13-S ) :   0.9962 B(  8-C ,  9-O ) :   2.0275 B(  8-C , 10-O ) :   1.2365
B( 10-O , 11-C ) :   0.8981 B( 11-C , 12-C ) :   1.1725 B( 11-C , 27-H ) :   0.9307
B( 11-C , 28-H ) :   0.9136 B( 12-C , 29-H ) :   0.9460 B( 12-C , 30-H ) :   0.9485
B( 12-C , 31-H ) :   0.9453 B( 13-S , 14-P ) :   0.9581 B( 13-S , 15-S ) :   0.1151
B( 14-P , 15-S ) :   1.6341 B( 14-P , 16-O ) :   1.1175 B( 14-P , 18-O ) :   1.0704
B( 16-O , 17-C ) :   0.9153 B( 17-C , 32-H ) :   0.9376 B( 17-C , 33-H ) :   0.9590
B( 17-C , 34-H ) :   0.9475 B( 18-O , 19-C ) :   0.9298 B( 19-C , 35-H ) :   0.9470
B( 19-C , 36-H ) :   0.9584 B( 19-C , 37-H ) :   0.9356

Dispersion correction           -0.052810743
FINAL SINGLE POINT ENERGY     -1979.020054449091

DIPOLE MOMENT
-------------

Method             : SCF
Type of density    : Electron Density
Multiplicity       :   1
Irrep              :   0
Energy             : -1979.1500897404530406 Eh
Relativity type    :
Basis              : AO
                                X                 Y                 Z
Electronic contribution:    -13.753523990      -6.753270141       5.724766792
Nuclear contribution   :     13.105049838       8.041136280      -7.426758887
                        -----------------------------------------
Total Dipole Moment    :     -0.648474152       1.287866140      -1.701992095
                        -----------------------------------------
Magnitude (a.u.)       :      2.230671426
Magnitude (Debye)      :      5.669916170

Rotational constants in cm-1:             0.015183             0.006612             0.005621
Rotational constants in MHz :           455.169767           198.226097           168.506225

                             ****ORCA TERMINATED NORMALLY****
TOTAL RUN TIME: 0 days 0 hours 0 minutes 36 seconds 533 msec
