                         Program Version 6.0.0  -   RELEASE  -
|  1> ! pbe def2-sv(p) def2/J RI DEFGRID1 loosescf d4 GCP(DFT/SV(P)) printgap
|  2> %output
|  3>     printlevel normal
|  4> end
|  5> * xyz 0 1
|  6> C 3.3323062499 2.4213182483 -1.7001228659
|  7> C 4.1855853004 1.9064216195 -0.558924736
|  8> O 3.8755081932 0.5405110797 -0.2368751141
|  9> P 2.4706278611 0.1101089181 0.3725712106
| 10> S 1.812232591 1.3609542289 1.7404344666
| 11> O 2.7804047793 -1.3625358899 0.856592023
| 12> C 2.9609379318 -1.7367330415 2.2406773362
| 13> C 1.913294572 -2.7606554117 2.6298638546
| 14> S 1.2991903134 -0.301381038 -1.3429040386
| 15> C 0.1745449006 -1.5455137614 -0.6457346217
| 16> S -0.8192587851 -0.9442819318 0.7450988503
| 17> P -2.4187413973 -0.0321473461 -0.3345307375
| 18> S -2.5996114346 -0.6394798539 -2.1947393294
| 19> O -2.3543815068 1.5179739366 -0.0387217889
| 20> C -1.2458806288 2.3879979574 -0.3161982715
| 21> C -1.0198009728 2.5846754266 -1.8023677207
| 22> O -3.6830477339 -0.2967599709 0.5739438072
| 23> C -4.4357719954 -1.5237850566 0.4940483863
| 24> C -5.9055899674 -1.1941491319 0.6640975052
| 25> H 3.6503826724 3.4237138365 -1.9677494254
| 26> H 3.4214148686 1.7687454945 -2.564914865
| 27> H 2.2869920196 2.4505293591 -1.3920710479
| 28> H 4.0363800834 2.5152938279 0.3388475972
| 29> H 5.2439590284 1.882436714 -0.8209832371
| 30> H 3.9697225675 -2.1468387731 2.3113276366
| 31> H 2.8838555695 -0.8412410812 2.8659225238
| 32> H 0.9170719922 -2.3304236689 2.5398862927
| 33> H 1.9828513956 -3.6339277453 1.9873042208
| 34> H 2.077388879 -3.0612929492 3.6594836736
| 35> H 0.7516619757 -2.3922987849 -0.2855431378
| 36> H -0.4912317066 -1.8300072892 -1.463615589
| 37> H -1.5293958206 3.3242354138 0.1685428558
| 38> H -0.3494665316 1.9952554324 0.1758072881
| 39> H -0.6730474227 1.6627397077 -2.2666109208
| 40> H -1.9469857655 2.8887697237 -2.2817632394
| 41> H -0.2710841756 3.3566285442 -1.9505415567
| 42> H -4.2484196053 -1.9964813263 -0.4768627831
| 43> H -4.0801350995 -2.1797271642 1.2923969864
| 44> H -6.0629551387 -0.680988932 1.60827226
| 45> H -6.2392119775 -0.5502544462 -0.1452028764
| 46> H -6.4814365982 -2.1137250774 0.6513362735
| 47> *
| 48>
| 49>                          ****END OF INPUT****

CARTESIAN COORDINATES (ANGSTROEM)
---------------------------------
  C      3.332306    2.421318   -1.700123
  C      4.185585    1.906422   -0.558925
  O      3.875508    0.540511   -0.236875
  P      2.470628    0.110109    0.372571
  S      1.812233    1.360954    1.740434
  O      2.780405   -1.362536    0.856592
  C      2.960938   -1.736733    2.240677
  C      1.913295   -2.760655    2.629864
  S      1.299190   -0.301381   -1.342904
  C      0.174545   -1.545514   -0.645735
  S     -0.819259   -0.944282    0.745099
  P     -2.418741   -0.032147   -0.334531
  S     -2.599611   -0.639480   -2.194739
  O     -2.354382    1.517974   -0.038722
  C     -1.245881    2.387998   -0.316198
  C     -1.019801    2.584675   -1.802368
  O     -3.683048   -0.296760    0.573944
  C     -4.435772   -1.523785    0.494048
  C     -5.905590   -1.194149    0.664098
  H      3.650383    3.423714   -1.967749
  H      3.421415    1.768745   -2.564915
  H      2.286992    2.450529   -1.392071
  H      4.036380    2.515294    0.338848
  H      5.243959    1.882437   -0.820983
  H      3.969723   -2.146839    2.311328
  H      2.883856   -0.841241    2.865923
  H      0.917072   -2.330424    2.539886
  H      1.982851   -3.633928    1.987304
  H      2.077389   -3.061293    3.659484
  H      0.751662   -2.392299   -0.285543
  H     -0.491232   -1.830007   -1.463616
  H     -1.529396    3.324235    0.168543
  H     -0.349467    1.995255    0.175807
  H     -0.673047    1.662740   -2.266611
  H     -1.946986    2.888770   -2.281763
  H     -0.271084    3.356629   -1.950542
  H     -4.248420   -1.996481   -0.476863
  H     -4.080135   -2.179727    1.292397
  H     -6.062955   -0.680989    1.608272
  H     -6.239212   -0.550254   -0.145203
  H     -6.481437   -2.113725    0.651336

 Total Charge           Charge          ....    0
 Multiplicity           Mult            ....    1
 Number of Electrons    NEL             ....  202
 Basis Dimension        Dim             ....  334

ORBITAL ENERGIES
----------------

  NO   OCC          E(Eh)            E(eV)
   0   2.0000     -88.045461     -2395.8388
   1   2.0000     -88.043853     -2395.7950
   2   2.0000     -87.991288     -2394.3647
   3   2.0000     -87.989783     -2394.3237
   4   2.0000     -76.431461     -2079.8058
   5   2.0000     -76.426449     -2079.6694
   6   2.0000     -18.799402      -511.5577
   7   2.0000     -18.793483      -511.3967
   8   2.0000     -18.789054      -511.2761
   9   2.0000     -18.786734      -511.2130
  10   2.0000      -9.957312      -270.9522
  11   2.0000      -9.956763      -270.9373
  12   2.0000      -9.955242      -270.8959
  13   2.0000      -9.950207      -270.7589
  14   2.0000      -9.942423      -270.5471
  15   2.0000      -9.891178      -269.1526
  16   2.0000      -9.890147      -269.1246
  17   2.0000      -9.884494      -268.9708
  18   2.0000      -9.872662      -268.6488
  19   2.0000      -7.690420      -209.2670
  20   2.0000      -7.688409      -209.2122
  21   2.0000      -7.635822      -207.7813
  22   2.0000      -7.634653      -207.7495
  23   2.0000      -6.428909      -174.9395
  24   2.0000      -6.423784      -174.8000
  25   2.0000      -5.718481      -155.6078
  26   2.0000      -5.716224      -155.5464
  27   2.0000      -5.714901      -155.5104
  28   2.0000      -5.712875      -155.4552
  29   2.0000      -5.707240      -155.3019
  30   2.0000      -5.705591      -155.2570
  31   2.0000      -5.664627      -154.1423
  32   2.0000      -5.663429      -154.1097
  33   2.0000      -5.656582      -153.9234
  34   2.0000      -5.656020      -153.9081
  35   2.0000      -5.655266      -153.8876
  36   2.0000      -5.654972      -153.8796
  37   2.0000      -4.651552      -126.5752
  38   2.0000      -4.650688      -126.5516
  39   2.0000      -4.649277      -126.5133
  40   2.0000      -4.646063      -126.4258
  41   2.0000      -4.645833      -126.4195
  42   2.0000      -4.644222      -126.3757
  43   2.0000      -0.991463       -26.9791
  44   2.0000      -0.986901       -26.8549
  45   2.0000      -0.951174       -25.8828
  46   2.0000      -0.941512       -25.6199
  47   2.0000      -0.764335       -20.7986
  48   2.0000      -0.724486       -19.7143
  49   2.0000      -0.712302       -19.3827
  50   2.0000      -0.691236       -18.8095
  51   2.0000      -0.679794       -18.4981
  52   2.0000      -0.675056       -18.3692
  53   2.0000      -0.654372       -17.8064
  54   2.0000      -0.641188       -17.4476
  55   2.0000      -0.602662       -16.3993
  56   2.0000      -0.593380       -16.1467
  57   2.0000      -0.577660       -15.7189
  58   2.0000      -0.565652       -15.3922
  59   2.0000      -0.558664       -15.2020
  60   2.0000      -0.506704       -13.7881
  61   2.0000      -0.500694       -13.6246
  62   2.0000      -0.476081       -12.9548
  63   2.0000      -0.468995       -12.7620
  64   2.0000      -0.458653       -12.4806
  65   2.0000      -0.445715       -12.1285
  66   2.0000      -0.438620       -11.9355
  67   2.0000      -0.436602       -11.8805
  68   2.0000      -0.428698       -11.6655
  69   2.0000      -0.419315       -11.4101
  70   2.0000      -0.407736       -11.0951
  71   2.0000      -0.402959       -10.9651
  72   2.0000      -0.394915       -10.7462
  73   2.0000      -0.391708       -10.6589
  74   2.0000      -0.378701       -10.3050
  75   2.0000      -0.377367       -10.2687
  76   2.0000      -0.367891       -10.0108
  77   2.0000      -0.362110        -9.8535
  78   2.0000      -0.359086        -9.7712
  79   2.0000      -0.353545        -9.6204
  80   2.0000      -0.347159        -9.4467
  81   2.0000      -0.346204        -9.4207
  82   2.0000      -0.338763        -9.2182
  83   2.0000      -0.335716        -9.1353
  84   2.0000      -0.332430        -9.0459
  85   2.0000      -0.320099        -8.7103
  86   2.0000      -0.309345        -8.4177
  87   2.0000      -0.301942        -8.2163
  88   2.0000      -0.296620        -8.0715
  89   2.0000      -0.290321        -7.9000
  90   2.0000      -0.287509        -7.8235
  91   2.0000      -0.277986        -7.5644
  92   2.0000      -0.267029        -7.2662
  93   2.0000      -0.264854        -7.2070
  94   2.0000      -0.257651        -7.0111
  95   2.0000      -0.246031        -6.6949
  96   2.0000      -0.221962        -6.0399
  97   2.0000      -0.209960        -5.7133
  98   2.0000      -0.208948        -5.6858
  99   2.0000      -0.203835        -5.5466
 100   2.0000      -0.196550        -5.3484
 101   0.0000      -0.050696        -1.3795
 102   0.0000      -0.029971        -0.8155
 103   0.0000      -0.019712        -0.5364
 104   0.0000      -0.000260        -0.0071
 105   0.0000       0.010423         0.2836

MULLIKEN ATOMIC CHARGES
-----------------------
   0 C :   -0.345212
   1 C :    0.001405
   2 O :   -0.364425
   3 P :    0.605116
   4 S :   -0.316161
   5 O :   -0.373352
   6 C :   -0.006918
   7 C :   -0.312030
   8 S :   -0.091055
   9 C :   -0.355004
  10 S :   -0.108366
  11 P :    0.617116
  12 S :   -0.330740
  13 O :   -0.350402
  14 C :   -0.034680
  15 C :   -0.317044
  16 O :   -0.360377
  17 C :   -0.007971
  18 C :   -0.281136
  19 H :    0.118247
  20 H :    0.126622
  21 H :    0.138661
  22 H :    0.110989
  23 H :    0.108206
  24 H :    0.109136
  25 H :    0.114060
  26 H :    0.134441
  27 H :    0.119001
  28 H :    0.115684
  29 H :    0.192130
  30 H :    0.193452
  31 H :    0.103427
  32 H :    0.135339
  33 H :    0.133337
  34 H :    0.114714
  35 H :    0.111775
  36 H :    0.103378
  37 H :    0.100329
  38 H :    0.117966
  39 H :    0.120628
  40 H :    0.109714
Sum of atomic charges:    0.0000000

LOEWDIN ATOMIC CHARGES
----------------------
   0 C :   -0.372523
   1 C :   -0.119782
   2 O :   -0.243864
   3 P :    0.568455
   4 S :   -0.306867
   5 O :   -0.241286
   6 C :   -0.115998
   7 C :   -0.359786
   8 S :    0.096131
   9 C :   -0.483805
  10 S :    0.076639
  11 P :    0.570516
  12 S :   -0.308919
  13 O :   -0.226262
  14 C :   -0.122276
  15 C :   -0.371475
  16 O :   -0.236334
  17 C :   -0.120713
  18 C :   -0.350806
  19 H :    0.133786
  20 H :    0.127413
  21 H :    0.120504
  22 H :    0.109925
  23 H :    0.120384
  24 H :    0.118858
  25 H :    0.109010
  26 H :    0.121789
  27 H :    0.124963
  28 H :    0.133434
  29 H :    0.132919
  30 H :    0.127375
  31 H :    0.119930
  32 H :    0.099345
  33 H :    0.113874
  34 H :    0.125735
  35 H :    0.126848
  36 H :    0.104946
  37 H :    0.111609
  38 H :    0.127356
  39 H :    0.129388
  40 H :    0.129561

  Mayer bond orders larger than 0.100000
B(  0-C ,  1-C ) :   1.1602 B(  0-C , 19-H ) :   0.9377 B(  0-C , 20-H ) :   0.9424
B(  0-C , 21-H ) :   0.9274 B(  1-C ,  2-O ) :   0.9113 B(  1-C , 22-H ) :   0.9143
B(  1-C , 23-H ) :   0.9325 B(  2-O ,  3-P ) :   1.1168 B(  3-P ,  4-S ) :   1.6038
B(  3-P ,  5-O ) :   1.1207 B(  3-P ,  8-S ) :   0.9656 B(  4-S ,  8-S ) :   0.1046
B(  5-O ,  6-C ) :   0.8938 B(  6-C ,  7-C ) :   1.1681 B(  6-C , 24-H ) :   0.9322
B(  6-C , 25-H ) :   0.9017 B(  7-C , 26-H ) :   0.9358 B(  7-C , 27-H ) :   0.9460
B(  7-C , 28-H ) :   0.9386 B(  8-S ,  9-C ) :   0.9960 B(  9-C , 10-S ) :   1.0199
B(  9-C , 29-H ) :   0.8932 B(  9-C , 30-H ) :   0.8595 B( 10-S , 11-P ) :   0.9302
B( 10-S , 12-S ) :   0.1193 B( 11-P , 12-S ) :   1.6017 B( 11-P , 13-O ) :   1.1517
B( 11-P , 16-O ) :   1.1321 B( 12-S , 30-H ) :   0.1074 B( 13-O , 14-C ) :   0.9062
B( 14-C , 15-C ) :   1.1652 B( 14-C , 31-H ) :   0.9350 B( 14-C , 32-H ) :   0.8960
B( 15-C , 33-H ) :   0.9286 B( 15-C , 34-H ) :   0.9422 B( 15-C , 35-H ) :   0.9325
B( 16-O , 17-C ) :   0.9079 B( 17-C , 18-C ) :   1.1624 B( 17-C , 36-H ) :   0.9009
B( 17-C , 37-H ) :   0.9324 B( 18-C , 38-H ) :   0.9507 B( 18-C , 39-H ) :   0.9502
B( 18-C , 40-H ) :   0.9418

Dispersion correction           -0.065260823
FINAL SINGLE POINT ENERGY     -2929.523504329671

DIPOLE MOMENT
-------------

Method             : SCF
Type of density    : Electron Density
Multiplicity       :   1
Irrep              :   0
Energy             : -2929.6422920368408995 Eh
Relativity type    :
Basis              : AO
                                X                 Y                 Z
Electronic contribution:      1.804626128      -1.795545431      -1.408538319
Nuclear contribution   :     -1.108783068       1.369136594       1.874218199
                        -----------------------------------------
Total Dipole Moment    :      0.695843060      -0.426408836       0.465679880
                        -----------------------------------------
Magnitude (a.u.)       :      0.939616843
Magnitude (Debye)      :      2.388316212

Rotational constants in cm-1:             0.012330             0.005027             0.004314
Rotational constants in MHz :           369.632494           150.709433           129.331392

                             ****ORCA TERMINATED NORMALLY****
TOTAL RUN TIME: 0 days 0 hours 0 minutes 20 seconds 985 msec
