                         Program Version 6.0.0  -   RELEASE  -
|  1> ! pbe def2-sv(p) def2/J RI DEFGRID1 loosescf d4 GCP(DFT/SV(P)) printgap
|  2> %output
|  3>     printlevel normal
|  4> end
|  5> * xyz 0 1
|  6> C 4.220427341 -0.7862780331 -2.5911248039
|  7> C 4.4620203751 -1.3803993027 -1.2186574437
|  8> O 3.2323536033 -1.6143874272 -0.5103421915
|  9> P 2.3235906624 -0.4262024728 0.031152566
| 10> S 3.3391634372 1.0976597867 0.7411183408
| 11> O 1.3778855408 -1.2030162218 1.0374947861
| 12> C 1.7987661908 -1.5261397753 2.3857672178
| 13> C 1.323511551 -0.4723420319 3.3664218057
| 14> S 0.9411996341 -0.0258224724 -1.5108262721
| 15> C 0.3137051327 1.5229136741 -0.8010239391
| 16> S -0.7313404708 1.2658922868 0.6492750331
| 17> P -2.3347013293 0.3172522781 -0.3970078969
| 18> S -2.712598553 1.0018007712 -2.1870274071
| 19> O -3.538656444 0.3702895319 0.6404264628
| 20> C -4.4525005893 1.480881201 0.7106806312
| 21> C -3.7807202525 2.7552375251 1.1784984226
| 22> O -1.9689346174 -1.2170043183 -0.4202861515
| 23> C -1.742520577 -2.0090484751 0.7697737656
| 24> C -2.9881758532 -2.785374206 1.1429910496
| 25> H 3.517677129 -1.3990111275 -3.1504963017
| 26> H 3.8078822382 0.2174983517 -2.4948099185
| 27> H 5.1604427914 -0.7303744082 -3.1306619789
| 28> H 5.086911473 -0.7134729618 -0.6157408132
| 29> H 4.9217149163 -2.3676147454 -1.2805322487
| 30> H 1.3431382502 -2.4967057959 2.5883688201
| 31> H 2.8877002473 -1.6200371758 2.4091993792
| 32> H 0.2463556236 -0.3486482402 3.2980686982
| 33> H 1.5885856303 -0.7774281552 4.3735172443
| 34> H 1.7932479298 0.4844965375 3.1497733269
| 35> H -0.26857531 2.0069018909 -1.5851334866
| 36> H 1.1518370683 2.1431345416 -0.48252524
| 37> H -4.8974525313 1.6216826018 -0.2789362269
| 38> H -5.2138369222 1.1454224434 1.416392597
| 39> H -4.5362414376 3.516600895 1.343824362
| 40> H -3.2351302503 2.5807473235 2.102483788
| 41> H -3.0841401174 3.1102335273 0.4207390388
| 42> H -0.9185636958 -2.6738848946 0.502089013
| 43> H -1.4284670849 -1.3467488659 1.5810974963
| 44> H -3.3101808259 -3.395149768 0.3033900546
| 45> H -2.766200986 -3.4278324522 1.9893793462
| 46> H -3.7907293736 -2.1031312099 1.4095054275
| 47> *
| 48>
| 49>                          ****END OF INPUT****

CARTESIAN COORDINATES (ANGSTROEM)
---------------------------------
  C      4.220427   -0.786278   -2.591125
  C      4.462020   -1.380399   -1.218657
  O      3.232354   -1.614387   -0.510342
  P      2.323591   -0.426202    0.031153
  S      3.339163    1.097660    0.741118
  O      1.377886   -1.203016    1.037495
  C      1.798766   -1.526140    2.385767
  C      1.323512   -0.472342    3.366422
  S      0.941200   -0.025822   -1.510826
  C      0.313705    1.522914   -0.801024
  S     -0.731340    1.265892    0.649275
  P     -2.334701    0.317252   -0.397008
  S     -2.712599    1.001801   -2.187027
  O     -3.538656    0.370290    0.640426
  C     -4.452501    1.480881    0.710681
  C     -3.780720    2.755238    1.178498
  O     -1.968935   -1.217004   -0.420286
  C     -1.742521   -2.009048    0.769774
  C     -2.988176   -2.785374    1.142991
  H      3.517677   -1.399011   -3.150496
  H      3.807882    0.217498   -2.494810
  H      5.160443   -0.730374   -3.130662
  H      5.086911   -0.713473   -0.615741
  H      4.921715   -2.367615   -1.280532
  H      1.343138   -2.496706    2.588369
  H      2.887700   -1.620037    2.409199
  H      0.246356   -0.348648    3.298069
  H      1.588586   -0.777428    4.373517
  H      1.793248    0.484497    3.149773
  H     -0.268575    2.006902   -1.585133
  H      1.151837    2.143135   -0.482525
  H     -4.897453    1.621683   -0.278936
  H     -5.213837    1.145422    1.416393
  H     -4.536241    3.516601    1.343824
  H     -3.235130    2.580747    2.102484
  H     -3.084140    3.110234    0.420739
  H     -0.918564   -2.673885    0.502089
  H     -1.428467   -1.346749    1.581097
  H     -3.310181   -3.395150    0.303390
  H     -2.766201   -3.427832    1.989379
  H     -3.790729   -2.103131    1.409505

 Total Charge           Charge          ....    0
 Multiplicity           Mult            ....    1
 Number of Electrons    NEL             ....  202
 Basis Dimension        Dim             ....  334

ORBITAL ENERGIES
----------------

  NO   OCC          E(Eh)            E(eV)
   0   2.0000     -88.042351     -2395.7542
   1   2.0000     -88.040454     -2395.7026
   2   2.0000     -87.991241     -2394.3634
   3   2.0000     -87.986332     -2394.2298
   4   2.0000     -76.428390     -2079.7222
   5   2.0000     -76.426230     -2079.6635
   6   2.0000     -18.797378      -511.5026
   7   2.0000     -18.795735      -511.4579
   8   2.0000     -18.792729      -511.3761
   9   2.0000     -18.788854      -511.2707
  10   2.0000      -9.957868      -270.9674
  11   2.0000      -9.955686      -270.9080
  12   2.0000      -9.953430      -270.8466
  13   2.0000      -9.952033      -270.8086
  14   2.0000      -9.952012      -270.8080
  15   2.0000      -9.885479      -268.9976
  16   2.0000      -9.884825      -268.9798
  17   2.0000      -9.884475      -268.9702
  18   2.0000      -9.883306      -268.9384
  19   2.0000      -7.687560      -209.1891
  20   2.0000      -7.685302      -209.1277
  21   2.0000      -7.636150      -207.7902
  22   2.0000      -7.631635      -207.6673
  23   2.0000      -6.426184      -174.8653
  24   2.0000      -6.423686      -174.7974
  25   2.0000      -5.715378      -155.5233
  26   2.0000      -5.713040      -155.4597
  27   2.0000      -5.712291      -155.4394
  28   2.0000      -5.709947      -155.3756
  29   2.0000      -5.704320      -155.2224
  30   2.0000      -5.702284      -155.1670
  31   2.0000      -5.664880      -154.1492
  32   2.0000      -5.660570      -154.0319
  33   2.0000      -5.656910      -153.9323
  34   2.0000      -5.656372      -153.9177
  35   2.0000      -5.652151      -153.8029
  36   2.0000      -5.651843      -153.7945
  37   2.0000      -4.648762      -126.4992
  38   2.0000      -4.647817      -126.4735
  39   2.0000      -4.646716      -126.4436
  40   2.0000      -4.646621      -126.4410
  41   2.0000      -4.645332      -126.4059
  42   2.0000      -4.643953      -126.3684
  43   2.0000      -0.989541       -26.9268
  44   2.0000      -0.988628       -26.9019
  45   2.0000      -0.947566       -25.7846
  46   2.0000      -0.945276       -25.7223
  47   2.0000      -0.764847       -20.8126
  48   2.0000      -0.721866       -19.6430
  49   2.0000      -0.709898       -19.3173
  50   2.0000      -0.690985       -18.8026
  51   2.0000      -0.687871       -18.7179
  52   2.0000      -0.676418       -18.4063
  53   2.0000      -0.652188       -17.7469
  54   2.0000      -0.639106       -17.3910
  55   2.0000      -0.601465       -16.3667
  56   2.0000      -0.592586       -16.1251
  57   2.0000      -0.576969       -15.7001
  58   2.0000      -0.573897       -15.6165
  59   2.0000      -0.558138       -15.1877
  60   2.0000      -0.505697       -13.7607
  61   2.0000      -0.497744       -13.5443
  62   2.0000      -0.475717       -12.9449
  63   2.0000      -0.471300       -12.8247
  64   2.0000      -0.461344       -12.5538
  65   2.0000      -0.448990       -12.2176
  66   2.0000      -0.440836       -11.9958
  67   2.0000      -0.435410       -11.8481
  68   2.0000      -0.427933       -11.6447
  69   2.0000      -0.421385       -11.4665
  70   2.0000      -0.410446       -11.1688
  71   2.0000      -0.399637       -10.8747
  72   2.0000      -0.392486       -10.6801
  73   2.0000      -0.382283       -10.4024
  74   2.0000      -0.378570       -10.3014
  75   2.0000      -0.376327       -10.2404
  76   2.0000      -0.367843       -10.0095
  77   2.0000      -0.362264        -9.8577
  78   2.0000      -0.355256        -9.6670
  79   2.0000      -0.353182        -9.6106
  80   2.0000      -0.351048        -9.5525
  81   2.0000      -0.345359        -9.3977
  82   2.0000      -0.343069        -9.3354
  83   2.0000      -0.342839        -9.3291
  84   2.0000      -0.335449        -9.1280
  85   2.0000      -0.319502        -8.6941
  86   2.0000      -0.311573        -8.4783
  87   2.0000      -0.298077        -8.1111
  88   2.0000      -0.296850        -8.0777
  89   2.0000      -0.292855        -7.9690
  90   2.0000      -0.289813        -7.8862
  91   2.0000      -0.281312        -7.6549
  92   2.0000      -0.268509        -7.3065
  93   2.0000      -0.265616        -7.2278
  94   2.0000      -0.260466        -7.0876
  95   2.0000      -0.233594        -6.3564
  96   2.0000      -0.218345        -5.9415
  97   2.0000      -0.214116        -5.8264
  98   2.0000      -0.205480        -5.5914
  99   2.0000      -0.202960        -5.5228
 100   2.0000      -0.200909        -5.4670
 101   0.0000      -0.044238        -1.2038
 102   0.0000      -0.024311        -0.6615
 103   0.0000      -0.004693        -0.1277
 104   0.0000      -0.001308        -0.0356
 105   0.0000       0.011044         0.3005

MULLIKEN ATOMIC CHARGES
-----------------------
   0 C :   -0.317079
   1 C :   -0.005868
   2 O :   -0.373540
   3 P :    0.608861
   4 S :   -0.340242
   5 O :   -0.362559
   6 C :   -0.000905
   7 C :   -0.302452
   8 S :   -0.052387
   9 C :   -0.378524
  10 S :   -0.087440
  11 P :    0.600956
  12 S :   -0.314465
  13 O :   -0.383606
  14 C :   -0.000854
  15 C :   -0.316668
  16 O :   -0.348001
  17 C :   -0.028782
  18 C :   -0.281681
  19 H :    0.120430
  20 H :    0.127555
  21 H :    0.114125
  22 H :    0.111919
  23 H :    0.105530
  24 H :    0.103649
  25 H :    0.104550
  26 H :    0.124264
  27 H :    0.106803
  28 H :    0.129472
  29 H :    0.194877
  30 H :    0.192245
  31 H :    0.114282
  32 H :    0.104765
  33 H :    0.114462
  34 H :    0.116805
  35 H :    0.129448
  36 H :    0.115212
  37 H :    0.112243
  38 H :    0.119586
  39 H :    0.105036
  40 H :    0.117982
Sum of atomic charges:   -0.0000000

LOEWDIN ATOMIC CHARGES
----------------------
   0 C :   -0.368843
   1 C :   -0.120403
   2 O :   -0.245885
   3 P :    0.572211
   4 S :   -0.324463
   5 O :   -0.240860
   6 C :   -0.111294
   7 C :   -0.363960
   8 S :    0.106237
   9 C :   -0.488233
  10 S :    0.081743
  11 P :    0.572114
  12 S :   -0.309987
  13 O :   -0.248725
  14 C :   -0.116040
  15 C :   -0.370772
  16 O :   -0.230697
  17 C :   -0.115641
  18 C :   -0.358963
  19 H :    0.125947
  20 H :    0.121678
  21 H :    0.131699
  22 H :    0.110055
  23 H :    0.118764
  24 H :    0.116550
  25 H :    0.111263
  26 H :    0.121162
  27 H :    0.128033
  28 H :    0.125464
  29 H :    0.129479
  30 H :    0.128683
  31 H :    0.113839
  32 H :    0.118232
  33 H :    0.131808
  34 H :    0.123134
  35 H :    0.122160
  36 H :    0.120504
  37 H :    0.102979
  38 H :    0.128788
  39 H :    0.127315
  40 H :    0.124927

  Mayer bond orders larger than 0.100000
B(  0-C ,  1-C ) :   1.1647 B(  0-C , 19-H ) :   0.9452 B(  0-C , 20-H ) :   0.9351
B(  0-C , 21-H ) :   0.9381 B(  1-C ,  2-O ) :   0.9075 B(  1-C , 22-H ) :   0.9146
B(  1-C , 23-H ) :   0.9334 B(  2-O ,  3-P ) :   1.1114 B(  3-P ,  4-S ) :   1.5845
B(  3-P ,  5-O ) :   1.1220 B(  3-P ,  8-S ) :   0.9719 B(  4-S ,  8-S ) :   0.1108
B(  5-O ,  6-C ) :   0.8908 B(  6-C ,  7-C ) :   1.1702 B(  6-C , 24-H ) :   0.9335
B(  6-C , 25-H ) :   0.9166 B(  7-C , 26-H ) :   0.9426 B(  7-C , 27-H ) :   0.9385
B(  7-C , 28-H ) :   0.9315 B(  8-S ,  9-C ) :   1.0034 B(  9-C , 10-S ) :   1.0074
B(  9-C , 29-H ) :   0.8750 B(  9-C , 30-H ) :   0.8735 B( 10-S , 11-P ) :   0.9490
B( 10-S , 12-S ) :   0.1087 B( 11-P , 12-S ) :   1.6341 B( 11-P , 13-O ) :   1.0805
B( 11-P , 16-O ) :   1.1440 B( 13-O , 14-C ) :   0.9050 B( 14-C , 15-C ) :   1.1662
B( 14-C , 31-H ) :   0.9188 B( 14-C , 32-H ) :   0.9342 B( 15-C , 33-H ) :   0.9368
B( 15-C , 34-H ) :   0.9437 B( 15-C , 35-H ) :   0.9348 B( 16-O , 17-C ) :   0.8924
B( 17-C , 18-C ) :   1.1551 B( 17-C , 36-H ) :   0.9316 B( 17-C , 37-H ) :   0.9089
B( 18-C , 38-H ) :   0.9464 B( 18-C , 39-H ) :   0.9408 B( 18-C , 40-H ) :   0.9421

Dispersion correction           -0.066246464
FINAL SINGLE POINT ENERGY     -2929.523728703513

DIPOLE MOMENT
-------------

Method             : SCF
Type of density    : Electron Density
Multiplicity       :   1
Irrep              :   0
Energy             : -2929.6429188153083487 Eh
Relativity type    :
Basis              : AO
                                X                 Y                 Z
Electronic contribution:      1.874738580       5.424366746     -12.199613091
Nuclear contribution   :     -1.851404297      -6.220493980      13.416253374
                        -----------------------------------------
Total Dipole Moment    :      0.023334283      -0.796127234       1.216640282
                        -----------------------------------------
Magnitude (a.u.)       :      1.454158395
Magnitude (Debye)      :      3.696176900

Rotational constants in cm-1:             0.012579             0.004973             0.004668
Rotational constants in MHz :           377.097692           149.075137           139.948350

                             ****ORCA TERMINATED NORMALLY****
TOTAL RUN TIME: 0 days 0 hours 0 minutes 21 seconds 108 msec
