                         Program Version 6.0.0  -   RELEASE  -
|  1> ! pbe def2-sv(p) def2/J RI DEFGRID1 loosescf d4 GCP(DFT/SV(P)) printgap
|  2> %output
|  3>     printlevel normal
|  4> end
|  5> * xyz 0 1
|  6> C 3.1719739375 -1.0644773339 2.6945675267
|  7> C 4.2709457734 -0.5690669876 1.7756061458
|  8> O 3.8053628916 0.4381987868 0.8564897239
|  9> P 2.8158034932 0.0958750216 -0.3271535878
| 10> S 3.1078141278 -1.6125221395 -1.2513999956
| 11> O 3.13168235 1.3982273077 -1.1734740577
| 12> C 2.7428298867 1.5497453227 -2.5488951581
| 13> C 1.3568211314 2.1512676409 -2.6818612626
| 14> S 0.8729279931 0.378959051 0.4879790983
| 15> C 0.0360432156 -1.0652690221 -0.2634064058
| 16> S -1.4162079009 -1.5054310897 0.6905977463
| 17> P -2.6039308298 0.1529685457 0.0490382027
| 18> S -2.276543977 0.7752166517 -1.776003702
| 19> O -2.3532737401 1.3339153185 1.0588351388
| 20> C -2.4891835844 1.1947462401 2.4969482276
| 21> C -1.3472082682 1.9374585037 3.15900507
| 22> O -4.0779780951 -0.2891533596 0.4470635327
| 23> C -4.6922199526 -1.5507846534 0.1215665587
| 24> C -4.6451625308 -1.8608758732 -1.3598006033
| 25> H 2.4291363148 -1.6234975028 2.1270764813
| 26> H 3.603105243 -1.7188231363 3.4455683975
| 27> H 2.6840351815 -0.2257516138 3.1844502025
| 28> H 4.6944885819 -1.3968473032 1.1976888145
| 29> H 5.0620909363 -0.0646464871 2.3320414909
| 30> H 3.4984419705 2.2169368284 -2.9676907844
| 31> H 2.8024399002 0.5750598496 -3.0461929839
| 32> H 1.1668058443 2.385124315 -3.7244935458
| 33> H 0.5867900194 1.461002484 -2.3417884425
| 34> H 1.2872461133 3.0622584041 -2.0933061232
| 35> H 0.714011348 -1.9179174256 -0.2674062517
| 36> H -0.2786547204 -0.8095460954 -1.2776884438
| 37> H -3.4575062166 1.6211337949 2.7642441788
| 38> H -2.4746890531 0.1319098916 2.7549545967
| 39> H -1.4489267573 1.8619231744 4.2366833751
| 40> H -0.3963820367 1.5076014024 2.8532067085
| 41> H -1.3637882507 2.9830626214 2.8658391234
| 42> H -4.1882034042 -2.33234585 0.6965082547
| 43> H -5.7188112622 -1.4328594558 0.4725990421
| 44> H -5.0829788629 -1.0467160318 -1.9327460827
| 45> H -3.6137900776 -1.9927093748 -1.684202125
| 46> H -5.1961791782 -2.7751291552 -1.5552031872
| 47> *
| 48>
| 49>                          ****END OF INPUT****

CARTESIAN COORDINATES (ANGSTROEM)
---------------------------------
  C      3.171974   -1.064477    2.694568
  C      4.270946   -0.569067    1.775606
  O      3.805363    0.438199    0.856490
  P      2.815803    0.095875   -0.327154
  S      3.107814   -1.612522   -1.251400
  O      3.131682    1.398227   -1.173474
  C      2.742830    1.549745   -2.548895
  C      1.356821    2.151268   -2.681861
  S      0.872928    0.378959    0.487979
  C      0.036043   -1.065269   -0.263406
  S     -1.416208   -1.505431    0.690598
  P     -2.603931    0.152969    0.049038
  S     -2.276544    0.775217   -1.776004
  O     -2.353274    1.333915    1.058835
  C     -2.489184    1.194746    2.496948
  C     -1.347208    1.937459    3.159005
  O     -4.077978   -0.289153    0.447064
  C     -4.692220   -1.550785    0.121567
  C     -4.645163   -1.860876   -1.359801
  H      2.429136   -1.623498    2.127076
  H      3.603105   -1.718823    3.445568
  H      2.684035   -0.225752    3.184450
  H      4.694489   -1.396847    1.197689
  H      5.062091   -0.064646    2.332041
  H      3.498442    2.216937   -2.967691
  H      2.802440    0.575060   -3.046193
  H      1.166806    2.385124   -3.724494
  H      0.586790    1.461002   -2.341788
  H      1.287246    3.062258   -2.093306
  H      0.714011   -1.917917   -0.267406
  H     -0.278655   -0.809546   -1.277688
  H     -3.457506    1.621134    2.764244
  H     -2.474689    0.131910    2.754955
  H     -1.448927    1.861923    4.236683
  H     -0.396382    1.507601    2.853207
  H     -1.363788    2.983063    2.865839
  H     -4.188203   -2.332346    0.696508
  H     -5.718811   -1.432859    0.472599
  H     -5.082979   -1.046716   -1.932746
  H     -3.613790   -1.992709   -1.684202
  H     -5.196179   -2.775129   -1.555203

 Total Charge           Charge          ....    0
 Multiplicity           Mult            ....    1
 Number of Electrons    NEL             ....  202
 Basis Dimension        Dim             ....  334

ORBITAL ENERGIES
----------------

  NO   OCC          E(Eh)            E(eV)
   0   2.0000     -88.053454     -2396.0563
   1   2.0000     -88.042023     -2395.7452
   2   2.0000     -87.992209     -2394.3897
   3   2.0000     -87.987651     -2394.2657
   4   2.0000     -76.429870     -2079.7625
   5   2.0000     -76.426522     -2079.6714
   6   2.0000     -18.799079      -511.5489
   7   2.0000     -18.793712      -511.4029
   8   2.0000     -18.789829      -511.2972
   9   2.0000     -18.785273      -511.1733
  10   2.0000      -9.963259      -271.1140
  11   2.0000      -9.957534      -270.9583
  12   2.0000      -9.954042      -270.8632
  13   2.0000      -9.953083      -270.8372
  14   2.0000      -9.946037      -270.6454
  15   2.0000      -9.886994      -269.0388
  16   2.0000      -9.886897      -269.0361
  17   2.0000      -9.886411      -269.0229
  18   2.0000      -9.872931      -268.6561
  19   2.0000      -7.698120      -209.4765
  20   2.0000      -7.686417      -209.1580
  21   2.0000      -7.637125      -207.8167
  22   2.0000      -7.632740      -207.6974
  23   2.0000      -6.427276      -174.8951
  24   2.0000      -6.424036      -174.8069
  25   2.0000      -5.725622      -155.8021
  26   2.0000      -5.722694      -155.7224
  27   2.0000      -5.715512      -155.5270
  28   2.0000      -5.714298      -155.4939
  29   2.0000      -5.711089      -155.4066
  30   2.0000      -5.703337      -155.1957
  31   2.0000      -5.665869      -154.1761
  32   2.0000      -5.661779      -154.0648
  33   2.0000      -5.657780      -153.9560
  34   2.0000      -5.657449      -153.9470
  35   2.0000      -5.653309      -153.8344
  36   2.0000      -5.652792      -153.8203
  37   2.0000      -4.650046      -126.5342
  38   2.0000      -4.649347      -126.5152
  39   2.0000      -4.647280      -126.4589
  40   2.0000      -4.646189      -126.4292
  41   2.0000      -4.646028      -126.4249
  42   2.0000      -4.644605      -126.3861
  43   2.0000      -0.992626       -27.0107
  44   2.0000      -0.987070       -26.8595
  45   2.0000      -0.948523       -25.8106
  46   2.0000      -0.942440       -25.6451
  47   2.0000      -0.766513       -20.8579
  48   2.0000      -0.723386       -19.6843
  49   2.0000      -0.713191       -19.4069
  50   2.0000      -0.693494       -18.8709
  51   2.0000      -0.683854       -18.6086
  52   2.0000      -0.677387       -18.4326
  53   2.0000      -0.652632       -17.7590
  54   2.0000      -0.638699       -17.3799
  55   2.0000      -0.601901       -16.3786
  56   2.0000      -0.592884       -16.1332
  57   2.0000      -0.575378       -15.6568
  58   2.0000      -0.565174       -15.3792
  59   2.0000      -0.563496       -15.3335
  60   2.0000      -0.509602       -13.8670
  61   2.0000      -0.494298       -13.4505
  62   2.0000      -0.477681       -12.9984
  63   2.0000      -0.467558       -12.7229
  64   2.0000      -0.459607       -12.5065
  65   2.0000      -0.450677       -12.2636
  66   2.0000      -0.440041       -11.9741
  67   2.0000      -0.437338       -11.9006
  68   2.0000      -0.431858       -11.7514
  69   2.0000      -0.420254       -11.4357
  70   2.0000      -0.416051       -11.3213
  71   2.0000      -0.398898       -10.8546
  72   2.0000      -0.392061       -10.6685
  73   2.0000      -0.389882       -10.6092
  74   2.0000      -0.388268       -10.5653
  75   2.0000      -0.376175       -10.2363
  76   2.0000      -0.360243        -9.8027
  77   2.0000      -0.354784        -9.6542
  78   2.0000      -0.354141        -9.6367
  79   2.0000      -0.351722        -9.5708
  80   2.0000      -0.345809        -9.4099
  81   2.0000      -0.345728        -9.4077
  82   2.0000      -0.344264        -9.3679
  83   2.0000      -0.337907        -9.1949
  84   2.0000      -0.328571        -8.9409
  85   2.0000      -0.321747        -8.7552
  86   2.0000      -0.313263        -8.5243
  87   2.0000      -0.301129        -8.1941
  88   2.0000      -0.298823        -8.1314
  89   2.0000      -0.296534        -8.0691
  90   2.0000      -0.286048        -7.7838
  91   2.0000      -0.281109        -7.6494
  92   2.0000      -0.268537        -7.3073
  93   2.0000      -0.266696        -7.2572
  94   2.0000      -0.258647        -7.0381
  95   2.0000      -0.234934        -6.3929
  96   2.0000      -0.221817        -6.0359
  97   2.0000      -0.211075        -5.7436
  98   2.0000      -0.210574        -5.7300
  99   2.0000      -0.205346        -5.5877
 100   2.0000      -0.200240        -5.4488
 101   0.0000      -0.045500        -1.2381
 102   0.0000      -0.037599        -1.0231
 103   0.0000      -0.012844        -0.3495
 104   0.0000       0.000491         0.0134
 105   0.0000       0.010464         0.2847

MULLIKEN ATOMIC CHARGES
-----------------------
   0 C :   -0.312624
   1 C :   -0.000980
   2 O :   -0.357852
   3 P :    0.607113
   4 S :   -0.334246
   5 O :   -0.354108
   6 C :   -0.008091
   7 C :   -0.314885
   8 S :   -0.099620
   9 C :   -0.356389
  10 S :   -0.111542
  11 P :    0.584229
  12 S :   -0.292202
  13 O :   -0.348605
  14 C :   -0.008092
  15 C :   -0.291411
  16 O :   -0.379857
  17 C :   -0.010104
  18 C :   -0.310488
  19 H :    0.120867
  20 H :    0.112578
  21 H :    0.119701
  22 H :    0.112515
  23 H :    0.108825
  24 H :    0.105254
  25 H :    0.104825
  26 H :    0.107741
  27 H :    0.141212
  28 H :    0.115597
  29 H :    0.190997
  30 H :    0.197533
  31 H :    0.110731
  32 H :    0.097981
  33 H :    0.108198
  34 H :    0.130595
  35 H :    0.122339
  36 H :    0.112599
  37 H :    0.110955
  38 H :    0.129053
  39 H :    0.126505
  40 H :    0.113152
Sum of atomic charges:   -0.0000000

LOEWDIN ATOMIC CHARGES
----------------------
   0 C :   -0.367934
   1 C :   -0.115569
   2 O :   -0.235774
   3 P :    0.568589
   4 S :   -0.311406
   5 O :   -0.235710
   6 C :   -0.118515
   7 C :   -0.366163
   8 S :    0.078769
   9 C :   -0.485954
  10 S :    0.074878
  11 P :    0.565059
  12 S :   -0.289068
  13 O :   -0.232761
  14 C :   -0.114169
  15 C :   -0.355424
  16 O :   -0.247082
  17 C :   -0.114094
  18 C :   -0.368773
  19 H :    0.119320
  20 H :    0.130452
  21 H :    0.125098
  22 H :    0.111486
  23 H :    0.120731
  24 H :    0.118647
  25 H :    0.106370
  26 H :    0.129351
  27 H :    0.119929
  28 H :    0.127499
  29 H :    0.125786
  30 H :    0.120359
  31 H :    0.118347
  32 H :    0.101627
  33 H :    0.128947
  34 H :    0.121793
  35 H :    0.130677
  36 H :    0.108103
  37 H :    0.122267
  38 H :    0.131546
  39 H :    0.121714
  40 H :    0.131052

  Mayer bond orders larger than 0.100000
B(  0-C ,  1-C ) :   1.1640 B(  0-C , 19-H ) :   0.9390 B(  0-C , 20-H ) :   0.9375
B(  0-C , 21-H ) :   0.9438 B(  1-C ,  2-O ) :   0.9140 B(  1-C , 22-H ) :   0.9176
B(  1-C , 23-H ) :   0.9346 B(  2-O ,  3-P ) :   1.1301 B(  3-P ,  4-S ) :   1.5944
B(  3-P ,  5-O ) :   1.1326 B(  3-P ,  8-S ) :   0.9551 B(  4-S ,  8-S ) :   0.1220
B(  5-O ,  6-C ) :   0.9139 B(  6-C ,  7-C ) :   1.1621 B(  6-C , 24-H ) :   0.9342
B(  6-C , 25-H ) :   0.9108 B(  7-C , 26-H ) :   0.9390 B(  7-C , 27-H ) :   0.9286
B(  7-C , 28-H ) :   0.9462 B(  8-S ,  9-C ) :   0.9830 B(  9-C , 10-S ) :   1.0104
B(  9-C , 29-H ) :   0.8693 B(  9-C , 30-H ) :   0.8642 B( 10-S , 11-P ) :   0.9252
B( 10-S , 12-S ) :   0.1132 B( 11-P , 12-S ) :   1.6456 B( 11-P , 13-O ) :   1.1440
B( 11-P , 16-O ) :   1.0922 B( 13-O , 14-C ) :   0.8846 B( 14-C , 15-C ) :   1.1665
B( 14-C , 31-H ) :   0.9326 B( 14-C , 32-H ) :   0.9118 B( 15-C , 33-H ) :   0.9402
B( 15-C , 34-H ) :   0.9380 B( 15-C , 35-H ) :   0.9480 B( 16-O , 17-C ) :   0.9119
B( 17-C , 18-C ) :   1.1668 B( 17-C , 36-H ) :   0.9270 B( 17-C , 37-H ) :   0.9332
B( 18-C , 38-H ) :   0.9429 B( 18-C , 39-H ) :   0.9330 B( 18-C , 40-H ) :   0.9349

Dispersion correction           -0.063386339
FINAL SINGLE POINT ENERGY     -2929.519434621780

DIPOLE MOMENT
-------------

Method             : SCF
Type of density    : Electron Density
Multiplicity       :   1
Irrep              :   0
Energy             : -2929.6394249380755355 Eh
Relativity type    :
Basis              : AO
                                X                 Y                 Z
Electronic contribution:      3.908264946      -0.742028048      -6.511209570
Nuclear contribution   :     -4.591417611       0.317385860       7.862659239
                        -----------------------------------------
Total Dipole Moment    :     -0.683152666      -0.424642188       1.351449670
                        -----------------------------------------
Magnitude (a.u.)       :      1.572715728
Magnitude (Debye)      :      3.997525692

Rotational constants in cm-1:             0.011751             0.004629             0.004260
Rotational constants in MHz :           352.285379           138.778763           127.706726

                             ****ORCA TERMINATED NORMALLY****
TOTAL RUN TIME: 0 days 0 hours 0 minutes 20 seconds 693 msec
