                         Program Version 6.0.0  -   RELEASE  -
|  1> ! pbe def2-sv(p) def2/J RI DEFGRID1 loosescf d4 GCP(DFT/SV(P)) printgap
|  2> %output
|  3>     printlevel normal
|  4> end
|  5> * xyz 0 1
|  6> C -0.2022433141 0.0019932662 -0.0065776833
|  7> N 1.3199575194 -0.0161186812 -0.2396288914
|  8> O 1.8266485668 -1.094356103 -0.2943887669
|  9> O 1.8517745486 1.0500824499 -0.2931200853
| 10> Cl -0.8634787436 1.4649246483 -0.7110562451
| 11> Cl -0.8964890046 -1.4535854584 -0.693674232
| 12> Cl -0.3530233943 0.0143337488 1.7667655149
| 13> *
| 14>
| 15>                          ****END OF INPUT****

CARTESIAN COORDINATES (ANGSTROEM)
---------------------------------
  C     -0.202243    0.001993   -0.006578
  N      1.319958   -0.016119   -0.239629
  O      1.826649   -1.094356   -0.294389
  O      1.851775    1.050082   -0.293120
  Cl    -0.863479    1.464925   -0.711056
  Cl    -0.896489   -1.453585   -0.693674
  Cl    -0.353023    0.014334    1.766766

 Total Charge           Charge          ....    0
 Multiplicity           Mult            ....    1
 Number of Electrons    NEL             ....   80
 Basis Dimension        Dim             ....  110

ORBITAL ENERGIES
----------------

  NO   OCC          E(Eh)            E(eV)
   0   2.0000    -100.682404     -2739.7075
   1   2.0000    -100.682330     -2739.7055
   2   2.0000    -100.682193     -2739.7018
   3   2.0000     -18.817889      -512.0608
   4   2.0000     -18.816939      -512.0350
   5   2.0000     -14.244194      -387.6042
   6   2.0000     -10.108039      -275.0537
   7   2.0000      -9.219030      -250.8626
   8   2.0000      -9.218957      -250.8606
   9   2.0000      -9.218670      -250.8528
  10   2.0000      -7.051299      -191.8756
  11   2.0000      -7.051229      -191.8737
  12   2.0000      -7.050976      -191.8668
  13   2.0000      -7.038316      -191.5223
  14   2.0000      -7.038251      -191.5205
  15   2.0000      -7.038018      -191.5142
  16   2.0000      -7.038011      -191.5140
  17   2.0000      -7.037940      -191.5121
  18   2.0000      -7.037662      -191.5045
  19   2.0000      -1.181813       -32.1588
  20   2.0000      -1.017327       -27.6829
  21   2.0000      -0.902348       -24.5541
  22   2.0000      -0.793687       -21.5973
  23   2.0000      -0.793609       -21.5952
  24   2.0000      -0.698898       -19.0180
  25   2.0000      -0.544589       -14.8190
  26   2.0000      -0.535757       -14.5787
  27   2.0000      -0.518526       -14.1098
  28   2.0000      -0.487191       -13.2572
  29   2.0000      -0.456384       -12.4188
  30   2.0000      -0.451794       -12.2939
  31   2.0000      -0.344602        -9.3771
  32   2.0000      -0.338479        -9.2105
  33   2.0000      -0.329815        -8.9747
  34   2.0000      -0.314974        -8.5709
  35   2.0000      -0.305786        -8.3209
  36   2.0000      -0.303433        -8.2568
  37   2.0000      -0.286188        -7.7876
  38   2.0000      -0.281860        -7.6698
  39   2.0000      -0.261056        -7.1037
  40   0.0000      -0.127430        -3.4675
  41   0.0000      -0.069334        -1.8867
  42   0.0000      -0.030730        -0.8362
  43   0.0000      -0.019307        -0.5254
  44   0.0000       0.029164         0.7936

MULLIKEN ATOMIC CHARGES
-----------------------
   0 C :   -0.017273
   1 N :    0.219436
   2 O :   -0.158637
   3 O :   -0.158128
   4 Cl:    0.042467
   5 Cl:    0.042542
   6 Cl:    0.029595
Sum of atomic charges:    0.0000000

LOEWDIN ATOMIC CHARGES
----------------------
   0 C :   -0.341234
   1 N :    0.182992
   2 O :   -0.139412
   3 O :   -0.139011
   4 Cl:    0.153505
   5 Cl:    0.153746
   6 Cl:    0.129414

  Mayer bond orders larger than 0.100000
B(  0-C ,  1-N ) :   0.6902 B(  0-C ,  4-Cl) :   1.1229 B(  0-C ,  5-Cl) :   1.1233
B(  0-C ,  6-Cl) :   1.0907 B(  1-N ,  2-O ) :   1.6004 B(  1-N ,  3-O ) :   1.6002
B(  2-O ,  3-O ) :   0.3207

Dispersion correction           -0.010624137
FINAL SINGLE POINT ENERGY     -1622.348281944604

DIPOLE MOMENT
-------------

Method             : SCF
Type of density    : Electron Density
Multiplicity       :   1
Irrep              :   0
Energy             : -1622.3633276325090264 Eh
Relativity type    :
Basis              : AO
                                X                 Y                 Z
Electronic contribution:     -3.568880539       0.043181795       0.534281570
Nuclear contribution   :      2.897711135      -0.035201575      -0.495929964
                        -----------------------------------------
Total Dipole Moment    :     -0.671169404       0.007980220       0.038351606
                        -----------------------------------------
Magnitude (a.u.)       :      0.672311608
Magnitude (Debye)      :      1.708880300

Rotational constants in cm-1:             0.050020             0.049334             0.044328
Rotational constants in MHz :          1499.552400          1479.010637          1328.931757

                             ****ORCA TERMINATED NORMALLY****
TOTAL RUN TIME: 0 days 0 hours 0 minutes 5 seconds 700 msec
