                         Program Version 6.0.0  -   RELEASE  -
|  1> ! pbe def2-sv(p) def2/J RI DEFGRID1 loosescf d4 GCP(DFT/SV(P)) printgap
|  2> %output
|  3>     printlevel normal
|  4> end
|  5> * xyz 0 1
|  6> C 4.7914147916 1.7478800094 -0.4080838827
|  7> C 4.8200221778 0.2343614202 -0.3836702759
|  8> O 3.8205954873 -0.3282867306 0.4878697274
|  9> P 2.2676241416 -0.0095479397 0.4163673117
| 10> S 1.6140177166 1.6595579905 1.201493196
| 11> O 1.6347976682 -1.2308052762 1.1872094719
| 12> C 1.9311216446 -2.6147083571 0.8797602887
| 13> C 2.9350192317 -3.1712067281 1.8678033541
| 14> S 1.8225809146 -0.2894095032 -1.6545168174
| 15> C 0.1206660234 0.2746471285 -1.5693673716
| 16> S -0.9747635621 -1.0434177928 -0.9067562176
| 17> P -2.5215016423 0.2153468705 -0.1843348221
| 18> S -4.1171644433 -0.7258542121 0.4478357724
| 19> O -2.7024608004 1.2704650525 -1.3598929877
| 20> C -3.3276691995 0.8930813178 -2.604943525
| 21> C -4.8086712591 1.2171738246 -2.5867469768
| 22> O -1.8310788591 1.2099266722 0.8362248725
| 23> C -1.9765940936 1.0524343784 2.2582189255
| 24> C -1.3094075343 -0.2088690608 2.7678953957
| 25> H 5.6153934305 2.1146258542 -1.0116087992
| 26> H 3.854004357 2.0997014813 -0.8366932184
| 27> H 4.8785099601 2.1460368359 0.6002306183
| 28> H 5.7593113158 -0.1394984516 0.027478218
| 29> H 4.6639086868 -0.1716858818 -1.3868122594
| 30> H 0.9690336019 -3.126238489 0.9504781674
| 31> H 2.3030838973 -2.6811365438 -0.1463989414
| 32> H 2.5542322861 -3.0739392984 2.8806855164
| 33> H 3.1050058309 -4.2204354786 1.6479676092
| 34> H 3.874778082 -2.6302255111 1.7937332842
| 35> H -0.183002735 0.5111250632 -2.5856214653
| 36> H 0.058178494 1.1459310094 -0.9130060894
| 37> H -2.8069811305 1.4787203734 -3.3656015403
| 38> H -3.1652481008 -0.1752027801 -2.7854221354
| 39> H -4.9553994634 2.270796075 -2.3667575914
| 40> H -5.2372473166 0.9872841897 -3.5569077854
| 41> H -5.3143848474 0.627159518 -1.82562769
| 42> H -1.5044431144 1.9470510435 2.6673072236
| 43> H -3.0441809649 1.0440911776 2.4980604969
| 44> H -1.4160392102 -0.2600723174 3.8465343136
| 45> H -1.7812936895 -1.0845089189 2.3218381317
| 46> H -0.2516847123 -0.208437318 2.5138003771
| 47> *
| 48>
| 49>                          ****END OF INPUT****

CARTESIAN COORDINATES (ANGSTROEM)
---------------------------------
  C      4.791415    1.747880   -0.408084
  C      4.820022    0.234361   -0.383670
  O      3.820595   -0.328287    0.487870
  P      2.267624   -0.009548    0.416367
  S      1.614018    1.659558    1.201493
  O      1.634798   -1.230805    1.187209
  C      1.931122   -2.614708    0.879760
  C      2.935019   -3.171207    1.867803
  S      1.822581   -0.289410   -1.654517
  C      0.120666    0.274647   -1.569367
  S     -0.974764   -1.043418   -0.906756
  P     -2.521502    0.215347   -0.184335
  S     -4.117164   -0.725854    0.447836
  O     -2.702461    1.270465   -1.359893
  C     -3.327669    0.893081   -2.604944
  C     -4.808671    1.217174   -2.586747
  O     -1.831079    1.209927    0.836225
  C     -1.976594    1.052434    2.258219
  C     -1.309408   -0.208869    2.767895
  H      5.615393    2.114626   -1.011609
  H      3.854004    2.099701   -0.836693
  H      4.878510    2.146037    0.600231
  H      5.759311   -0.139498    0.027478
  H      4.663909   -0.171686   -1.386812
  H      0.969034   -3.126238    0.950478
  H      2.303084   -2.681137   -0.146399
  H      2.554232   -3.073939    2.880686
  H      3.105006   -4.220435    1.647968
  H      3.874778   -2.630226    1.793733
  H     -0.183003    0.511125   -2.585621
  H      0.058178    1.145931   -0.913006
  H     -2.806981    1.478720   -3.365602
  H     -3.165248   -0.175203   -2.785422
  H     -4.955399    2.270796   -2.366758
  H     -5.237247    0.987284   -3.556908
  H     -5.314385    0.627160   -1.825628
  H     -1.504443    1.947051    2.667307
  H     -3.044181    1.044091    2.498060
  H     -1.416039   -0.260072    3.846534
  H     -1.781294   -1.084509    2.321838
  H     -0.251685   -0.208437    2.513800

 Total Charge           Charge          ....    0
 Multiplicity           Mult            ....    1
 Number of Electrons    NEL             ....  202
 Basis Dimension        Dim             ....  334

ORBITAL ENERGIES
----------------

  NO   OCC          E(Eh)            E(eV)
   0   2.0000     -88.055374     -2396.1085
   1   2.0000     -88.039830     -2395.6856
   2   2.0000     -87.989601     -2394.3188
   3   2.0000     -87.984355     -2394.1760
   4   2.0000     -76.433404     -2079.8587
   5   2.0000     -76.422349     -2079.5578
   6   2.0000     -18.805573      -511.7257
   7   2.0000     -18.796409      -511.4763
   8   2.0000     -18.788524      -511.2617
   9   2.0000     -18.781686      -511.0757
  10   2.0000      -9.968225      -271.2492
  11   2.0000      -9.958813      -270.9931
  12   2.0000      -9.957302      -270.9520
  13   2.0000      -9.954713      -270.8815
  14   2.0000      -9.938962      -270.4529
  15   2.0000      -9.890437      -269.1325
  16   2.0000      -9.889119      -269.0966
  17   2.0000      -9.879258      -268.8283
  18   2.0000      -9.863461      -268.3984
  19   2.0000      -7.700251      -209.5345
  20   2.0000      -7.684784      -209.1136
  21   2.0000      -7.634499      -207.7453
  22   2.0000      -7.629511      -207.6096
  23   2.0000      -6.430705      -174.9884
  24   2.0000      -6.419794      -174.6915
  25   2.0000      -5.727938      -155.8651
  26   2.0000      -5.724659      -155.7759
  27   2.0000      -5.717573      -155.5831
  28   2.0000      -5.713007      -155.4588
  29   2.0000      -5.709148      -155.3538
  30   2.0000      -5.701642      -155.1496
  31   2.0000      -5.663606      -154.1146
  32   2.0000      -5.658448      -153.9742
  33   2.0000      -5.655022      -153.8810
  34   2.0000      -5.654554      -153.8682
  35   2.0000      -5.649976      -153.7437
  36   2.0000      -5.649815      -153.7393
  37   2.0000      -4.653581      -126.6304
  38   2.0000      -4.652770      -126.6083
  39   2.0000      -4.650611      -126.5496
  40   2.0000      -4.642170      -126.3199
  41   2.0000      -4.641918      -126.3130
  42   2.0000      -4.640141      -126.2646
  43   2.0000      -0.997289       -27.1376
  44   2.0000      -0.983439       -26.7607
  45   2.0000      -0.953442       -25.9445
  46   2.0000      -0.939502       -25.5652
  47   2.0000      -0.766846       -20.8669
  48   2.0000      -0.723867       -19.6974
  49   2.0000      -0.710330       -19.3290
  50   2.0000      -0.697716       -18.9858
  51   2.0000      -0.679468       -18.4893
  52   2.0000      -0.671710       -18.2782
  53   2.0000      -0.655464       -17.8361
  54   2.0000      -0.640484       -17.4285
  55   2.0000      -0.597383       -16.2556
  56   2.0000      -0.588202       -16.0058
  57   2.0000      -0.579469       -15.7682
  58   2.0000      -0.570820       -15.5328
  59   2.0000      -0.558766       -15.2048
  60   2.0000      -0.508467       -13.8361
  61   2.0000      -0.497382       -13.5345
  62   2.0000      -0.481743       -13.1089
  63   2.0000      -0.462253       -12.5785
  64   2.0000      -0.461286       -12.5522
  65   2.0000      -0.445022       -12.1097
  66   2.0000      -0.441124       -12.0036
  67   2.0000      -0.439706       -11.9650
  68   2.0000      -0.431086       -11.7304
  69   2.0000      -0.419798       -11.4233
  70   2.0000      -0.415245       -11.2994
  71   2.0000      -0.403948       -10.9920
  72   2.0000      -0.395261       -10.7556
  73   2.0000      -0.390586       -10.6284
  74   2.0000      -0.381229       -10.3738
  75   2.0000      -0.367410        -9.9977
  76   2.0000      -0.362656        -9.8684
  77   2.0000      -0.359888        -9.7930
  78   2.0000      -0.354585        -9.6487
  79   2.0000      -0.353172        -9.6103
  80   2.0000      -0.348776        -9.4907
  81   2.0000      -0.345228        -9.3941
  82   2.0000      -0.338837        -9.2202
  83   2.0000      -0.327448        -8.9103
  84   2.0000      -0.326698        -8.8899
  85   2.0000      -0.323954        -8.8152
  86   2.0000      -0.313945        -8.5429
  87   2.0000      -0.305679        -8.3179
  88   2.0000      -0.296664        -8.0726
  89   2.0000      -0.292932        -7.9711
  90   2.0000      -0.284904        -7.7526
  91   2.0000      -0.281331        -7.6554
  92   2.0000      -0.271507        -7.3881
  93   2.0000      -0.263414        -7.1679
  94   2.0000      -0.256349        -6.9756
  95   2.0000      -0.240778        -6.5519
  96   2.0000      -0.221529        -6.0281
  97   2.0000      -0.206938        -5.6311
  98   2.0000      -0.205879        -5.6023
  99   2.0000      -0.201115        -5.4726
 100   2.0000      -0.198297        -5.3959
 101   0.0000      -0.045217        -1.2304
 102   0.0000      -0.026654        -0.7253
 103   0.0000      -0.023692        -0.6447
 104   0.0000       0.004613         0.1255
 105   0.0000       0.009503         0.2586

MULLIKEN ATOMIC CHARGES
-----------------------
   0 C :   -0.310107
   1 C :   -0.016002
   2 O :   -0.377095
   3 P :    0.599608
   4 S :   -0.295020
   5 O :   -0.342558
   6 C :   -0.010516
   7 C :   -0.286398
   8 S :   -0.111134
   9 C :   -0.363728
  10 S :   -0.087327
  11 P :    0.576221
  12 S :   -0.315770
  13 O :   -0.366322
  14 C :   -0.023354
  15 C :   -0.282009
  16 O :   -0.357842
  17 C :    0.011693
  18 C :   -0.340696
  19 H :    0.114434
  20 H :    0.127975
  21 H :    0.129916
  22 H :    0.113128
  23 H :    0.116494
  24 H :    0.117139
  25 H :    0.096142
  26 H :    0.122188
  27 H :    0.111038
  28 H :    0.117881
  29 H :    0.184906
  30 H :    0.215723
  31 H :    0.104846
  32 H :    0.102580
  33 H :    0.114912
  34 H :    0.105559
  35 H :    0.130147
  36 H :    0.105585
  37 H :    0.106557
  38 H :    0.101857
  39 H :    0.112774
  40 H :    0.146575
Sum of atomic charges:    0.0000000

LOEWDIN ATOMIC CHARGES
----------------------
   0 C :   -0.369161
   1 C :   -0.114622
   2 O :   -0.242785
   3 P :    0.574369
   4 S :   -0.288682
   5 O :   -0.224463
   6 C :   -0.117613
   7 C :   -0.357812
   8 S :    0.073224
   9 C :   -0.479158
  10 S :    0.060769
  11 P :    0.567803
  12 S :   -0.315773
  13 O :   -0.242444
  14 C :   -0.119843
  15 C :   -0.361802
  16 O :   -0.230049
  17 C :   -0.115817
  18 C :   -0.378887
  19 H :    0.131794
  20 H :    0.122258
  21 H :    0.132148
  22 H :    0.123062
  23 H :    0.109060
  24 H :    0.122080
  25 H :    0.101832
  26 H :    0.129810
  27 H :    0.130156
  28 H :    0.125284
  29 H :    0.132001
  30 H :    0.128786
  31 H :    0.115296
  32 H :    0.106366
  33 H :    0.126864
  34 H :    0.128019
  35 H :    0.125681
  36 H :    0.119613
  37 H :    0.108128
  38 H :    0.127290
  39 H :    0.114969
  40 H :    0.122249

  Mayer bond orders larger than 0.100000
B(  0-C ,  1-C ) :   1.1672 B(  0-C , 19-H ) :   0.9344 B(  0-C , 20-H ) :   0.9317
B(  0-C , 21-H ) :   0.9426 B(  1-C ,  2-O ) :   0.9086 B(  1-C , 22-H ) :   0.9327
B(  1-C , 23-H ) :   0.9264 B(  2-O ,  3-P ) :   1.0862 B(  3-P ,  4-S ) :   1.6527
B(  3-P ,  5-O ) :   1.1355 B(  3-P ,  8-S ) :   0.9299 B(  4-S ,  8-S ) :   0.1080
B(  5-O ,  6-C ) :   0.8853 B(  6-C ,  7-C ) :   1.1642 B(  6-C , 24-H ) :   0.9314
B(  6-C , 25-H ) :   0.9124 B(  7-C , 26-H ) :   0.9475 B(  7-C , 27-H ) :   0.9404
B(  7-C , 28-H ) :   0.9435 B(  8-S ,  9-C ) :   1.0196 B(  9-C , 10-S ) :   0.9540
B(  9-C , 29-H ) :   0.9061 B(  9-C , 30-H ) :   0.8520 B( 10-S , 11-P ) :   0.9739
B( 11-P , 12-S ) :   1.6356 B( 11-P , 13-O ) :   1.0840 B( 11-P , 16-O ) :   1.1264
B( 13-O , 14-C ) :   0.9087 B( 14-C , 15-C ) :   1.1706 B( 14-C , 31-H ) :   0.9332
B( 14-C , 32-H ) :   0.9092 B( 15-C , 33-H ) :   0.9471 B( 15-C , 34-H ) :   0.9393
B( 15-C , 35-H ) :   0.9319 B( 16-O , 17-C ) :   0.8956 B( 17-C , 18-C ) :   1.1676
B( 17-C , 36-H ) :   0.9296 B( 17-C , 37-H ) :   0.9206 B( 18-C , 38-H ) :   0.9372
B( 18-C , 39-H ) :   0.9329 B( 18-C , 40-H ) :   0.9218

Dispersion correction           -0.065392328
FINAL SINGLE POINT ENERGY     -2929.518744745001

DIPOLE MOMENT
-------------

Method             : SCF
Type of density    : Electron Density
Multiplicity       :   1
Irrep              :   0
Energy             : -2929.6400976189729590 Eh
Relativity type    :
Basis              : AO
                                X                 Y                 Z
Electronic contribution:     -6.125151410       1.099182748      -1.739059625
Nuclear contribution   :      7.770832657      -1.471053861       0.743956582
                        -----------------------------------------
Total Dipole Moment    :      1.645681248      -0.371871113      -0.995103043
                        -----------------------------------------
Magnitude (a.u.)       :      1.958771288
Magnitude (Debye)      :      4.978800943

Rotational constants in cm-1:             0.013244             0.004691             0.004375
Rotational constants in MHz :           397.033292           140.632018           131.160275

                             ****ORCA TERMINATED NORMALLY****
TOTAL RUN TIME: 0 days 0 hours 0 minutes 21 seconds 441 msec
