                         Program Version 6.0.0  -   RELEASE  -
|  1> ! r2scan-3c def2/J RI DEFGRID2 scfconv6 printgap
|  2> %output
|  3>     printlevel normal
|  4> end
|  5> * xyz 0 1
|  6> C -0.6412086262 -0.9186747736 0.3959082111
|  7> C 0.3992607144 -0.138038464 -0.3765393491
|  8> Cl 2.0135090068 -0.7985357839 -0.0070383002
|  9> Cl 0.3660959346 1.5926572311 0.0671725166
| 10> Cl -2.2731981644 -0.3524010841 -0.0712058713
| 11> H -0.579108386 -1.9770421265 0.1455457684
| 12> H -0.5357945121 -0.7691945883 1.4695186318
| 13> H 0.2552686872 -0.1987586556 -1.4564356277
| 14> *
| 15>
| 16>                          ****END OF INPUT****

CARTESIAN COORDINATES (ANGSTROEM)
---------------------------------
  C     -0.641209   -0.918675    0.395908
  C      0.399261   -0.138038   -0.376539
  Cl     2.013509   -0.798536   -0.007038
  Cl     0.366096    1.592657    0.067173
  Cl    -2.273198   -0.352401   -0.071206
  H     -0.579108   -1.977042    0.145546
  H     -0.535795   -0.769195    1.469519
  H      0.255269   -0.198759   -1.456436

 Total Charge           Charge          ....    0
 Multiplicity           Mult            ....    1
 Number of Electrons    NEL             ....   66
 Basis Dimension        Dim             ....  134

ORBITAL ENERGIES
----------------

  NO   OCC          E(Eh)            E(eV)
   0   2.0000    -101.236221     -2754.7776
   1   2.0000    -101.228687     -2754.5726
   2   2.0000    -101.224386     -2754.4556
   3   2.0000     -10.181100      -277.0418
   4   2.0000     -10.127184      -275.5747
   5   2.0000      -9.392187      -255.5744
   6   2.0000      -9.384625      -255.3686
   7   2.0000      -9.380174      -255.2475
   8   2.0000      -7.138804      -194.2567
   9   2.0000      -7.131388      -194.0549
  10   2.0000      -7.128114      -193.9658
  11   2.0000      -7.127945      -193.9612
  12   2.0000      -7.126798      -193.9300
  13   2.0000      -7.120446      -193.7572
  14   2.0000      -7.120345      -193.7544
  15   2.0000      -7.116175      -193.6410
  16   2.0000      -7.115866      -193.6326
  17   2.0000      -0.897553       -24.4237
  18   2.0000      -0.830672       -22.6037
  19   2.0000      -0.796343       -21.6696
  20   2.0000      -0.697225       -18.9725
  21   2.0000      -0.600403       -16.3378
  22   2.0000      -0.490598       -13.3498
  23   2.0000      -0.462484       -12.5848
  24   2.0000      -0.449385       -12.2284
  25   2.0000      -0.408586       -11.1182
  26   2.0000      -0.395675       -10.7669
  27   2.0000      -0.318356        -8.6629
  28   2.0000      -0.307414        -8.3652
  29   2.0000      -0.301433        -8.2024
  30   2.0000      -0.289946        -7.8898
  31   2.0000      -0.286831        -7.8051
  32   2.0000      -0.279699        -7.6110
  33   0.0000      -0.042118        -1.1461
  34   0.0000      -0.031000        -0.8435
  35   0.0000       0.012194         0.3318
  36   0.0000       0.086820         2.3625
  37   0.0000       0.095836         2.6078

MULLIKEN ATOMIC CHARGES
-----------------------
   0 C :   -0.191646
   1 C :    0.026083
   2 Cl:   -0.123986
   3 Cl:   -0.117251
   4 Cl:   -0.155054
   5 H :    0.178454
   6 H :    0.186135
   7 H :    0.197264
Sum of atomic charges:   -0.0000000

LOEWDIN ATOMIC CHARGES
----------------------
   0 C :   -0.359208
   1 C :   -0.344919
   2 Cl:    0.075179
   3 Cl:    0.070864
   4 Cl:    0.038600
   5 H :    0.172238
   6 H :    0.175166
   7 H :    0.172079

  Mayer bond orders larger than 0.100000
B(  0-C ,  1-C ) :   0.9544 B(  0-C ,  4-Cl) :   0.9832 B(  0-C ,  5-H ) :   0.9365
B(  0-C ,  6-H ) :   0.9492 B(  1-C ,  2-Cl) :   0.9852 B(  1-C ,  3-Cl) :   1.0110
B(  1-C ,  7-H ) :   0.9301

Dispersion correction           -0.002515073
FINAL SINGLE POINT ENERGY     -1458.522841921696

DIPOLE MOMENT
-------------

Method             : SCF
Type of density    : Electron Density
Multiplicity       :   1
Irrep              :   0
Energy             : -1458.5299758466935600 Eh
Relativity type    :
Basis              : AO
                                X                 Y                 Z
Electronic contribution:      0.992854155       2.785723022      -0.210913430
Nuclear contribution   :     -0.949309495      -3.355809434       0.163682357
                        -----------------------------------------
Total Dipole Moment    :      0.043544661      -0.570086412      -0.047231074
                        -----------------------------------------
Magnitude (a.u.)       :      0.573694543
Magnitude (Debye)      :      1.458215642

Rotational constants in cm-1:             0.120288             0.048512             0.035783
Rotational constants in MHz :          3606.156458          1454.345499          1072.735217

                             ****ORCA TERMINATED NORMALLY****
TOTAL RUN TIME: 0 days 0 hours 0 minutes 23 seconds 376 msec
