                         Program Version 6.0.0  -   RELEASE  -
|  1> ! r2scan-3c def2/J RI DEFGRID2 scfconv6 printgap
|  2> %output
|  3>     printlevel normal
|  4> end
|  5> %cpcm
|  6>     smd true
|  7>     smdsolvent "water"
|  8> end
|  9> * xyz 0 1
| 10> C -0.6412086262 -0.9186747736 0.3959082111
| 11> C 0.3992607144 -0.138038464 -0.3765393491
| 12> Cl 2.0135090068 -0.7985357839 -0.0070383002
| 13> Cl 0.3660959346 1.5926572311 0.0671725166
| 14> Cl -2.2731981644 -0.3524010841 -0.0712058713
| 15> H -0.579108386 -1.9770421265 0.1455457684
| 16> H -0.5357945121 -0.7691945883 1.4695186318
| 17> H 0.2552686872 -0.1987586556 -1.4564356277
| 18> *
| 19>
| 20>                          ****END OF INPUT****

CARTESIAN COORDINATES (ANGSTROEM)
---------------------------------
  C     -0.641209   -0.918675    0.395908
  C      0.399261   -0.138038   -0.376539
  Cl     2.013509   -0.798536   -0.007038
  Cl     0.366096    1.592657    0.067173
  Cl    -2.273198   -0.352401   -0.071206
  H     -0.579108   -1.977042    0.145546
  H     -0.535795   -0.769195    1.469519
  H      0.255269   -0.198759   -1.456436

 Total Charge           Charge          ....    0
 Multiplicity           Mult            ....    1
 Number of Electrons    NEL             ....   66
 Basis Dimension        Dim             ....  134

ORBITAL ENERGIES
----------------

  NO   OCC          E(Eh)            E(eV)
   0   2.0000    -101.229649     -2754.5988
   1   2.0000    -101.224761     -2754.4658
   2   2.0000    -101.217639     -2754.2720
   3   2.0000     -10.168668      -276.7035
   4   2.0000     -10.109341      -275.0892
   5   2.0000      -9.385701      -255.3979
   6   2.0000      -9.380960      -255.2689
   7   2.0000      -9.373620      -255.0692
   8   2.0000      -7.132206      -194.0772
   9   2.0000      -7.127447      -193.9477
  10   2.0000      -7.121701      -193.7913
  11   2.0000      -7.121486      -193.7855
  12   2.0000      -7.119963      -193.7440
  13   2.0000      -7.116932      -193.6616
  14   2.0000      -7.116758      -193.6568
  15   2.0000      -7.109733      -193.4657
  16   2.0000      -7.109454      -193.4581
  17   2.0000      -0.888430       -24.1754
  18   2.0000      -0.822309       -22.3762
  19   2.0000      -0.791273       -21.5316
  20   2.0000      -0.685909       -18.6645
  21   2.0000      -0.585888       -15.9428
  22   2.0000      -0.475993       -12.9524
  23   2.0000      -0.452897       -12.3239
  24   2.0000      -0.437018       -11.8919
  25   2.0000      -0.394669       -10.7395
  26   2.0000      -0.385930       -10.5017
  27   2.0000      -0.313305        -8.5255
  28   2.0000      -0.302117        -8.2210
  29   2.0000      -0.296605        -8.0710
  30   2.0000      -0.284671        -7.7463
  31   2.0000      -0.279828        -7.6145
  32   2.0000      -0.275251        -7.4900
  33   0.0000      -0.034878        -0.9491
  34   0.0000      -0.022060        -0.6003
  35   0.0000       0.023122         0.6292
  36   0.0000       0.103026         2.8035
  37   0.0000       0.115068         3.1312

MULLIKEN ATOMIC CHARGES
-----------------------
   0 C :   -0.202770
   1 C :    0.025969
   2 Cl:   -0.147354
   3 Cl:   -0.153058
   4 Cl:   -0.194894
   5 H :    0.215605
   6 H :    0.215549
   7 H :    0.240954
Sum of atomic charges:   -0.0000000

LOEWDIN ATOMIC CHARGES
----------------------
   0 C :   -0.351047
   1 C :   -0.337481
   2 Cl:    0.064078
   3 Cl:    0.047544
   4 Cl:    0.015438
   5 H :    0.187916
   6 H :    0.185390
   7 H :    0.188163

  Mayer bond orders larger than 0.100000
B(  0-C ,  1-C ) :   0.9509 B(  0-C ,  4-Cl) :   0.9492 B(  0-C ,  5-H ) :   0.9282
B(  0-C ,  6-H ) :   0.9394 B(  1-C ,  2-Cl) :   0.9750 B(  1-C ,  3-Cl) :   0.9820
B(  1-C ,  7-H ) :   0.9164

Dispersion correction           -0.002515073
FINAL SINGLE POINT ENERGY     -1458.528266907932

DIPOLE MOMENT
-------------

Method             : SCF
Type of density    : Electron Density
Multiplicity       :   1
Irrep              :   0
Energy             : -1458.5354008329295539 Eh
Relativity type    :
Basis              : AO
                                X                 Y                 Z
Electronic contribution:      1.014552224       2.515354720      -0.253676404
Nuclear contribution   :     -0.949309495      -3.355809434       0.163682357
                        -----------------------------------------
Total Dipole Moment    :      0.065242729      -0.840454714      -0.089994048
                        -----------------------------------------
Magnitude (a.u.)       :      0.847773359
Magnitude (Debye)      :      2.154868629

Rotational constants in cm-1:             0.120288             0.048512             0.035783
Rotational constants in MHz :          3606.156458          1454.345499          1072.735217

                             ****ORCA TERMINATED NORMALLY****
TOTAL RUN TIME: 0 days 0 hours 1 minutes 1 seconds 390 msec
