                         Program Version 6.0.0  -   RELEASE  -
|  1> ! r2scan-3c def2/J RI DEFGRID2 scfconv6 printgap
|  2> %output
|  3>     printlevel normal
|  4> end
|  5> * xyz 0 1
|  6> C -1.0917166889 0.189062764 0.0020753522
|  7> C -0.1890128463 -1.0915901163 -0.0021427519
|  8> C 1.0917974396 -0.1890473323 0.0021641307
|  9> C 0.1890562176 1.0916145175 -0.002104859
| 10> F 0.321783193 1.8574216698 -1.0878801252
| 11> F 0.3236412027 1.8679224339 1.0757821785
| 12> F 1.8682125156 -0.3237024112 -1.0756624351
| 13> F 1.8574953944 -0.3218223026 1.0880167687
| 14> F -0.3239630152 -1.8678969275 1.0757030621
| 15> F -0.3216932525 -1.8573534927 -1.0879466063
| 16> F -1.8575776902 0.3217062428 1.0878212053
| 17> F -1.8679768172 0.3236996052 -1.0758289096
| 18> *
| 19>
| 20>                          ****END OF INPUT****

CARTESIAN COORDINATES (ANGSTROEM)
---------------------------------
  C     -1.091717    0.189063    0.002075
  C     -0.189013   -1.091590   -0.002143
  C      1.091797   -0.189047    0.002164
  C      0.189056    1.091615   -0.002105
  F      0.321783    1.857422   -1.087880
  F      0.323641    1.867922    1.075782
  F      1.868213   -0.323702   -1.075662
  F      1.857495   -0.321822    1.088017
  F     -0.323963   -1.867897    1.075703
  F     -0.321693   -1.857353   -1.087947
  F     -1.857578    0.321706    1.087821
  F     -1.867977    0.323700   -1.075829

 Total Charge           Charge          ....    0
 Multiplicity           Mult            ....    1
 Number of Electrons    NEL             ....   96
 Basis Dimension        Dim             ....  268

ORBITAL ENERGIES
----------------

  NO   OCC          E(Eh)            E(eV)
   0   2.0000     -24.552117      -668.0971
   1   2.0000     -24.552111      -668.0969
   2   2.0000     -24.552110      -668.0969
   3   2.0000     -24.552106      -668.0968
   4   2.0000     -24.552062      -668.0956
   5   2.0000     -24.552055      -668.0954
   6   2.0000     -24.552054      -668.0953
   7   2.0000     -24.552048      -668.0952
   8   2.0000     -10.257057      -279.1087
   9   2.0000     -10.256977      -279.1065
  10   2.0000     -10.256975      -279.1065
  11   2.0000     -10.256895      -279.1043
  12   2.0000      -1.295899       -35.2632
  13   2.0000      -1.278186       -34.7812
  14   2.0000      -1.278184       -34.7812
  15   2.0000      -1.264965       -34.4214
  16   2.0000      -1.227451       -33.4007
  17   2.0000      -1.217377       -33.1265
  18   2.0000      -1.217374       -33.1264
  19   2.0000      -1.208696       -32.8903
  20   2.0000      -0.878686       -23.9103
  21   2.0000      -0.703067       -19.1314
  22   2.0000      -0.703045       -19.1308
  23   2.0000      -0.633792       -17.2463
  24   2.0000      -0.615420       -16.7464
  25   2.0000      -0.602630       -16.3984
  26   2.0000      -0.597690       -16.2640
  27   2.0000      -0.565977       -15.4010
  28   2.0000      -0.565973       -15.4009
  29   2.0000      -0.559271       -15.2185
  30   2.0000      -0.559244       -15.2178
  31   2.0000      -0.542368       -14.7586
  32   2.0000      -0.465967       -12.6796
  33   2.0000      -0.465960       -12.6794
  34   2.0000      -0.457365       -12.4455
  35   2.0000      -0.453234       -12.3331
  36   2.0000      -0.452683       -12.3181
  37   2.0000      -0.451238       -12.2788
  38   2.0000      -0.436863       -11.8876
  39   2.0000      -0.436858       -11.8875
  40   2.0000      -0.428134       -11.6501
  41   2.0000      -0.413197       -11.2437
  42   2.0000      -0.407105       -11.0779
  43   2.0000      -0.407103       -11.0778
  44   2.0000      -0.399606       -10.8738
  45   2.0000      -0.364736        -9.9250
  46   2.0000      -0.364698        -9.9239
  47   2.0000      -0.305788        -8.3209
  48   0.0000      -0.082445        -2.2434
  49   0.0000       0.006713         0.1827
  50   0.0000       0.077482         2.1084
  51   0.0000       0.077509         2.1091
  52   0.0000       0.117268         3.1910

MULLIKEN ATOMIC CHARGES
-----------------------
   0 C :    0.351830
   1 C :    0.352010
   2 C :    0.351818
   3 C :    0.352009
   4 F :   -0.176013
   5 F :   -0.175911
   6 F :   -0.175904
   7 F :   -0.176003
   8 F :   -0.175915
   9 F :   -0.176016
  10 F :   -0.176005
  11 F :   -0.175901
Sum of atomic charges:   -0.0000000

LOEWDIN ATOMIC CHARGES
----------------------
   0 C :    0.409216
   1 C :    0.409220
   2 C :    0.409244
   3 C :    0.409225
   4 F :   -0.204641
   5 F :   -0.204598
   6 F :   -0.204587
   7 F :   -0.204635
   8 F :   -0.204597
   9 F :   -0.204642
  10 F :   -0.204624
  11 F :   -0.204582

  Mayer bond orders larger than 0.100000
B(  0-C ,  1-C ) :   0.9460 B(  0-C ,  3-C ) :   0.9460 B(  0-C , 10-F ) :   0.9726
B(  0-C , 11-F ) :   0.9715 B(  1-C ,  2-C ) :   0.9460 B(  1-C ,  8-F ) :   0.9715
B(  1-C ,  9-F ) :   0.9726 B(  2-C ,  3-C ) :   0.9460 B(  2-C ,  6-F ) :   0.9715
B(  2-C ,  7-F ) :   0.9725 B(  3-C ,  4-F ) :   0.9726 B(  3-C ,  5-F ) :   0.9715

Dispersion correction           -0.003389322
FINAL SINGLE POINT ENERGY      -951.100207928212

DIPOLE MOMENT
-------------

Method             : SCF
Type of density    : Electron Density
Multiplicity       :   1
Irrep              :   0
Energy             :  -951.1118834208534736 Eh
Relativity type    :
Basis              : AO
                                X                 Y                 Z
Electronic contribution:      0.000037880       0.000027739      -0.000003197
Nuclear contribution   :      0.000072707       0.000023333      -0.000004761
                        -----------------------------------------
Total Dipole Moment    :      0.000110587       0.000051072      -0.000007958
                        -----------------------------------------
Magnitude (a.u.)       :      0.000122070
Magnitude (Debye)      :      0.000310278

Rotational constants in cm-1:             0.035198             0.035194             0.027995
Rotational constants in MHz :          1055.219953          1055.094233           839.277575

                             ****ORCA TERMINATED NORMALLY****
TOTAL RUN TIME: 0 days 0 hours 0 minutes 40 seconds 469 msec
