                         Program Version 6.0.0  -   RELEASE  -
|  1> ! r2scan-3c def2/J RI DEFGRID2 scfconv6 printgap
|  2> %output
|  3>     printlevel normal
|  4> end
|  5> %cpcm
|  6>     smd true
|  7>     smdsolvent "water"
|  8> end
|  9> * xyz 0 1
| 10> C -1.0917166889 0.189062764 0.0020753522
| 11> C -0.1890128463 -1.0915901163 -0.0021427519
| 12> C 1.0917974396 -0.1890473323 0.0021641307
| 13> C 0.1890562176 1.0916145175 -0.002104859
| 14> F 0.321783193 1.8574216698 -1.0878801252
| 15> F 0.3236412027 1.8679224339 1.0757821785
| 16> F 1.8682125156 -0.3237024112 -1.0756624351
| 17> F 1.8574953944 -0.3218223026 1.0880167687
| 18> F -0.3239630152 -1.8678969275 1.0757030621
| 19> F -0.3216932525 -1.8573534927 -1.0879466063
| 20> F -1.8575776902 0.3217062428 1.0878212053
| 21> F -1.8679768172 0.3236996052 -1.0758289096
| 22> *
| 23>
| 24>                          ****END OF INPUT****

CARTESIAN COORDINATES (ANGSTROEM)
---------------------------------
  C     -1.091717    0.189063    0.002075
  C     -0.189013   -1.091590   -0.002143
  C      1.091797   -0.189047    0.002164
  C      0.189056    1.091615   -0.002105
  F      0.321783    1.857422   -1.087880
  F      0.323641    1.867922    1.075782
  F      1.868213   -0.323702   -1.075662
  F      1.857495   -0.321822    1.088017
  F     -0.323963   -1.867897    1.075703
  F     -0.321693   -1.857353   -1.087947
  F     -1.857578    0.321706    1.087821
  F     -1.867977    0.323700   -1.075829

 Total Charge           Charge          ....    0
 Multiplicity           Mult            ....    1
 Number of Electrons    NEL             ....   96
 Basis Dimension        Dim             ....  268

ORBITAL ENERGIES
----------------

  NO   OCC          E(Eh)            E(eV)
   0   2.0000     -24.542503      -667.8355
   1   2.0000     -24.542499      -667.8354
   2   2.0000     -24.542497      -667.8353
   3   2.0000     -24.542494      -667.8352
   4   2.0000     -24.542458      -667.8342
   5   2.0000     -24.542452      -667.8341
   6   2.0000     -24.542451      -667.8340
   7   2.0000     -24.542446      -667.8339
   8   2.0000     -10.247602      -278.8514
   9   2.0000     -10.247522      -278.8492
  10   2.0000     -10.247520      -278.8492
  11   2.0000     -10.247440      -278.8470
  12   2.0000      -1.286160       -34.9982
  13   2.0000      -1.268618       -34.5209
  14   2.0000      -1.268615       -34.5208
  15   2.0000      -1.255501       -34.1639
  16   2.0000      -1.218043       -33.1446
  17   2.0000      -1.208055       -32.8729
  18   2.0000      -1.208053       -32.8728
  19   2.0000      -1.199433       -32.6382
  20   2.0000      -0.867960       -23.6184
  21   2.0000      -0.693558       -18.8727
  22   2.0000      -0.693536       -18.8721
  23   2.0000      -0.625315       -17.0157
  24   2.0000      -0.606391       -16.5007
  25   2.0000      -0.593558       -16.1515
  26   2.0000      -0.586862       -15.9693
  27   2.0000      -0.557378       -15.1670
  28   2.0000      -0.557374       -15.1669
  29   2.0000      -0.549606       -14.9555
  30   2.0000      -0.549578       -14.9548
  31   2.0000      -0.533972       -14.5301
  32   2.0000      -0.456560       -12.4236
  33   2.0000      -0.456554       -12.4235
  34   2.0000      -0.448307       -12.1990
  35   2.0000      -0.443803       -12.0765
  36   2.0000      -0.443423       -12.0662
  37   2.0000      -0.442096       -12.0301
  38   2.0000      -0.427736       -11.6393
  39   2.0000      -0.427732       -11.6392
  40   2.0000      -0.419010       -11.4018
  41   2.0000      -0.404093       -10.9959
  42   2.0000      -0.398117       -10.8333
  43   2.0000      -0.398115       -10.8332
  44   2.0000      -0.390693       -10.6313
  45   2.0000      -0.355286        -9.6678
  46   2.0000      -0.355247        -9.6668
  47   2.0000      -0.296042        -8.0557
  48   0.0000      -0.071236        -1.9384
  49   0.0000       0.018048         0.4911
  50   0.0000       0.089930         2.4471
  51   0.0000       0.089958         2.4479
  52   0.0000       0.126872         3.4524

MULLIKEN ATOMIC CHARGES
-----------------------
   0 C :    0.364712
   1 C :    0.364899
   2 C :    0.364720
   3 C :    0.364894
   4 F :   -0.182463
   5 F :   -0.182349
   6 F :   -0.182343
   7 F :   -0.182452
   8 F :   -0.182356
   9 F :   -0.182465
  10 F :   -0.182457
  11 F :   -0.182341
Sum of atomic charges:   -0.0000000

LOEWDIN ATOMIC CHARGES
----------------------
   0 C :    0.415184
   1 C :    0.415187
   2 C :    0.415214
   3 C :    0.415194
   4 F :   -0.207616
   5 F :   -0.207590
   6 F :   -0.207579
   7 F :   -0.207609
   8 F :   -0.207590
   9 F :   -0.207618
  10 F :   -0.207601
  11 F :   -0.207575

  Mayer bond orders larger than 0.100000
B(  0-C ,  1-C ) :   0.9480 B(  0-C ,  3-C ) :   0.9480 B(  0-C , 10-F ) :   0.9697
B(  0-C , 11-F ) :   0.9688 B(  1-C ,  2-C ) :   0.9479 B(  1-C ,  8-F ) :   0.9688
B(  1-C ,  9-F ) :   0.9696 B(  2-C ,  3-C ) :   0.9479 B(  2-C ,  6-F ) :   0.9688
B(  2-C ,  7-F ) :   0.9696 B(  3-C ,  4-F ) :   0.9697 B(  3-C ,  5-F ) :   0.9688

Dispersion correction           -0.003389322
FINAL SINGLE POINT ENERGY      -951.095299739142

DIPOLE MOMENT
-------------

Method             : SCF
Type of density    : Electron Density
Multiplicity       :   1
Irrep              :   0
Energy             :  -951.1069752317832808 Eh
Relativity type    :
Basis              : AO
                                X                 Y                 Z
Electronic contribution:      0.000074086       0.000041317      -0.000007874
Nuclear contribution   :      0.000072707       0.000023333      -0.000004761
                        -----------------------------------------
Total Dipole Moment    :      0.000146793       0.000064650      -0.000012635
                        -----------------------------------------
Magnitude (a.u.)       :      0.000160896
Magnitude (Debye)      :      0.000408965

Rotational constants in cm-1:             0.035198             0.035194             0.027995
Rotational constants in MHz :          1055.219953          1055.094233           839.277575

                             ****ORCA TERMINATED NORMALLY****
TOTAL RUN TIME: 0 days 0 hours 0 minutes 52 seconds 21 msec
