                         Program Version 6.0.0  -   RELEASE  -
|  1> ! pbe def2-sv(p) def2/J RI DEFGRID1 loosescf d4 GCP(DFT/SV(P)) printgap
|  2> %output
|  3>     printlevel normal
|  4> end
|  5> * xyz 0 1
|  6> C 3.418550632 -1.6130484566 -2.6793390261
|  7> C 4.1383809156 -1.180618648 -1.4198450208
|  8> O 3.5172116908 -0.0503648937 -0.7776083933
|  9> P 1.9774720932 0.0548108778 -0.3998841016
| 10> S 0.7497938055 0.5405038025 -1.841764389
| 11> O 1.9621449557 1.1860970049 0.693780422
| 12> C 2.7856407452 1.1932624896 1.8852771326
| 13> C 4.004918939 2.0687249843 1.6829875248
| 14> S 1.6630487614 -1.7880524816 0.6255507053
| 15> C 0.0179974783 -1.4910241865 1.3150345941
| 16> S -1.3297717766 -1.5690884513 0.0945545485
| 17> P -2.1363880738 0.3934161722 0.3174052444
| 18> S -1.1777697382 1.5933839869 1.5279958277
| 19> O -3.6687165954 0.1003563839 0.6615923634
| 20> C -4.148909216 -0.7898618598 1.6843966554
| 21> C -3.6920523269 -0.3919895682 3.0728506603
| 22> O -2.29622736 1.0383678914 -1.1041026173
| 23> C -2.9236626332 0.3527647773 -2.2183103433
| 24> C -2.5636109116 1.1047283035 -3.4811985024
| 25> H 3.3265674067 -0.7780402138 -3.3701532013
| 26> H 3.9736732828 -2.4154569018 -3.1543198638
| 27> H 2.4175805985 -1.9682592335 -2.4369755465
| 28> H 5.1478536087 -0.8280836751 -1.6388715371
| 29> H 4.1783318583 -2.0000025399 -0.6968020291
| 30> H 2.1299619403 1.5924778453 2.6625629227
| 31> H 3.0719715131 0.1659890089 2.1284636055
| 32> H 3.6973334484 3.0752278704 1.4125107835
| 33> H 4.5739625116 2.1029417646 2.6066821214
| 34> H 4.6285758252 1.6680882607 0.888033741
| 35> H -0.0120939363 -0.5060092277 1.7922911526
| 36> H -0.1386195496 -2.2911557633 2.0340168179
| 37> H -5.2341458227 -0.7239035582 1.589124
| 38> H -3.816643545 -1.8031486119 1.4399170454
| 39> H -4.1535723518 -1.0475176971 3.8041725909
| 40> H -2.6092925304 -0.4722664211 3.1530808561
| 41> H -3.9722252248 0.6374352973 3.2823539552
| 42> H -2.5457896509 -0.6735239115 -2.2503459669
| 43> H -4.0010156347 0.3429845406 -2.0405253976
| 44> H -2.9206332953 2.1287198258 -3.4214888306
| 45> H -1.4825162476 1.118079377 -3.6007841156
| 46> H -3.0159602626 0.6089936145 -4.3336353529
| 47> *
| 48>
| 49>                          ****END OF INPUT****

CARTESIAN COORDINATES (ANGSTROEM)
---------------------------------
  C      3.418551   -1.613048   -2.679339
  C      4.138381   -1.180619   -1.419845
  O      3.517212   -0.050365   -0.777608
  P      1.977472    0.054811   -0.399884
  S      0.749794    0.540504   -1.841764
  O      1.962145    1.186097    0.693780
  C      2.785641    1.193262    1.885277
  C      4.004919    2.068725    1.682988
  S      1.663049   -1.788052    0.625551
  C      0.017997   -1.491024    1.315035
  S     -1.329772   -1.569088    0.094555
  P     -2.136388    0.393416    0.317405
  S     -1.177770    1.593384    1.527996
  O     -3.668717    0.100356    0.661592
  C     -4.148909   -0.789862    1.684397
  C     -3.692052   -0.391990    3.072851
  O     -2.296227    1.038368   -1.104103
  C     -2.923663    0.352765   -2.218310
  C     -2.563611    1.104728   -3.481199
  H      3.326567   -0.778040   -3.370153
  H      3.973673   -2.415457   -3.154320
  H      2.417581   -1.968259   -2.436976
  H      5.147854   -0.828084   -1.638872
  H      4.178332   -2.000003   -0.696802
  H      2.129962    1.592478    2.662563
  H      3.071972    0.165989    2.128464
  H      3.697333    3.075228    1.412511
  H      4.573963    2.102942    2.606682
  H      4.628576    1.668088    0.888034
  H     -0.012094   -0.506009    1.792291
  H     -0.138620   -2.291156    2.034017
  H     -5.234146   -0.723904    1.589124
  H     -3.816644   -1.803149    1.439917
  H     -4.153572   -1.047518    3.804173
  H     -2.609293   -0.472266    3.153081
  H     -3.972225    0.637435    3.282354
  H     -2.545790   -0.673524   -2.250346
  H     -4.001016    0.342985   -2.040525
  H     -2.920633    2.128720   -3.421489
  H     -1.482516    1.118079   -3.600784
  H     -3.015960    0.608994   -4.333635

 Total Charge           Charge          ....    0
 Multiplicity           Mult            ....    1
 Number of Electrons    NEL             ....  202
 Basis Dimension        Dim             ....  334

ORBITAL ENERGIES
----------------

  NO   OCC          E(Eh)            E(eV)
   0   2.0000     -88.043737     -2395.7919
   1   2.0000     -88.040467     -2395.7029
   2   2.0000     -87.978890     -2394.0273
   3   2.0000     -87.972983     -2393.8666
   4   2.0000     -76.420366     -2079.5039
   5   2.0000     -76.419629     -2079.4838
   6   2.0000     -18.790130      -511.3054
   7   2.0000     -18.783390      -511.1220
   8   2.0000     -18.782983      -511.1109
   9   2.0000     -18.782112      -511.0873
  10   2.0000      -9.958776      -270.9921
  11   2.0000      -9.957143      -270.9476
  12   2.0000      -9.951434      -270.7923
  13   2.0000      -9.949262      -270.7332
  14   2.0000      -9.949179      -270.7309
  15   2.0000      -9.882142      -268.9068
  16   2.0000      -9.881450      -268.8879
  17   2.0000      -9.881432      -268.8874
  18   2.0000      -9.878976      -268.8206
  19   2.0000      -7.688712      -209.2205
  20   2.0000      -7.685109      -209.1224
  21   2.0000      -7.624175      -207.4644
  22   2.0000      -7.618025      -207.2970
  23   2.0000      -6.417588      -174.6314
  24   2.0000      -6.416846      -174.6113
  25   2.0000      -5.716355      -155.5499
  26   2.0000      -5.713078      -155.4608
  27   2.0000      -5.712879      -155.4553
  28   2.0000      -5.709625      -155.3668
  29   2.0000      -5.706073      -155.2701
  30   2.0000      -5.702252      -155.1662
  31   2.0000      -5.653175      -153.8307
  32   2.0000      -5.647122      -153.6660
  33   2.0000      -5.645003      -153.6083
  34   2.0000      -5.643957      -153.5799
  35   2.0000      -5.638442      -153.4298
  36   2.0000      -5.638193      -153.4230
  37   2.0000      -4.640574      -126.2764
  38   2.0000      -4.639772      -126.2546
  39   2.0000      -4.639401      -126.2445
  40   2.0000      -4.638851      -126.2296
  41   2.0000      -4.637315      -126.1878
  42   2.0000      -4.637153      -126.1833
  43   2.0000      -0.983628       -26.7659
  44   2.0000      -0.980252       -26.6740
  45   2.0000      -0.940765       -25.5995
  46   2.0000      -0.935143       -25.4465
  47   2.0000      -0.760196       -20.6860
  48   2.0000      -0.716874       -19.5071
  49   2.0000      -0.709136       -19.2966
  50   2.0000      -0.688696       -18.7404
  51   2.0000      -0.684390       -18.6232
  52   2.0000      -0.674938       -18.3660
  53   2.0000      -0.646405       -17.5896
  54   2.0000      -0.633813       -17.2469
  55   2.0000      -0.586039       -15.9469
  56   2.0000      -0.582666       -15.8552
  57   2.0000      -0.571355       -15.5474
  58   2.0000      -0.568369       -15.4661
  59   2.0000      -0.564224       -15.3533
  60   2.0000      -0.504379       -13.7249
  61   2.0000      -0.497435       -13.5359
  62   2.0000      -0.471049       -12.8179
  63   2.0000      -0.468914       -12.7598
  64   2.0000      -0.452663       -12.3176
  65   2.0000      -0.451377       -12.2826
  66   2.0000      -0.434572       -11.8253
  67   2.0000      -0.432694       -11.7742
  68   2.0000      -0.427061       -11.6209
  69   2.0000      -0.412740       -11.2312
  70   2.0000      -0.408891       -11.1265
  71   2.0000      -0.406888       -11.0720
  72   2.0000      -0.394829       -10.7439
  73   2.0000      -0.382919       -10.4198
  74   2.0000      -0.381181       -10.3725
  75   2.0000      -0.356650        -9.7049
  76   2.0000      -0.353234        -9.6120
  77   2.0000      -0.352512        -9.5923
  78   2.0000      -0.347456        -9.4548
  79   2.0000      -0.346430        -9.4268
  80   2.0000      -0.344781        -9.3820
  81   2.0000      -0.343784        -9.3548
  82   2.0000      -0.336602        -9.1594
  83   2.0000      -0.335547        -9.1307
  84   2.0000      -0.328894        -8.9497
  85   2.0000      -0.317576        -8.6417
  86   2.0000      -0.314755        -8.5649
  87   2.0000      -0.294609        -8.0167
  88   2.0000      -0.291536        -7.9331
  89   2.0000      -0.286460        -7.7950
  90   2.0000      -0.282621        -7.6905
  91   2.0000      -0.273054        -7.4302
  92   2.0000      -0.267084        -7.2677
  93   2.0000      -0.259302        -7.0560
  94   2.0000      -0.253953        -6.9104
  95   2.0000      -0.241783        -6.5793
  96   2.0000      -0.219574        -5.9749
  97   2.0000      -0.199367        -5.4251
  98   2.0000      -0.194452        -5.2913
  99   2.0000      -0.183991        -5.0067
 100   2.0000      -0.183751        -5.0001
 101   0.0000      -0.038438        -1.0459
 102   0.0000      -0.028775        -0.7830
 103   0.0000      -0.014146        -0.3849
 104   0.0000       0.001452         0.0395
 105   0.0000       0.024081         0.6553

MULLIKEN ATOMIC CHARGES
-----------------------
   0 C :   -0.310685
   1 C :   -0.014118
   2 O :   -0.380726
   3 P :    0.598020
   4 S :   -0.305006
   5 O :   -0.338314
   6 C :   -0.016283
   7 C :   -0.283222
   8 S :   -0.126124
   9 C :   -0.341608
  10 S :   -0.110612
  11 P :    0.609909
  12 S :   -0.290949
  13 O :   -0.384683
  14 C :   -0.002663
  15 C :   -0.306179
  16 O :   -0.345146
  17 C :   -0.016238
  18 C :   -0.285716
  19 H :    0.128713
  20 H :    0.109932
  21 H :    0.128186
  22 H :    0.110142
  23 H :    0.113838
  24 H :    0.111258
  25 H :    0.093042
  26 H :    0.123194
  27 H :    0.106282
  28 H :    0.117719
  29 H :    0.195232
  30 H :    0.179569
  31 H :    0.104063
  32 H :    0.101719
  33 H :    0.107081
  34 H :    0.117269
  35 H :    0.125068
  36 H :    0.108094
  37 H :    0.105198
  38 H :    0.119837
  39 H :    0.138876
  40 H :    0.106031
Sum of atomic charges:    0.0000000

LOEWDIN ATOMIC CHARGES
----------------------
   0 C :   -0.371174
   1 C :   -0.115233
   2 O :   -0.247684
   3 P :    0.561445
   4 S :   -0.300511
   5 O :   -0.222901
   6 C :   -0.117724
   7 C :   -0.357999
   8 S :    0.058894
   9 C :   -0.483703
  10 S :    0.069430
  11 P :    0.569739
  12 S :   -0.285730
  13 O :   -0.252527
  14 C :   -0.119823
  15 C :   -0.367713
  16 O :   -0.223438
  17 C :   -0.114461
  18 C :   -0.350545
  19 H :    0.131020
  20 H :    0.129374
  21 H :    0.122078
  22 H :    0.121545
  23 H :    0.107543
  24 H :    0.119903
  25 H :    0.099825
  26 H :    0.130383
  27 H :    0.127869
  28 H :    0.125140
  29 H :    0.119609
  30 H :    0.135311
  31 H :    0.118615
  32 H :    0.101566
  33 H :    0.127597
  34 H :    0.117221
  35 H :    0.130514
  36 H :    0.106741
  37 H :    0.112486
  38 H :    0.129526
  39 H :    0.129477
  40 H :    0.128312

  Mayer bond orders larger than 0.100000
B(  0-C ,  1-C ) :   1.1673 B(  0-C , 19-H ) :   0.9415 B(  0-C , 20-H ) :   0.9338
B(  0-C , 21-H ) :   0.9314 B(  1-C ,  2-O ) :   0.9157 B(  1-C , 22-H ) :   0.9333
B(  1-C , 23-H ) :   0.9262 B(  2-O ,  3-P ) :   1.0717 B(  3-P ,  4-S ) :   1.6806
B(  3-P ,  5-O ) :   1.1413 B(  3-P ,  8-S ) :   0.9351 B(  4-S ,  8-S ) :   0.1131
B(  5-O ,  6-C ) :   0.8966 B(  6-C ,  7-C ) :   1.1679 B(  6-C , 24-H ) :   0.9301
B(  6-C , 25-H ) :   0.9098 B(  7-C , 26-H ) :   0.9472 B(  7-C , 27-H ) :   0.9402
B(  7-C , 28-H ) :   0.9431 B(  8-S ,  9-C ) :   0.9988 B(  9-C , 10-S ) :   1.0062
B(  9-C , 29-H ) :   0.8403 B(  9-C , 30-H ) :   0.9110 B( 10-S , 11-P ) :   0.9361
B( 10-S , 12-S ) :   0.1169 B( 11-P , 12-S ) :   1.6383 B( 11-P , 13-O ) :   1.0672
B( 11-P , 16-O ) :   1.1525 B( 12-S , 29-H ) :   0.1296 B( 13-O , 14-C ) :   0.9257
B( 14-C , 15-C ) :   1.1647 B( 14-C , 31-H ) :   0.9336 B( 14-C , 32-H ) :   0.9175
B( 15-C , 33-H ) :   0.9362 B( 15-C , 34-H ) :   0.9356 B( 15-C , 35-H ) :   0.9444
B( 16-O , 17-C ) :   0.8886 B( 17-C , 18-C ) :   1.1675 B( 17-C , 36-H ) :   0.9164
B( 17-C , 37-H ) :   0.9283 B( 18-C , 38-H ) :   0.9491 B( 18-C , 39-H ) :   0.9436
B( 18-C , 40-H ) :   0.9403

Dispersion correction           -0.066761714
FINAL SINGLE POINT ENERGY     -2929.509086031992

DIPOLE MOMENT
-------------

Method             : SCF
Type of density    : Electron Density
Multiplicity       :   1
Irrep              :   0
Energy             : -2929.6271516989818338 Eh
Relativity type    :
Basis              : AO
                                X                 Y                 Z
Electronic contribution:     -2.915936207       0.871263266       0.529055919
Nuclear contribution   :      3.180318203      -2.270065122      -0.087237472
                        -----------------------------------------
Total Dipole Moment    :      0.264381996      -1.398801856       0.441818447
                        -----------------------------------------
Magnitude (a.u.)       :      1.490552922
Magnitude (Debye)      :      3.788684435

Rotational constants in cm-1:             0.011522             0.005519             0.004881
Rotational constants in MHz :           345.435386           165.441710           146.329525

                             ****ORCA TERMINATED NORMALLY****
TOTAL RUN TIME: 0 days 0 hours 0 minutes 21 seconds 24 msec
