                         Program Version 6.0.0  -   RELEASE  -
|  1> ! pbe def2-sv(p) def2/J RI DEFGRID1 loosescf d4 GCP(DFT/SV(P)) printgap
|  2> %output
|  3>     printlevel normal
|  4> end
|  5> * xyz 0 1
|  6> C 5.2071759616 -0.5523407329 -2.7179313293
|  7> C 3.8502703658 -0.9552204226 -2.1778441921
|  8> O 3.5448706058 -0.0961447478 -1.0593191097
|  9> P 2.0577911527 0.0652735656 -0.5238900715
| 10> S 0.7593107634 0.5785532089 -1.8959805538
| 11> O 2.2111477566 1.1676687492 0.5832311466
| 12> C 3.228079319 1.1823906696 1.6205861766
| 13> C 2.6858894869 0.6227391329 2.9207565155
| 14> S 1.7651420229 -1.8214611249 0.41342258
| 15> C 0.1531626479 -1.5706297585 1.2029269115
| 16> S -1.2602714692 -1.5789074869 0.0593114499
| 17> P -1.969252119 0.417483031 0.3246074009
| 18> S -0.9128360539 1.5479798992 1.5185211897
| 19> O -3.4650813863 0.1793008117 0.8267388241
| 20> C -3.734295079 -0.3510723807 2.1391734226
| 21> C -5.2129545946 -0.1751104206 2.4195119646
| 22> O -2.2126369386 1.0514870683 -1.0874272637
| 23> C -2.8469742237 0.3618962981 -2.1934262906
| 24> C -4.3196950238 0.7048363266 -2.2664754362
| 25> H 5.184044352 0.4816957406 -3.0506681979
| 26> H 5.9620531857 -0.6570694258 -1.944232116
| 27> H 5.4594348119 -1.1931568769 -3.5562671381
| 28> H 3.8511755232 -1.9880984995 -1.8200856143
| 29> H 3.0650058511 -0.8356516275 -2.9315974044
| 30> H 4.0994581322 0.6272140261 1.270356547
| 31> H 3.4761299336 2.2400292634 1.7210602663
| 32> H 2.5473847511 -0.4534460047 2.8537689641
| 33> H 3.3911038155 0.8381176505 3.7171038919
| 34> H 1.7327795917 1.0940603629 3.1524185393
| 35> H 0.1514595451 -0.618249396 1.7414791844
| 36> H 0.0317371514 -2.4141701675 1.8773876669
| 37> H -3.4494572843 -1.4072618373 2.145424919
| 38> H -3.1204957713 0.1927651654 2.8649635071
| 39> H -5.4355831422 -0.5629332996 3.407994247
| 40> H -5.4766887223 0.877972528 2.3791525035
| 41> H -5.7995356897 -0.7140761765 1.6812307062
| 42> H -2.3001263287 0.7098838204 -3.07228138
| 43> H -2.6916610766 -0.7143886434 -2.0760753816
| 44> H -4.4465168835 1.7806846074 -2.350027151
| 45> H -4.750448846 0.2228313509 -3.1383820563
| 46> H -4.8310823529 0.3590710894 -1.3721240078
| 47> *
| 48>
| 49>                          ****END OF INPUT****

CARTESIAN COORDINATES (ANGSTROEM)
---------------------------------
  C      5.207176   -0.552341   -2.717931
  C      3.850270   -0.955220   -2.177844
  O      3.544871   -0.096145   -1.059319
  P      2.057791    0.065274   -0.523890
  S      0.759311    0.578553   -1.895981
  O      2.211148    1.167669    0.583231
  C      3.228079    1.182391    1.620586
  C      2.685889    0.622739    2.920757
  S      1.765142   -1.821461    0.413423
  C      0.153163   -1.570630    1.202927
  S     -1.260271   -1.578907    0.059311
  P     -1.969252    0.417483    0.324607
  S     -0.912836    1.547980    1.518521
  O     -3.465081    0.179301    0.826739
  C     -3.734295   -0.351072    2.139173
  C     -5.212955   -0.175110    2.419512
  O     -2.212637    1.051487   -1.087427
  C     -2.846974    0.361896   -2.193426
  C     -4.319695    0.704836   -2.266475
  H      5.184044    0.481696   -3.050668
  H      5.962053   -0.657069   -1.944232
  H      5.459435   -1.193157   -3.556267
  H      3.851176   -1.988098   -1.820086
  H      3.065006   -0.835652   -2.931597
  H      4.099458    0.627214    1.270357
  H      3.476130    2.240029    1.721060
  H      2.547385   -0.453446    2.853769
  H      3.391104    0.838118    3.717104
  H      1.732780    1.094060    3.152419
  H      0.151460   -0.618249    1.741479
  H      0.031737   -2.414170    1.877388
  H     -3.449457   -1.407262    2.145425
  H     -3.120496    0.192765    2.864964
  H     -5.435583   -0.562933    3.407994
  H     -5.476689    0.877973    2.379153
  H     -5.799536   -0.714076    1.681231
  H     -2.300126    0.709884   -3.072281
  H     -2.691661   -0.714389   -2.076075
  H     -4.446517    1.780685   -2.350027
  H     -4.750449    0.222831   -3.138382
  H     -4.831082    0.359071   -1.372124

 Total Charge           Charge          ....    0
 Multiplicity           Mult            ....    1
 Number of Electrons    NEL             ....  202
 Basis Dimension        Dim             ....  334

ORBITAL ENERGIES
----------------

  NO   OCC          E(Eh)            E(eV)
   0   2.0000     -88.038841     -2395.6587
   1   2.0000     -88.037430     -2395.6203
   2   2.0000     -87.980331     -2394.0665
   3   2.0000     -87.972551     -2393.8548
   4   2.0000     -76.420041     -2079.4950
   5   2.0000     -76.418680     -2079.4580
   6   2.0000     -18.788126      -511.2509
   7   2.0000     -18.785949      -511.1917
   8   2.0000     -18.784515      -511.1526
   9   2.0000     -18.783670      -511.1296
  10   2.0000      -9.954334      -270.8712
  11   2.0000      -9.952590      -270.8238
  12   2.0000      -9.952191      -270.8129
  13   2.0000      -9.951304      -270.7888
  14   2.0000      -9.948223      -270.7049
  15   2.0000      -9.887265      -269.0462
  16   2.0000      -9.886539      -269.0264
  17   2.0000      -9.882648      -268.9205
  18   2.0000      -9.881970      -268.9021
  19   2.0000      -7.684073      -209.0943
  20   2.0000      -7.682266      -209.0451
  21   2.0000      -7.625560      -207.5020
  22   2.0000      -7.617672      -207.2874
  23   2.0000      -6.417508      -174.6293
  24   2.0000      -6.416189      -174.5934
  25   2.0000      -5.711657      -155.4221
  26   2.0000      -5.710099      -155.3797
  27   2.0000      -5.708587      -155.3386
  28   2.0000      -5.706793      -155.2897
  29   2.0000      -5.701310      -155.1405
  30   2.0000      -5.699324      -155.0865
  31   2.0000      -5.654439      -153.8651
  32   2.0000      -5.646740      -153.6556
  33   2.0000      -5.646384      -153.6459
  34   2.0000      -5.645446      -153.6204
  35   2.0000      -5.638342      -153.4271
  36   2.0000      -5.637611      -153.4072
  37   2.0000      -4.640146      -126.2648
  38   2.0000      -4.639251      -126.2404
  39   2.0000      -4.639221      -126.2396
  40   2.0000      -4.638057      -126.2079
  41   2.0000      -4.637917      -126.2041
  42   2.0000      -4.636114      -126.1551
  43   2.0000      -0.983277       -26.7563
  44   2.0000      -0.982353       -26.7312
  45   2.0000      -0.939920       -25.5765
  46   2.0000      -0.938636       -25.5416
  47   2.0000      -0.757005       -20.5991
  48   2.0000      -0.717792       -19.5321
  49   2.0000      -0.710121       -19.3234
  50   2.0000      -0.688933       -18.7468
  51   2.0000      -0.688133       -18.7250
  52   2.0000      -0.672217       -18.2920
  53   2.0000      -0.643720       -17.5165
  54   2.0000      -0.630145       -17.1471
  55   2.0000      -0.587331       -15.9821
  56   2.0000      -0.580829       -15.8052
  57   2.0000      -0.571099       -15.5404
  58   2.0000      -0.567457       -15.4413
  59   2.0000      -0.561438       -15.2775
  60   2.0000      -0.507731       -13.8161
  61   2.0000      -0.501070       -13.6348
  62   2.0000      -0.477400       -12.9907
  63   2.0000      -0.473817       -12.8932
  64   2.0000      -0.450147       -12.2491
  65   2.0000      -0.443561       -12.0699
  66   2.0000      -0.436681       -11.8827
  67   2.0000      -0.434680       -11.8282
  68   2.0000      -0.431434       -11.7399
  69   2.0000      -0.424568       -11.5531
  70   2.0000      -0.404805       -11.0153
  71   2.0000      -0.386782       -10.5249
  72   2.0000      -0.383802       -10.4438
  73   2.0000      -0.381962       -10.3937
  74   2.0000      -0.378532       -10.3004
  75   2.0000      -0.363750        -9.8981
  76   2.0000      -0.362352        -9.8601
  77   2.0000      -0.353899        -9.6301
  78   2.0000      -0.351353        -9.5608
  79   2.0000      -0.350251        -9.5308
  80   2.0000      -0.346698        -9.4341
  81   2.0000      -0.343249        -9.3403
  82   2.0000      -0.339972        -9.2511
  83   2.0000      -0.337184        -9.1752
  84   2.0000      -0.331882        -9.0310
  85   2.0000      -0.315040        -8.5727
  86   2.0000      -0.311753        -8.4832
  87   2.0000      -0.299703        -8.1553
  88   2.0000      -0.296057        -8.0561
  89   2.0000      -0.290531        -7.9058
  90   2.0000      -0.283139        -7.7046
  91   2.0000      -0.270874        -7.3709
  92   2.0000      -0.267549        -7.2804
  93   2.0000      -0.256635        -6.9834
  94   2.0000      -0.253158        -6.8888
  95   2.0000      -0.237269        -6.4564
  96   2.0000      -0.217474        -5.9178
  97   2.0000      -0.201155        -5.4737
  98   2.0000      -0.197321        -5.3694
  99   2.0000      -0.185823        -5.0565
 100   2.0000      -0.181982        -4.9520
 101   0.0000      -0.035681        -0.9709
 102   0.0000      -0.027577        -0.7504
 103   0.0000      -0.009098        -0.2476
 104   0.0000       0.004671         0.1271
 105   0.0000       0.022547         0.6135

MULLIKEN ATOMIC CHARGES
-----------------------
   0 C :   -0.280774
   1 C :   -0.011460
   2 O :   -0.387370
   3 P :    0.606082
   4 S :   -0.308437
   5 O :   -0.343796
   6 C :   -0.007283
   7 C :   -0.310813
   8 S :   -0.126941
   9 C :   -0.350840
  10 S :   -0.104611
  11 P :    0.604357
  12 S :   -0.298542
  13 O :   -0.382848
  14 C :   -0.003535
  15 C :   -0.282044
  16 O :   -0.340235
  17 C :   -0.018527
  18 C :   -0.287252
  19 H :    0.123096
  20 H :    0.113533
  21 H :    0.111780
  22 H :    0.104001
  23 H :    0.104922
  24 H :    0.105899
  25 H :    0.112185
  26 H :    0.118628
  27 H :    0.108979
  28 H :    0.138724
  29 H :    0.198416
  30 H :    0.178252
  31 H :    0.091907
  32 H :    0.097986
  33 H :    0.109824
  34 H :    0.121702
  35 H :    0.115413
  36 H :    0.118041
  37 H :    0.110607
  38 H :    0.121142
  39 H :    0.108831
  40 H :    0.121000
Sum of atomic charges:    0.0000000

LOEWDIN ATOMIC CHARGES
----------------------
   0 C :   -0.350679
   1 C :   -0.120419
   2 O :   -0.252757
   3 P :    0.559086
   4 S :   -0.308860
   5 O :   -0.224818
   6 C :   -0.107786
   7 C :   -0.367452
   8 S :    0.054896
   9 C :   -0.483866
  10 S :    0.064831
  11 P :    0.571177
  12 S :   -0.290102
  13 O :   -0.255164
  14 C :   -0.125065
  15 C :   -0.350517
  16 O :   -0.219366
  17 C :   -0.109827
  18 C :   -0.359684
  19 H :    0.130318
  20 H :    0.125282
  21 H :    0.130858
  22 H :    0.108520
  23 H :    0.109198
  24 H :    0.110435
  25 H :    0.123767
  26 H :    0.117461
  27 H :    0.129290
  28 H :    0.130670
  29 H :    0.119606
  30 H :    0.135774
  31 H :    0.102332
  32 H :    0.105527
  33 H :    0.129712
  34 H :    0.129234
  35 H :    0.125059
  36 H :    0.123144
  37 H :    0.106086
  38 H :    0.129789
  39 H :    0.129059
  40 H :    0.125249

  Mayer bond orders larger than 0.100000
B(  0-C ,  1-C ) :   1.1610 B(  0-C , 19-H ) :   0.9505 B(  0-C , 20-H ) :   0.9514
B(  0-C , 21-H ) :   0.9418 B(  1-C ,  2-O ) :   0.9058 B(  1-C , 22-H ) :   0.9296
B(  1-C , 23-H ) :   0.9062 B(  2-O ,  3-P ) :   1.0739 B(  3-P ,  4-S ) :   1.6744
B(  3-P ,  5-O ) :   1.1505 B(  3-P ,  8-S ) :   0.9447 B(  4-S ,  8-S ) :   0.1135
B(  5-O ,  6-C ) :   0.8944 B(  6-C ,  7-C ) :   1.1712 B(  6-C , 24-H ) :   0.9196
B(  6-C , 25-H ) :   0.9348 B(  7-C , 26-H ) :   0.9323 B(  7-C , 27-H ) :   0.9378
B(  7-C , 28-H ) :   0.9346 B(  8-S ,  9-C ) :   0.9898 B(  9-C , 10-S ) :   1.0101
B(  9-C , 29-H ) :   0.8399 B(  9-C , 30-H ) :   0.9119 B( 10-S , 11-P ) :   0.9429
B( 10-S , 12-S ) :   0.1168 B( 11-P , 12-S ) :   1.6299 B( 11-P , 13-O ) :   1.0626
B( 11-P , 16-O ) :   1.1632 B( 12-S , 29-H ) :   0.1198 B( 13-O , 14-C ) :   0.9143
B( 14-C , 15-C ) :   1.1603 B( 14-C , 31-H ) :   0.9208 B( 14-C , 32-H ) :   0.9100
B( 15-C , 33-H ) :   0.9424 B( 15-C , 34-H ) :   0.9513 B( 15-C , 35-H ) :   0.9513
B( 16-O , 17-C ) :   0.8896 B( 17-C , 18-C ) :   1.1637 B( 17-C , 36-H ) :   0.9324
B( 17-C , 37-H ) :   0.9163 B( 18-C , 38-H ) :   0.9467 B( 18-C , 39-H ) :   0.9397
B( 18-C , 40-H ) :   0.9400

Dispersion correction           -0.065173319
FINAL SINGLE POINT ENERGY     -2929.512847774231

DIPOLE MOMENT
-------------

Method             : SCF
Type of density    : Electron Density
Multiplicity       :   1
Irrep              :   0
Energy             : -2929.6317207388588031 Eh
Relativity type    :
Basis              : AO
                                X                 Y                 Z
Electronic contribution:      3.366848075       1.230083370      -3.027953463
Nuclear contribution   :     -3.230836389      -2.362598003       3.448554948
                        -----------------------------------------
Total Dipole Moment    :      0.136011686      -1.132514633       0.420601485
                        -----------------------------------------
Magnitude (a.u.)       :      1.215727840
Magnitude (Debye)      :      3.090134593

Rotational constants in cm-1:             0.013053             0.004983             0.004382
Rotational constants in MHz :           391.327863           149.373899           131.355368

                             ****ORCA TERMINATED NORMALLY****
TOTAL RUN TIME: 0 days 0 hours 0 minutes 21 seconds 78 msec
