                         Program Version 6.0.0  -   RELEASE  -
|  1> ! r2scan-3c def2/J RI DEFGRID2 scfconv6 printgap
|  2> %output
|  3>     printlevel normal
|  4> end
|  5> * xyz 0 1
|  6> C 6.0897117643 0.168810356 -1.5247938276
|  7> C 4.6874960927 0.6466961198 -1.2068838109
|  8> O 3.9730783346 -0.4533480211 -0.6043447224
|  9> P 2.6383482437 -0.1963881456 0.1971499427
| 10> S 2.7290541512 1.1502497614 1.624358272
| 11> O 2.4463375539 -1.6940912775 0.6585179357
| 12> C 1.4278863783 -2.1124423026 1.5881216645
| 13> C 0.3380788431 -2.8785467271 0.8632094969
| 14> S 1.2122565293 0.2234493003 -1.3366280351
| 15> C 0.2026647505 1.432381921 -0.433882743
| 16> S -0.8591897963 0.6976753991 0.8362087566
| 17> P -2.4638173413 0.1420611425 -0.4673672754
| 18> S -2.0314526536 -1.0985031227 -1.915823461
| 19> O -3.0089648958 1.5162106584 -1.0134428232
| 20> C -3.5405240894 2.5664973159 -0.164039142
| 21> C -5.0473548269 2.4596716576 -0.0560373816
| 22> O -3.604695212 -0.3401329491 0.5243075297
| 23> C -3.5993192116 -1.6484379518 1.1280552657
| 24> C -2.9710506559 -1.6048692189 2.5072259962
| 25> H 6.5972422092 -0.1291132196 -0.6118385782
| 26> H 6.0454973251 -0.6838178949 -2.1960186665
| 27> H 6.6424435579 0.9735776776 -1.998206219
| 28> H 4.1537062162 0.9476818096 -2.1130657987
| 29> H 4.7010978934 1.4854198794 -0.5018405539
| 30> H 1.9441767163 -2.7542311413 2.3049773843
| 31> H 1.0292858332 -1.2362337289 2.1121335975
| 32> H 0.7742450474 -3.705911048 0.3108731102
| 33> H -0.3715921606 -3.2644253182 1.5878215405
| 34> H -0.1861422368 -2.2384460019 0.1551298559
| 35> H -0.4091688722 1.9367906519 -1.1784152406
| 36> H 0.8606766627 2.1278932008 0.0873788166
| 37> H -3.0666703835 2.5027668598 0.8190326129
| 38> H -3.244263958 3.4925794802 -0.6603933641
| 39> H -5.4214859326 3.3027726268 0.5164515076
| 40> H -5.4932152033 2.4726803509 -1.0468826281
| 41> H -5.3261151467 1.5351842993 0.4416099995
| 42> H -4.6520773804 -1.9315314214 1.1822400961
| 43> H -3.0718414992 -2.3411395717 0.4644764407
| 44> H -3.0148032508 -2.5948728421 2.9495862263
| 45> H -1.9329395388 -1.2857147057 2.444335021
| 46> H -3.5101769593 -0.9065843549 3.1409315366
| 47> *
| 48>
| 49>                          ****END OF INPUT****

CARTESIAN COORDINATES (ANGSTROEM)
---------------------------------
  C      6.089712    0.168810   -1.524794
  C      4.687496    0.646696   -1.206884
  O      3.973078   -0.453348   -0.604345
  P      2.638348   -0.196388    0.197150
  S      2.729054    1.150250    1.624358
  O      2.446338   -1.694091    0.658518
  C      1.427886   -2.112442    1.588122
  C      0.338079   -2.878547    0.863209
  S      1.212257    0.223449   -1.336628
  C      0.202665    1.432382   -0.433883
  S     -0.859190    0.697675    0.836209
  P     -2.463817    0.142061   -0.467367
  S     -2.031453   -1.098503   -1.915823
  O     -3.008965    1.516211   -1.013443
  C     -3.540524    2.566497   -0.164039
  C     -5.047355    2.459672   -0.056037
  O     -3.604695   -0.340133    0.524308
  C     -3.599319   -1.648438    1.128055
  C     -2.971051   -1.604869    2.507226
  H      6.597242   -0.129113   -0.611839
  H      6.045497   -0.683818   -2.196019
  H      6.642444    0.973578   -1.998206
  H      4.153706    0.947682   -2.113066
  H      4.701098    1.485420   -0.501841
  H      1.944177   -2.754231    2.304977
  H      1.029286   -1.236234    2.112134
  H      0.774245   -3.705911    0.310873
  H     -0.371592   -3.264425    1.587822
  H     -0.186142   -2.238446    0.155130
  H     -0.409169    1.936791   -1.178415
  H      0.860677    2.127893    0.087379
  H     -3.066670    2.502767    0.819033
  H     -3.244264    3.492579   -0.660393
  H     -5.421486    3.302773    0.516452
  H     -5.493215    2.472680   -1.046883
  H     -5.326115    1.535184    0.441610
  H     -4.652077   -1.931531    1.182240
  H     -3.071841   -2.341140    0.464476
  H     -3.014803   -2.594873    2.949586
  H     -1.932940   -1.285715    2.444335
  H     -3.510177   -0.906584    3.140932

 Total Charge           Charge          ....    0
 Multiplicity           Mult            ....    1
 Number of Electrons    NEL             ....  202
 Basis Dimension        Dim             ....  539

ORBITAL ENERGIES
----------------

  NO   OCC          E(Eh)            E(eV)
   0   2.0000     -88.577836     -2410.3255
   1   2.0000     -88.573127     -2410.1973
   2   2.0000     -88.520353     -2408.7613
   3   2.0000     -88.520081     -2408.7539
   4   2.0000     -76.917870     -2093.0417
   5   2.0000     -76.910966     -2092.8538
   6   2.0000     -19.001556      -517.0586
   7   2.0000     -18.998802      -516.9837
   8   2.0000     -18.989583      -516.7328
   9   2.0000     -18.987419      -516.6739
  10   2.0000     -10.107757      -275.0460
  11   2.0000     -10.107697      -275.0444
  12   2.0000     -10.107541      -275.0402
  13   2.0000     -10.096703      -274.7453
  14   2.0000     -10.094739      -274.6918
  15   2.0000     -10.039773      -273.1961
  16   2.0000     -10.035570      -273.0817
  17   2.0000     -10.030139      -272.9340
  18   2.0000     -10.021148      -272.6893
  19   2.0000      -7.872008      -214.2082
  20   2.0000      -7.866864      -214.0683
  21   2.0000      -7.815214      -212.6628
  22   2.0000      -7.814691      -212.6485
  23   2.0000      -6.596276      -179.4938
  24   2.0000      -6.589729      -179.3156
  25   2.0000      -5.818725      -158.3355
  26   2.0000      -5.815821      -158.2565
  27   2.0000      -5.813786      -158.2012
  28   2.0000      -5.810622      -158.1151
  29   2.0000      -5.809339      -158.0802
  30   2.0000      -5.804136      -157.9386
  31   2.0000      -5.762721      -156.8116
  32   2.0000      -5.762493      -156.8054
  33   2.0000      -5.755660      -156.6195
  34   2.0000      -5.755168      -156.6061
  35   2.0000      -5.755061      -156.6032
  36   2.0000      -5.754486      -156.5875
  37   2.0000      -4.742304      -129.0447
  38   2.0000      -4.741333      -129.0182
  39   2.0000      -4.739372      -128.9649
  40   2.0000      -4.735059      -128.8475
  41   2.0000      -4.734821      -128.8410
  42   2.0000      -4.733410      -128.8026
  43   2.0000      -1.058872       -28.8134
  44   2.0000      -1.050753       -28.5924
  45   2.0000      -1.019027       -27.7291
  46   2.0000      -1.007827       -27.4244
  47   2.0000      -0.800230       -21.7754
  48   2.0000      -0.762546       -20.7499
  49   2.0000      -0.753998       -20.5173
  50   2.0000      -0.743134       -20.2217
  51   2.0000      -0.726409       -19.7666
  52   2.0000      -0.710044       -19.3213
  53   2.0000      -0.685272       -18.6472
  54   2.0000      -0.669042       -18.2056
  55   2.0000      -0.631053       -17.1718
  56   2.0000      -0.625724       -17.0268
  57   2.0000      -0.613980       -16.7073
  58   2.0000      -0.595678       -16.2092
  59   2.0000      -0.590451       -16.0670
  60   2.0000      -0.536096       -14.5879
  61   2.0000      -0.527660       -14.3584
  62   2.0000      -0.507027       -13.7969
  63   2.0000      -0.494171       -13.4471
  64   2.0000      -0.482137       -13.1196
  65   2.0000      -0.469724       -12.7818
  66   2.0000      -0.457849       -12.4587
  67   2.0000      -0.455279       -12.3888
  68   2.0000      -0.449481       -12.2310
  69   2.0000      -0.433946       -11.8083
  70   2.0000      -0.423316       -11.5190
  71   2.0000      -0.415701       -11.3118
  72   2.0000      -0.411845       -11.2069
  73   2.0000      -0.406249       -11.0546
  74   2.0000      -0.395458       -10.7610
  75   2.0000      -0.387488       -10.5441
  76   2.0000      -0.381566       -10.3829
  77   2.0000      -0.378922       -10.3110
  78   2.0000      -0.376741       -10.2517
  79   2.0000      -0.370353       -10.0778
  80   2.0000      -0.369482       -10.0541
  81   2.0000      -0.363454        -9.8901
  82   2.0000      -0.358445        -9.7538
  83   2.0000      -0.349020        -9.4973
  84   2.0000      -0.346763        -9.4359
  85   2.0000      -0.339881        -9.2486
  86   2.0000      -0.328244        -8.9320
  87   2.0000      -0.317255        -8.6329
  88   2.0000      -0.314918        -8.5693
  89   2.0000      -0.313452        -8.5295
  90   2.0000      -0.305400        -8.3104
  91   2.0000      -0.294282        -8.0078
  92   2.0000      -0.282406        -7.6847
  93   2.0000      -0.280571        -7.6347
  94   2.0000      -0.272200        -7.4070
  95   2.0000      -0.254320        -6.9204
  96   2.0000      -0.229783        -6.2527
  97   2.0000      -0.224706        -6.1146
  98   2.0000      -0.220003        -5.9866
  99   2.0000      -0.214831        -5.8458
 100   2.0000      -0.206363        -5.6154
 101   0.0000      -0.045061        -1.2262
 102   0.0000      -0.030470        -0.8291
 103   0.0000      -0.008584        -0.2336
 104   0.0000       0.002625         0.0714
 105   0.0000       0.006251         0.1701

MULLIKEN ATOMIC CHARGES
-----------------------
   0 C :   -0.437474
   1 C :   -0.148038
   2 O :   -0.305084
   3 P :    0.705847
   4 S :   -0.475866
   5 O :   -0.286605
   6 C :   -0.122200
   7 C :   -0.463918
   8 S :   -0.112532
   9 C :   -0.237599
  10 S :   -0.194996
  11 P :    0.652093
  12 S :   -0.397180
  13 O :   -0.302212
  14 C :   -0.106294
  15 C :   -0.461241
  16 O :   -0.285007
  17 C :   -0.162772
  18 C :   -0.432625
  19 H :    0.157772
  20 H :    0.154577
  21 H :    0.145048
  22 H :    0.154367
  23 H :    0.165389
  24 H :    0.149960
  25 H :    0.162451
  26 H :    0.153095
  27 H :    0.141453
  28 H :    0.187249
  29 H :    0.197290
  30 H :    0.221246
  31 H :    0.166984
  32 H :    0.151590
  33 H :    0.147656
  34 H :    0.158678
  35 H :    0.166589
  36 H :    0.153739
  37 H :    0.174469
  38 H :    0.151269
  39 H :    0.155474
  40 H :    0.157360
Sum of atomic charges:   -0.0000000

LOEWDIN ATOMIC CHARGES
----------------------
   0 C :   -0.384716
   1 C :    0.020113
   2 O :   -0.652478
   3 P :    0.380948
   4 S :   -0.133973
   5 O :   -0.641627
   6 C :    0.021118
   7 C :   -0.408721
   8 S :    0.147988
   9 C :   -0.423288
  10 S :    0.113729
  11 P :    0.371107
  12 S :   -0.085679
  13 O :   -0.660095
  14 C :    0.023155
  15 C :   -0.392170
  16 O :   -0.669545
  17 C :    0.022509
  18 C :   -0.401076
  19 H :    0.161675
  20 H :    0.160621
  21 H :    0.159342
  22 H :    0.172595
  23 H :    0.178910
  24 H :    0.177268
  25 H :    0.178263
  26 H :    0.160861
  27 H :    0.156397
  28 H :    0.171088
  29 H :    0.187602
  30 H :    0.194751
  31 H :    0.177830
  32 H :    0.179604
  33 H :    0.159500
  34 H :    0.162189
  35 H :    0.166857
  36 H :    0.180342
  37 H :    0.182722
  38 H :    0.161394
  39 H :    0.162570
  40 H :    0.160320

  Mayer bond orders larger than 0.100000
B(  0-C ,  1-C ) :   0.9610 B(  0-C , 19-H ) :   0.9715 B(  0-C , 20-H ) :   0.9712
B(  0-C , 21-H ) :   0.9644 B(  1-C ,  2-O ) :   0.7804 B(  1-C , 22-H ) :   0.9438
B(  1-C , 23-H ) :   0.9525 B(  2-O ,  3-P ) :   1.1445 B(  3-P ,  4-S ) :   1.7448
B(  3-P ,  5-O ) :   1.1533 B(  3-P ,  8-S ) :   1.0193 B(  5-O ,  6-C ) :   0.7630
B(  6-C ,  7-C ) :   0.9309 B(  6-C , 24-H ) :   0.9649 B(  6-C , 25-H ) :   0.9681
B(  7-C , 26-H ) :   0.9670 B(  7-C , 27-H ) :   0.9657 B(  7-C , 28-H ) :   0.9509
B(  8-S ,  9-C ) :   0.9282 B(  9-C , 10-S ) :   0.8802 B(  9-C , 29-H ) :   0.9186
B(  9-C , 30-H ) :   0.9085 B( 10-S , 11-P ) :   0.9714 B( 11-P , 12-S ) :   1.9014
B( 11-P , 13-O ) :   1.1367 B( 11-P , 16-O ) :   1.0336 B( 13-O , 14-C ) :   0.7542
B( 14-C , 15-C ) :   0.9461 B( 14-C , 31-H ) :   0.9638 B( 14-C , 32-H ) :   0.9583
B( 15-C , 33-H ) :   0.9649 B( 15-C , 34-H ) :   0.9704 B( 15-C , 35-H ) :   0.9677
B( 16-O , 17-C ) :   0.7707 B( 17-C , 18-C ) :   0.9355 B( 17-C , 36-H ) :   0.9652
B( 17-C , 37-H ) :   0.9589 B( 18-C , 38-H ) :   0.9662 B( 18-C , 39-H ) :   0.9560
B( 18-C , 40-H ) :   0.9700

Dispersion correction           -0.021283166
FINAL SINGLE POINT ENERGY     -2932.462869925474

DIPOLE MOMENT
-------------

Method             : SCF
Type of density    : Electron Density
Multiplicity       :   1
Irrep              :   0
Energy             : -2932.4879553094647235 Eh
Relativity type    :
Basis              : AO
                                X                 Y                 Z
Electronic contribution:      5.863229662       2.562884484      -7.313519472
Nuclear contribution   :     -6.711518977      -2.146805378       7.960609235
                        -----------------------------------------
Total Dipole Moment    :     -0.848289315       0.416079106       0.647089762
                        -----------------------------------------
Magnitude (a.u.)       :      1.145181970
Magnitude (Debye)      :      2.910821242

Rotational constants in cm-1:             0.013587             0.004396             0.004106
Rotational constants in MHz :           407.313985           131.789612           123.084212

                             ****ORCA TERMINATED NORMALLY****
TOTAL RUN TIME: 0 days 0 hours 1 minutes 18 seconds 116 msec
