                         Program Version 6.0.0  -   RELEASE  -
|  1> ! r2scan-3c def2/J RI DEFGRID2 scfconv6 printgap
|  2> %output
|  3>     printlevel normal
|  4> end
|  5> %cpcm
|  6>     smd true
|  7>     smdsolvent "water"
|  8> end
|  9> * xyz 0 1
| 10> C 6.0897117643 0.168810356 -1.5247938276
| 11> C 4.6874960927 0.6466961198 -1.2068838109
| 12> O 3.9730783346 -0.4533480211 -0.6043447224
| 13> P 2.6383482437 -0.1963881456 0.1971499427
| 14> S 2.7290541512 1.1502497614 1.624358272
| 15> O 2.4463375539 -1.6940912775 0.6585179357
| 16> C 1.4278863783 -2.1124423026 1.5881216645
| 17> C 0.3380788431 -2.8785467271 0.8632094969
| 18> S 1.2122565293 0.2234493003 -1.3366280351
| 19> C 0.2026647505 1.432381921 -0.433882743
| 20> S -0.8591897963 0.6976753991 0.8362087566
| 21> P -2.4638173413 0.1420611425 -0.4673672754
| 22> S -2.0314526536 -1.0985031227 -1.915823461
| 23> O -3.0089648958 1.5162106584 -1.0134428232
| 24> C -3.5405240894 2.5664973159 -0.164039142
| 25> C -5.0473548269 2.4596716576 -0.0560373816
| 26> O -3.604695212 -0.3401329491 0.5243075297
| 27> C -3.5993192116 -1.6484379518 1.1280552657
| 28> C -2.9710506559 -1.6048692189 2.5072259962
| 29> H 6.5972422092 -0.1291132196 -0.6118385782
| 30> H 6.0454973251 -0.6838178949 -2.1960186665
| 31> H 6.6424435579 0.9735776776 -1.998206219
| 32> H 4.1537062162 0.9476818096 -2.1130657987
| 33> H 4.7010978934 1.4854198794 -0.5018405539
| 34> H 1.9441767163 -2.7542311413 2.3049773843
| 35> H 1.0292858332 -1.2362337289 2.1121335975
| 36> H 0.7742450474 -3.705911048 0.3108731102
| 37> H -0.3715921606 -3.2644253182 1.5878215405
| 38> H -0.1861422368 -2.2384460019 0.1551298559
| 39> H -0.4091688722 1.9367906519 -1.1784152406
| 40> H 0.8606766627 2.1278932008 0.0873788166
| 41> H -3.0666703835 2.5027668598 0.8190326129
| 42> H -3.244263958 3.4925794802 -0.6603933641
| 43> H -5.4214859326 3.3027726268 0.5164515076
| 44> H -5.4932152033 2.4726803509 -1.0468826281
| 45> H -5.3261151467 1.5351842993 0.4416099995
| 46> H -4.6520773804 -1.9315314214 1.1822400961
| 47> H -3.0718414992 -2.3411395717 0.4644764407
| 48> H -3.0148032508 -2.5948728421 2.9495862263
| 49> H -1.9329395388 -1.2857147057 2.444335021
| 50> H -3.5101769593 -0.9065843549 3.1409315366
| 51> *
| 52>
| 53>                          ****END OF INPUT****

CARTESIAN COORDINATES (ANGSTROEM)
---------------------------------
  C      6.089712    0.168810   -1.524794
  C      4.687496    0.646696   -1.206884
  O      3.973078   -0.453348   -0.604345
  P      2.638348   -0.196388    0.197150
  S      2.729054    1.150250    1.624358
  O      2.446338   -1.694091    0.658518
  C      1.427886   -2.112442    1.588122
  C      0.338079   -2.878547    0.863209
  S      1.212257    0.223449   -1.336628
  C      0.202665    1.432382   -0.433883
  S     -0.859190    0.697675    0.836209
  P     -2.463817    0.142061   -0.467367
  S     -2.031453   -1.098503   -1.915823
  O     -3.008965    1.516211   -1.013443
  C     -3.540524    2.566497   -0.164039
  C     -5.047355    2.459672   -0.056037
  O     -3.604695   -0.340133    0.524308
  C     -3.599319   -1.648438    1.128055
  C     -2.971051   -1.604869    2.507226
  H      6.597242   -0.129113   -0.611839
  H      6.045497   -0.683818   -2.196019
  H      6.642444    0.973578   -1.998206
  H      4.153706    0.947682   -2.113066
  H      4.701098    1.485420   -0.501841
  H      1.944177   -2.754231    2.304977
  H      1.029286   -1.236234    2.112134
  H      0.774245   -3.705911    0.310873
  H     -0.371592   -3.264425    1.587822
  H     -0.186142   -2.238446    0.155130
  H     -0.409169    1.936791   -1.178415
  H      0.860677    2.127893    0.087379
  H     -3.066670    2.502767    0.819033
  H     -3.244264    3.492579   -0.660393
  H     -5.421486    3.302773    0.516452
  H     -5.493215    2.472680   -1.046883
  H     -5.326115    1.535184    0.441610
  H     -4.652077   -1.931531    1.182240
  H     -3.071841   -2.341140    0.464476
  H     -3.014803   -2.594873    2.949586
  H     -1.932940   -1.285715    2.444335
  H     -3.510177   -0.906584    3.140932

 Total Charge           Charge          ....    0
 Multiplicity           Mult            ....    1
 Number of Electrons    NEL             ....  202
 Basis Dimension        Dim             ....  539

ORBITAL ENERGIES
----------------

  NO   OCC          E(Eh)            E(eV)
   0   2.0000     -88.578553     -2410.3450
   1   2.0000     -88.577667     -2410.3209
   2   2.0000     -88.530502     -2409.0374
   3   2.0000     -88.528022     -2408.9699
   4   2.0000     -76.920519     -2093.1137
   5   2.0000     -76.919318     -2093.0810
   6   2.0000     -18.997995      -516.9617
   7   2.0000     -18.997242      -516.9412
   8   2.0000     -18.996567      -516.9229
   9   2.0000     -18.995537      -516.8948
  10   2.0000     -10.104803      -274.9657
  11   2.0000     -10.092256      -274.6243
  12   2.0000     -10.092135      -274.6209
  13   2.0000     -10.091080      -274.5922
  14   2.0000     -10.091002      -274.5901
  15   2.0000     -10.020221      -272.6641
  16   2.0000     -10.019792      -272.6524
  17   2.0000     -10.018460      -272.6162
  18   2.0000     -10.015633      -272.5392
  19   2.0000      -7.872328      -214.2169
  20   2.0000      -7.871835      -214.2035
  21   2.0000      -7.825610      -212.9457
  22   2.0000      -7.823048      -212.8759
  23   2.0000      -6.598924      -179.5658
  24   2.0000      -6.598183      -179.5457
  25   2.0000      -5.819246      -158.3497
  26   2.0000      -5.818597      -158.3321
  27   2.0000      -5.816075      -158.2634
  28   2.0000      -5.815677      -158.2526
  29   2.0000      -5.809637      -158.0882
  30   2.0000      -5.809096      -158.0735
  31   2.0000      -5.773067      -157.0931
  32   2.0000      -5.770715      -157.0291
  33   2.0000      -5.765998      -156.9008
  34   2.0000      -5.765625      -156.8906
  35   2.0000      -5.763366      -156.8292
  36   2.0000      -5.762952      -156.8179
  37   2.0000      -4.744869      -129.1145
  38   2.0000      -4.743956      -129.0896
  39   2.0000      -4.743516      -129.0776
  40   2.0000      -4.743278      -129.0712
  41   2.0000      -4.742190      -129.0415
  42   2.0000      -4.741868      -129.0328
  43   2.0000      -1.058300       -28.7978
  44   2.0000      -1.055914       -28.7329
  45   2.0000      -1.015348       -27.6290
  46   2.0000      -1.014483       -27.6055
  47   2.0000      -0.800602       -21.7855
  48   2.0000      -0.757356       -20.6087
  49   2.0000      -0.748297       -20.3622
  50   2.0000      -0.727746       -19.8030
  51   2.0000      -0.721181       -19.6243
  52   2.0000      -0.709183       -19.2979
  53   2.0000      -0.688230       -18.7277
  54   2.0000      -0.675280       -18.3753
  55   2.0000      -0.627914       -17.0864
  56   2.0000      -0.620432       -16.8828
  57   2.0000      -0.602980       -16.4079
  58   2.0000      -0.591953       -16.1079
  59   2.0000      -0.586883       -15.9699
  60   2.0000      -0.531044       -14.4504
  61   2.0000      -0.524555       -14.2739
  62   2.0000      -0.498283       -13.5590
  63   2.0000      -0.496092       -13.4994
  64   2.0000      -0.479192       -13.0395
  65   2.0000      -0.463413       -12.6101
  66   2.0000      -0.454147       -12.3580
  67   2.0000      -0.450523       -12.2594
  68   2.0000      -0.442465       -12.0401
  69   2.0000      -0.430166       -11.7054
  70   2.0000      -0.418220       -11.3803
  71   2.0000      -0.413660       -11.2563
  72   2.0000      -0.405538       -11.0353
  73   2.0000      -0.400322       -10.8933
  74   2.0000      -0.393949       -10.7199
  75   2.0000      -0.384282       -10.4568
  76   2.0000      -0.376424       -10.2430
  77   2.0000      -0.370656       -10.0861
  78   2.0000      -0.366515        -9.9734
  79   2.0000      -0.363089        -9.8802
  80   2.0000      -0.355883        -9.6841
  81   2.0000      -0.355507        -9.6738
  82   2.0000      -0.351917        -9.5761
  83   2.0000      -0.345737        -9.4080
  84   2.0000      -0.342460        -9.3188
  85   2.0000      -0.334875        -9.1124
  86   2.0000      -0.325787        -8.8651
  87   2.0000      -0.316033        -8.5997
  88   2.0000      -0.306955        -8.3527
  89   2.0000      -0.304582        -8.2881
  90   2.0000      -0.303081        -8.2473
  91   2.0000      -0.288104        -7.8397
  92   2.0000      -0.283978        -7.7274
  93   2.0000      -0.280417        -7.6305
  94   2.0000      -0.276658        -7.5282
  95   2.0000      -0.256978        -6.9927
  96   2.0000      -0.236038        -6.4229
  97   2.0000      -0.234644        -6.3850
  98   2.0000      -0.229778        -6.2526
  99   2.0000      -0.221512        -6.0277
 100   2.0000      -0.215547        -5.8653
 101   0.0000      -0.050288        -1.3684
 102   0.0000      -0.035590        -0.9684
 103   0.0000      -0.009626        -0.2619
 104   0.0000      -0.000668        -0.0182
 105   0.0000       0.000053         0.0014

MULLIKEN ATOMIC CHARGES
-----------------------
   0 C :   -0.479666
   1 C :   -0.138876
   2 O :   -0.336712
   3 P :    0.723449
   4 S :   -0.513331
   5 O :   -0.319917
   6 C :   -0.115244
   7 C :   -0.498690
   8 S :   -0.132365
   9 C :   -0.242958
  10 S :   -0.197318
  11 P :    0.684001
  12 S :   -0.471057
  13 O :   -0.326900
  14 C :   -0.094702
  15 C :   -0.501749
  16 O :   -0.304587
  17 C :   -0.150536
  18 C :   -0.462452
  19 H :    0.166269
  20 H :    0.165979
  21 H :    0.169665
  22 H :    0.172092
  23 H :    0.170779
  24 H :    0.175062
  25 H :    0.165741
  26 H :    0.165663
  27 H :    0.174098
  28 H :    0.173241
  29 H :    0.233446
  30 H :    0.235109
  31 H :    0.175078
  32 H :    0.177743
  33 H :    0.171495
  34 H :    0.167064
  35 H :    0.170344
  36 H :    0.177847
  37 H :    0.172128
  38 H :    0.173316
  39 H :    0.155012
  40 H :    0.172438
Sum of atomic charges:   -0.0000000

LOEWDIN ATOMIC CHARGES
----------------------
   0 C :   -0.388510
   1 C :    0.025234
   2 O :   -0.672138
   3 P :    0.381741
   4 S :   -0.160097
   5 O :   -0.662186
   6 C :    0.025748
   7 C :   -0.411488
   8 S :    0.137688
   9 C :   -0.414340
  10 S :    0.119379
  11 P :    0.379330
  12 S :   -0.139167
  13 O :   -0.674621
  14 C :    0.031722
  15 C :   -0.395939
  16 O :   -0.673269
  17 C :    0.028578
  18 C :   -0.401435
  19 H :    0.162988
  20 H :    0.163406
  21 H :    0.169178
  22 H :    0.180148
  23 H :    0.181598
  24 H :    0.187724
  25 H :    0.180477
  26 H :    0.162627
  27 H :    0.169704
  28 H :    0.164811
  29 H :    0.200228
  30 H :    0.199833
  31 H :    0.182587
  32 H :    0.190567
  33 H :    0.169095
  34 H :    0.163438
  35 H :    0.165990
  36 H :    0.190583
  37 H :    0.182651
  38 H :    0.170458
  39 H :    0.161464
  40 H :    0.164216

  Mayer bond orders larger than 0.100000
B(  0-C ,  1-C ) :   0.9551 B(  0-C , 19-H ) :   0.9699 B(  0-C , 20-H ) :   0.9688
B(  0-C , 21-H ) :   0.9581 B(  1-C ,  2-O ) :   0.7741 B(  1-C , 22-H ) :   0.9354
B(  1-C , 23-H ) :   0.9475 B(  2-O ,  3-P ) :   1.1466 B(  3-P ,  4-S ) :   1.7238
B(  3-P ,  5-O ) :   1.1516 B(  3-P ,  8-S ) :   1.0357 B(  5-O ,  6-C ) :   0.7520
B(  6-C ,  7-C ) :   0.9279 B(  6-C , 24-H ) :   0.9548 B(  6-C , 25-H ) :   0.9606
B(  7-C , 26-H ) :   0.9677 B(  7-C , 27-H ) :   0.9584 B(  7-C , 28-H ) :   0.9554
B(  8-S ,  9-C ) :   0.9177 B(  9-C , 10-S ) :   0.8757 B(  9-C , 29-H ) :   0.9061
B(  9-C , 30-H ) :   0.9059 B( 10-S , 11-P ) :   0.9826 B( 11-P , 12-S ) :   1.8526
B( 11-P , 13-O ) :   1.1516 B( 11-P , 16-O ) :   1.0513 B( 13-O , 14-C ) :   0.7439
B( 14-C , 15-C ) :   0.9330 B( 14-C , 31-H ) :   0.9569 B( 14-C , 32-H ) :   0.9499
B( 15-C , 33-H ) :   0.9587 B( 15-C , 34-H ) :   0.9695 B( 15-C , 35-H ) :   0.9671
B( 16-O , 17-C ) :   0.7617 B( 17-C , 18-C ) :   0.9355 B( 17-C , 36-H ) :   0.9545
B( 17-C , 37-H ) :   0.9558 B( 18-C , 38-H ) :   0.9594 B( 18-C , 39-H ) :   0.9531
B( 18-C , 40-H ) :   0.9692

Dispersion correction           -0.021283166
FINAL SINGLE POINT ENERGY     -2932.473492605129

DIPOLE MOMENT
-------------

Method             : SCF
Type of density    : Electron Density
Multiplicity       :   1
Irrep              :   0
Energy             : -2932.4985779891189850 Eh
Relativity type    :
Basis              : AO
                                X                 Y                 Z
Electronic contribution:      5.544804950       2.913702114      -6.887917175
Nuclear contribution   :     -6.711518977      -2.146805378       7.960609235
                        -----------------------------------------
Total Dipole Moment    :     -1.166714026       0.766896736       1.072692059
                        -----------------------------------------
Magnitude (a.u.)       :      1.760687501
Magnitude (Debye)      :      4.475311970

Rotational constants in cm-1:             0.013587             0.004396             0.004106
Rotational constants in MHz :           407.313985           131.789612           123.084212

                             ****ORCA TERMINATED NORMALLY****
TOTAL RUN TIME: 0 days 0 hours 1 minutes 52 seconds 42 msec
