                         Program Version 6.0.1  -  RELEASE   -
|  1> ! wb97x-v def2-tzvp def2/J RIJCOSX DEFGRID2 scfconv7 GCP(DFT/TZ) printgap
|  2> %output
|  3>     printlevel normal
|  4> end
|  5> * xyz 0 1
|  6> C 5.3270374420026085 -2.71742499939395 -0.7727503513114172
|  7> C 4.733942546322192 -2.1468131935681787 -2.039035462903082
|  8> O 3.2697656753456212 -2.2540818618221667 -2.0181437463606358
|  9> C 2.602095763658687 -1.3024267538874725 -1.3562952644207054
| 10> O 3.120246311114778 -0.34152139500950274 -0.8132185395673226
| 11> C 1.1179365312392542 -1.5693683743217495 -1.368323048757895
| 12> C 0.3818483843120384 -0.4815512751655176 -0.5999131209301628
| 13> H 0.48090716028448155 0.48997149116254995 -1.0910463328592381
| 14> C 0.8451254681151258 -0.4002676383544871 0.8429317902177661
| 15> O 1.1671036593220232 -1.366335550589884 1.511829853337648
| 16> O 0.8069356080117811 0.8545665987472314 1.2884216235089117
| 17> C 1.107240293544756 1.0566907891441186 2.710173837576816
| 18> C 0.9201975764834112 2.5239049475964643 2.9936049242033547
| 19> S -1.422032851288418 -0.9278781735706496 -0.572776567037743
| 20> P -2.336416338236385 0.9408723191682034 -0.11614812972965811
| 21> S -1.7091773530452095 2.484356270449397 -1.1087431228715146
| 22> O -3.8771641777755836 0.5006835167134036 -0.28441116587642484
| 23> C -4.486797359917014 0.4449956290146798 -1.6067313318268344
| 24> O -2.246023571956527 1.181221550925441 1.4659147859521935
| 25> C -2.5404444006306006 0.12373075983299568 2.4280542276154216
| 26> H 5.0208088424818245 -2.143892426300513 0.1062476963609247
| 27> H 5.02800877220787 -3.7610502531710437 -0.6403599537802469
| 28> H 6.4185872052421935 -2.6793960207552443 -0.8444869543180551
| 29> H 5.0231784499228045 -2.7264159591759203 -2.916954812714676
| 30> H 5.004898375232129 -1.0994452167594144 -2.190426279604893
| 31> H 0.9444123597320968 -2.5607722655564897 -0.9358736763643043
| 32> H 0.7764414436303796 -1.6030133788510572 -2.4076658827418727
| 33> H 0.42324955684700843 0.43196931388123894 3.2921284009341996
| 34> H 2.134649834218034 0.7261990669619999 2.888229613091134
| 35> H 1.60173168307596 3.1309640391626887 2.3910788733471877
| 36> H -0.10911892860111265 2.8343176797705594 2.790970953438914
| 37> H 1.1348935726932514 2.710896874227034 4.049755868331877
| 38> H -4.525308827871656 1.447819224372361 -2.038040852730735
| 39> H -5.4943000994624045 0.061903546462320734 -1.4463125874304443
| 40> H -3.929710966360952 -0.23120012327512277 -2.2606327585997885
| 41> H -3.53805090643772 -0.285933639121056 2.25311601318889
| 42> H -2.497305926051953 0.6048436830115769 3.405003456020244
| 43> H -1.7848521849508878 -0.6631708897823337 2.3611960881273726
| 44> *
| 45>
| 46>                          ****END OF INPUT****

CARTESIAN COORDINATES (ANGSTROEM)
---------------------------------
  C      5.327037   -2.717425   -0.772750
  C      4.733943   -2.146813   -2.039035
  O      3.269766   -2.254082   -2.018144
  C      2.602096   -1.302427   -1.356295
  O      3.120246   -0.341521   -0.813219
  C      1.117937   -1.569368   -1.368323
  C      0.381848   -0.481551   -0.599913
  H      0.480907    0.489971   -1.091046
  C      0.845125   -0.400268    0.842932
  O      1.167104   -1.366336    1.511830
  O      0.806936    0.854567    1.288422
  C      1.107240    1.056691    2.710174
  C      0.920198    2.523905    2.993605
  S     -1.422033   -0.927878   -0.572777
  P     -2.336416    0.940872   -0.116148
  S     -1.709177    2.484356   -1.108743
  O     -3.877164    0.500684   -0.284411
  C     -4.486797    0.444996   -1.606731
  O     -2.246024    1.181222    1.465915
  C     -2.540444    0.123731    2.428054
  H      5.020809   -2.143892    0.106248
  H      5.028009   -3.761050   -0.640360
  H      6.418587   -2.679396   -0.844487
  H      5.023178   -2.726416   -2.916955
  H      5.004898   -1.099445   -2.190426
  H      0.944412   -2.560772   -0.935874
  H      0.776441   -1.603013   -2.407666
  H      0.423250    0.431969    3.292128
  H      2.134650    0.726199    2.888230
  H      1.601732    3.130964    2.391079
  H     -0.109119    2.834318    2.790971
  H      1.134894    2.710897    4.049756
  H     -4.525309    1.447819   -2.038041
  H     -5.494300    0.061904   -1.446313
  H     -3.929711   -0.231200   -2.260633
  H     -3.538051   -0.285934    2.253116
  H     -2.497306    0.604844    3.405003
  H     -1.784852   -0.663171    2.361196

 Total Charge           Charge          ....    0
 Multiplicity           Mult            ....    1
 Number of Electrons    NEL             ....  174
 Basis Dimension        Dim             ....  721

ORBITAL ENERGIES
----------------

  NO   OCC          E(Eh)            E(eV)
   0   2.0000     -88.883251     -2418.6362
   1   2.0000     -88.815784     -2416.8004
   2   2.0000     -77.214028     -2101.1005
   3   2.0000     -19.264940      -524.2257
   4   2.0000     -19.261104      -524.1213
   5   2.0000     -19.258665      -524.0549
   6   2.0000     -19.258301      -524.0450
   7   2.0000     -19.205814      -522.6168
   8   2.0000     -19.198312      -522.4126
   9   2.0000     -10.411429      -283.3094
  10   2.0000     -10.406098      -283.1643
  11   2.0000     -10.340952      -281.3916
  12   2.0000     -10.340350      -281.3752
  13   2.0000     -10.337082      -281.2863
  14   2.0000     -10.335595      -281.2458
  15   2.0000     -10.331123      -281.1242
  16   2.0000     -10.303588      -280.3749
  17   2.0000     -10.270561      -279.4762
  18   2.0000     -10.264810      -279.3197
  19   2.0000      -8.061929      -219.3762
  20   2.0000      -7.995744      -217.5753
  21   2.0000      -6.776491      -184.3977
  22   2.0000      -6.017430      -163.7426
  23   2.0000      -6.014518      -163.6634
  24   2.0000      -6.008973      -163.5125
  25   2.0000      -5.951638      -161.9523
  26   2.0000      -5.945455      -161.7841
  27   2.0000      -5.945098      -161.7743
  28   2.0000      -4.931379      -134.1896
  29   2.0000      -4.930870      -134.1758
  30   2.0000      -4.928669      -134.1159
  31   2.0000      -1.243257       -33.8307
  32   2.0000      -1.237554       -33.6755
  33   2.0000      -1.215028       -33.0626
  34   2.0000      -1.172942       -31.9174
  35   2.0000      -1.151654       -31.3381
  36   2.0000      -1.144154       -31.1340
  37   2.0000      -0.979550       -26.6549
  38   2.0000      -0.923376       -25.1263
  39   2.0000      -0.910140       -24.7662
  40   2.0000      -0.900568       -24.5057
  41   2.0000      -0.865200       -23.5433
  42   2.0000      -0.844094       -22.9690
  43   2.0000      -0.824457       -22.4346
  44   2.0000      -0.808577       -22.0025
  45   2.0000      -0.782663       -21.2973
  46   2.0000      -0.744422       -20.2568
  47   2.0000      -0.698498       -19.0071
  48   2.0000      -0.684742       -18.6328
  49   2.0000      -0.673684       -18.3319
  50   2.0000      -0.646324       -17.5874
  51   2.0000      -0.644328       -17.5331
  52   2.0000      -0.638837       -17.3836
  53   2.0000      -0.618826       -16.8391
  54   2.0000      -0.609472       -16.5846
  55   2.0000      -0.605869       -16.4865
  56   2.0000      -0.598233       -16.2788
  57   2.0000      -0.593570       -16.1519
  58   2.0000      -0.583940       -15.8898
  59   2.0000      -0.577452       -15.7133
  60   2.0000      -0.569971       -15.5097
  61   2.0000      -0.564704       -15.3664
  62   2.0000      -0.555191       -15.1075
  63   2.0000      -0.543858       -14.7991
  64   2.0000      -0.536499       -14.5989
  65   2.0000      -0.518221       -14.1015
  66   2.0000      -0.513052       -13.9608
  67   2.0000      -0.505357       -13.7515
  68   2.0000      -0.497233       -13.5304
  69   2.0000      -0.495324       -13.4785
  70   2.0000      -0.484907       -13.1950
  71   2.0000      -0.480924       -13.0866
  72   2.0000      -0.472847       -12.8668
  73   2.0000      -0.468935       -12.7604
  74   2.0000      -0.465340       -12.6625
  75   2.0000      -0.458353       -12.4724
  76   2.0000      -0.455410       -12.3923
  77   2.0000      -0.447413       -12.1747
  78   2.0000      -0.430037       -11.7019
  79   2.0000      -0.417066       -11.3490
  80   2.0000      -0.412337       -11.2203
  81   2.0000      -0.407613       -11.0917
  82   2.0000      -0.398203       -10.8357
  83   2.0000      -0.391267       -10.6469
  84   2.0000      -0.370131       -10.0718
  85   2.0000      -0.342036        -9.3073
  86   2.0000      -0.334488        -9.1019
  87   0.0000       0.054554         1.4845
  88   0.0000       0.083121         2.2618
  89   0.0000       0.090869         2.4727
  90   0.0000       0.105560         2.8724
  91   0.0000       0.110084         2.9956

MULLIKEN ATOMIC CHARGES
-----------------------
   0 C :   -0.356175
   1 C :   -0.027954
   2 O :   -0.240702
   3 C :    0.297673
   4 O :   -0.356263
   5 C :   -0.211288
   6 C :    0.032546
   7 H :    0.153004
   8 C :    0.251006
   9 O :   -0.355152
  10 O :   -0.205092
  11 C :   -0.045678
  12 C :   -0.324663
  13 S :   -0.184934
  14 P :    0.634490
  15 S :   -0.386182
  16 O :   -0.320890
  17 C :   -0.193764
  18 O :   -0.285098
  19 C :   -0.226047
  20 H :    0.146702
  21 H :    0.115578
  22 H :    0.115064
  23 H :    0.116475
  24 H :    0.122363
  25 H :    0.148396
  26 H :    0.149587
  27 H :    0.102640
  28 H :    0.123703
  29 H :    0.122095
  30 H :    0.134653
  31 H :    0.109831
  32 H :    0.147544
  33 H :    0.132638
  34 H :    0.129412
  35 H :    0.145462
  36 H :    0.137127
  37 H :    0.151894
Sum of atomic charges:    0.0000000

LOEWDIN ATOMIC CHARGES
----------------------
   0 C :   -0.303483
   1 C :   -0.278746
   2 O :    0.251284
   3 C :   -0.462323
   4 O :    0.100903
   5 C :   -0.225428
   6 C :   -0.387761
   7 H :    0.155469
   8 C :   -0.507161
   9 O :    0.087978
  10 O :    0.272926
  11 C :   -0.276872
  12 C :   -0.302401
  13 S :    0.402622
  14 P :   -0.036175
  15 S :   -0.095586
  16 O :    0.007820
  17 C :   -0.322952
  18 O :    0.022508
  19 C :   -0.325513
  20 H :    0.127639
  21 H :    0.121309
  22 H :    0.125652
  23 H :    0.125586
  24 H :    0.129127
  25 H :    0.161216
  26 H :    0.157005
  27 H :    0.123045
  28 H :    0.128966
  29 H :    0.124497
  30 H :    0.124673
  31 H :    0.123483
  32 H :    0.109238
  33 H :    0.111237
  34 H :    0.103700
  35 H :    0.108179
  36 H :    0.112114
  37 H :    0.106223

  Mayer bond orders larger than 0.100000
B(  0-C ,  1-C ) :   0.9957 B(  0-C , 20-H ) :   0.9749 B(  0-C , 21-H ) :   0.9723
B(  0-C , 22-H ) :   0.9687 B(  1-C ,  2-O ) :   0.8735 B(  1-C , 23-H ) :   0.9690
B(  1-C , 24-H ) :   0.9749 B(  2-O ,  3-C ) :   1.2531 B(  3-C ,  4-O ) :   1.9974
B(  3-C ,  5-C ) :   1.0080 B(  5-C ,  6-C ) :   0.9887 B(  5-C , 25-H ) :   0.9230
B(  5-C , 26-H ) :   0.9551 B(  6-C ,  7-H ) :   0.9552 B(  6-C ,  8-C ) :   0.9242
B(  6-C , 13-S ) :   0.9160 B(  8-C ,  9-O ) :   2.0397 B(  8-C , 10-O ) :   1.2476
B( 10-O , 11-C ) :   0.8638 B( 11-C , 12-C ) :   0.9999 B( 11-C , 27-H ) :   0.9766
B( 11-C , 28-H ) :   0.9693 B( 12-C , 29-H ) :   0.9727 B( 12-C , 30-H ) :   0.9732
B( 12-C , 31-H ) :   0.9733 B( 13-S , 14-P ) :   1.0511 B( 14-P , 15-S ) :   1.8889
B( 14-P , 16-O ) :   1.1564 B( 14-P , 18-O ) :   1.2048 B( 16-O , 17-C ) :   0.8965
B( 17-C , 32-H ) :   0.9724 B( 17-C , 33-H ) :   0.9709 B( 17-C , 34-H ) :   0.9703
B( 18-O , 19-C ) :   0.8843 B( 19-C , 35-H ) :   0.9686 B( 19-C , 36-H ) :   0.9729
B( 19-C , 37-H ) :   0.9656

FINAL SINGLE POINT ENERGY     -1981.629107253574

DIPOLE MOMENT
-------------

Method             : SCF
Type of density    : Electron Density
Multiplicity       :   1
Irrep              :   0
Energy             : -1981.6568805654740117 Eh
Relativity type    :
Basis              : AO
                                X                 Y                 Z
Electronic contribution:    -14.053321970       4.711556018      -7.385119960
Nuclear contribution   :     13.805891792      -5.750217836       7.415058325
                        -----------------------------------------
Total Dipole Moment    :     -0.247430178      -1.038661818       0.029938365
                        -----------------------------------------
Magnitude (a.u.)       :      1.068146231
Magnitude (Debye)      :      2.715011954

Rotational constants in cm-1:             0.015000             0.005587             0.004814
Rotational constants in MHz :           449.690472           167.483134           144.325636

                             ****ORCA TERMINATED NORMALLY****
TOTAL RUN TIME: 0 days 0 hours 12 minutes 57 seconds 92 msec
