                         Program Version 6.0.1  -  RELEASE   -
|  1> ! wb97x-v def2-tzvp def2/J RIJCOSX DEFGRID2 scfconv7 GCP(DFT/TZ) printgap
|  2> %output
|  3>     printlevel normal
|  4> end
|  5> %cpcm
|  6>     smd true
|  7>     smdsolvent "water"
|  8> end
|  9> * xyz 0 1
| 10> C 5.3270374420026085 -2.71742499939395 -0.7727503513114172
| 11> C 4.733942546322192 -2.1468131935681787 -2.039035462903082
| 12> O 3.2697656753456212 -2.2540818618221667 -2.0181437463606358
| 13> C 2.602095763658687 -1.3024267538874725 -1.3562952644207054
| 14> O 3.120246311114778 -0.34152139500950274 -0.8132185395673226
| 15> C 1.1179365312392542 -1.5693683743217495 -1.368323048757895
| 16> C 0.3818483843120384 -0.4815512751655176 -0.5999131209301628
| 17> H 0.48090716028448155 0.48997149116254995 -1.0910463328592381
| 18> C 0.8451254681151258 -0.4002676383544871 0.8429317902177661
| 19> O 1.1671036593220232 -1.366335550589884 1.511829853337648
| 20> O 0.8069356080117811 0.8545665987472314 1.2884216235089117
| 21> C 1.107240293544756 1.0566907891441186 2.710173837576816
| 22> C 0.9201975764834112 2.5239049475964643 2.9936049242033547
| 23> S -1.422032851288418 -0.9278781735706496 -0.572776567037743
| 24> P -2.336416338236385 0.9408723191682034 -0.11614812972965811
| 25> S -1.7091773530452095 2.484356270449397 -1.1087431228715146
| 26> O -3.8771641777755836 0.5006835167134036 -0.28441116587642484
| 27> C -4.486797359917014 0.4449956290146798 -1.6067313318268344
| 28> O -2.246023571956527 1.181221550925441 1.4659147859521935
| 29> C -2.5404444006306006 0.12373075983299568 2.4280542276154216
| 30> H 5.0208088424818245 -2.143892426300513 0.1062476963609247
| 31> H 5.02800877220787 -3.7610502531710437 -0.6403599537802469
| 32> H 6.4185872052421935 -2.6793960207552443 -0.8444869543180551
| 33> H 5.0231784499228045 -2.7264159591759203 -2.916954812714676
| 34> H 5.004898375232129 -1.0994452167594144 -2.190426279604893
| 35> H 0.9444123597320968 -2.5607722655564897 -0.9358736763643043
| 36> H 0.7764414436303796 -1.6030133788510572 -2.4076658827418727
| 37> H 0.42324955684700843 0.43196931388123894 3.2921284009341996
| 38> H 2.134649834218034 0.7261990669619999 2.888229613091134
| 39> H 1.60173168307596 3.1309640391626887 2.3910788733471877
| 40> H -0.10911892860111265 2.8343176797705594 2.790970953438914
| 41> H 1.1348935726932514 2.710896874227034 4.049755868331877
| 42> H -4.525308827871656 1.447819224372361 -2.038040852730735
| 43> H -5.4943000994624045 0.061903546462320734 -1.4463125874304443
| 44> H -3.929710966360952 -0.23120012327512277 -2.2606327585997885
| 45> H -3.53805090643772 -0.285933639121056 2.25311601318889
| 46> H -2.497305926051953 0.6048436830115769 3.405003456020244
| 47> H -1.7848521849508878 -0.6631708897823337 2.3611960881273726
| 48> *
| 49>
| 50>                          ****END OF INPUT****

CARTESIAN COORDINATES (ANGSTROEM)
---------------------------------
  C      5.327037   -2.717425   -0.772750
  C      4.733943   -2.146813   -2.039035
  O      3.269766   -2.254082   -2.018144
  C      2.602096   -1.302427   -1.356295
  O      3.120246   -0.341521   -0.813219
  C      1.117937   -1.569368   -1.368323
  C      0.381848   -0.481551   -0.599913
  H      0.480907    0.489971   -1.091046
  C      0.845125   -0.400268    0.842932
  O      1.167104   -1.366336    1.511830
  O      0.806936    0.854567    1.288422
  C      1.107240    1.056691    2.710174
  C      0.920198    2.523905    2.993605
  S     -1.422033   -0.927878   -0.572777
  P     -2.336416    0.940872   -0.116148
  S     -1.709177    2.484356   -1.108743
  O     -3.877164    0.500684   -0.284411
  C     -4.486797    0.444996   -1.606731
  O     -2.246024    1.181222    1.465915
  C     -2.540444    0.123731    2.428054
  H      5.020809   -2.143892    0.106248
  H      5.028009   -3.761050   -0.640360
  H      6.418587   -2.679396   -0.844487
  H      5.023178   -2.726416   -2.916955
  H      5.004898   -1.099445   -2.190426
  H      0.944412   -2.560772   -0.935874
  H      0.776441   -1.603013   -2.407666
  H      0.423250    0.431969    3.292128
  H      2.134650    0.726199    2.888230
  H      1.601732    3.130964    2.391079
  H     -0.109119    2.834318    2.790971
  H      1.134894    2.710897    4.049756
  H     -4.525309    1.447819   -2.038041
  H     -5.494300    0.061904   -1.446313
  H     -3.929711   -0.231200   -2.260633
  H     -3.538051   -0.285934    2.253116
  H     -2.497306    0.604844    3.405003
  H     -1.784852   -0.663171    2.361196

 Total Charge           Charge          ....    0
 Multiplicity           Mult            ....    1
 Number of Electrons    NEL             ....  174
 Basis Dimension        Dim             ....  721

ORBITAL ENERGIES
----------------

  NO   OCC          E(Eh)            E(eV)
   0   2.0000     -88.888063     -2418.7672
   1   2.0000     -88.828581     -2417.1486
   2   2.0000     -77.221022     -2101.2908
   3   2.0000     -19.270861      -524.3868
   4   2.0000     -19.267537      -524.2963
   5   2.0000     -19.261577      -524.1342
   6   2.0000     -19.261144      -524.1224
   7   2.0000     -19.216983      -522.9207
   8   2.0000     -19.216643      -522.9114
   9   2.0000     -10.421914      -283.5947
  10   2.0000     -10.419898      -283.5398
  11   2.0000     -10.339553      -281.3535
  12   2.0000     -10.327167      -281.0165
  13   2.0000     -10.326481      -280.9978
  14   2.0000     -10.326055      -280.9862
  15   2.0000     -10.325688      -280.9763
  16   2.0000     -10.299112      -280.2531
  17   2.0000     -10.259438      -279.1735
  18   2.0000     -10.258733      -279.1543
  19   2.0000      -8.066580      -219.5028
  20   2.0000      -8.008974      -217.9353
  21   2.0000      -6.783544      -184.5896
  22   2.0000      -6.022143      -163.8708
  23   2.0000      -6.019211      -163.7911
  24   2.0000      -6.013525      -163.6363
  25   2.0000      -5.964752      -162.3091
  26   2.0000      -5.958694      -162.1443
  27   2.0000      -5.958397      -162.1362
  28   2.0000      -4.938369      -134.3799
  29   2.0000      -4.937853      -134.3658
  30   2.0000      -4.935910      -134.3129
  31   2.0000      -1.252284       -34.0764
  32   2.0000      -1.246747       -33.9257
  33   2.0000      -1.216317       -33.0977
  34   2.0000      -1.173382       -31.9294
  35   2.0000      -1.162652       -31.6374
  36   2.0000      -1.159164       -31.5425
  37   2.0000      -0.982595       -26.7378
  38   2.0000      -0.919565       -25.0226
  39   2.0000      -0.909927       -24.7604
  40   2.0000      -0.898001       -24.4359
  41   2.0000      -0.862975       -23.4828
  42   2.0000      -0.835900       -22.7460
  43   2.0000      -0.823541       -22.4097
  44   2.0000      -0.811795       -22.0901
  45   2.0000      -0.778219       -21.1764
  46   2.0000      -0.742075       -20.1929
  47   2.0000      -0.699373       -19.0309
  48   2.0000      -0.683405       -18.5964
  49   2.0000      -0.675716       -18.3872
  50   2.0000      -0.651210       -17.7203
  51   2.0000      -0.645596       -17.5676
  52   2.0000      -0.635999       -17.3064
  53   2.0000      -0.620830       -16.8936
  54   2.0000      -0.615462       -16.7476
  55   2.0000      -0.609371       -16.5818
  56   2.0000      -0.603643       -16.4260
  57   2.0000      -0.594506       -16.1773
  58   2.0000      -0.583991       -15.8912
  59   2.0000      -0.575930       -15.6718
  60   2.0000      -0.564395       -15.3580
  61   2.0000      -0.554730       -15.0950
  62   2.0000      -0.554338       -15.0843
  63   2.0000      -0.543511       -14.7897
  64   2.0000      -0.536868       -14.6089
  65   2.0000      -0.519349       -14.1322
  66   2.0000      -0.510288       -13.8857
  67   2.0000      -0.501030       -13.6337
  68   2.0000      -0.495343       -13.4790
  69   2.0000      -0.492982       -13.4147
  70   2.0000      -0.482910       -13.1406
  71   2.0000      -0.477596       -12.9961
  72   2.0000      -0.470713       -12.8088
  73   2.0000      -0.467985       -12.7345
  74   2.0000      -0.466563       -12.6958
  75   2.0000      -0.462847       -12.5947
  76   2.0000      -0.451158       -12.2766
  77   2.0000      -0.447236       -12.1699
  78   2.0000      -0.429837       -11.6965
  79   2.0000      -0.420610       -11.4454
  80   2.0000      -0.418669       -11.3926
  81   2.0000      -0.414877       -11.2894
  82   2.0000      -0.413905       -11.2629
  83   2.0000      -0.401939       -10.9373
  84   2.0000      -0.379252       -10.3200
  85   2.0000      -0.356299        -9.6954
  86   2.0000      -0.347885        -9.4664
  87   0.0000       0.047480         1.2920
  88   0.0000       0.075189         2.0460
  89   0.0000       0.085466         2.3256
  90   0.0000       0.102964         2.8018
  91   0.0000       0.112302         3.0559

MULLIKEN ATOMIC CHARGES
-----------------------
   0 C :   -0.389122
   1 C :   -0.036261
   2 O :   -0.263952
   3 C :    0.363606
   4 O :   -0.451920
   5 C :   -0.222685
   6 C :    0.022194
   7 H :    0.162294
   8 C :    0.312611
   9 O :   -0.448306
  10 O :   -0.239558
  11 C :   -0.056697
  12 C :   -0.377817
  13 S :   -0.171314
  14 P :    0.649133
  15 S :   -0.445864
  16 O :   -0.336790
  17 C :   -0.212417
  18 O :   -0.324817
  19 C :   -0.226067
  20 H :    0.138082
  21 H :    0.131746
  22 H :    0.141907
  23 H :    0.144911
  24 H :    0.132959
  25 H :    0.175827
  26 H :    0.183553
  27 H :    0.141369
  28 H :    0.143783
  29 H :    0.133963
  30 H :    0.132238
  31 H :    0.140728
  32 H :    0.153515
  33 H :    0.162992
  34 H :    0.150389
  35 H :    0.165958
  36 H :    0.164758
  37 H :    0.155073
Sum of atomic charges:   -0.0000000

LOEWDIN ATOMIC CHARGES
----------------------
   0 C :   -0.306626
   1 C :   -0.272540
   2 O :    0.248349
   3 C :   -0.445799
   4 O :    0.051285
   5 C :   -0.216447
   6 C :   -0.388682
   7 H :    0.157416
   8 C :   -0.497790
   9 O :    0.043235
  10 O :    0.262326
  11 C :   -0.272571
  12 C :   -0.305747
  13 S :    0.414635
  14 P :   -0.033178
  15 S :   -0.140453
  16 O :    0.002884
  17 C :   -0.316445
  18 O :    0.005981
  19 C :   -0.313908
  20 H :    0.123451
  21 H :    0.124740
  22 H :    0.133074
  23 H :    0.135135
  24 H :    0.131598
  25 H :    0.168600
  26 H :    0.170992
  27 H :    0.133555
  28 H :    0.133547
  29 H :    0.125059
  30 H :    0.122115
  31 H :    0.133370
  32 H :    0.111205
  33 H :    0.121416
  34 H :    0.110079
  35 H :    0.114351
  36 H :    0.121944
  37 H :    0.109845

  Mayer bond orders larger than 0.100000
B(  0-C ,  1-C ) :   0.9944 B(  0-C , 20-H ) :   0.9740 B(  0-C , 21-H ) :   0.9693
B(  0-C , 22-H ) :   0.9654 B(  1-C ,  2-O ) :   0.8483 B(  1-C , 23-H ) :   0.9635
B(  1-C , 24-H ) :   0.9737 B(  2-O ,  3-C ) :   1.2699 B(  3-C ,  4-O ) :   1.8993
B(  3-C ,  5-C ) :   1.0187 B(  5-C ,  6-C ) :   0.9985 B(  5-C , 25-H ) :   0.9248
B(  5-C , 26-H ) :   0.9329 B(  6-C ,  7-H ) :   0.9518 B(  6-C ,  8-C ) :   0.9248
B(  6-C , 13-S ) :   0.9222 B(  8-C ,  9-O ) :   1.9380 B(  8-C , 10-O ) :   1.2665
B( 10-O , 11-C ) :   0.8333 B( 11-C , 12-C ) :   1.0068 B( 11-C , 27-H ) :   0.9685
B( 11-C , 28-H ) :   0.9607 B( 12-C , 29-H ) :   0.9702 B( 12-C , 30-H ) :   0.9724
B( 12-C , 31-H ) :   0.9701 B( 13-S , 14-P ) :   1.0648 B( 14-P , 15-S ) :   1.8478
B( 14-P , 16-O ) :   1.1742 B( 14-P , 18-O ) :   1.2127 B( 16-O , 17-C ) :   0.8670
B( 17-C , 32-H ) :   0.9701 B( 17-C , 33-H ) :   0.9652 B( 17-C , 34-H ) :   0.9660
B( 18-O , 19-C ) :   0.8506 B( 19-C , 35-H ) :   0.9637 B( 19-C , 36-H ) :   0.9659
B( 19-C , 37-H ) :   0.9658

FINAL SINGLE POINT ENERGY     -1981.647900437295

DIPOLE MOMENT
-------------

Method             : SCF
Type of density    : Electron Density
Multiplicity       :   1
Irrep              :   0
Energy             : -1981.6756737491950844 Eh
Relativity type    :
Basis              : AO
                                X                 Y                 Z
Electronic contribution:    -14.328553946       4.151489412      -7.494011880
Nuclear contribution   :     13.805891792      -5.750217836       7.415058325
                        -----------------------------------------
Total Dipole Moment    :     -0.522662154      -1.598728424      -0.078953554
                        -----------------------------------------
Magnitude (a.u.)       :      1.683847370
Magnitude (Debye)      :      4.279999876

Rotational constants in cm-1:             0.015000             0.005587             0.004814
Rotational constants in MHz :           449.690472           167.483134           144.325636

                             ****ORCA TERMINATED NORMALLY****
TOTAL RUN TIME: 0 days 0 hours 14 minutes 25 seconds 307 msec
