                         Program Version 6.0.0  -   RELEASE  -
|  1> ! r2scan-3c def2/J RI DEFGRID2 scfconv6 printgap
|  2> %output
|  3>     printlevel normal
|  4> end
|  5> * xyz 0 1
|  6> C 4.1744974112 -2.6348040506 -0.0051887994
|  7> C 4.5351639773 -1.220469148 0.4010896273
|  8> O 3.3849084632 -0.4659452818 0.8234814168
|  9> P 2.2288107335 -0.041825219 -0.1813965892
| 10> S 2.8410037585 0.5139507995 -1.9634827582
| 11> O 1.463130628 1.0539115547 0.6764055959
| 12> C 1.7261872602 2.4608388599 0.5306790758
| 13> C 3.0787557005 2.8378755777 1.0973327108
| 14> S 0.8515577587 -1.6266226093 -0.0680641087
| 15> C -0.1418538477 -1.181375893 -1.5196735353
| 16> S -0.7775912209 0.5257859179 -1.5159584738
| 17> P -2.1683322099 0.4154314747 0.0696786474
| 18> S -3.2931839162 2.0005534815 0.3042906904
| 19> O -1.2260440965 0.0385386351 1.2807253468
| 20> C -1.6261314065 0.2413449553 2.6513600482
| 21> C -2.733401226 -0.7077449844 3.0561442579
| 22> O -2.9509182127 -0.9500346717 -0.1823236783
| 23> C -4.1057719708 -1.0214175849 -1.0411210684
| 24> C -4.8953664866 -2.2562634615 -0.655266109
| 25> H 3.6033517875 -3.1205518223 0.7819416301
| 26> H 3.5753513973 -2.6193172966 -0.9145194174
| 27> H 5.083839655 -3.1969424075 -0.1921852901
| 28> H 5.0075119239 -0.6907075784 -0.4323470924
| 29> H 5.1914681982 -1.204891725 1.272214418
| 30> H 1.6622250501 2.7185462437 -0.5324485876
| 31> H 0.9079829024 2.9424118717 1.0697937256
| 32> H 3.1614371906 2.4988303815 2.126620123
| 33> H 3.8672910143 2.3721020079 0.5073416361
| 34> H 3.1975902948 3.9161071026 1.0584124738
| 35> H -0.9660373331 -1.8887148638 -1.5562012559
| 36> H 0.4759662901 -1.243042102 -2.4147535525
| 37> H -0.7090401664 0.0661277439 3.2157865768
| 38> H -1.944575276 1.2824440601 2.7682140971
| 39> H -3.6402069866 -0.4710923618 2.5012668336
| 40> H -2.443844573 -1.7333311426 2.8428797818
| 41> H -2.9305513855 -0.5983566661 4.1180023065
| 42> H -4.6954019172 -0.1079545152 -0.9096089639
| 43> H -3.7634819973 -1.0734475236 -2.0785378046
| 44> H -4.272519016 -3.1411725917 -0.7480791659
| 45> H -5.2403497593 -2.1756912743 0.3715007932
| 46> H -5.7527025036 -2.3491950055 -1.3136888768
| 47> *
| 48>
| 49>                          ****END OF INPUT****

CARTESIAN COORDINATES (ANGSTROEM)
---------------------------------
  C      4.174497   -2.634804   -0.005189
  C      4.535164   -1.220469    0.401090
  O      3.384908   -0.465945    0.823481
  P      2.228811   -0.041825   -0.181397
  S      2.841004    0.513951   -1.963483
  O      1.463131    1.053912    0.676406
  C      1.726187    2.460839    0.530679
  C      3.078756    2.837876    1.097333
  S      0.851558   -1.626623   -0.068064
  C     -0.141854   -1.181376   -1.519674
  S     -0.777591    0.525786   -1.515958
  P     -2.168332    0.415431    0.069679
  S     -3.293184    2.000553    0.304291
  O     -1.226044    0.038539    1.280725
  C     -1.626131    0.241345    2.651360
  C     -2.733401   -0.707745    3.056144
  O     -2.950918   -0.950035   -0.182324
  C     -4.105772   -1.021418   -1.041121
  C     -4.895366   -2.256263   -0.655266
  H      3.603352   -3.120552    0.781942
  H      3.575351   -2.619317   -0.914519
  H      5.083840   -3.196942   -0.192185
  H      5.007512   -0.690708   -0.432347
  H      5.191468   -1.204892    1.272214
  H      1.662225    2.718546   -0.532449
  H      0.907983    2.942412    1.069794
  H      3.161437    2.498830    2.126620
  H      3.867291    2.372102    0.507342
  H      3.197590    3.916107    1.058412
  H     -0.966037   -1.888715   -1.556201
  H      0.475966   -1.243042   -2.414754
  H     -0.709040    0.066128    3.215787
  H     -1.944575    1.282444    2.768214
  H     -3.640207   -0.471092    2.501267
  H     -2.443845   -1.733331    2.842880
  H     -2.930551   -0.598357    4.118002
  H     -4.695402   -0.107955   -0.909609
  H     -3.763482   -1.073448   -2.078538
  H     -4.272519   -3.141173   -0.748079
  H     -5.240350   -2.175691    0.371501
  H     -5.752703   -2.349195   -1.313689

 Total Charge           Charge          ....    0
 Multiplicity           Mult            ....    1
 Number of Electrons    NEL             ....  202
 Basis Dimension        Dim             ....  539

ORBITAL ENERGIES
----------------

  NO   OCC          E(Eh)            E(eV)
   0   2.0000     -88.573982     -2410.2206
   1   2.0000     -88.573536     -2410.2084
   2   2.0000     -88.520757     -2408.7722
   3   2.0000     -88.519480     -2408.7375
   4   2.0000     -76.913060     -2092.9108
   5   2.0000     -76.912160     -2092.8863
   6   2.0000     -18.992820      -516.8209
   7   2.0000     -18.992761      -516.8193
   8   2.0000     -18.985610      -516.6247
   9   2.0000     -18.983318      -516.5623
  10   2.0000     -10.110703      -275.1262
  11   2.0000     -10.100717      -274.8545
  12   2.0000     -10.099247      -274.8145
  13   2.0000     -10.095974      -274.7254
  14   2.0000     -10.090511      -274.5768
  15   2.0000     -10.036509      -273.1073
  16   2.0000     -10.029612      -272.9196
  17   2.0000     -10.028435      -272.8876
  18   2.0000     -10.024445      -272.7790
  19   2.0000      -7.868371      -214.1093
  20   2.0000      -7.867947      -214.0977
  21   2.0000      -7.815437      -212.6688
  22   2.0000      -7.814155      -212.6340
  23   2.0000      -6.591504      -179.3639
  24   2.0000      -6.590594      -179.3392
  25   2.0000      -5.815331      -158.2432
  26   2.0000      -5.815320      -158.2429
  27   2.0000      -5.812280      -158.1602
  28   2.0000      -5.811348      -158.1348
  29   2.0000      -5.805230      -157.9683
  30   2.0000      -5.805065      -157.9638
  31   2.0000      -5.763028      -156.8200
  32   2.0000      -5.761719      -156.7844
  33   2.0000      -5.755790      -156.6230
  34   2.0000      -5.755448      -156.6137
  35   2.0000      -5.754502      -156.5880
  36   2.0000      -5.754181      -156.5792
  37   2.0000      -4.736844      -128.8961
  38   2.0000      -4.736403      -128.8841
  39   2.0000      -4.735920      -128.8709
  40   2.0000      -4.735697      -128.8649
  41   2.0000      -4.735435      -128.8577
  42   2.0000      -4.734336      -128.8278
  43   2.0000      -1.048983       -28.5443
  44   2.0000      -1.047200       -28.4958
  45   2.0000      -1.010362       -27.4933
  46   2.0000      -1.007648       -27.4195
  47   2.0000      -0.801483       -21.8095
  48   2.0000      -0.759126       -20.6569
  49   2.0000      -0.747657       -20.3448
  50   2.0000      -0.733646       -19.9635
  51   2.0000      -0.728788       -19.8313
  52   2.0000      -0.709640       -19.3103
  53   2.0000      -0.688339       -18.7307
  54   2.0000      -0.667978       -18.1766
  55   2.0000      -0.632357       -17.2073
  56   2.0000      -0.626591       -17.0504
  57   2.0000      -0.603101       -16.4112
  58   2.0000      -0.601476       -16.3670
  59   2.0000      -0.593292       -16.1443
  60   2.0000      -0.530122       -14.4253
  61   2.0000      -0.516041       -14.0422
  62   2.0000      -0.495777       -13.4908
  63   2.0000      -0.489873       -13.3301
  64   2.0000      -0.477354       -12.9895
  65   2.0000      -0.461383       -12.5549
  66   2.0000      -0.456586       -12.4243
  67   2.0000      -0.453336       -12.3359
  68   2.0000      -0.443660       -12.0726
  69   2.0000      -0.434683       -11.8283
  70   2.0000      -0.428147       -11.6505
  71   2.0000      -0.415484       -11.3059
  72   2.0000      -0.406061       -11.0495
  73   2.0000      -0.403472       -10.9790
  74   2.0000      -0.396867       -10.7993
  75   2.0000      -0.389768       -10.6061
  76   2.0000      -0.381508       -10.3814
  77   2.0000      -0.375245       -10.2109
  78   2.0000      -0.374137       -10.1808
  79   2.0000      -0.367451        -9.9989
  80   2.0000      -0.362587        -9.8665
  81   2.0000      -0.361115        -9.8264
  82   2.0000      -0.357509        -9.7283
  83   2.0000      -0.353869        -9.6293
  84   2.0000      -0.345679        -9.4064
  85   2.0000      -0.334195        -9.0939
  86   2.0000      -0.326427        -8.8825
  87   2.0000      -0.312032        -8.4908
  88   2.0000      -0.309171        -8.4130
  89   2.0000      -0.304834        -8.2949
  90   2.0000      -0.294056        -8.0017
  91   2.0000      -0.288579        -7.8526
  92   2.0000      -0.280599        -7.6355
  93   2.0000      -0.277874        -7.5613
  94   2.0000      -0.275232        -7.4895
  95   2.0000      -0.242761        -6.6059
  96   2.0000      -0.230740        -6.2788
  97   2.0000      -0.221952        -6.0396
  98   2.0000      -0.219825        -5.9817
  99   2.0000      -0.213800        -5.8178
 100   2.0000      -0.212559        -5.7840
 101   0.0000      -0.044462        -1.2099
 102   0.0000      -0.015198        -0.4135
 103   0.0000      -0.009685        -0.2635
 104   0.0000       0.005101         0.1388
 105   0.0000       0.007887         0.2146

MULLIKEN ATOMIC CHARGES
-----------------------
   0 C :   -0.456210
   1 C :   -0.150303
   2 O :   -0.304715
   3 P :    0.679759
   4 S :   -0.478207
   5 O :   -0.270107
   6 C :   -0.151680
   7 C :   -0.445526
   8 S :   -0.109665
   9 C :   -0.243343
  10 S :   -0.138104
  11 P :    0.686571
  12 S :   -0.476373
  13 O :   -0.226471
  14 C :   -0.174198
  15 C :   -0.435575
  16 O :   -0.289815
  17 C :   -0.152471
  18 C :   -0.435158
  19 H :    0.155153
  20 H :    0.178397
  21 H :    0.148264
  22 H :    0.173093
  23 H :    0.148465
  24 H :    0.176205
  25 H :    0.158731
  26 H :    0.153878
  27 H :    0.164932
  28 H :    0.147364
  29 H :    0.186258
  30 H :    0.207036
  31 H :    0.157183
  32 H :    0.171115
  33 H :    0.163906
  34 H :    0.156680
  35 H :    0.146977
  36 H :    0.173889
  37 H :    0.150412
  38 H :    0.149985
  39 H :    0.154924
  40 H :    0.148744
Sum of atomic charges:   -0.0000000

LOEWDIN ATOMIC CHARGES
----------------------
   0 C :   -0.408084
   1 C :    0.019302
   2 O :   -0.660663
   3 P :    0.374901
   4 S :   -0.128701
   5 O :   -0.672585
   6 C :    0.019127
   7 C :   -0.399125
   8 S :    0.193134
   9 C :   -0.410500
  10 S :    0.188559
  11 P :    0.367622
  12 S :   -0.119021
  13 O :   -0.681897
  14 C :    0.024162
  15 C :   -0.399410
  16 O :   -0.684816
  17 C :    0.019617
  18 C :   -0.385783
  19 H :    0.160014
  20 H :    0.165561
  21 H :    0.159194
  22 H :    0.179657
  23 H :    0.179509
  24 H :    0.182308
  25 H :    0.182340
  26 H :    0.159724
  27 H :    0.163416
  28 H :    0.159303
  29 H :    0.184942
  30 H :    0.190056
  31 H :    0.182003
  32 H :    0.180135
  33 H :    0.163764
  34 H :    0.161353
  35 H :    0.159024
  36 H :    0.182953
  37 H :    0.170050
  38 H :    0.158365
  39 H :    0.160091
  40 H :    0.160400

  Mayer bond orders larger than 0.100000
B(  0-C ,  1-C ) :   0.9198 B(  0-C , 19-H ) :   0.9681 B(  0-C , 20-H ) :   0.9635
B(  0-C , 21-H ) :   0.9585 B(  1-C ,  2-O ) :   0.8144 B(  1-C , 22-H ) :   0.9687
B(  1-C , 23-H ) :   0.9581 B(  2-O ,  3-P ) :   1.0644 B(  3-P ,  4-S ) :   1.7443
B(  3-P ,  5-O ) :   1.1521 B(  3-P ,  8-S ) :   1.1070 B(  5-O ,  6-C ) :   0.7875
B(  6-C ,  7-C ) :   0.9195 B(  6-C , 24-H ) :   0.9634 B(  6-C , 25-H ) :   0.9607
B(  7-C , 26-H ) :   0.9733 B(  7-C , 27-H ) :   0.9620 B(  7-C , 28-H ) :   0.9631
B(  8-S ,  9-C ) :   0.9216 B(  9-C , 10-S ) :   0.9042 B(  9-C , 29-H ) :   0.9159
B(  9-C , 30-H ) :   0.9163 B( 10-S , 11-P ) :   1.0461 B( 11-P , 12-S ) :   1.7876
B( 11-P , 13-O ) :   1.1556 B( 11-P , 16-O ) :   1.0486 B( 13-O , 14-C ) :   0.7884
B( 14-C , 15-C ) :   0.9228 B( 14-C , 31-H ) :   0.9640 B( 14-C , 32-H ) :   0.9606
B( 15-C , 33-H ) :   0.9611 B( 15-C , 34-H ) :   0.9732 B( 15-C , 35-H ) :   0.9624
B( 16-O , 17-C ) :   0.7744 B( 17-C , 18-C ) :   0.9517 B( 17-C , 36-H ) :   0.9477
B( 17-C , 37-H ) :   0.9471 B( 18-C , 38-H ) :   0.9719 B( 18-C , 39-H ) :   0.9713
B( 18-C , 40-H ) :   0.9663

Dispersion correction           -0.021611236
FINAL SINGLE POINT ENERGY     -2932.460414267033

DIPOLE MOMENT
-------------

Method             : SCF
Type of density    : Electron Density
Multiplicity       :   1
Irrep              :   0
Energy             : -2932.4851719740613589 Eh
Relativity type    :
Basis              : AO
                                X                 Y                 Z
Electronic contribution:      0.740373170       8.249218347     -10.241975980
Nuclear contribution   :     -0.619222274      -9.590352465      11.060191577
                        -----------------------------------------
Total Dipole Moment    :      0.121150896      -1.341134118       0.818215597
                        -----------------------------------------
Magnitude (a.u.)       :      1.575688746
Magnitude (Debye)      :      4.005082503

Rotational constants in cm-1:             0.012761             0.004963             0.004655
Rotational constants in MHz :           382.553991           148.789131           139.544541

                             ****ORCA TERMINATED NORMALLY****
TOTAL RUN TIME: 0 days 0 hours 1 minutes 20 seconds 459 msec
