                         Program Version 6.0.0  -   RELEASE  -
|  1> ! r2scan-3c def2/J RI DEFGRID2 scfconv6 printgap
|  2> %output
|  3>     printlevel normal
|  4> end
|  5> %cpcm
|  6>     smd true
|  7>     smdsolvent "water"
|  8> end
|  9> * xyz 0 1
| 10> C 4.1744974112 -2.6348040506 -0.0051887994
| 11> C 4.5351639773 -1.220469148 0.4010896273
| 12> O 3.3849084632 -0.4659452818 0.8234814168
| 13> P 2.2288107335 -0.041825219 -0.1813965892
| 14> S 2.8410037585 0.5139507995 -1.9634827582
| 15> O 1.463130628 1.0539115547 0.6764055959
| 16> C 1.7261872602 2.4608388599 0.5306790758
| 17> C 3.0787557005 2.8378755777 1.0973327108
| 18> S 0.8515577587 -1.6266226093 -0.0680641087
| 19> C -0.1418538477 -1.181375893 -1.5196735353
| 20> S -0.7775912209 0.5257859179 -1.5159584738
| 21> P -2.1683322099 0.4154314747 0.0696786474
| 22> S -3.2931839162 2.0005534815 0.3042906904
| 23> O -1.2260440965 0.0385386351 1.2807253468
| 24> C -1.6261314065 0.2413449553 2.6513600482
| 25> C -2.733401226 -0.7077449844 3.0561442579
| 26> O -2.9509182127 -0.9500346717 -0.1823236783
| 27> C -4.1057719708 -1.0214175849 -1.0411210684
| 28> C -4.8953664866 -2.2562634615 -0.655266109
| 29> H 3.6033517875 -3.1205518223 0.7819416301
| 30> H 3.5753513973 -2.6193172966 -0.9145194174
| 31> H 5.083839655 -3.1969424075 -0.1921852901
| 32> H 5.0075119239 -0.6907075784 -0.4323470924
| 33> H 5.1914681982 -1.204891725 1.272214418
| 34> H 1.6622250501 2.7185462437 -0.5324485876
| 35> H 0.9079829024 2.9424118717 1.0697937256
| 36> H 3.1614371906 2.4988303815 2.126620123
| 37> H 3.8672910143 2.3721020079 0.5073416361
| 38> H 3.1975902948 3.9161071026 1.0584124738
| 39> H -0.9660373331 -1.8887148638 -1.5562012559
| 40> H 0.4759662901 -1.243042102 -2.4147535525
| 41> H -0.7090401664 0.0661277439 3.2157865768
| 42> H -1.944575276 1.2824440601 2.7682140971
| 43> H -3.6402069866 -0.4710923618 2.5012668336
| 44> H -2.443844573 -1.7333311426 2.8428797818
| 45> H -2.9305513855 -0.5983566661 4.1180023065
| 46> H -4.6954019172 -0.1079545152 -0.9096089639
| 47> H -3.7634819973 -1.0734475236 -2.0785378046
| 48> H -4.272519016 -3.1411725917 -0.7480791659
| 49> H -5.2403497593 -2.1756912743 0.3715007932
| 50> H -5.7527025036 -2.3491950055 -1.3136888768
| 51> *
| 52>
| 53>                          ****END OF INPUT****

CARTESIAN COORDINATES (ANGSTROEM)
---------------------------------
  C      4.174497   -2.634804   -0.005189
  C      4.535164   -1.220469    0.401090
  O      3.384908   -0.465945    0.823481
  P      2.228811   -0.041825   -0.181397
  S      2.841004    0.513951   -1.963483
  O      1.463131    1.053912    0.676406
  C      1.726187    2.460839    0.530679
  C      3.078756    2.837876    1.097333
  S      0.851558   -1.626623   -0.068064
  C     -0.141854   -1.181376   -1.519674
  S     -0.777591    0.525786   -1.515958
  P     -2.168332    0.415431    0.069679
  S     -3.293184    2.000553    0.304291
  O     -1.226044    0.038539    1.280725
  C     -1.626131    0.241345    2.651360
  C     -2.733401   -0.707745    3.056144
  O     -2.950918   -0.950035   -0.182324
  C     -4.105772   -1.021418   -1.041121
  C     -4.895366   -2.256263   -0.655266
  H      3.603352   -3.120552    0.781942
  H      3.575351   -2.619317   -0.914519
  H      5.083840   -3.196942   -0.192185
  H      5.007512   -0.690708   -0.432347
  H      5.191468   -1.204892    1.272214
  H      1.662225    2.718546   -0.532449
  H      0.907983    2.942412    1.069794
  H      3.161437    2.498830    2.126620
  H      3.867291    2.372102    0.507342
  H      3.197590    3.916107    1.058412
  H     -0.966037   -1.888715   -1.556201
  H      0.475966   -1.243042   -2.414754
  H     -0.709040    0.066128    3.215787
  H     -1.944575    1.282444    2.768214
  H     -3.640207   -0.471092    2.501267
  H     -2.443845   -1.733331    2.842880
  H     -2.930551   -0.598357    4.118002
  H     -4.695402   -0.107955   -0.909609
  H     -3.763482   -1.073448   -2.078538
  H     -4.272519   -3.141173   -0.748079
  H     -5.240350   -2.175691    0.371501
  H     -5.752703   -2.349195   -1.313689

 Total Charge           Charge          ....    0
 Multiplicity           Mult            ....    1
 Number of Electrons    NEL             ....  202
 Basis Dimension        Dim             ....  539

ORBITAL ENERGIES
----------------

  NO   OCC          E(Eh)            E(eV)
   0   2.0000     -88.578209     -2410.3356
   1   2.0000     -88.576335     -2410.2846
   2   2.0000     -88.528870     -2408.9930
   3   2.0000     -88.527655     -2408.9600
   4   2.0000     -76.918184     -2093.0502
   5   2.0000     -76.918066     -2093.0470
   6   2.0000     -18.995080      -516.8824
   7   2.0000     -18.992915      -516.8235
   8   2.0000     -18.989801      -516.7387
   9   2.0000     -18.989139      -516.7207
  10   2.0000     -10.107052      -275.0269
  11   2.0000     -10.089483      -274.5488
  12   2.0000     -10.089265      -274.5428
  13   2.0000     -10.089075      -274.5377
  14   2.0000     -10.087541      -274.4960
  15   2.0000     -10.019318      -272.6395
  16   2.0000     -10.018534      -272.6182
  17   2.0000     -10.018433      -272.6154
  18   2.0000     -10.017908      -272.6011
  19   2.0000      -7.872316      -214.2166
  20   2.0000      -7.871098      -214.1835
  21   2.0000      -7.823922      -212.8997
  22   2.0000      -7.822626      -212.8645
  23   2.0000      -6.596705      -179.5055
  24   2.0000      -6.596536      -179.5009
  25   2.0000      -5.819622      -158.3600
  26   2.0000      -5.818048      -158.3171
  27   2.0000      -5.815683      -158.2528
  28   2.0000      -5.815007      -158.2344
  29   2.0000      -5.809527      -158.0853
  30   2.0000      -5.807994      -158.0436
  31   2.0000      -5.771383      -157.0473
  32   2.0000      -5.770162      -157.0141
  33   2.0000      -5.764291      -156.8543
  34   2.0000      -5.763959      -156.8453
  35   2.0000      -5.762954      -156.8179
  36   2.0000      -5.762664      -156.8101
  37   2.0000      -4.742024      -129.0370
  38   2.0000      -4.741769      -129.0301
  39   2.0000      -4.741660      -129.0271
  40   2.0000      -4.741623      -129.0261
  41   2.0000      -4.740658      -128.9999
  42   2.0000      -4.740391      -128.9926
  43   2.0000      -1.051438       -28.6111
  44   2.0000      -1.050048       -28.5733
  45   2.0000      -1.011983       -27.5375
  46   2.0000      -1.010627       -27.5006
  47   2.0000      -0.802040       -21.8246
  48   2.0000      -0.756068       -20.5737
  49   2.0000      -0.742096       -20.1935
  50   2.0000      -0.724003       -19.7011
  51   2.0000      -0.722455       -19.6590
  52   2.0000      -0.709123       -19.2962
  53   2.0000      -0.692216       -18.8361
  54   2.0000      -0.674178       -18.3453
  55   2.0000      -0.631383       -17.1808
  56   2.0000      -0.622527       -16.9398
  57   2.0000      -0.598070       -16.2743
  58   2.0000      -0.594429       -16.1752
  59   2.0000      -0.589661       -16.0455
  60   2.0000      -0.526104       -14.3160
  61   2.0000      -0.513703       -13.9786
  62   2.0000      -0.493055       -13.4167
  63   2.0000      -0.488491       -13.2925
  64   2.0000      -0.475937       -12.9509
  65   2.0000      -0.458763       -12.4836
  66   2.0000      -0.453278       -12.3343
  67   2.0000      -0.445452       -12.1214
  68   2.0000      -0.441126       -12.0037
  69   2.0000      -0.433642       -11.8000
  70   2.0000      -0.423150       -11.5145
  71   2.0000      -0.411398       -11.1947
  72   2.0000      -0.405287       -11.0284
  73   2.0000      -0.403156       -10.9704
  74   2.0000      -0.391924       -10.6648
  75   2.0000      -0.385908       -10.5011
  76   2.0000      -0.378811       -10.3080
  77   2.0000      -0.370088       -10.0706
  78   2.0000      -0.364415        -9.9162
  79   2.0000      -0.361952        -9.8492
  80   2.0000      -0.353647        -9.6232
  81   2.0000      -0.353215        -9.6115
  82   2.0000      -0.349466        -9.5094
  83   2.0000      -0.347339        -9.4516
  84   2.0000      -0.343365        -9.3434
  85   2.0000      -0.330093        -8.9823
  86   2.0000      -0.322497        -8.7756
  87   2.0000      -0.308570        -8.3966
  88   2.0000      -0.304428        -8.2839
  89   2.0000      -0.303857        -8.2684
  90   2.0000      -0.295143        -8.0313
  91   2.0000      -0.289434        -7.8759
  92   2.0000      -0.280856        -7.6425
  93   2.0000      -0.278362        -7.5746
  94   2.0000      -0.274482        -7.4690
  95   2.0000      -0.247415        -6.7325
  96   2.0000      -0.237373        -6.4593
  97   2.0000      -0.231232        -6.2921
  98   2.0000      -0.229674        -6.2498
  99   2.0000      -0.221122        -6.0170
 100   2.0000      -0.218806        -5.9540
 101   0.0000      -0.047991        -1.3059
 102   0.0000      -0.021912        -0.5962
 103   0.0000      -0.014064        -0.3827
 104   0.0000       0.001404         0.0382
 105   0.0000       0.004907         0.1335

MULLIKEN ATOMIC CHARGES
-----------------------
   0 C :   -0.490908
   1 C :   -0.151037
   2 O :   -0.331615
   3 P :    0.716739
   4 S :   -0.526649
   5 O :   -0.298537
   6 C :   -0.148834
   7 C :   -0.489002
   8 S :   -0.115324
   9 C :   -0.251866
  10 S :   -0.170755
  11 P :    0.709547
  12 S :   -0.535106
  13 O :   -0.254838
  14 C :   -0.167551
  15 C :   -0.473384
  16 O :   -0.302845
  17 C :   -0.135699
  18 C :   -0.483914
  19 H :    0.169068
  20 H :    0.174495
  21 H :    0.172973
  22 H :    0.178729
  23 H :    0.175266
  24 H :    0.177397
  25 H :    0.178064
  26 H :    0.169365
  27 H :    0.167623
  28 H :    0.171316
  29 H :    0.228501
  30 H :    0.230318
  31 H :    0.178825
  32 H :    0.176319
  33 H :    0.167350
  34 H :    0.169591
  35 H :    0.172369
  36 H :    0.170700
  37 H :    0.171990
  38 H :    0.166217
  39 H :    0.165777
  40 H :    0.169329
Sum of atomic charges:   -0.0000000

LOEWDIN ATOMIC CHARGES
----------------------
   0 C :   -0.410658
   1 C :    0.024957
   2 O :   -0.673389
   3 P :    0.379521
   4 S :   -0.157909
   5 O :   -0.690295
   6 C :    0.020697
   7 C :   -0.402359
   8 S :    0.193099
   9 C :   -0.398452
  10 S :    0.170262
  11 P :    0.371077
  12 S :   -0.160003
  13 O :   -0.696097
  14 C :    0.028101
  15 C :   -0.401982
  16 O :   -0.688173
  17 C :    0.025913
  18 C :   -0.389508
  19 H :    0.163559
  20 H :    0.161717
  21 H :    0.168311
  22 H :    0.181463
  23 H :    0.190892
  24 H :    0.182069
  25 H :    0.189810
  26 H :    0.163870
  27 H :    0.162253
  28 H :    0.168197
  29 H :    0.200858
  30 H :    0.198469
  31 H :    0.190671
  32 H :    0.182086
  33 H :    0.162858
  34 H :    0.164474
  35 H :    0.168622
  36 H :    0.181951
  37 H :    0.179256
  38 H :    0.163094
  39 H :    0.162192
  40 H :    0.168524

  Mayer bond orders larger than 0.100000
B(  0-C ,  1-C ) :   0.9072 B(  0-C , 19-H ) :   0.9651 B(  0-C , 20-H ) :   0.9643
B(  0-C , 21-H ) :   0.9532 B(  1-C ,  2-O ) :   0.8021 B(  1-C , 22-H ) :   0.9670
B(  1-C , 23-H ) :   0.9482 B(  2-O ,  3-P ) :   1.0723 B(  3-P ,  4-S ) :   1.6988
B(  3-P ,  5-O ) :   1.1512 B(  3-P ,  8-S ) :   1.1241 B(  5-O ,  6-C ) :   0.7743
B(  6-C ,  7-C ) :   0.9130 B(  6-C , 24-H ) :   0.9595 B(  6-C , 25-H ) :   0.9518
B(  7-C , 26-H ) :   0.9718 B(  7-C , 27-H ) :   0.9609 B(  7-C , 28-H ) :   0.9571
B(  8-S ,  9-C ) :   0.9153 B(  9-C , 10-S ) :   0.8969 B(  9-C , 29-H ) :   0.9036
B(  9-C , 30-H ) :   0.9083 B( 10-S , 11-P ) :   1.0611 B( 11-P , 12-S ) :   1.7484
B( 11-P , 13-O ) :   1.1603 B( 11-P , 16-O ) :   1.0648 B( 13-O , 14-C ) :   0.7800
B( 14-C , 15-C ) :   0.9124 B( 14-C , 31-H ) :   0.9544 B( 14-C , 32-H ) :   0.9554
B( 15-C , 33-H ) :   0.9590 B( 15-C , 34-H ) :   0.9716 B( 15-C , 35-H ) :   0.9565
B( 16-O , 17-C ) :   0.7670 B( 17-C , 18-C ) :   0.9462 B( 17-C , 36-H ) :   0.9463
B( 17-C , 37-H ) :   0.9377 B( 18-C , 38-H ) :   0.9697 B( 18-C , 39-H ) :   0.9694
B( 18-C , 40-H ) :   0.9599

Dispersion correction           -0.021611236
FINAL SINGLE POINT ENERGY     -2932.470395112880

DIPOLE MOMENT
-------------

Method             : SCF
Type of density    : Electron Density
Multiplicity       :   1
Irrep              :   0
Energy             : -2932.4951528199080713 Eh
Relativity type    :
Basis              : AO
                                X                 Y                 Z
Electronic contribution:      0.788455058       7.661605501     -10.102366870
Nuclear contribution   :     -0.619222274      -9.590352465      11.060191577
                        -----------------------------------------
Total Dipole Moment    :      0.169232784      -1.928746964       0.957824707
                        -----------------------------------------
Magnitude (a.u.)       :      2.160123319
Magnitude (Debye)      :      5.490597133

Rotational constants in cm-1:             0.012761             0.004963             0.004655
Rotational constants in MHz :           382.553991           148.789131           139.544541

                             ****ORCA TERMINATED NORMALLY****
TOTAL RUN TIME: 0 days 0 hours 1 minutes 57 seconds 568 msec
