                         Program Version 6.0.0  -   RELEASE  -
|  1> ! pbe def2-sv(p) def2/J RI DEFGRID1 loosescf d4 GCP(DFT/SV(P)) printgap
|  2> %output
|  3>     printlevel normal
|  4> end
|  5> * xyz 0 1
|  6> C 4.3866278658 0.8894793629 -2.1382158524
|  7> C 3.9565061491 -0.4799269312 -1.6580442036
|  8> O 3.5847903728 -0.492006006 -0.2647212448
|  9> P 2.5108688631 0.4719024607 0.3959579699
| 10> S 3.0201396128 2.3062827126 0.8409356231
| 11> O 2.1352605699 -0.2892912543 1.7239461308
| 12> C 1.8233498983 -1.701573004 1.7826876047
| 13> C 3.0297557486 -2.488473433 2.2491913046
| 14> S 0.8366156006 0.2940813186 -0.9057060418
| 15> C -0.0889284664 1.655491167 -0.121221771
| 16> S -1.7879687421 1.7232290326 -0.7160088903
| 17> P -2.3829743797 -0.1325653747 0.1191615203
| 18> S -1.6086064082 -0.6580602508 1.8326119192
| 19> O -2.1205796488 -1.2462214494 -0.9821301918
| 20> C -2.6398979506 -1.1292742804 -2.3307393326
| 21> C -1.5102833083 -0.8877901444 -3.3109683041
| 22> O -3.9488276078 0.1735996451 0.1173775634
| 23> C -4.8594452716 -0.5324169178 0.9832825073
| 24> C -5.0504001745 -1.9702170059 0.5432275643
| 25> H 5.1890821142 1.2761365689 -1.5145269907
| 26> H 4.7295713469 0.8198795434 -3.1654397677
| 27> H 3.549758973 1.5847675599 -2.0887266405
| 28> H 4.7768030334 -1.1978844362 -1.7100901448
| 29> H 3.1044056932 -0.8433230267 -2.2390405362
| 30> H 0.9945473749 -1.7729348417 2.4907119768
| 31> H 1.4830296893 -2.0337599029 0.7976649547
| 32> H 3.8434092836 -2.3872587133 1.5356333372
| 33> H 3.361963809 -2.1163319879 3.2144227871
| 34> H 2.7567691753 -3.5348082316 2.342064264
| 35> H 0.385481801 2.6029197044 -0.3714714425
| 36> H -0.088548701 1.495869485 0.9594522079
| 37> H -3.1340863952 -2.0826627006 -2.5257455018
| 38> H -3.3730192748 -0.3180418417 -2.3623528389
| 39> H -1.0314732975 0.0689387964 -3.1162196607
| 40> H -0.7638581883 -1.6710369359 -3.2180699601
| 41> H -1.9109733576 -0.88706339 -4.31950368
| 42> H -4.4713016413 -0.4903472978 2.0058699148
| 43> H -5.7851978833 0.0405743529 0.915748428
| 44> H -5.407819086 -2.008081341 -0.4825360683
| 45> H -4.1032766611 -2.5051848759 0.6113576622
| 46> H -5.7742711416 -2.4513485435 1.1935452127
| 47> *
| 48>
| 49>                          ****END OF INPUT****

CARTESIAN COORDINATES (ANGSTROEM)
---------------------------------
  C      4.386628    0.889479   -2.138216
  C      3.956506   -0.479927   -1.658044
  O      3.584790   -0.492006   -0.264721
  P      2.510869    0.471902    0.395958
  S      3.020140    2.306283    0.840936
  O      2.135261   -0.289291    1.723946
  C      1.823350   -1.701573    1.782688
  C      3.029756   -2.488473    2.249191
  S      0.836616    0.294081   -0.905706
  C     -0.088928    1.655491   -0.121222
  S     -1.787969    1.723229   -0.716009
  P     -2.382974   -0.132565    0.119162
  S     -1.608606   -0.658060    1.832612
  O     -2.120580   -1.246221   -0.982130
  C     -2.639898   -1.129274   -2.330739
  C     -1.510283   -0.887790   -3.310968
  O     -3.948828    0.173600    0.117378
  C     -4.859445   -0.532417    0.983283
  C     -5.050400   -1.970217    0.543228
  H      5.189082    1.276137   -1.514527
  H      4.729571    0.819880   -3.165440
  H      3.549759    1.584768   -2.088727
  H      4.776803   -1.197884   -1.710090
  H      3.104406   -0.843323   -2.239041
  H      0.994547   -1.772935    2.490712
  H      1.483030   -2.033760    0.797665
  H      3.843409   -2.387259    1.535633
  H      3.361964   -2.116332    3.214423
  H      2.756769   -3.534808    2.342064
  H      0.385482    2.602920   -0.371471
  H     -0.088549    1.495869    0.959452
  H     -3.134086   -2.082663   -2.525746
  H     -3.373019   -0.318042   -2.362353
  H     -1.031473    0.068939   -3.116220
  H     -0.763858   -1.671037   -3.218070
  H     -1.910973   -0.887063   -4.319504
  H     -4.471302   -0.490347    2.005870
  H     -5.785198    0.040574    0.915748
  H     -5.407819   -2.008081   -0.482536
  H     -4.103277   -2.505185    0.611358
  H     -5.774271   -2.451349    1.193545

 Total Charge           Charge          ....    0
 Multiplicity           Mult            ....    1
 Number of Electrons    NEL             ....  202
 Basis Dimension        Dim             ....  334

ORBITAL ENERGIES
----------------

  NO   OCC          E(Eh)            E(eV)
   0   2.0000     -88.049924     -2395.9602
   1   2.0000     -88.040540     -2395.7049
   2   2.0000     -87.991301     -2394.3650
   3   2.0000     -87.976841     -2393.9716
   4   2.0000     -76.429350     -2079.7484
   5   2.0000     -76.422366     -2079.5583
   6   2.0000     -18.797135      -511.4960
   7   2.0000     -18.795605      -511.4544
   8   2.0000     -18.795051      -511.4393
   9   2.0000     -18.783734      -511.1314
  10   2.0000      -9.961581      -271.0684
  11   2.0000      -9.960667      -271.0435
  12   2.0000      -9.957958      -270.9698
  13   2.0000      -9.953112      -270.8379
  14   2.0000      -9.943307      -270.5711
  15   2.0000      -9.891804      -269.1697
  16   2.0000      -9.889222      -269.0994
  17   2.0000      -9.883817      -268.9523
  18   2.0000      -9.878463      -268.8066
  19   2.0000      -7.695065      -209.3934
  20   2.0000      -7.684977      -209.1189
  21   2.0000      -7.636320      -207.7948
  22   2.0000      -7.622275      -207.4126
  23   2.0000      -6.427433      -174.8993
  24   2.0000      -6.419553      -174.6849
  25   2.0000      -5.722795      -155.7252
  26   2.0000      -5.719846      -155.6449
  27   2.0000      -5.712646      -155.4490
  28   2.0000      -5.711909      -155.4289
  29   2.0000      -5.709637      -155.3671
  30   2.0000      -5.702136      -155.1630
  31   2.0000      -5.665334      -154.1616
  32   2.0000      -5.657135      -153.9385
  33   2.0000      -5.656135      -153.9112
  34   2.0000      -5.651426      -153.7831
  35   2.0000      -5.642762      -153.5474
  36   2.0000      -5.642286      -153.5344
  37   2.0000      -4.650348      -126.5424
  38   2.0000      -4.648894      -126.5028
  39   2.0000      -4.647848      -126.4744
  40   2.0000      -4.642484      -126.3284
  41   2.0000      -4.641626      -126.3051
  42   2.0000      -4.639442      -126.2456
  43   2.0000      -0.990050       -26.9406
  44   2.0000      -0.986051       -26.8318
  45   2.0000      -0.949135       -25.8273
  46   2.0000      -0.941546       -25.6208
  47   2.0000      -0.765930       -20.8420
  48   2.0000      -0.723298       -19.6819
  49   2.0000      -0.710545       -19.3349
  50   2.0000      -0.697252       -18.9732
  51   2.0000      -0.689386       -18.7592
  52   2.0000      -0.675399       -18.3785
  53   2.0000      -0.652299       -17.7499
  54   2.0000      -0.636474       -17.3193
  55   2.0000      -0.598657       -16.2903
  56   2.0000      -0.588382       -16.0107
  57   2.0000      -0.580231       -15.7889
  58   2.0000      -0.567883       -15.4529
  59   2.0000      -0.560902       -15.2629
  60   2.0000      -0.506841       -13.7918
  61   2.0000      -0.499018       -13.5790
  62   2.0000      -0.483337       -13.1523
  63   2.0000      -0.470871       -12.8130
  64   2.0000      -0.456196       -12.4137
  65   2.0000      -0.453186       -12.3318
  66   2.0000      -0.441792       -12.0218
  67   2.0000      -0.430974       -11.7274
  68   2.0000      -0.430138       -11.7046
  69   2.0000      -0.420962       -11.4550
  70   2.0000      -0.409888       -11.1536
  71   2.0000      -0.407547       -11.0899
  72   2.0000      -0.396270       -10.7831
  73   2.0000      -0.384342       -10.4585
  74   2.0000      -0.377553       -10.2737
  75   2.0000      -0.375576       -10.2199
  76   2.0000      -0.362993        -9.8775
  77   2.0000      -0.355714        -9.6795
  78   2.0000      -0.354310        -9.6413
  79   2.0000      -0.351596        -9.5674
  80   2.0000      -0.348760        -9.4902
  81   2.0000      -0.346788        -9.4366
  82   2.0000      -0.345811        -9.4100
  83   2.0000      -0.338835        -9.2202
  84   2.0000      -0.336289        -9.1509
  85   2.0000      -0.324200        -8.8219
  86   2.0000      -0.315274        -8.5790
  87   2.0000      -0.312777        -8.5111
  88   2.0000      -0.296253        -8.0615
  89   2.0000      -0.286993        -7.8095
  90   2.0000      -0.281276        -7.6539
  91   2.0000      -0.278269        -7.5721
  92   2.0000      -0.274992        -7.4829
  93   2.0000      -0.272058        -7.4031
  94   2.0000      -0.256512        -6.9800
  95   2.0000      -0.230616        -6.2754
  96   2.0000      -0.224783        -6.1167
  97   2.0000      -0.211447        -5.7538
  98   2.0000      -0.205689        -5.5971
  99   2.0000      -0.196135        -5.3371
 100   2.0000      -0.191418        -5.2087
 101   0.0000      -0.046442        -1.2637
 102   0.0000      -0.032373        -0.8809
 103   0.0000      -0.006301        -0.1715
 104   0.0000       0.007394         0.2012
 105   0.0000       0.009052         0.2463

MULLIKEN ATOMIC CHARGES
-----------------------
   0 C :   -0.309021
   1 C :   -0.011831
   2 O :   -0.379441
   3 P :    0.597540
   4 S :   -0.317776
   5 O :   -0.349420
   6 C :   -0.013665
   7 C :   -0.282190
   8 S :   -0.128926
   9 C :   -0.342985
  10 S :   -0.085334
  11 P :    0.617827
  12 S :   -0.309762
  13 O :   -0.361469
  14 C :   -0.031467
  15 C :   -0.281417
  16 O :   -0.388884
  17 C :   -0.005895
  18 C :   -0.319390
  19 H :    0.128482
  20 H :    0.110768
  21 H :    0.126840
  22 H :    0.109915
  23 H :    0.112487
  24 H :    0.121803
  25 H :    0.095737
  26 H :    0.114855
  27 H :    0.118212
  28 H :    0.106887
  29 H :    0.190756
  30 H :    0.206862
  31 H :    0.110638
  32 H :    0.107806
  33 H :    0.126497
  34 H :    0.116741
  35 H :    0.109556
  36 H :    0.117067
  37 H :    0.108509
  38 H :    0.114099
  39 H :    0.132296
  40 H :    0.116692
Sum of atomic charges:   -0.0000000

LOEWDIN ATOMIC CHARGES
----------------------
   0 C :   -0.369540
   1 C :   -0.114112
   2 O :   -0.244008
   3 P :    0.569469
   4 S :   -0.313104
   5 O :   -0.229918
   6 C :   -0.117285
   7 C :   -0.358993
   8 S :    0.054878
   9 C :   -0.477978
  10 S :    0.095802
  11 P :    0.570556
  12 S :   -0.292933
  13 O :   -0.242995
  14 C :   -0.118620
  15 C :   -0.361734
  16 O :   -0.256485
  17 C :   -0.116135
  18 C :   -0.365856
  19 H :    0.131598
  20 H :    0.129964
  21 H :    0.121741
  22 H :    0.121389
  23 H :    0.107755
  24 H :    0.117472
  25 H :    0.103237
  26 H :    0.123459
  27 H :    0.128152
  28 H :    0.128046
  29 H :    0.133979
  30 H :    0.126926
  31 H :    0.119370
  32 H :    0.107691
  33 H :    0.115691
  34 H :    0.126821
  35 H :    0.129605
  36 H :    0.113060
  37 H :    0.120197
  38 H :    0.123172
  39 H :    0.126688
  40 H :    0.132978

  Mayer bond orders larger than 0.100000
B(  0-C ,  1-C ) :   1.1675 B(  0-C , 19-H ) :   0.9425 B(  0-C , 20-H ) :   0.9346
B(  0-C , 21-H ) :   0.9310 B(  1-C ,  2-O ) :   0.9116 B(  1-C , 22-H ) :   0.9331
B(  1-C , 23-H ) :   0.9263 B(  2-O ,  3-P ) :   1.0800 B(  3-P ,  4-S ) :   1.6396
B(  3-P ,  5-O ) :   1.1440 B(  3-P ,  8-S ) :   0.9462 B(  4-S ,  8-S ) :   0.1112
B(  5-O ,  6-C ) :   0.8877 B(  6-C ,  7-C ) :   1.1586 B(  6-C , 24-H ) :   0.9270
B(  6-C , 25-H ) :   0.9170 B(  7-C , 26-H ) :   0.9432 B(  7-C , 27-H ) :   0.9470
B(  7-C , 28-H ) :   0.9414 B(  8-S ,  9-C ) :   0.9742 B(  9-C , 10-S ) :   1.0136
B(  9-C , 29-H ) :   0.8928 B(  9-C , 30-H ) :   0.8686 B( 10-S , 11-P ) :   0.9421
B( 10-S , 12-S ) :   0.1046 B( 11-P , 12-S ) :   1.6376 B( 11-P , 13-O ) :   1.1077
B( 11-P , 16-O ) :   1.0878 B( 13-O , 14-C ) :   0.8985 B( 14-C , 15-C ) :   1.1692
B( 14-C , 31-H ) :   0.9314 B( 14-C , 32-H ) :   0.9140 B( 15-C , 33-H ) :   0.9289
B( 15-C , 34-H ) :   0.9455 B( 15-C , 35-H ) :   0.9383 B( 16-O , 17-C ) :   0.9072
B( 17-C , 18-C ) :   1.1606 B( 17-C , 36-H ) :   0.9155 B( 17-C , 37-H ) :   0.9348
B( 18-C , 38-H ) :   0.9459 B( 18-C , 39-H ) :   0.9360 B( 18-C , 40-H ) :   0.9387

Dispersion correction           -0.064632003
FINAL SINGLE POINT ENERGY     -2929.516435209490

DIPOLE MOMENT
-------------

Method             : SCF
Type of density    : Electron Density
Multiplicity       :   1
Irrep              :   0
Energy             : -2929.6371692212223934 Eh
Relativity type    :
Basis              : AO
                                X                 Y                 Z
Electronic contribution:      0.666469621      16.183864494       9.290139821
Nuclear contribution   :     -1.698581284     -17.709427631     -10.846126210
                        -----------------------------------------
Total Dipole Moment    :     -1.032111662      -1.525563137      -1.555986389
                        -----------------------------------------
Magnitude (a.u.)       :      2.411159682
Magnitude (Debye)      :      6.128680857

Rotational constants in cm-1:             0.012707             0.004670             0.004348
Rotational constants in MHz :           380.936186           140.005427           130.361153

                             ****ORCA TERMINATED NORMALLY****
TOTAL RUN TIME: 0 days 0 hours 0 minutes 21 seconds 25 msec
