                         Program Version 6.0.0  -   RELEASE  -
|  1> ! pbe def2-sv(p) def2/J RI DEFGRID1 loosescf d4 GCP(DFT/SV(P)) printgap
|  2> %output
|  3>     printlevel normal
|  4> end
|  5> * xyz 0 1
|  6> C 5.4075800089 -0.26241234 -0.7950026739
|  7> C 4.4404436765 -0.9280150843 0.1654163965
|  8> O 3.4676285242 0.0073312815 0.6659633567
|  9> P 2.0782801899 0.2970945139 -0.0522674399
| 10> S 2.1585497486 0.9773122251 -1.8935829299
| 11> O 1.4142486587 1.2295793596 1.0375333416
| 12> C 1.4154627727 2.6663175779 0.9185842609
| 13> C 2.8131200327 3.2314205969 1.0478702537
| 14> S 1.0578242473 -1.5421538159 0.2162094127
| 15> C 0.2246487111 -1.7001740249 -1.4037173037
| 16> S -1.5084076202 -2.19164342 -1.2493939403
| 17> P -2.2518148168 -0.4903440185 -0.2441101363
| 18> S -1.3495971746 1.209547453 -0.6496718457
| 19> O -2.3355842819 -0.8464074573 1.3047879827
| 20> C -1.4462553675 -0.3754493754 2.3303078472
| 21> C -2.2746415064 0.1286181939 3.4959455372
| 22> O -3.7513163767 -0.6759434274 -0.7064628336
| 23> C -4.8891917051 -0.1887389488 0.0386451584
| 24> C -4.9008705017 1.3226714194 0.1412803405
| 25> H 4.879248343 0.1021864952 -1.6731193501
| 26> H 5.8987484682 0.5762470539 -0.3095074831
| 27> H 6.1553592345 -0.9846484492 -1.1062789452
| 28> H 4.9538637682 -1.2854076606 1.0601296475
| 29> H 3.9221784917 -1.7639668345 -0.3139831122
| 30> H 0.9649334688 2.9351768518 -0.0427996161
| 31> H 0.7633174757 2.9967329593 1.7279970936
| 32> H 3.4257835632 2.8854852482 0.215851283
| 33> H 2.7676766915 4.3156420463 1.0270921985
| 34> H 3.2652830572 2.900878135 1.9791566287
| 35> H 0.7087335322 -2.4931013359 -1.9680333306
| 36> H 0.304438355 -0.7422471048 -1.9258346289
| 37> H -0.8153590131 -1.2187264658 2.6215756477
| 38> H -0.8143832698 0.4196999249 1.9201620831
| 39> H -2.9315079626 -0.6595816386 3.8525301242
| 40> H -1.608906399 0.4306435767 4.2977497966
| 41> H -2.8763360096 0.9813939279 3.1916718776
| 42> H -5.7425744656 -0.5587306263 -0.5316833754
| 43> H -4.8750229307 -0.6495892041 1.0286482209
| 44> H -4.8770173699 1.7690638225 -0.8500512498
| 45> H -5.7983793938 1.6443014321 0.6600893223
| 46> H -4.0257585765 1.6673857455 0.6912843364
| 47> *
| 48>
| 49>                          ****END OF INPUT****

CARTESIAN COORDINATES (ANGSTROEM)
---------------------------------
  C      5.407580   -0.262412   -0.795003
  C      4.440444   -0.928015    0.165416
  O      3.467629    0.007331    0.665963
  P      2.078280    0.297095   -0.052267
  S      2.158550    0.977312   -1.893583
  O      1.414249    1.229579    1.037533
  C      1.415463    2.666318    0.918584
  C      2.813120    3.231421    1.047870
  S      1.057824   -1.542154    0.216209
  C      0.224649   -1.700174   -1.403717
  S     -1.508408   -2.191643   -1.249394
  P     -2.251815   -0.490344   -0.244110
  S     -1.349597    1.209547   -0.649672
  O     -2.335584   -0.846407    1.304788
  C     -1.446255   -0.375449    2.330308
  C     -2.274642    0.128618    3.495946
  O     -3.751316   -0.675943   -0.706463
  C     -4.889192   -0.188739    0.038645
  C     -4.900871    1.322671    0.141280
  H      4.879248    0.102186   -1.673119
  H      5.898748    0.576247   -0.309507
  H      6.155359   -0.984648   -1.106279
  H      4.953864   -1.285408    1.060130
  H      3.922178   -1.763967   -0.313983
  H      0.964933    2.935177   -0.042800
  H      0.763317    2.996733    1.727997
  H      3.425784    2.885485    0.215851
  H      2.767677    4.315642    1.027092
  H      3.265283    2.900878    1.979157
  H      0.708734   -2.493101   -1.968033
  H      0.304438   -0.742247   -1.925835
  H     -0.815359   -1.218726    2.621576
  H     -0.814383    0.419700    1.920162
  H     -2.931508   -0.659582    3.852530
  H     -1.608906    0.430644    4.297750
  H     -2.876336    0.981394    3.191672
  H     -5.742574   -0.558731   -0.531683
  H     -4.875023   -0.649589    1.028648
  H     -4.877017    1.769064   -0.850051
  H     -5.798379    1.644301    0.660089
  H     -4.025759    1.667386    0.691284

 Total Charge           Charge          ....    0
 Multiplicity           Mult            ....    1
 Number of Electrons    NEL             ....  202
 Basis Dimension        Dim             ....  334

ORBITAL ENERGIES
----------------

  NO   OCC          E(Eh)            E(eV)
   0   2.0000     -88.043567     -2395.7873
   1   2.0000     -88.038818     -2395.6580
   2   2.0000     -87.987399     -2394.2589
   3   2.0000     -87.982168     -2394.1165
   4   2.0000     -76.426556     -2079.6723
   5   2.0000     -76.424501     -2079.6164
   6   2.0000     -18.790862      -511.3254
   7   2.0000     -18.790755      -511.3224
   8   2.0000     -18.789813      -511.2968
   9   2.0000     -18.788901      -511.2720
  10   2.0000      -9.956009      -270.9168
  11   2.0000      -9.953520      -270.8490
  12   2.0000      -9.950819      -270.7755
  13   2.0000      -9.948207      -270.7045
  14   2.0000      -9.945338      -270.6264
  15   2.0000      -9.886405      -269.0228
  16   2.0000      -9.884633      -268.9745
  17   2.0000      -9.880604      -268.8649
  18   2.0000      -9.880208      -268.8541
  19   2.0000      -7.687977      -209.2005
  20   2.0000      -7.684476      -209.1052
  21   2.0000      -7.632275      -207.6848
  22   2.0000      -7.626772      -207.5350
  23   2.0000      -6.423832      -174.8013
  24   2.0000      -6.421683      -174.7429
  25   2.0000      -5.715783      -155.5344
  26   2.0000      -5.712522      -155.4456
  27   2.0000      -5.712502      -155.4451
  28   2.0000      -5.708892      -155.3469
  29   2.0000      -5.705058      -155.2425
  30   2.0000      -5.701322      -155.1409
  31   2.0000      -5.661165      -154.0481
  32   2.0000      -5.655602      -153.8968
  33   2.0000      -5.652987      -153.8256
  34   2.0000      -5.652362      -153.8086
  35   2.0000      -5.647533      -153.6772
  36   2.0000      -5.646921      -153.6605
  37   2.0000      -4.646087      -126.4265
  38   2.0000      -4.645591      -126.4130
  39   2.0000      -4.644633      -126.3869
  40   2.0000      -4.644570      -126.3852
  41   2.0000      -4.643234      -126.3488
  42   2.0000      -4.642124      -126.3186
  43   2.0000      -0.986454       -26.8428
  44   2.0000      -0.985811       -26.8253
  45   2.0000      -0.943667       -25.6785
  46   2.0000      -0.941696       -25.6248
  47   2.0000      -0.759996       -20.6806
  48   2.0000      -0.721932       -19.6448
  49   2.0000      -0.707636       -19.2557
  50   2.0000      -0.688812       -18.7435
  51   2.0000      -0.684358       -18.6223
  52   2.0000      -0.672183       -18.2910
  53   2.0000      -0.650833       -17.7101
  54   2.0000      -0.635210       -17.2849
  55   2.0000      -0.598997       -16.2995
  56   2.0000      -0.590341       -16.0640
  57   2.0000      -0.573930       -15.6174
  58   2.0000      -0.567889       -15.4530
  59   2.0000      -0.559354       -15.2208
  60   2.0000      -0.502839       -13.6829
  61   2.0000      -0.493523       -13.4294
  62   2.0000      -0.474762       -12.9189
  63   2.0000      -0.472314       -12.8523
  64   2.0000      -0.449114       -12.2210
  65   2.0000      -0.446826       -12.1588
  66   2.0000      -0.437836       -11.9141
  67   2.0000      -0.433109       -11.7855
  68   2.0000      -0.425995       -11.5919
  69   2.0000      -0.413503       -11.2520
  70   2.0000      -0.409481       -11.1426
  71   2.0000      -0.401585       -10.9277
  72   2.0000      -0.389362       -10.5951
  73   2.0000      -0.388212       -10.5638
  74   2.0000      -0.378601       -10.3023
  75   2.0000      -0.371481       -10.1085
  76   2.0000      -0.369087       -10.0434
  77   2.0000      -0.355183        -9.6650
  78   2.0000      -0.351044        -9.5524
  79   2.0000      -0.347052        -9.4438
  80   2.0000      -0.345900        -9.4124
  81   2.0000      -0.340279        -9.2595
  82   2.0000      -0.339369        -9.2347
  83   2.0000      -0.338163        -9.2019
  84   2.0000      -0.333401        -9.0723
  85   2.0000      -0.316067        -8.6006
  86   2.0000      -0.312406        -8.5010
  87   2.0000      -0.296079        -8.0567
  88   2.0000      -0.294018        -8.0006
  89   2.0000      -0.290719        -7.9109
  90   2.0000      -0.284009        -7.7283
  91   2.0000      -0.274945        -7.4816
  92   2.0000      -0.272455        -7.4139
  93   2.0000      -0.262343        -7.1387
  94   2.0000      -0.257412        -7.0045
  95   2.0000      -0.234655        -6.3853
  96   2.0000      -0.221133        -6.0173
  97   2.0000      -0.212513        -5.7828
  98   2.0000      -0.201298        -5.4776
  99   2.0000      -0.196509        -5.3473
 100   2.0000      -0.188929        -5.1410
 101   0.0000      -0.039567        -1.0767
 102   0.0000      -0.033614        -0.9147
 103   0.0000      -0.004818        -0.1311
 104   0.0000       0.014044         0.3822
 105   0.0000       0.019434         0.5288

MULLIKEN ATOMIC CHARGES
-----------------------
   0 C :   -0.296613
   1 C :   -0.006975
   2 O :   -0.369477
   3 P :    0.620577
   4 S :   -0.314103
   5 O :   -0.360681
   6 C :   -0.006972
   7 C :   -0.300488
   8 S :   -0.114152
   9 C :   -0.354940
  10 S :   -0.087430
  11 P :    0.638394
  12 S :   -0.328856
  13 O :   -0.385514
  14 C :   -0.034829
  15 C :   -0.286440
  16 O :   -0.377427
  17 C :   -0.003163
  18 C :   -0.320112
  19 H :    0.129573
  20 H :    0.113366
  21 H :    0.106455
  22 H :    0.106134
  23 H :    0.096207
  24 H :    0.124900
  25 H :    0.101315
  26 H :    0.125030
  27 H :    0.111089
  28 H :    0.113630
  29 H :    0.178174
  30 H :    0.216602
  31 H :    0.105455
  32 H :    0.134852
  33 H :    0.113527
  34 H :    0.110508
  35 H :    0.115007
  36 H :    0.109412
  37 H :    0.110178
  38 H :    0.126115
  39 H :    0.109775
  40 H :    0.131901
Sum of atomic charges:   -0.0000000

LOEWDIN ATOMIC CHARGES
----------------------
   0 C :   -0.365451
   1 C :   -0.117478
   2 O :   -0.245170
   3 P :    0.573775
   4 S :   -0.297055
   5 O :   -0.233269
   6 C :   -0.117240
   7 C :   -0.365951
   8 S :    0.076564
   9 C :   -0.481244
  10 S :    0.087853
  11 P :    0.563783
  12 S :   -0.303385
  13 O :   -0.246378
  14 C :   -0.127408
  15 C :   -0.354241
  16 O :   -0.245143
  17 C :   -0.109810
  18 C :   -0.366863
  19 H :    0.123344
  20 H :    0.125153
  21 H :    0.128140
  22 H :    0.118491
  23 H :    0.103100
  24 H :    0.111299
  25 H :    0.116631
  26 H :    0.121993
  27 H :    0.130421
  28 H :    0.125081
  29 H :    0.134466
  30 H :    0.124976
  31 H :    0.110341
  32 H :    0.108669
  33 H :    0.124098
  34 H :    0.130293
  35 H :    0.122903
  36 H :    0.121662
  37 H :    0.112438
  38 H :    0.131535
  39 H :    0.128961
  40 H :    0.120114

  Mayer bond orders larger than 0.100000
B(  0-C ,  1-C ) :   1.1646 B(  0-C , 19-H ) :   0.9302 B(  0-C , 20-H ) :   0.9469
B(  0-C , 21-H ) :   0.9395 B(  1-C ,  2-O ) :   0.9124 B(  1-C , 22-H ) :   0.9368
B(  1-C , 23-H ) :   0.9135 B(  2-O ,  3-P ) :   1.1047 B(  3-P ,  4-S ) :   1.6033
B(  3-P ,  5-O ) :   1.1306 B(  3-P ,  8-S ) :   0.9509 B(  4-S ,  8-S ) :   0.1196
B(  5-O ,  6-C ) :   0.8951 B(  6-C ,  7-C ) :   1.1638 B(  6-C , 24-H ) :   0.9142
B(  6-C , 25-H ) :   0.9342 B(  7-C , 26-H ) :   0.9325 B(  7-C , 27-H ) :   0.9387
B(  7-C , 28-H ) :   0.9452 B(  8-S ,  9-C ) :   0.9781 B(  9-C , 10-S ) :   1.0122
B(  9-C , 29-H ) :   0.9121 B(  9-C , 30-H ) :   0.8466 B( 10-S , 11-P ) :   0.9520
B( 10-S , 12-S ) :   0.1123 B( 11-P , 12-S ) :   1.6318 B( 11-P , 13-O ) :   1.0826
B( 11-P , 16-O ) :   1.1267 B( 13-O , 14-C ) :   0.8999 B( 14-C , 15-C ) :   1.1545
B( 14-C , 31-H ) :   0.9294 B( 14-C , 32-H ) :   0.8961 B( 15-C , 33-H ) :   0.9491
B( 15-C , 34-H ) :   0.9419 B( 15-C , 35-H ) :   0.9472 B( 16-O , 17-C ) :   0.9088
B( 17-C , 18-C ) :   1.1657 B( 17-C , 36-H ) :   0.9349 B( 17-C , 37-H ) :   0.9273
B( 18-C , 38-H ) :   0.9444 B( 18-C , 39-H ) :   0.9366 B( 18-C , 40-H ) :   0.9309

Dispersion correction           -0.066364485
FINAL SINGLE POINT ENERGY     -2929.522179020935

DIPOLE MOMENT
-------------

Method             : SCF
Type of density    : Electron Density
Multiplicity       :   1
Irrep              :   0
Energy             : -2929.6410399339401920 Eh
Relativity type    :
Basis              : AO
                                X                 Y                 Z
Electronic contribution:     -3.556769619     -12.769022998     -13.678939729
Nuclear contribution   :      3.545830996      12.661671091      14.993488398
                        -----------------------------------------
Total Dipole Moment    :     -0.010938624      -0.107351907       1.314548669
                        -----------------------------------------
Magnitude (a.u.)       :      1.318970162
Magnitude (Debye)      :      3.352555719

Rotational constants in cm-1:             0.013252             0.005023             0.004605
Rotational constants in MHz :           397.286063           150.574868           138.067580

                             ****ORCA TERMINATED NORMALLY****
TOTAL RUN TIME: 0 days 0 hours 0 minutes 21 seconds 281 msec
