                         Program Version 6.0.0  -   RELEASE  -
|  1> ! pbe def2-sv(p) def2/J RI DEFGRID1 loosescf d4 GCP(DFT/SV(P)) printgap
|  2> %output
|  3>     printlevel normal
|  4> end
|  5> * xyz 0 1
|  6> C 4.7850747945 -0.0034731973 -1.3935229314
|  7> C 4.5932777997 0.0393770742 0.1090629933
|  8> O 3.312709007 -0.4717877284 0.4999374751
|  9> P 1.9508094215 0.299882502 0.1546080677
| 10> S 2.1351319741 2.2383468935 0.4023545162
| 11> O 0.939208709 -0.4566579472 1.1090755828
| 12> C 0.9148681222 -0.1698996086 2.5239291992
| 13> C 1.7126155157 -1.199486249 3.2972441242
| 14> S 1.3776423785 -0.4248403362 -1.7492628441
| 15> C 0.1631471083 -1.7331408337 -1.3858639861
| 16> S -1.5195009832 -1.3255393833 -1.945228104
| 17> P -2.1701598127 -0.016715427 -0.4287631225
| 18> S -3.9967447034 0.6519051603 -0.6409039855
| 19> O -1.0089546951 1.0769912227 -0.4376708334
| 20> C -1.3119605639 2.4587294236 -0.1522170133
| 21> C -1.5448613176 2.6849776531 1.3254867731
| 22> O -1.8898088741 -0.7586968574 0.9577940549
| 23> C -2.8880248306 -1.5945797705 1.5707319884
| 24> C -3.0567517393 -2.9128861579 0.8420426076
| 25> H 5.7892617864 0.3266186982 -1.6390790075
| 26> H 4.6329923155 -1.0122477959 -1.7679277425
| 27> H 4.0663548939 0.6593529167 -1.8770271226
| 28> H 4.6829857063 1.066753831 0.4779236423
| 29> H 5.3077173379 -0.6036628656 0.6248683692
| 30> H 1.3072492371 0.8400735007 2.6869782081
| 31> H -0.1431301805 -0.1954984663 2.7928145228
| 32> H 1.3231620233 -2.1958991919 3.1083540945
| 33> H 2.7573139844 -1.1680900673 2.9986814669
| 34> H 1.6372561833 -0.9799413427 4.3577558911
| 35> H 0.1605765194 -1.9392623262 -0.3210636087
| 36> H 0.453206647 -2.6016382518 -1.9711854892
| 37> H -0.4381255544 3.0063901669 -0.509050172
| 38> H -2.1947503069 2.7457324813 -0.7317167219
| 39> H -1.7620406802 3.7348921156 1.4939371412
| 40> H -2.3902326481 2.086107748 1.6621637361
| 41> H -0.6585544126 2.4090236676 1.8910557285
| 42> H -2.5249461317 -1.741586355 2.5891949295
| 43> H -3.8341685187 -1.0440906199 1.5893553142
| 44> H -3.7584308415 -3.5338981258 1.3898125044
| 45> H -3.4483010319 -2.7386315527 -0.1593582922
| 46> H -2.1053080425 -3.4323217524 0.763016302
| 47> *
| 48>
| 49>                          ****END OF INPUT****

CARTESIAN COORDINATES (ANGSTROEM)
---------------------------------
  C      4.785075   -0.003473   -1.393523
  C      4.593278    0.039377    0.109063
  O      3.312709   -0.471788    0.499937
  P      1.950809    0.299883    0.154608
  S      2.135132    2.238347    0.402355
  O      0.939209   -0.456658    1.109076
  C      0.914868   -0.169900    2.523929
  C      1.712616   -1.199486    3.297244
  S      1.377642   -0.424840   -1.749263
  C      0.163147   -1.733141   -1.385864
  S     -1.519501   -1.325539   -1.945228
  P     -2.170160   -0.016715   -0.428763
  S     -3.996745    0.651905   -0.640904
  O     -1.008955    1.076991   -0.437671
  C     -1.311961    2.458729   -0.152217
  C     -1.544861    2.684978    1.325487
  O     -1.889809   -0.758697    0.957794
  C     -2.888025   -1.594580    1.570732
  C     -3.056752   -2.912886    0.842043
  H      5.789262    0.326619   -1.639079
  H      4.632992   -1.012248   -1.767928
  H      4.066355    0.659353   -1.877027
  H      4.682986    1.066754    0.477924
  H      5.307717   -0.603663    0.624868
  H      1.307249    0.840074    2.686978
  H     -0.143130   -0.195498    2.792815
  H      1.323162   -2.195899    3.108354
  H      2.757314   -1.168090    2.998681
  H      1.637256   -0.979941    4.357756
  H      0.160577   -1.939262   -0.321064
  H      0.453207   -2.601638   -1.971185
  H     -0.438126    3.006390   -0.509050
  H     -2.194750    2.745732   -0.731717
  H     -1.762041    3.734892    1.493937
  H     -2.390233    2.086108    1.662164
  H     -0.658554    2.409024    1.891056
  H     -2.524946   -1.741586    2.589195
  H     -3.834169   -1.044091    1.589355
  H     -3.758431   -3.533898    1.389813
  H     -3.448301   -2.738632   -0.159358
  H     -2.105308   -3.432322    0.763016

 Total Charge           Charge          ....    0
 Multiplicity           Mult            ....    1
 Number of Electrons    NEL             ....  202
 Basis Dimension        Dim             ....  334

ORBITAL ENERGIES
----------------

  NO   OCC          E(Eh)            E(eV)
   0   2.0000     -88.045268     -2395.8335
   1   2.0000     -88.042969     -2395.7710
   2   2.0000     -87.991068     -2394.3587
   3   2.0000     -87.989336     -2394.3116
   4   2.0000     -76.430268     -2079.7733
   5   2.0000     -76.426761     -2079.6779
   6   2.0000     -18.797507      -511.5062
   7   2.0000     -18.795326      -511.4468
   8   2.0000     -18.790992      -511.3289
   9   2.0000     -18.786417      -511.2044
  10   2.0000      -9.963207      -271.1126
  11   2.0000      -9.956041      -270.9176
  12   2.0000      -9.955720      -270.9089
  13   2.0000      -9.951389      -270.7911
  14   2.0000      -9.937619      -270.4164
  15   2.0000      -9.889940      -269.1190
  16   2.0000      -9.888570      -269.0817
  17   2.0000      -9.885858      -269.0079
  18   2.0000      -9.873701      -268.6771
  19   2.0000      -7.690700      -209.2746
  20   2.0000      -7.688455      -209.2135
  21   2.0000      -7.636005      -207.7863
  22   2.0000      -7.634512      -207.7456
  23   2.0000      -6.427892      -174.9118
  24   2.0000      -6.424624      -174.8229
  25   2.0000      -5.718934      -155.6201
  26   2.0000      -5.717041      -155.5686
  27   2.0000      -5.714902      -155.5104
  28   2.0000      -5.712704      -155.4506
  29   2.0000      -5.707550      -155.3103
  30   2.0000      -5.704867      -155.2373
  31   2.0000      -5.664933      -154.1507
  32   2.0000      -5.663451      -154.1103
  33   2.0000      -5.656984      -153.9344
  34   2.0000      -5.655776      -153.9015
  35   2.0000      -5.655050      -153.8817
  36   2.0000      -5.654715      -153.8726
  37   2.0000      -4.650571      -126.5485
  38   2.0000      -4.649751      -126.5262
  39   2.0000      -4.648174      -126.4833
  40   2.0000      -4.646842      -126.4470
  41   2.0000      -4.646618      -126.4409
  42   2.0000      -4.645160      -126.4012
  43   2.0000      -0.991216       -26.9724
  44   2.0000      -0.984082       -26.7782
  45   2.0000      -0.947411       -25.7804
  46   2.0000      -0.943605       -25.6768
  47   2.0000      -0.763970       -20.7887
  48   2.0000      -0.722965       -19.6729
  49   2.0000      -0.707895       -19.2628
  50   2.0000      -0.689773       -18.7697
  51   2.0000      -0.685316       -18.6484
  52   2.0000      -0.674005       -18.3406
  53   2.0000      -0.659044       -17.9335
  54   2.0000      -0.641102       -17.4453
  55   2.0000      -0.601614       -16.3708
  56   2.0000      -0.595572       -16.2063
  57   2.0000      -0.575089       -15.6490
  58   2.0000      -0.570133       -15.5141
  59   2.0000      -0.562531       -15.3072
  60   2.0000      -0.501937       -13.6584
  61   2.0000      -0.492221       -13.3940
  62   2.0000      -0.476187       -12.9577
  63   2.0000      -0.471987       -12.8434
  64   2.0000      -0.465944       -12.6790
  65   2.0000      -0.450179       -12.2500
  66   2.0000      -0.441037       -12.0012
  67   2.0000      -0.434839       -11.8326
  68   2.0000      -0.424828       -11.5602
  69   2.0000      -0.420994       -11.4558
  70   2.0000      -0.415245       -11.2994
  71   2.0000      -0.399327       -10.8662
  72   2.0000      -0.395471       -10.7613
  73   2.0000      -0.390994       -10.6395
  74   2.0000      -0.384713       -10.4686
  75   2.0000      -0.379205       -10.3187
  76   2.0000      -0.369627       -10.0581
  77   2.0000      -0.359947        -9.7946
  78   2.0000      -0.355128        -9.6635
  79   2.0000      -0.353378        -9.6159
  80   2.0000      -0.349045        -9.4980
  81   2.0000      -0.344522        -9.3749
  82   2.0000      -0.340381        -9.2622
  83   2.0000      -0.336257        -9.1500
  84   2.0000      -0.327627        -8.9152
  85   2.0000      -0.319379        -8.6907
  86   2.0000      -0.311447        -8.4749
  87   2.0000      -0.301341        -8.1999
  88   2.0000      -0.297376        -8.0920
  89   2.0000      -0.293548        -7.9879
  90   2.0000      -0.282915        -7.6985
  91   2.0000      -0.278710        -7.5841
  92   2.0000      -0.266913        -7.2631
  93   2.0000      -0.264358        -7.1935
  94   2.0000      -0.262400        -7.1403
  95   2.0000      -0.233673        -6.3586
  96   2.0000      -0.218686        -5.9508
  97   2.0000      -0.212587        -5.7848
  98   2.0000      -0.210115        -5.7175
  99   2.0000      -0.206679        -5.6240
 100   2.0000      -0.198182        -5.3928
 101   0.0000      -0.048553        -1.3212
 102   0.0000      -0.033054        -0.8995
 103   0.0000      -0.022486        -0.6119
 104   0.0000      -0.007522        -0.2047
 105   0.0000       0.011848         0.3224

MULLIKEN ATOMIC CHARGES
-----------------------
   0 C :   -0.313253
   1 C :   -0.007962
   2 O :   -0.377643
   3 P :    0.636213
   4 S :   -0.324082
   5 O :   -0.378066
   6 C :   -0.037004
   7 C :   -0.276092
   8 S :   -0.077039
   9 C :   -0.364888
  10 S :   -0.070532
  11 P :    0.626524
  12 S :   -0.317703
  13 O :   -0.379647
  14 C :   -0.008483
  15 C :   -0.312789
  16 O :   -0.376055
  17 C :   -0.012844
  18 C :   -0.311959
  19 H :    0.114120
  20 H :    0.117859
  21 H :    0.123685
  22 H :    0.109913
  23 H :    0.102433
  24 H :    0.112987
  25 H :    0.120003
  26 H :    0.109697
  27 H :    0.120723
  28 H :    0.110593
  29 H :    0.208665
  30 H :    0.187188
  31 H :    0.117788
  32 H :    0.111751
  33 H :    0.108603
  34 H :    0.111673
  35 H :    0.123108
  36 H :    0.101633
  37 H :    0.114485
  38 H :    0.114064
  39 H :    0.130058
  40 H :    0.112275
Sum of atomic charges:   -0.0000000

LOEWDIN ATOMIC CHARGES
----------------------
   0 C :   -0.367479
   1 C :   -0.125443
   2 O :   -0.253906
   3 P :    0.582449
   4 S :   -0.301843
   5 O :   -0.234071
   6 C :   -0.120440
   7 C :   -0.357337
   8 S :    0.092135
   9 C :   -0.476528
  10 S :    0.095047
  11 P :    0.575565
  12 S :   -0.309905
  13 O :   -0.244624
  14 C :   -0.126334
  15 C :   -0.365985
  16 O :   -0.241920
  17 C :   -0.123255
  18 C :   -0.367308
  19 H :    0.131345
  20 H :    0.124517
  21 H :    0.117991
  22 H :    0.107415
  23 H :    0.117082
  24 H :    0.108124
  25 H :    0.117552
  26 H :    0.123590
  27 H :    0.126552
  28 H :    0.130243
  29 H :    0.134777
  30 H :    0.140799
  31 H :    0.115005
  32 H :    0.107564
  33 H :    0.130618
  34 H :    0.116681
  35 H :    0.120637
  36 H :    0.114135
  37 H :    0.110312
  38 H :    0.131699
  39 H :    0.122752
  40 H :    0.121795

  Mayer bond orders larger than 0.100000
B(  0-C ,  1-C ) :   1.1632 B(  0-C , 19-H ) :   0.9387 B(  0-C , 20-H ) :   0.9443
B(  0-C , 21-H ) :   0.9349 B(  1-C ,  2-O ) :   0.9222 B(  1-C , 22-H ) :   0.9116
B(  1-C , 23-H ) :   0.9322 B(  2-O ,  3-P ) :   1.0627 B(  3-P ,  4-S ) :   1.6237
B(  3-P ,  5-O ) :   1.1107 B(  3-P ,  8-S ) :   0.9717 B(  5-O ,  6-C ) :   0.8906
B(  6-C ,  7-C ) :   1.1662 B(  6-C , 24-H ) :   0.8979 B(  6-C , 25-H ) :   0.9211
B(  7-C , 26-H ) :   0.9486 B(  7-C , 27-H ) :   0.9410 B(  7-C , 28-H ) :   0.9407
B(  8-S ,  9-C ) :   0.9929 B(  9-C , 10-S ) :   0.9865 B(  9-C , 29-H ) :   0.8734
B(  9-C , 30-H ) :   0.9096 B( 10-S , 11-P ) :   0.9825 B( 11-P , 12-S ) :   1.6329
B( 11-P , 13-O ) :   1.1113 B( 11-P , 16-O ) :   1.0625 B( 13-O , 14-C ) :   0.8908
B( 14-C , 15-C ) :   1.1695 B( 14-C , 31-H ) :   0.9124 B( 14-C , 32-H ) :   0.9131
B( 15-C , 33-H ) :   0.9387 B( 15-C , 34-H ) :   0.9359 B( 15-C , 35-H ) :   0.9354
B( 16-O , 17-C ) :   0.9138 B( 17-C , 18-C ) :   1.1645 B( 17-C , 36-H ) :   0.9308
B( 17-C , 37-H ) :   0.9110 B( 18-C , 38-H ) :   0.9385 B( 18-C , 39-H ) :   0.9352
B( 18-C , 40-H ) :   0.9463

Dispersion correction           -0.068450331
FINAL SINGLE POINT ENERGY     -2929.515842886668

DIPOLE MOMENT
-------------

Method             : SCF
Type of density    : Electron Density
Multiplicity       :   1
Irrep              :   0
Energy             : -2929.6375455329625765 Eh
Relativity type    :
Basis              : AO
                                X                 Y                 Z
Electronic contribution:     -7.589707724       4.930769818     -17.468476210
Nuclear contribution   :      8.586311042      -6.216618646      18.637318354
                        -----------------------------------------
Total Dipole Moment    :      0.996603319      -1.285848828       1.168842144
                        -----------------------------------------
Magnitude (a.u.)       :      2.003201772
Magnitude (Debye)      :      5.091734259

Rotational constants in cm-1:             0.012170             0.005544             0.005434
Rotational constants in MHz :           364.861230           166.215380           162.893312

                             ****ORCA TERMINATED NORMALLY****
TOTAL RUN TIME: 0 days 0 hours 0 minutes 22 seconds 551 msec
