                         Program Version 6.0.0  -   RELEASE  -
|  1> ! pbe def2-sv(p) def2/J RI DEFGRID1 loosescf d4 GCP(DFT/SV(P)) printgap
|  2> %output
|  3>     printlevel normal
|  4> end
|  5> * xyz 0 1
|  6> C 4.9937009784 1.2863110325 -1.1191036111
|  7> C 4.8432508856 0.5928844643 0.219168883
|  8> O 3.7786121736 -0.3743184662 0.2052389011
|  9> P 2.2494614957 0.0470650917 0.0901104243
| 10> S 1.7920852906 1.6404530285 1.1449733845
| 11> O 1.5179392636 -1.301450186 0.4845367247
| 12> C 1.4296679733 -1.7414535043 1.8558628121
| 13> C 0.3877975851 -2.8383568183 1.9259739934
| 14> S 1.8414032543 0.0840171317 -1.9694518274
| 15> C 0.0951026869 0.5389105791 -1.8735156549
| 16> S -0.9647794967 -0.9229026527 -1.5453616451
| 17> P -2.2140274747 -0.1492821139 -0.0492246673
| 18> S -3.6841011953 -1.3231880706 0.4972090157
| 19> O -2.6833126096 1.2995612469 -0.5397063078
| 20> C -3.9092879845 1.4910249345 -1.264441292
| 21> C -3.7844870275 1.0439397934 -2.7069902684
| 22> O -1.1345448065 0.2505489563 1.04604911
| 23> C -1.5150874921 0.9909947513 2.2302134696
| 24> C -1.9048140811 0.0663290881 3.3654173693
| 25> H 4.1204581305 1.9066067761 -1.3169227728
| 26> H 5.8772056344 1.9162608631 -1.1005709751
| 27> H 5.0879095258 0.5527969801 -1.9157561196
| 28> H 4.6382580824 1.3210655081 1.0106790908
| 29> H 5.7269446794 0.0062693045 0.4732872199
| 30> H 2.4143930783 -2.1057985161 2.1593045625
| 31> H 1.1576280521 -0.881225899 2.4772082695
| 32> H 0.3187942054 -3.2057568975 2.9449232999
| 33> H -0.5841903122 -2.4587793031 1.6161900355
| 34> H 0.6642515914 -3.6546802696 1.2648824004
| 35> H -0.169655038 0.9383100415 -2.8485741491
| 36> H -0.0490747917 1.2731467703 -1.0812421259
| 37> H -4.7026993212 0.9336720824 -0.7556834099
| 38> H -4.0994065699 2.5625700066 -1.1883495823
| 39> H -4.7116276082 1.2590144552 -3.2284299042
| 40> H -2.9680893091 1.5670241199 -3.1978009373
| 41> H -3.5965977852 -0.0283199958 -2.7492823752
| 42> H -0.6260547903 1.5772154525 2.4755109517
| 43> H -2.3336923645 1.6677432436 1.9746630181
| 44> H -2.7719054014 -0.529897424 3.0889840758
| 45> H -1.0842270901 -0.6024325484 3.6100287793
| 46> H -2.1492678155 0.6651360007 4.2371466257
| 47> *
| 48>
| 49>                          ****END OF INPUT****

CARTESIAN COORDINATES (ANGSTROEM)
---------------------------------
  C      4.993701    1.286311   -1.119104
  C      4.843251    0.592884    0.219169
  O      3.778612   -0.374318    0.205239
  P      2.249461    0.047065    0.090110
  S      1.792085    1.640453    1.144973
  O      1.517939   -1.301450    0.484537
  C      1.429668   -1.741454    1.855863
  C      0.387798   -2.838357    1.925974
  S      1.841403    0.084017   -1.969452
  C      0.095103    0.538911   -1.873516
  S     -0.964779   -0.922903   -1.545362
  P     -2.214027   -0.149282   -0.049225
  S     -3.684101   -1.323188    0.497209
  O     -2.683313    1.299561   -0.539706
  C     -3.909288    1.491025   -1.264441
  C     -3.784487    1.043940   -2.706990
  O     -1.134545    0.250549    1.046049
  C     -1.515087    0.990995    2.230213
  C     -1.904814    0.066329    3.365417
  H      4.120458    1.906607   -1.316923
  H      5.877206    1.916261   -1.100571
  H      5.087910    0.552797   -1.915756
  H      4.638258    1.321066    1.010679
  H      5.726945    0.006269    0.473287
  H      2.414393   -2.105799    2.159305
  H      1.157628   -0.881226    2.477208
  H      0.318794   -3.205757    2.944923
  H     -0.584190   -2.458779    1.616190
  H      0.664252   -3.654680    1.264882
  H     -0.169655    0.938310   -2.848574
  H     -0.049075    1.273147   -1.081242
  H     -4.702699    0.933672   -0.755683
  H     -4.099407    2.562570   -1.188350
  H     -4.711628    1.259014   -3.228430
  H     -2.968089    1.567024   -3.197801
  H     -3.596598   -0.028320   -2.749282
  H     -0.626055    1.577215    2.475511
  H     -2.333692    1.667743    1.974663
  H     -2.771905   -0.529897    3.088984
  H     -1.084227   -0.602433    3.610029
  H     -2.149268    0.665136    4.237147

 Total Charge           Charge          ....    0
 Multiplicity           Mult            ....    1
 Number of Electrons    NEL             ....  202
 Basis Dimension        Dim             ....  334

ORBITAL ENERGIES
----------------

  NO   OCC          E(Eh)            E(eV)
   0   2.0000     -88.050427     -2395.9739
   1   2.0000     -88.042331     -2395.7536
   2   2.0000     -87.989451     -2394.3147
   3   2.0000     -87.987187     -2394.2531
   4   2.0000     -76.428467     -2079.7243
   5   2.0000     -76.425748     -2079.6503
   6   2.0000     -18.798109      -511.5226
   7   2.0000     -18.794292      -511.4187
   8   2.0000     -18.788390      -511.2581
   9   2.0000     -18.787598      -511.2365
  10   2.0000      -9.961834      -271.0753
  11   2.0000      -9.955532      -270.9038
  12   2.0000      -9.952193      -270.8129
  13   2.0000      -9.947851      -270.6948
  14   2.0000      -9.945616      -270.6340
  15   2.0000      -9.888567      -269.0816
  16   2.0000      -9.886288      -269.0196
  17   2.0000      -9.877689      -268.7856
  18   2.0000      -9.877527      -268.7812
  19   2.0000      -7.696109      -209.4218
  20   2.0000      -7.687671      -209.1922
  21   2.0000      -7.634314      -207.7402
  22   2.0000      -7.632294      -207.6853
  23   2.0000      -6.426402      -174.8713
  24   2.0000      -6.423328      -174.7876
  25   2.0000      -5.724066      -155.7598
  26   2.0000      -5.720597      -155.6654
  27   2.0000      -5.716069      -155.5421
  28   2.0000      -5.712896      -155.4558
  29   2.0000      -5.711999      -155.4314
  30   2.0000      -5.704258      -155.2208
  31   2.0000      -5.663037      -154.0991
  32   2.0000      -5.661206      -154.0492
  33   2.0000      -5.655040      -153.8815
  34   2.0000      -5.654559      -153.8684
  35   2.0000      -5.652888      -153.8229
  36   2.0000      -5.652481      -153.8118
  37   2.0000      -4.648970      -126.5049
  38   2.0000      -4.648058      -126.4801
  39   2.0000      -4.646896      -126.4485
  40   2.0000      -4.645948      -126.4227
  41   2.0000      -4.645216      -126.4027
  42   2.0000      -4.643635      -126.3597
  43   2.0000      -0.988754       -26.9054
  44   2.0000      -0.985980       -26.8299
  45   2.0000      -0.946106       -25.7449
  46   2.0000      -0.942311       -25.6416
  47   2.0000      -0.767470       -20.8839
  48   2.0000      -0.723563       -19.6891
  49   2.0000      -0.708247       -19.2724
  50   2.0000      -0.688749       -18.7418
  51   2.0000      -0.685768       -18.6607
  52   2.0000      -0.674165       -18.3450
  53   2.0000      -0.654656       -17.8141
  54   2.0000      -0.639512       -17.4020
  55   2.0000      -0.600313       -16.3354
  56   2.0000      -0.589411       -16.0387
  57   2.0000      -0.575184       -15.6515
  58   2.0000      -0.569058       -15.4849
  59   2.0000      -0.558443       -15.1960
  60   2.0000      -0.504402       -13.7255
  61   2.0000      -0.500030       -13.6065
  62   2.0000      -0.476008       -12.9528
  63   2.0000      -0.468847       -12.7580
  64   2.0000      -0.457844       -12.4586
  65   2.0000      -0.448830       -12.2133
  66   2.0000      -0.441114       -12.0033
  67   2.0000      -0.434341       -11.8190
  68   2.0000      -0.426277       -11.5996
  69   2.0000      -0.421460       -11.4685
  70   2.0000      -0.417318       -11.3558
  71   2.0000      -0.397432       -10.8147
  72   2.0000      -0.392727       -10.6866
  73   2.0000      -0.387248       -10.5375
  74   2.0000      -0.385670       -10.4946
  75   2.0000      -0.373812       -10.1719
  76   2.0000      -0.368471       -10.0266
  77   2.0000      -0.356716        -9.7067
  78   2.0000      -0.353925        -9.6308
  79   2.0000      -0.349318        -9.5054
  80   2.0000      -0.347533        -9.4569
  81   2.0000      -0.342036        -9.3073
  82   2.0000      -0.338844        -9.2204
  83   2.0000      -0.331757        -9.0276
  84   2.0000      -0.329192        -8.9578
  85   2.0000      -0.320477        -8.7206
  86   2.0000      -0.309902        -8.4329
  87   2.0000      -0.300050        -8.1648
  88   2.0000      -0.294987        -8.0270
  89   2.0000      -0.292690        -7.9645
  90   2.0000      -0.285826        -7.7777
  91   2.0000      -0.273632        -7.4459
  92   2.0000      -0.271956        -7.4003
  93   2.0000      -0.265475        -7.2239
  94   2.0000      -0.263654        -7.1744
  95   2.0000      -0.241634        -6.5752
  96   2.0000      -0.220878        -6.0104
  97   2.0000      -0.209373        -5.6973
  98   2.0000      -0.208318        -5.6686
  99   2.0000      -0.203594        -5.5401
 100   2.0000      -0.198466        -5.4005
 101   0.0000      -0.043316        -1.1787
 102   0.0000      -0.029064        -0.7909
 103   0.0000      -0.021369        -0.5815
 104   0.0000       0.003695         0.1005
 105   0.0000       0.015131         0.4117

MULLIKEN ATOMIC CHARGES
-----------------------
   0 C :   -0.324376
   1 C :   -0.004532
   2 O :   -0.375501
   3 P :    0.626973
   4 S :   -0.337005
   5 O :   -0.359684
   6 C :   -0.015137
   7 C :   -0.290799
   8 S :   -0.071857
   9 C :   -0.367660
  10 S :   -0.051200
  11 P :    0.608687
  12 S :   -0.322209
  13 O :   -0.385697
  14 C :   -0.008706
  15 C :   -0.314882
  16 O :   -0.368190
  17 C :   -0.012464
  18 C :   -0.308219
  19 H :    0.128548
  20 H :    0.116652
  21 H :    0.120652
  22 H :    0.112603
  23 H :    0.106832
  24 H :    0.099470
  25 H :    0.106450
  26 H :    0.106028
  27 H :    0.134621
  28 H :    0.116055
  29 H :    0.189442
  30 H :    0.199751
  31 H :    0.112543
  32 H :    0.104309
  33 H :    0.113723
  34 H :    0.112364
  35 H :    0.129648
  36 H :    0.119417
  37 H :    0.099246
  38 H :    0.128771
  39 H :    0.118342
  40 H :    0.106989
Sum of atomic charges:    0.0000000

LOEWDIN ATOMIC CHARGES
----------------------
   0 C :   -0.370842
   1 C :   -0.120452
   2 O :   -0.243845
   3 P :    0.577564
   4 S :   -0.315557
   5 O :   -0.236282
   6 C :   -0.115880
   7 C :   -0.354683
   8 S :    0.101953
   9 C :   -0.473760
  10 S :    0.098156
  11 P :    0.563311
  12 S :   -0.317072
  13 O :   -0.250459
  14 C :   -0.123224
  15 C :   -0.366611
  16 O :   -0.239020
  17 C :   -0.119777
  18 C :   -0.364548
  19 H :    0.121593
  20 H :    0.133083
  21 H :    0.125280
  22 H :    0.110674
  23 H :    0.119518
  24 H :    0.110619
  25 H :    0.105137
  26 H :    0.127882
  27 H :    0.125190
  28 H :    0.127976
  29 H :    0.135643
  30 H :    0.130061
  31 H :    0.109138
  32 H :    0.117596
  33 H :    0.131603
  34 H :    0.121627
  35 H :    0.123033
  36 H :    0.111838
  37 H :    0.108554
  38 H :    0.122793
  39 H :    0.123090
  40 H :    0.129099

  Mayer bond orders larger than 0.100000
B(  0-C ,  1-C ) :   1.1643 B(  0-C , 19-H ) :   0.9343 B(  0-C , 20-H ) :   0.9379
B(  0-C , 21-H ) :   0.9448 B(  1-C ,  2-O ) :   0.9079 B(  1-C , 22-H ) :   0.9139
B(  1-C , 23-H ) :   0.9328 B(  2-O ,  3-P ) :   1.1067 B(  3-P ,  4-S ) :   1.6018
B(  3-P ,  5-O ) :   1.1439 B(  3-P ,  8-S ) :   0.9655 B(  4-S ,  8-S ) :   0.1097
B(  5-O ,  6-C ) :   0.8934 B(  6-C ,  7-C ) :   1.1664 B(  6-C , 24-H ) :   0.9289
B(  6-C , 25-H ) :   0.9076 B(  7-C , 26-H ) :   0.9386 B(  7-C , 27-H ) :   0.9340
B(  7-C , 28-H ) :   0.9470 B(  8-S ,  9-C ) :   1.0135 B(  9-C , 10-S ) :   0.9585
B(  9-C , 29-H ) :   0.9073 B(  9-C , 30-H ) :   0.8666 B( 10-S , 11-P ) :   1.0091
B( 11-P , 12-S ) :   1.6299 B( 11-P , 13-O ) :   1.0479 B( 11-P , 16-O ) :   1.1080
B( 13-O , 14-C ) :   0.9141 B( 14-C , 15-C ) :   1.1639 B( 14-C , 31-H ) :   0.9090
B( 14-C , 32-H ) :   0.9330 B( 15-C , 33-H ) :   0.9391 B( 15-C , 34-H ) :   0.9459
B( 15-C , 35-H ) :   0.9359 B( 16-O , 17-C ) :   0.8941 B( 17-C , 18-C ) :   1.1734
B( 17-C , 36-H ) :   0.9129 B( 17-C , 37-H ) :   0.9185 B( 18-C , 38-H ) :   0.9287
B( 18-C , 39-H ) :   0.9423 B( 18-C , 40-H ) :   0.9388

Dispersion correction           -0.066844986
FINAL SINGLE POINT ENERGY     -2929.523015631856

DIPOLE MOMENT
-------------

Method             : SCF
Type of density    : Electron Density
Multiplicity       :   1
Irrep              :   0
Energy             : -2929.6436941530319018 Eh
Relativity type    :
Basis              : AO
                                X                 Y                 Z
Electronic contribution:      0.534142269      -3.705186739      -7.631786868
Nuclear contribution   :      0.169134243       4.495158317       7.494040284
                        -----------------------------------------
Total Dipole Moment    :      0.703276511       0.789971577      -0.137746584
                        -----------------------------------------
Magnitude (a.u.)       :      1.066596018
Magnitude (Debye)      :      2.711071625

Rotational constants in cm-1:             0.012515             0.005401             0.004727
Rotational constants in MHz :           375.183563           161.909873           141.713296

                             ****ORCA TERMINATED NORMALLY****
TOTAL RUN TIME: 0 days 0 hours 0 minutes 21 seconds 958 msec
