                         Program Version 6.0.0  -   RELEASE  -
|  1> ! pbe def2-sv(p) def2/J RI DEFGRID1 loosescf d4 GCP(DFT/SV(P)) printgap
|  2> %output
|  3>     printlevel normal
|  4> end
|  5> * xyz 0 1
|  6> C 4.5508653239 -1.5591781655 -1.9471303414
|  7> C 3.7651951912 -2.2125402088 -0.8299396518
|  8> O 3.3628007621 -1.2770017581 0.1885605932
|  9> P 2.5418877751 0.0592177177 -0.0636522153
| 10> S 3.4694968729 1.6312277039 -0.7675130596
| 11> O 2.0060945979 0.3840473484 1.3781907573
| 12> C 1.2620845441 -0.5435086404 2.2090881035
| 13> C 0.7177092921 0.2447558278 3.3820014865
| 14> S 0.8834082936 -0.6178697297 -1.2330615869
| 15> C 0.1918702861 1.0257295211 -1.5090317056
| 16> S -0.7149810541 1.6611722564 -0.0772839496
| 17> P -2.3598517962 0.3372945226 -0.288386164
| 18> S -2.9725470013 -0.0423386946 -2.104063173
| 19> O -3.5044661341 1.0067325848 0.5738742979
| 20> C -3.3252836978 1.6398671549 1.8632358718
| 21> C -3.2416913064 0.6244975234 2.9842773802
| 22> O -1.8043818485 -0.932949801 0.5128604501
| 23> C -2.1891717882 -2.2777335815 0.1736253511
| 24> C -3.5930300687 -2.5795543267 0.6560905334
| 25> H 4.8968315109 -2.3204286822 -2.638878295
| 26> H 3.9220588675 -0.850596518 -2.4847054995
| 27> H 5.4061422725 -1.0208851264 -1.5454708185
| 28> H 4.3724772976 -2.9379165535 -0.2856433406
| 29> H 2.8660729221 -2.6966240434 -1.2212803802
| 30> H 0.4560172763 -0.977078449 1.6098257566
| 31> H 1.9428603229 -1.334174384 2.529509969
| 32> H 0.0694675373 1.0402525656 3.0235436504
| 33> H 0.1567072074 -0.41935578 4.0317205496
| 34> H 1.5352879286 0.6903350419 3.941070112
| 35> H -0.4862856753 0.9506992307 -2.3596404699
| 36> H 1.0056141027 1.7259778384 -1.7062179355
| 37> H -2.4276181247 2.2633238577 1.8225837282
| 38> H -4.2067143851 2.2758025536 1.9618987008
| 39> H -3.1648129068 1.1501669723 3.9309980963
| 40> H -4.1340587847 0.0042332989 2.9920212405
| 41> H -2.3678127785 -0.0084790032 2.8561796602
| 42> H -2.1169097108 -2.3990459906 -0.9116974444
| 43> H -1.4445823267 -2.9062435658 0.664030855
| 44> H -3.6597183459 -2.4570966433 1.733605501
| 45> H -4.2963003637 -1.8985157673 0.1768639799
| 46> H -3.8541893243 -3.5994109131 0.3922034527
| 47> *
| 48>
| 49>                          ****END OF INPUT****

CARTESIAN COORDINATES (ANGSTROEM)
---------------------------------
  C      4.550865   -1.559178   -1.947130
  C      3.765195   -2.212540   -0.829940
  O      3.362801   -1.277002    0.188561
  P      2.541888    0.059218   -0.063652
  S      3.469497    1.631228   -0.767513
  O      2.006095    0.384047    1.378191
  C      1.262085   -0.543509    2.209088
  C      0.717709    0.244756    3.382001
  S      0.883408   -0.617870   -1.233062
  C      0.191870    1.025730   -1.509032
  S     -0.714981    1.661172   -0.077284
  P     -2.359852    0.337295   -0.288386
  S     -2.972547   -0.042339   -2.104063
  O     -3.504466    1.006733    0.573874
  C     -3.325284    1.639867    1.863236
  C     -3.241691    0.624498    2.984277
  O     -1.804382   -0.932950    0.512860
  C     -2.189172   -2.277734    0.173625
  C     -3.593030   -2.579554    0.656091
  H      4.896832   -2.320429   -2.638878
  H      3.922059   -0.850597   -2.484705
  H      5.406142   -1.020885   -1.545471
  H      4.372477   -2.937917   -0.285643
  H      2.866073   -2.696624   -1.221280
  H      0.456017   -0.977078    1.609826
  H      1.942860   -1.334174    2.529510
  H      0.069468    1.040253    3.023544
  H      0.156707   -0.419356    4.031721
  H      1.535288    0.690335    3.941070
  H     -0.486286    0.950699   -2.359640
  H      1.005614    1.725978   -1.706218
  H     -2.427618    2.263324    1.822584
  H     -4.206714    2.275803    1.961899
  H     -3.164813    1.150167    3.930998
  H     -4.134059    0.004233    2.992021
  H     -2.367813   -0.008479    2.856180
  H     -2.116910   -2.399046   -0.911697
  H     -1.444582   -2.906244    0.664031
  H     -3.659718   -2.457097    1.733606
  H     -4.296300   -1.898516    0.176864
  H     -3.854189   -3.599411    0.392203

 Total Charge           Charge          ....    0
 Multiplicity           Mult            ....    1
 Number of Electrons    NEL             ....  202
 Basis Dimension        Dim             ....  334

ORBITAL ENERGIES
----------------

  NO   OCC          E(Eh)            E(eV)
   0   2.0000     -88.045485     -2395.8395
   1   2.0000     -88.043633     -2395.7891
   2   2.0000     -87.990838     -2394.3524
   3   2.0000     -87.981475     -2394.0977
   4   2.0000     -76.430927     -2079.7913
   5   2.0000     -76.426006     -2079.6573
   6   2.0000     -18.801049      -511.6026
   7   2.0000     -18.797362      -511.5022
   8   2.0000     -18.796860      -511.4886
   9   2.0000     -18.789887      -511.2988
  10   2.0000      -9.968044      -271.2443
  11   2.0000      -9.961847      -271.0756
  12   2.0000      -9.955497      -270.9028
  13   2.0000      -9.953835      -270.8576
  14   2.0000      -9.952449      -270.8199
  15   2.0000      -9.898039      -269.3393
  16   2.0000      -9.890015      -269.1210
  17   2.0000      -9.889278      -269.1009
  18   2.0000      -9.884433      -268.9691
  19   2.0000      -7.690522      -209.2697
  20   2.0000      -7.688407      -209.2122
  21   2.0000      -7.636053      -207.7876
  22   2.0000      -7.626829      -207.5366
  23   2.0000      -6.428777      -174.9359
  24   2.0000      -6.423303      -174.7870
  25   2.0000      -5.718236      -155.6011
  26   2.0000      -5.716007      -155.5404
  27   2.0000      -5.715233      -155.5194
  28   2.0000      -5.712977      -155.4580
  29   2.0000      -5.707449      -155.3076
  30   2.0000      -5.705657      -155.2588
  31   2.0000      -5.665104      -154.1553
  32   2.0000      -5.656830      -153.9302
  33   2.0000      -5.655924      -153.9055
  34   2.0000      -5.655864      -153.9039
  35   2.0000      -5.647427      -153.6743
  36   2.0000      -5.646793      -153.6570
  37   2.0000      -4.651670      -126.5784
  38   2.0000      -4.650276      -126.5404
  39   2.0000      -4.649171      -126.5104
  40   2.0000      -4.646208      -126.4297
  41   2.0000      -4.645322      -126.4056
  42   2.0000      -4.643256      -126.3494
  43   2.0000      -0.991119       -26.9697
  44   2.0000      -0.989431       -26.9238
  45   2.0000      -0.952966       -25.9315
  46   2.0000      -0.945696       -25.7337
  47   2.0000      -0.767324       -20.8799
  48   2.0000      -0.726866       -19.7790
  49   2.0000      -0.716734       -19.5033
  50   2.0000      -0.698378       -19.0038
  51   2.0000      -0.692007       -18.8305
  52   2.0000      -0.678318       -18.4580
  53   2.0000      -0.653967       -17.7953
  54   2.0000      -0.640319       -17.4240
  55   2.0000      -0.601418       -16.3654
  56   2.0000      -0.590795       -16.0764
  57   2.0000      -0.583927       -15.8894
  58   2.0000      -0.571874       -15.5615
  59   2.0000      -0.567202       -15.4344
  60   2.0000      -0.511841       -13.9279
  61   2.0000      -0.501031       -13.6337
  62   2.0000      -0.485452       -13.2098
  63   2.0000      -0.477227       -12.9860
  64   2.0000      -0.463513       -12.6128
  65   2.0000      -0.455039       -12.3823
  66   2.0000      -0.444555       -12.0969
  67   2.0000      -0.437378       -11.9017
  68   2.0000      -0.431419       -11.7395
  69   2.0000      -0.418197       -11.3797
  70   2.0000      -0.416262       -11.3271
  71   2.0000      -0.407106       -11.0779
  72   2.0000      -0.395717       -10.7680
  73   2.0000      -0.391259       -10.6467
  74   2.0000      -0.383996       -10.4491
  75   2.0000      -0.380124       -10.3437
  76   2.0000      -0.366107        -9.9623
  77   2.0000      -0.361096        -9.8259
  78   2.0000      -0.358281        -9.7493
  79   2.0000      -0.356895        -9.7116
  80   2.0000      -0.352886        -9.6025
  81   2.0000      -0.349349        -9.5063
  82   2.0000      -0.346512        -9.4291
  83   2.0000      -0.340455        -9.2642
  84   2.0000      -0.337552        -9.1853
  85   2.0000      -0.325730        -8.8636
  86   2.0000      -0.321089        -8.7373
  87   2.0000      -0.314214        -8.5502
  88   2.0000      -0.298873        -8.1327
  89   2.0000      -0.295207        -8.0330
  90   2.0000      -0.286696        -7.8014
  91   2.0000      -0.282378        -7.6839
  92   2.0000      -0.274104        -7.4587
  93   2.0000      -0.272062        -7.4032
  94   2.0000      -0.259412        -7.0590
  95   2.0000      -0.235354        -6.4043
  96   2.0000      -0.221995        -6.0408
  97   2.0000      -0.213126        -5.7994
  98   2.0000      -0.205043        -5.5795
  99   2.0000      -0.200300        -5.4504
 100   2.0000      -0.195622        -5.3231
 101   0.0000      -0.046150        -1.2558
 102   0.0000      -0.025976        -0.7068
 103   0.0000      -0.011681        -0.3179
 104   0.0000      -0.001233        -0.0336
 105   0.0000       0.009774         0.2660

MULLIKEN ATOMIC CHARGES
-----------------------
   0 C :   -0.308689
   1 C :   -0.014338
   2 O :   -0.384043
   3 P :    0.600594
   4 S :   -0.308380
   5 O :   -0.352778
   6 C :   -0.036676
   7 C :   -0.286038
   8 S :   -0.112263
   9 C :   -0.357219
  10 S :   -0.097735
  11 P :    0.619880
  12 S :   -0.310299
  13 O :   -0.365463
  14 C :   -0.033668
  15 C :   -0.323469
  16 O :   -0.378844
  17 C :   -0.007788
  18 C :   -0.310009
  19 H :    0.111882
  20 H :    0.128737
  21 H :    0.127935
  22 H :    0.109545
  23 H :    0.113688
  24 H :    0.129855
  25 H :    0.102445
  26 H :    0.121389
  27 H :    0.107873
  28 H :    0.120980
  29 H :    0.197253
  30 H :    0.194201
  31 H :    0.128491
  32 H :    0.119271
  33 H :    0.116348
  34 H :    0.125703
  35 H :    0.138914
  36 H :    0.115685
  37 H :    0.100123
  38 H :    0.113354
  39 H :    0.129232
  40 H :    0.114322
Sum of atomic charges:    0.0000000

LOEWDIN ATOMIC CHARGES
----------------------
   0 C :   -0.368738
   1 C :   -0.114198
   2 O :   -0.246734
   3 P :    0.568807
   4 S :   -0.309207
   5 O :   -0.232249
   6 C :   -0.122145
   7 C :   -0.351314
   8 S :    0.065890
   9 C :   -0.484945
  10 S :    0.084713
  11 P :    0.572484
  12 S :   -0.302492
  13 O :   -0.240276
  14 C :   -0.112822
  15 C :   -0.365457
  16 O :   -0.249784
  17 C :   -0.123752
  18 C :   -0.363961
  19 H :    0.130424
  20 H :    0.123128
  21 H :    0.131267
  22 H :    0.121343
  23 H :    0.108030
  24 H :    0.107187
  25 H :    0.111730
  26 H :    0.122851
  27 H :    0.126663
  28 H :    0.129656
  29 H :    0.130385
  30 H :    0.129257
  31 H :    0.107971
  32 H :    0.126238
  33 H :    0.132803
  34 H :    0.128924
  35 H :    0.124847
  36 H :    0.109435
  37 H :    0.113838
  38 H :    0.122163
  39 H :    0.126152
  40 H :    0.131886

  Mayer bond orders larger than 0.100000
B(  0-C ,  1-C ) :   1.1668 B(  0-C , 19-H ) :   0.9348 B(  0-C , 20-H ) :   0.9315
B(  0-C , 21-H ) :   0.9433 B(  1-C ,  2-O ) :   0.9133 B(  1-C , 22-H ) :   0.9334
B(  1-C , 23-H ) :   0.9264 B(  2-O ,  3-P ) :   1.0879 B(  3-P ,  4-S ) :   1.6483
B(  3-P ,  5-O ) :   1.1455 B(  3-P ,  8-S ) :   0.9353 B(  4-S ,  8-S ) :   0.1080
B(  5-O ,  6-C ) :   0.8838 B(  6-C ,  7-C ) :   1.1724 B(  6-C , 24-H ) :   0.9006
B(  6-C , 25-H ) :   0.9275 B(  7-C , 26-H ) :   0.9411 B(  7-C , 27-H ) :   0.9372
B(  7-C , 28-H ) :   0.9468 B(  8-S ,  9-C ) :   1.0102 B(  9-C , 10-S ) :   1.0053
B(  9-C , 29-H ) :   0.8719 B(  9-C , 30-H ) :   0.8626 B( 10-S , 11-P ) :   0.9622
B( 10-S , 12-S ) :   0.1016 B( 11-P , 12-S ) :   1.6292 B( 11-P , 13-O ) :   1.1289
B( 11-P , 16-O ) :   1.0629 B( 13-O , 14-C ) :   0.9042 B( 14-C , 15-C ) :   1.1622
B( 14-C , 31-H ) :   0.9147 B( 14-C , 32-H ) :   0.9336 B( 15-C , 33-H ) :   0.9366
B( 15-C , 34-H ) :   0.9405 B( 15-C , 35-H ) :   0.9298 B( 16-O , 17-C ) :   0.8986
B( 17-C , 18-C ) :   1.1640 B( 17-C , 36-H ) :   0.9098 B( 17-C , 37-H ) :   0.9312
B( 18-C , 38-H ) :   0.9448 B( 18-C , 39-H ) :   0.9357 B( 18-C , 40-H ) :   0.9397

Dispersion correction           -0.066248648
FINAL SINGLE POINT ENERGY     -2929.517973411013

DIPOLE MOMENT
-------------

Method             : SCF
Type of density    : Electron Density
Multiplicity       :   1
Irrep              :   0
Energy             : -2929.6381788887720177 Eh
Relativity type    :
Basis              : AO
                                X                 Y                 Z
Electronic contribution:      4.906603801      13.633022406     -16.286778465
Nuclear contribution   :     -5.368610185     -15.195420518      17.842827070
                        -----------------------------------------
Total Dipole Moment    :     -0.462006384      -1.562398113       1.556048606
                        -----------------------------------------
Magnitude (a.u.)       :      2.252959171
Magnitude (Debye)      :      5.726567114

Rotational constants in cm-1:             0.012289             0.005041             0.004766
Rotational constants in MHz :           368.417367           151.138573           142.893294

                             ****ORCA TERMINATED NORMALLY****
TOTAL RUN TIME: 0 days 0 hours 0 minutes 21 seconds 687 msec
