                         Program Version 6.0.0  -   RELEASE  -
|  1> ! pbe def2-sv(p) def2/J RI DEFGRID1 loosescf d4 GCP(DFT/SV(P)) printgap
|  2> %output
|  3>     printlevel normal
|  4> end
|  5> * xyz 0 1
|  6> C 4.3628981407 -0.1682534063 -2.229589564
|  7> C 4.4634697285 0.7360129272 -1.0184621926
|  8> O 3.6680411985 0.2668520406 0.0850322501
|  9> P 2.0804497695 0.2144602583 0.0391525806
| 10> S 1.1992010935 1.7438760049 -0.8026001507
| 11> O 1.6934923361 0.0949461158 1.5653753801
| 12> C 2.212595677 -0.9276800357 2.4525476489
| 13> C 3.3893761458 -0.4009049446 3.2470480589
| 14> S 1.6725791357 -1.7033800277 -0.7952401115
| 15> C -0.0991155732 -1.4937700835 -1.044882319
| 16> S -1.0010476162 -1.3529152228 0.5414454455
| 17> P -2.459159453 0.1153349105 0.0494390627
| 18> S -2.3149928909 0.9161846288 -1.7393435472
| 19> O -2.5010253587 1.0480383109 1.327798427
| 20> C -1.4447866454 1.9168051732 1.7659835867
| 21> C -1.5211492914 3.2671590407 1.0812197379
| 22> O -3.8560228123 -0.5639319864 0.3526120117
| 23> C -4.6228590555 -1.2222622536 -0.6689454218
| 24> C -3.9553229174 -2.4965152468 -1.1474461183
| 25> H 4.5612936525 -1.1999596877 -1.9502866944
| 26> H 3.3649273692 -0.1064076276 -2.6608884049
| 27> H 5.0856933992 0.1500880006 -2.9740320221
| 28> H 4.1408255207 1.7515446068 -1.2678855793
| 29> H 5.4772973095 0.7577559809 -0.6160780888
| 30> H 1.3695973779 -1.1790805867 3.0991815897
| 31> H 2.4928952046 -1.8022825247 1.8593246629
| 32> H 3.1022751779 0.4956365078 3.7896214894
| 33> H 3.7070493929 -1.161422447 3.9534252033
| 34> H 4.2149229439 -0.160311287 2.5827975141
| 35> H -0.4326561489 -2.3873371837 -1.566677836
| 36> H -0.294231401 -0.5917350631 -1.6332693001
| 37> H -1.6057422539 2.0086927071 2.8420226318
| 38> H -0.473769193 1.4444128574 1.5847562406
| 39> H -2.5104693076 3.6969933571 1.2117383548
| 40> H -0.7757645208 3.9288306464 1.5108415587
| 41> H -1.3181459214 3.1639075515 0.016443503
| 42> H -5.5801129002 -1.4241802416 -0.1866094385
| 43> H -4.765001388 -0.5267115049 -1.5023827728
| 44> H -3.7033849487 -3.1310467691 -0.3013987037
| 45> H -4.6294470796 -3.0289193307 -1.8106881324
| 46> H -3.0455008902 -2.2502977966 -1.6940426621
| 47> *
| 48>
| 49>                          ****END OF INPUT****

CARTESIAN COORDINATES (ANGSTROEM)
---------------------------------
  C      4.362898   -0.168253   -2.229590
  C      4.463470    0.736013   -1.018462
  O      3.668041    0.266852    0.085032
  P      2.080450    0.214460    0.039153
  S      1.199201    1.743876   -0.802600
  O      1.693492    0.094946    1.565375
  C      2.212596   -0.927680    2.452548
  C      3.389376   -0.400905    3.247048
  S      1.672579   -1.703380   -0.795240
  C     -0.099116   -1.493770   -1.044882
  S     -1.001048   -1.352915    0.541445
  P     -2.459159    0.115335    0.049439
  S     -2.314993    0.916185   -1.739344
  O     -2.501025    1.048038    1.327798
  C     -1.444787    1.916805    1.765984
  C     -1.521149    3.267159    1.081220
  O     -3.856023   -0.563932    0.352612
  C     -4.622859   -1.222262   -0.668945
  C     -3.955323   -2.496515   -1.147446
  H      4.561294   -1.199960   -1.950287
  H      3.364927   -0.106408   -2.660888
  H      5.085693    0.150088   -2.974032
  H      4.140826    1.751545   -1.267886
  H      5.477297    0.757756   -0.616078
  H      1.369597   -1.179081    3.099182
  H      2.492895   -1.802283    1.859325
  H      3.102275    0.495637    3.789621
  H      3.707049   -1.161422    3.953425
  H      4.214923   -0.160311    2.582798
  H     -0.432656   -2.387337   -1.566678
  H     -0.294231   -0.591735   -1.633269
  H     -1.605742    2.008693    2.842023
  H     -0.473769    1.444413    1.584756
  H     -2.510469    3.696993    1.211738
  H     -0.775765    3.928831    1.510842
  H     -1.318146    3.163908    0.016444
  H     -5.580113   -1.424180   -0.186609
  H     -4.765001   -0.526712   -1.502383
  H     -3.703385   -3.131047   -0.301399
  H     -4.629447   -3.028919   -1.810688
  H     -3.045501   -2.250298   -1.694043

 Total Charge           Charge          ....    0
 Multiplicity           Mult            ....    1
 Number of Electrons    NEL             ....  202
 Basis Dimension        Dim             ....  334

ORBITAL ENERGIES
----------------

  NO   OCC          E(Eh)            E(eV)
   0   2.0000     -88.049049     -2395.9364
   1   2.0000     -88.040116     -2395.6934
   2   2.0000     -87.987900     -2394.2725
   3   2.0000     -87.984024     -2394.1670
   4   2.0000     -76.430279     -2079.7736
   5   2.0000     -76.421529     -2079.5355
   6   2.0000     -18.800502      -511.5877
   7   2.0000     -18.796220      -511.4711
   8   2.0000     -18.782272      -511.0916
   9   2.0000     -18.781822      -511.0794
  10   2.0000      -9.958557      -270.9861
  11   2.0000      -9.957596      -270.9600
  12   2.0000      -9.954759      -270.8828
  13   2.0000      -9.947253      -270.6785
  14   2.0000      -9.938324      -270.4355
  15   2.0000      -9.889102      -269.0961
  16   2.0000      -9.888654      -269.0840
  17   2.0000      -9.882914      -268.9278
  18   2.0000      -9.866090      -268.4699
  19   2.0000      -7.693926      -209.3624
  20   2.0000      -7.684801      -209.1141
  21   2.0000      -7.632764      -207.6981
  22   2.0000      -7.628868      -207.5921
  23   2.0000      -6.427586      -174.9035
  24   2.0000      -6.418736      -174.6627
  25   2.0000      -5.721777      -155.6975
  26   2.0000      -5.718269      -155.6020
  27   2.0000      -5.712698      -155.4504
  28   2.0000      -5.711128      -155.4077
  29   2.0000      -5.709292      -155.3577
  30   2.0000      -5.701837      -155.1549
  31   2.0000      -5.661766      -154.0645
  32   2.0000      -5.657669      -153.9530
  33   2.0000      -5.653152      -153.8301
  34   2.0000      -5.653060      -153.8276
  35   2.0000      -5.649411      -153.7283
  36   2.0000      -5.649228      -153.7233
  37   2.0000      -4.650489      -126.5462
  38   2.0000      -4.649324      -126.5145
  39   2.0000      -4.647785      -126.4727
  40   2.0000      -4.640937      -126.2863
  41   2.0000      -4.640727      -126.2806
  42   2.0000      -4.639354      -126.2432
  43   2.0000      -0.993390       -27.0315
  44   2.0000      -0.981636       -26.7117
  45   2.0000      -0.950808       -25.8728
  46   2.0000      -0.936153       -25.4740
  47   2.0000      -0.762746       -20.7554
  48   2.0000      -0.720812       -19.6143
  49   2.0000      -0.708849       -19.2888
  50   2.0000      -0.694700       -18.9037
  51   2.0000      -0.679770       -18.4975
  52   2.0000      -0.671488       -18.2721
  53   2.0000      -0.652768       -17.7627
  54   2.0000      -0.634081       -17.2542
  55   2.0000      -0.599941       -16.3252
  56   2.0000      -0.592000       -16.1091
  57   2.0000      -0.578955       -15.7542
  58   2.0000      -0.563888       -15.3442
  59   2.0000      -0.558407       -15.1950
  60   2.0000      -0.504984       -13.7413
  61   2.0000      -0.489250       -13.3132
  62   2.0000      -0.479319       -13.0429
  63   2.0000      -0.461824       -12.5669
  64   2.0000      -0.453763       -12.3475
  65   2.0000      -0.446668       -12.1544
  66   2.0000      -0.441527       -12.0146
  67   2.0000      -0.432568       -11.7708
  68   2.0000      -0.429330       -11.6827
  69   2.0000      -0.416311       -11.3284
  70   2.0000      -0.411963       -11.2101
  71   2.0000      -0.396858       -10.7991
  72   2.0000      -0.394016       -10.7217
  73   2.0000      -0.387072       -10.5328
  74   2.0000      -0.382524       -10.4090
  75   2.0000      -0.370705       -10.0874
  76   2.0000      -0.365159        -9.9365
  77   2.0000      -0.359475        -9.7818
  78   2.0000      -0.357029        -9.7152
  79   2.0000      -0.351284        -9.5589
  80   2.0000      -0.347417        -9.4537
  81   2.0000      -0.343903        -9.3581
  82   2.0000      -0.338739        -9.2176
  83   2.0000      -0.333836        -9.0841
  84   2.0000      -0.322162        -8.7665
  85   2.0000      -0.319828        -8.7030
  86   2.0000      -0.308809        -8.4031
  87   2.0000      -0.300198        -8.1688
  88   2.0000      -0.297280        -8.0894
  89   2.0000      -0.290294        -7.8993
  90   2.0000      -0.281546        -7.6612
  91   2.0000      -0.274500        -7.4695
  92   2.0000      -0.267730        -7.2853
  93   2.0000      -0.261839        -7.1250
  94   2.0000      -0.254987        -6.9386
  95   2.0000      -0.237099        -6.4518
  96   2.0000      -0.220855        -6.0098
  97   2.0000      -0.212862        -5.7923
  98   2.0000      -0.206227        -5.6117
  99   2.0000      -0.197575        -5.3763
 100   2.0000      -0.190839        -5.1930
 101   0.0000      -0.041993        -1.1427
 102   0.0000      -0.033886        -0.9221
 103   0.0000      -0.014577        -0.3967
 104   0.0000       0.010836         0.2949
 105   0.0000       0.015086         0.4105

MULLIKEN ATOMIC CHARGES
-----------------------
   0 C :   -0.322797
   1 C :   -0.000470
   2 O :   -0.379036
   3 P :    0.596794
   4 S :   -0.294765
   5 O :   -0.348517
   6 C :   -0.011076
   7 C :   -0.287938
   8 S :   -0.100569
   9 C :   -0.361874
  10 S :   -0.117857
  11 P :    0.605566
  12 S :   -0.314599
  13 O :   -0.356475
  14 C :   -0.032524
  15 C :   -0.295231
  16 O :   -0.358444
  17 C :    0.003059
  18 C :   -0.321448
  19 H :    0.118194
  20 H :    0.133730
  21 H :    0.116933
  22 H :    0.114920
  23 H :    0.106126
  24 H :    0.110827
  25 H :    0.102134
  26 H :    0.118694
  27 H :    0.110512
  28 H :    0.121277
  29 H :    0.186577
  30 H :    0.213818
  31 H :    0.096630
  32 H :    0.131363
  33 H :    0.107758
  34 H :    0.103755
  35 H :    0.138253
  36 H :    0.105271
  37 H :    0.111439
  38 H :    0.119640
  39 H :    0.111483
  40 H :    0.118870
Sum of atomic charges:    0.0000000

LOEWDIN ATOMIC CHARGES
----------------------
   0 C :   -0.371528
   1 C :   -0.116377
   2 O :   -0.246643
   3 P :    0.567198
   4 S :   -0.286433
   5 O :   -0.232468
   6 C :   -0.117445
   7 C :   -0.358983
   8 S :    0.081942
   9 C :   -0.482474
  10 S :    0.061859
  11 P :    0.567375
  12 S :   -0.296264
  13 O :   -0.230771
  14 C :   -0.122633
  15 C :   -0.363322
  16 O :   -0.237498
  17 C :   -0.118347
  18 C :   -0.369164
  19 H :    0.123247
  20 H :    0.123630
  21 H :    0.133113
  22 H :    0.114321
  23 H :    0.118976
  24 H :    0.119998
  25 H :    0.102989
  26 H :    0.128218
  27 H :    0.129990
  28 H :    0.126006
  29 H :    0.132657
  30 H :    0.124053
  31 H :    0.114732
  32 H :    0.105295
  33 H :    0.122321
  34 H :    0.127846
  35 H :    0.122848
  36 H :    0.119057
  37 H :    0.109837
  38 H :    0.125148
  39 H :    0.129873
  40 H :    0.117818

  Mayer bond orders larger than 0.100000
B(  0-C ,  1-C ) :   1.1661 B(  0-C , 19-H ) :   0.9433 B(  0-C , 20-H ) :   0.9347
B(  0-C , 21-H ) :   0.9369 B(  1-C ,  2-O ) :   0.9032 B(  1-C , 22-H ) :   0.9183
B(  1-C , 23-H ) :   0.9340 B(  2-O ,  3-P ) :   1.0850 B(  3-P ,  4-S ) :   1.6529
B(  3-P ,  5-O ) :   1.1189 B(  3-P ,  8-S ) :   0.9429 B(  4-S ,  8-S ) :   0.1069
B(  5-O ,  6-C ) :   0.8891 B(  6-C ,  7-C ) :   1.1644 B(  6-C , 24-H ) :   0.9335
B(  6-C , 25-H ) :   0.9104 B(  7-C , 26-H ) :   0.9474 B(  7-C , 27-H ) :   0.9400
B(  7-C , 28-H ) :   0.9423 B(  8-S ,  9-C ) :   1.0042 B(  9-C , 10-S ) :   0.9924
B(  9-C , 29-H ) :   0.9021 B(  9-C , 30-H ) :   0.8427 B( 10-S , 11-P ) :   0.9439
B( 10-S , 12-S ) :   0.1272 B( 11-P , 12-S ) :   1.6079 B( 11-P , 13-O ) :   1.1446
B( 11-P , 16-O ) :   1.1167 B( 13-O , 14-C ) :   0.9037 B( 14-C , 15-C ) :   1.1711
B( 14-C , 31-H ) :   0.9354 B( 14-C , 32-H ) :   0.8983 B( 15-C , 33-H ) :   0.9462
B( 15-C , 34-H ) :   0.9398 B( 15-C , 35-H ) :   0.9322 B( 16-O , 17-C ) :   0.9223
B( 17-C , 18-C ) :   1.1609 B( 17-C , 36-H ) :   0.9343 B( 17-C , 37-H ) :   0.9151
B( 18-C , 38-H ) :   0.9437 B( 18-C , 39-H ) :   0.9383 B( 18-C , 40-H ) :   0.9355

Dispersion correction           -0.066749126
FINAL SINGLE POINT ENERGY     -2929.522567015535

DIPOLE MOMENT
-------------

Method             : SCF
Type of density    : Electron Density
Multiplicity       :   1
Irrep              :   0
Energy             : -2929.6409761086893013 Eh
Relativity type    :
Basis              : AO
                                X                 Y                 Z
Electronic contribution:     -7.097830855       0.651456310      -3.508669489
Nuclear contribution   :      8.200768842      -1.726558817       4.072024689
                        -----------------------------------------
Total Dipole Moment    :      1.102937987      -1.075102507       0.563355200
                        -----------------------------------------
Magnitude (a.u.)       :      1.640026429
Magnitude (Debye)      :      4.168615896

Rotational constants in cm-1:             0.012313             0.005087             0.004889
Rotational constants in MHz :           369.125526           152.493030           146.568590

                             ****ORCA TERMINATED NORMALLY****
TOTAL RUN TIME: 0 days 0 hours 0 minutes 20 seconds 951 msec
