                         Program Version 6.0.1  -  RELEASE   -
|  1> ! pbe def2-sv(p) def2/J RI DEFGRID1 loosescf d4 GCP(DFT/SV(P)) printgap
|  2> %output
|  3>     printlevel normal
|  4> end
|  5> * xyz 0 1
|  6> C 5.0256751146 -2.9443486844 0.418731054
|  7> C 4.5063234469 -1.8025124824 -0.432927196
|  8> O 3.0674149936 -1.8676777581 -0.444747088
|  9> C 2.4247738511 -1.1889473594 -1.3674554908
| 10> O 2.9575916558 -0.550245212 -2.2516830156
| 11> C 0.9196655684 -1.3365551239 -1.2289763647
| 12> C 0.2919498989 0.0392442933 -1.4144559091
| 13> H 0.599834853 0.4351224178 -2.3909162487
| 14> C 0.8213874614 1.0217351103 -0.3858525187
| 15> O 1.9228639807 0.9093109554 0.1007862803
| 16> O 0.0031852274 2.0360142388 -0.1850928373
| 17> C 0.4727269471 3.1380431608 0.6224363982
| 18> C 0.3323041319 2.8688861224 2.1101979117
| 19> S -1.5204862409 0.003698444 -1.4910786242
| 20> P -2.0190789946 0.0571472058 0.5768874051
| 21> S -0.6836247672 -0.6007605182 1.8495477478
| 22> O -2.5408647244 1.5056172965 0.926514675
| 23> C -3.5709926636 2.1552692228 0.154406429
| 24> O -3.3993227665 -0.7519350323 0.5883040833
| 25> C -3.4351826848 -2.1664805419 0.3682691124
| 26> H 4.7271228491 -3.8966506562 -0.00922422
| 27> H 6.1083261084 -2.8938489765 0.4636298617
| 28> H 4.6193484056 -2.8682750121 1.4227895573
| 29> H 4.8637162694 -1.8612410487 -1.4660011331
| 30> H 4.7883318978 -0.828220181 -0.0216445227
| 31> H 0.6966871964 -1.751791916 -0.2455366575
| 32> H 0.5591020494 -2.0095906725 -2.0081002804
| 33> H 1.5200835162 3.3180081323 0.3634976616
| 34> H -0.1509107775 3.9748084232 0.307640184
| 35> H 0.6492337681 3.7482403246 2.6608428671
| 36> H -0.7006939058 2.63859068 2.3591918718
| 37> H 0.9543999366 2.0247746053 2.4013140328
| 38> H -3.2682904262 2.2151072329 -0.8908612528
| 39> H -3.6667903478 3.1480043361 0.5860578784
| 40> H -4.5038513371 1.6025364879 0.2432083008
| 41> H -4.4382209522 -2.4802616846 0.64578129
| 42> H -2.6940950952 -2.6632302063 0.996270519
| 43> H -3.2416334736 -2.3823622568 -0.6820874106
| 44> *
| 45>
| 46>                          ****END OF INPUT****

CARTESIAN COORDINATES (ANGSTROEM)
---------------------------------
  C      5.025675   -2.944349    0.418731
  C      4.506323   -1.802512   -0.432927
  O      3.067415   -1.867678   -0.444747
  C      2.424774   -1.188947   -1.367455
  O      2.957592   -0.550245   -2.251683
  C      0.919666   -1.336555   -1.228976
  C      0.291950    0.039244   -1.414456
  H      0.599835    0.435122   -2.390916
  C      0.821387    1.021735   -0.385853
  O      1.922864    0.909311    0.100786
  O      0.003185    2.036014   -0.185093
  C      0.472727    3.138043    0.622436
  C      0.332304    2.868886    2.110198
  S     -1.520486    0.003698   -1.491079
  P     -2.019079    0.057147    0.576887
  S     -0.683625   -0.600761    1.849548
  O     -2.540865    1.505617    0.926515
  C     -3.570993    2.155269    0.154406
  O     -3.399323   -0.751935    0.588304
  C     -3.435183   -2.166481    0.368269
  H      4.727123   -3.896651   -0.009224
  H      6.108326   -2.893849    0.463630
  H      4.619348   -2.868275    1.422790
  H      4.863716   -1.861241   -1.466001
  H      4.788332   -0.828220   -0.021645
  H      0.696687   -1.751792   -0.245537
  H      0.559102   -2.009591   -2.008100
  H      1.520084    3.318008    0.363498
  H     -0.150911    3.974808    0.307640
  H      0.649234    3.748240    2.660843
  H     -0.700694    2.638591    2.359192
  H      0.954400    2.024775    2.401314
  H     -3.268290    2.215107   -0.890861
  H     -3.666790    3.148004    0.586058
  H     -4.503851    1.602536    0.243208
  H     -4.438221   -2.480262    0.645781
  H     -2.694095   -2.663230    0.996271
  H     -3.241633   -2.382362   -0.682087

 Total Charge           Charge          ....    0
 Multiplicity           Mult            ....    1
 Number of Electrons    NEL             ....  174
 Basis Dimension        Dim             ....  316

ORBITAL ENERGIES
----------------

  NO   OCC          E(Eh)            E(eV)
   0   2.0000     -88.045262     -2395.8334
   1   2.0000     -87.990626     -2394.3467
   2   2.0000     -76.431875     -2079.8171
   3   2.0000     -18.808076      -511.7938
   4   2.0000     -18.800973      -511.6005
   5   2.0000     -18.798852      -511.5428
   6   2.0000     -18.787974      -511.2468
   7   2.0000     -18.739321      -509.9228
   8   2.0000     -18.722555      -509.4666
   9   2.0000     -10.017981      -272.6031
  10   2.0000      -9.997163      -272.0366
  11   2.0000      -9.955311      -270.8978
  12   2.0000      -9.950003      -270.7533
  13   2.0000      -9.948533      -270.7134
  14   2.0000      -9.946860      -270.6678
  15   2.0000      -9.936022      -270.3729
  16   2.0000      -9.898135      -269.3419
  17   2.0000      -9.880459      -268.8610
  18   2.0000      -9.873499      -268.6716
  19   2.0000      -7.690082      -209.2578
  20   2.0000      -7.635456      -207.7713
  21   2.0000      -6.428949      -174.9406
  22   2.0000      -5.717957      -155.5935
  23   2.0000      -5.714477      -155.4988
  24   2.0000      -5.707187      -155.3005
  25   2.0000      -5.664575      -154.1409
  26   2.0000      -5.655824      -153.9028
  27   2.0000      -5.655632      -153.8976
  28   2.0000      -4.651695      -126.5791
  29   2.0000      -4.650814      -126.5551
  30   2.0000      -4.649270      -126.5131
  31   2.0000      -1.015132       -27.6232
  32   2.0000      -0.996603       -27.1190
  33   2.0000      -0.994067       -27.0500
  34   2.0000      -0.949686       -25.8423
  35   2.0000      -0.920844       -25.0574
  36   2.0000      -0.899719       -24.4826
  37   2.0000      -0.765344       -20.8261
  38   2.0000      -0.708155       -19.2699
  39   2.0000      -0.702042       -19.1035
  40   2.0000      -0.691548       -18.8180
  41   2.0000      -0.658321       -17.9138
  42   2.0000      -0.643338       -17.5061
  43   2.0000      -0.628328       -17.0977
  44   2.0000      -0.613278       -16.6881
  45   2.0000      -0.586012       -15.9462
  46   2.0000      -0.556379       -15.1399
  47   2.0000      -0.522257       -14.2113
  48   2.0000      -0.500373       -13.6158
  49   2.0000      -0.493214       -13.4210
  50   2.0000      -0.482059       -13.1175
  51   2.0000      -0.480572       -13.0770
  52   2.0000      -0.452767       -12.3204
  53   2.0000      -0.440535       -11.9876
  54   2.0000      -0.437030       -11.8922
  55   2.0000      -0.435823       -11.8594
  56   2.0000      -0.425826       -11.5873
  57   2.0000      -0.420958       -11.4549
  58   2.0000      -0.412763       -11.2319
  59   2.0000      -0.407169       -11.0796
  60   2.0000      -0.401940       -10.9374
  61   2.0000      -0.399373       -10.8675
  62   2.0000      -0.389123       -10.5886
  63   2.0000      -0.379508       -10.3269
  64   2.0000      -0.367811       -10.0087
  65   2.0000      -0.357671        -9.7327
  66   2.0000      -0.350530        -9.5384
  67   2.0000      -0.346406        -9.4262
  68   2.0000      -0.339356        -9.2343
  69   2.0000      -0.336653        -9.1608
  70   2.0000      -0.332752        -9.0547
  71   2.0000      -0.324015        -8.8169
  72   2.0000      -0.317578        -8.6417
  73   2.0000      -0.313837        -8.5399
  74   2.0000      -0.307792        -8.3754
  75   2.0000      -0.301876        -8.2145
  76   2.0000      -0.295098        -8.0300
  77   2.0000      -0.286958        -7.8085
  78   2.0000      -0.276138        -7.5141
  79   2.0000      -0.268487        -7.3059
  80   2.0000      -0.261622        -7.1191
  81   2.0000      -0.245246        -6.6735
  82   2.0000      -0.240627        -6.5478
  83   2.0000      -0.220286        -5.9943
  84   2.0000      -0.209638        -5.7045
  85   2.0000      -0.206650        -5.6232
  86   2.0000      -0.204185        -5.5562
  87   0.0000      -0.041604        -1.1321
  88   0.0000      -0.032363        -0.8806
  89   0.0000      -0.004116        -0.1120
  90   0.0000       0.003789         0.1031
  91   0.0000       0.010712         0.2915

MULLIKEN ATOMIC CHARGES
-----------------------
   0 C :   -0.275578
   1 C :   -0.025497
   2 O :   -0.223602
   3 C :    0.105784
   4 O :   -0.223948
   5 C :   -0.031150
   6 C :   -0.299046
   7 H :    0.165799
   8 C :    0.172778
   9 O :   -0.177192
  10 O :   -0.229419
  11 C :   -0.007726
  12 C :   -0.313199
  13 S :   -0.092634
  14 P :    0.604690
  15 S :   -0.287714
  16 O :   -0.359651
  17 C :   -0.108461
  18 O :   -0.388213
  19 C :   -0.101404
  20 H :    0.110751
  21 H :    0.108194
  22 H :    0.118209
  23 H :    0.105193
  24 H :    0.110491
  25 H :    0.114157
  26 H :    0.107756
  27 H :    0.107051
  28 H :    0.096195
  29 H :    0.103856
  30 H :    0.128346
  31 H :    0.137532
  32 H :    0.124539
  33 H :    0.130707
  34 H :    0.127100
  35 H :    0.127502
  36 H :    0.120395
  37 H :    0.117409
Sum of atomic charges:   -0.0000000

LOEWDIN ATOMIC CHARGES
----------------------
   0 C :   -0.351130
   1 C :   -0.105953
   2 O :   -0.053391
   3 C :    0.027260
   4 O :   -0.182927
   5 C :   -0.254429
   6 C :   -0.267439
   7 H :    0.159130
   8 C :    0.011676
   9 O :   -0.138132
  10 O :   -0.061667
  11 C :   -0.104677
  12 C :   -0.364028
  13 S :    0.099193
  14 P :    0.571006
  15 S :   -0.273844
  16 O :   -0.233634
  17 C :   -0.210779
  18 O :   -0.259551
  19 C :   -0.215672
  20 H :    0.124537
  21 H :    0.128830
  22 H :    0.128047
  23 H :    0.115724
  24 H :    0.120622
  25 H :    0.130505
  26 H :    0.140864
  27 H :    0.119731
  28 H :    0.115210
  29 H :    0.126581
  30 H :    0.125030
  31 H :    0.131564
  32 H :    0.111838
  33 H :    0.125632
  34 H :    0.117646
  35 H :    0.123748
  36 H :    0.112980
  37 H :    0.109899

  Mayer bond orders larger than 0.100000
B(  0-C ,  1-C ) :   1.1540 B(  0-C , 20-H ) :   0.9520 B(  0-C , 21-H ) :   0.9448
B(  0-C , 22-H ) :   0.9483 B(  1-C ,  2-O ) :   0.9090 B(  1-C , 23-H ) :   0.9237
B(  1-C , 24-H ) :   0.9330 B(  2-O ,  3-C ) :   1.2474 B(  3-C ,  4-O ) :   2.0294
B(  3-C ,  5-C ) :   1.0006 B(  5-C ,  6-C ) :   1.0404 B(  5-C , 25-H ) :   0.8845
B(  5-C , 26-H ) :   0.8811 B(  6-C ,  7-H ) :   0.8454 B(  6-C ,  8-C ) :   0.9185
B(  6-C , 13-S ) :   1.0020 B(  8-C ,  9-O ) :   2.0276 B(  8-C , 10-O ) :   1.2443
B( 10-O , 11-C ) :   0.9042 B( 11-C , 12-C ) :   1.1770 B( 11-C , 27-H ) :   0.9206
B( 11-C , 28-H ) :   0.9374 B( 12-C , 29-H ) :   0.9391 B( 12-C , 30-H ) :   0.9378
B( 12-C , 31-H ) :   0.9393 B( 13-S , 14-P ) :   0.9617 B( 13-S , 15-S ) :   0.1138
B( 14-P , 15-S ) :   1.6394 B( 14-P , 16-O ) :   1.1169 B( 14-P , 18-O ) :   1.0712
B( 16-O , 17-C ) :   0.9155 B( 17-C , 32-H ) :   0.9373 B( 17-C , 33-H ) :   0.9587
B( 17-C , 34-H ) :   0.9475 B( 18-O , 19-C ) :   0.9291 B( 19-C , 35-H ) :   0.9584
B( 19-C , 36-H ) :   0.9362 B( 19-C , 37-H ) :   0.9468

Dispersion correction           -0.053385180
FINAL SINGLE POINT ENERGY     -1979.022240950814

DIPOLE MOMENT
-------------

Method             : SCF
Type of density    : Electron Density
Multiplicity       :   1
Irrep              :   0
Energy             : -1979.1523326604356043 Eh
Relativity type    :
Basis              : AO
                                X                 Y                 Z
Electronic contribution:    -10.081285360       0.705720449      -4.085570957
Nuclear contribution   :      8.860473886      -0.512297661       3.898462704
                        -----------------------------------------
Total Dipole Moment    :     -1.220811474       0.193422788      -0.187108253
                        -----------------------------------------
Magnitude (a.u.)       :      1.250121005
Magnitude (Debye)      :      3.177555071

Rotational constants in cm-1:             0.015191             0.006455             0.005770
Rotational constants in MHz :           455.417969           193.506398           172.987401

                             ****ORCA TERMINATED NORMALLY****
TOTAL RUN TIME: 0 days 0 hours 0 minutes 43 seconds 267 msec
