                         Program Version 6.0.1  -  RELEASE   -
|  1> ! pbe def2-sv(p) def2/J RI DEFGRID1 loosescf d4 GCP(DFT/SV(P)) printgap
|  2> %output
|  3>     printlevel normal
|  4> end
|  5> * xyz 0 1
|  6> C 3.0259015858 -4.0442350623 0.0035681163
|  7> C 2.7319188853 -2.6182758052 0.4241949295
|  8> O 2.2035209653 -1.9183262165 -0.7185835138
|  9> C 2.0857330787 -0.6141983095 -0.6556229845
| 10> O 2.3799171833 0.0662974124 0.3083946934
| 11> C 1.5713088182 -0.0204466906 -1.9539897975
| 12> C 0.379089296 0.9070928921 -1.6988786878
| 13> H 0.2515321658 1.5876650918 -2.5437348734
| 14> C 0.5724278834 1.7176185282 -0.4308944444
| 15> O -0.1245216931 1.5547874727 0.5556145718
| 16> O 1.5098321584 2.6091397068 -0.558277176
| 17> C 1.853759603 3.4144771512 0.5903382273
| 18> C 0.8724240317 4.5595691976 0.7758792965
| 19> S -1.1953722002 -0.0003495393 -1.5789394208
| 20> P -1.6061417583 -0.3479633298 0.4861063311
| 21> S -0.3250890817 -1.1459666292 1.7393005789
| 22> O -2.5157080355 0.8152407185 1.0657793829
| 23> C -3.756794216 1.2040771222 0.4476456832
| 24> O -2.7894740615 -1.41611687 0.1972399264
| 25> C -2.5166234811 -2.7614067667 -0.1928028116
| 26> H 2.1148681827 -4.5225090078 -0.3423494519
| 27> H 3.7578766775 -4.0541384512 -0.7985529696
| 28> H 3.4161519637 -4.5919998719 0.8544975479
| 29> H 3.6304007104 -2.0928925167 0.7627789066
| 30> H 1.9857529507 -2.5698611178 1.2246303916
| 31> H 1.2910813432 -0.8179854747 -2.6405081679
| 32> H 2.3853887978 0.5689617363 -2.381371533
| 33> H 1.8758044693 2.7621079823 1.4677635299
| 34> H 2.8562996986 3.7761428113 0.3634713001
| 35> H 0.8168585899 5.1563271717 -0.1303508514
| 36> H -0.1164952428 4.1730025539 1.012605804
| 37> H 1.2084216917 5.1843658645 1.5966853999
| 38> H -4.0423178077 2.1265213312 0.9470661653
| 39> H -4.5047212821 0.4289207878 0.6041987311
| 40> H -3.6123894197 1.3700768926 -0.6202337128
| 41> H -1.7188588269 -3.1743263114 0.4280386192
| 42> H -2.2272273712 -2.7928491154 -1.2431653563
| 43> H -3.4424271978 -3.3084362193 -0.0333910568
| 44> *
| 45>
| 46>                          ****END OF INPUT****

CARTESIAN COORDINATES (ANGSTROEM)
---------------------------------
  C      3.025902   -4.044235    0.003568
  C      2.731919   -2.618276    0.424195
  O      2.203521   -1.918326   -0.718584
  C      2.085733   -0.614198   -0.655623
  O      2.379917    0.066297    0.308395
  C      1.571309   -0.020447   -1.953990
  C      0.379089    0.907093   -1.698879
  H      0.251532    1.587665   -2.543735
  C      0.572428    1.717619   -0.430894
  O     -0.124522    1.554787    0.555615
  O      1.509832    2.609140   -0.558277
  C      1.853760    3.414477    0.590338
  C      0.872424    4.559569    0.775879
  S     -1.195372   -0.000350   -1.578939
  P     -1.606142   -0.347963    0.486106
  S     -0.325089   -1.145967    1.739301
  O     -2.515708    0.815241    1.065779
  C     -3.756794    1.204077    0.447646
  O     -2.789474   -1.416117    0.197240
  C     -2.516623   -2.761407   -0.192803
  H      2.114868   -4.522509   -0.342349
  H      3.757877   -4.054138   -0.798553
  H      3.416152   -4.592000    0.854498
  H      3.630401   -2.092893    0.762779
  H      1.985753   -2.569861    1.224630
  H      1.291081   -0.817985   -2.640508
  H      2.385389    0.568962   -2.381372
  H      1.875804    2.762108    1.467764
  H      2.856300    3.776143    0.363471
  H      0.816859    5.156327   -0.130351
  H     -0.116495    4.173003    1.012606
  H      1.208422    5.184366    1.596685
  H     -4.042318    2.126521    0.947066
  H     -4.504721    0.428921    0.604199
  H     -3.612389    1.370077   -0.620234
  H     -1.718859   -3.174326    0.428039
  H     -2.227227   -2.792849   -1.243165
  H     -3.442427   -3.308436   -0.033391

 Total Charge           Charge          ....    0
 Multiplicity           Mult            ....    1
 Number of Electrons    NEL             ....  174
 Basis Dimension        Dim             ....  316

ORBITAL ENERGIES
----------------

  NO   OCC          E(Eh)            E(eV)
   0   2.0000     -88.033837     -2395.5225
   1   2.0000     -87.960512     -2393.5272
   2   2.0000     -76.415436     -2079.3697
   3   2.0000     -18.814596      -511.9712
   4   2.0000     -18.802279      -511.6360
   5   2.0000     -18.773402      -510.8502
   6   2.0000     -18.771166      -510.7894
   7   2.0000     -18.753346      -510.3045
   8   2.0000     -18.736173      -509.8372
   9   2.0000     -10.025542      -272.8089
  10   2.0000     -10.009764      -272.3795
  11   2.0000      -9.954072      -270.8641
  12   2.0000      -9.950606      -270.7698
  13   2.0000      -9.938843      -270.4497
  14   2.0000      -9.936358      -270.3820
  15   2.0000      -9.928274      -270.1621
  16   2.0000      -9.916310      -269.8365
  17   2.0000      -9.887964      -269.0652
  18   2.0000      -9.884079      -268.9595
  19   2.0000      -7.678697      -208.9480
  20   2.0000      -7.605677      -206.9610
  21   2.0000      -6.410289      -174.4328
  22   2.0000      -5.706799      -155.2899
  23   2.0000      -5.702754      -155.1798
  24   2.0000      -5.695900      -154.9933
  25   2.0000      -5.635019      -153.3367
  26   2.0000      -5.626455      -153.1036
  27   2.0000      -5.625161      -153.0684
  28   2.0000      -4.633520      -126.0845
  29   2.0000      -4.632400      -126.0540
  30   2.0000      -4.630404      -125.9997
  31   2.0000      -1.026104       -27.9217
  32   2.0000      -1.008992       -27.4561
  33   2.0000      -0.968043       -26.3418
  34   2.0000      -0.932181       -25.3659
  35   2.0000      -0.920408       -25.0456
  36   2.0000      -0.913670       -24.8622
  37   2.0000      -0.766139       -20.8477
  38   2.0000      -0.710661       -19.3381
  39   2.0000      -0.705898       -19.2085
  40   2.0000      -0.683643       -18.6029
  41   2.0000      -0.654937       -17.8217
  42   2.0000      -0.624315       -16.9885
  43   2.0000      -0.620227       -16.8772
  44   2.0000      -0.603549       -16.4234
  45   2.0000      -0.589755       -16.0481
  46   2.0000      -0.561199       -15.2710
  47   2.0000      -0.510874       -13.9016
  48   2.0000      -0.506201       -13.7744
  49   2.0000      -0.496797       -13.5185
  50   2.0000      -0.485473       -13.2104
  51   2.0000      -0.462542       -12.5864
  52   2.0000      -0.457967       -12.4619
  53   2.0000      -0.444989       -12.1088
  54   2.0000      -0.434251       -11.8166
  55   2.0000      -0.426956       -11.6181
  56   2.0000      -0.421368       -11.4660
  57   2.0000      -0.416610       -11.3365
  58   2.0000      -0.411281       -11.1915
  59   2.0000      -0.406495       -11.0613
  60   2.0000      -0.400566       -10.9000
  61   2.0000      -0.397878       -10.8268
  62   2.0000      -0.383607       -10.4385
  63   2.0000      -0.382942       -10.4204
  64   2.0000      -0.369087       -10.0434
  65   2.0000      -0.362512        -9.8645
  66   2.0000      -0.357970        -9.7409
  67   2.0000      -0.352276        -9.5859
  68   2.0000      -0.345144        -9.3918
  69   2.0000      -0.343329        -9.3425
  70   2.0000      -0.333575        -9.0771
  71   2.0000      -0.327410        -8.9093
  72   2.0000      -0.313997        -8.5443
  73   2.0000      -0.306902        -8.3512
  74   2.0000      -0.300957        -8.1895
  75   2.0000      -0.296803        -8.0764
  76   2.0000      -0.283431        -7.7125
  77   2.0000      -0.279993        -7.6190
  78   2.0000      -0.274444        -7.4680
  79   2.0000      -0.256870        -6.9898
  80   2.0000      -0.253861        -6.9079
  81   2.0000      -0.242747        -6.6055
  82   2.0000      -0.238282        -6.4840
  83   2.0000      -0.223858        -6.0915
  84   2.0000      -0.222387        -6.0515
  85   2.0000      -0.181377        -4.9355
  86   2.0000      -0.170591        -4.6420
  87   0.0000      -0.039312        -1.0697
  88   0.0000      -0.029061        -0.7908
  89   0.0000      -0.023720        -0.6454
  90   0.0000       0.004474         0.1217
  91   0.0000       0.031771         0.8645

MULLIKEN ATOMIC CHARGES
-----------------------
   0 C :   -0.274210
   1 C :   -0.038479
   2 O :   -0.217033
   3 C :    0.099454
   4 O :   -0.206056
   5 C :   -0.028330
   6 C :   -0.288621
   7 H :    0.143937
   8 C :    0.227617
   9 O :   -0.193059
  10 O :   -0.220637
  11 C :   -0.004909
  12 C :   -0.313641
  13 S :   -0.115835
  14 P :    0.638526
  15 S :   -0.325077
  16 O :   -0.367252
  17 C :   -0.096985
  18 O :   -0.409788
  19 C :   -0.096261
  20 H :    0.115605
  21 H :    0.109218
  22 H :    0.111641
  23 H :    0.102143
  24 H :    0.131657
  25 H :    0.114382
  26 H :    0.123464
  27 H :    0.130657
  28 H :    0.104197
  29 H :    0.110356
  30 H :    0.135953
  31 H :    0.116891
  32 H :    0.122700
  33 H :    0.121756
  34 H :    0.106806
  35 H :    0.108021
  36 H :    0.105848
  37 H :    0.115341
Sum of atomic charges:    0.0000000

LOEWDIN ATOMIC CHARGES
----------------------
   0 C :   -0.350397
   1 C :   -0.111287
   2 O :   -0.045127
   3 C :    0.025877
   4 O :   -0.157297
   5 C :   -0.246219
   6 C :   -0.260503
   7 H :    0.146454
   8 C :    0.025701
   9 O :   -0.141525
  10 O :   -0.035947
  11 C :   -0.102087
  12 C :   -0.358623
  13 S :    0.085734
  14 P :    0.585795
  15 S :   -0.314023
  16 O :   -0.242249
  17 C :   -0.209595
  18 O :   -0.275516
  19 C :   -0.222953
  20 H :    0.127034
  21 H :    0.123307
  22 H :    0.131018
  23 H :    0.115501
  24 H :    0.117389
  25 H :    0.135228
  26 H :    0.148602
  27 H :    0.131809
  28 H :    0.119844
  29 H :    0.123230
  30 H :    0.133226
  31 H :    0.133082
  32 H :    0.121171
  33 H :    0.115102
  34 H :    0.104253
  35 H :    0.103541
  36 H :    0.103099
  37 H :    0.117353

  Mayer bond orders larger than 0.100000
B(  0-C ,  1-C ) :   1.1543 B(  0-C , 20-H ) :   0.9487 B(  0-C , 21-H ) :   0.9516
B(  0-C , 22-H ) :   0.9444 B(  1-C ,  2-O ) :   0.8969 B(  1-C , 23-H ) :   0.9265
B(  1-C , 24-H ) :   0.9144 B(  2-O ,  3-C ) :   1.2684 B(  2-O ,  4-O ) :   0.1011
B(  3-C ,  4-O ) :   1.9641 B(  3-C ,  5-C ) :   1.0076 B(  4-O ,  8-C ) :   0.1056
B(  5-C ,  6-C ) :   1.0242 B(  5-C , 25-H ) :   0.9046 B(  5-C , 26-H ) :   0.8754
B(  6-C ,  7-H ) :   0.8785 B(  6-C ,  8-C ) :   0.9091 B(  6-C , 13-S ) :   1.0282
B(  8-C ,  9-O ) :   1.8919 B(  8-C , 10-O ) :   1.2723 B(  9-O , 14-P ) :   0.1658
B( 10-O , 11-C ) :   0.8971 B( 11-C , 12-C ) :   1.1721 B( 11-C , 27-H ) :   0.9171
B( 11-C , 28-H ) :   0.9386 B( 12-C , 29-H ) :   0.9471 B( 12-C , 30-H ) :   0.9429
B( 12-C , 31-H ) :   0.9437 B( 13-S , 14-P ) :   0.9331 B( 13-S , 15-S ) :   0.1100
B( 14-P , 15-S ) :   1.6087 B( 14-P , 16-O ) :   1.1028 B( 14-P , 18-O ) :   1.0008
B( 16-O , 17-C ) :   0.9307 B( 17-C , 32-H ) :   0.9587 B( 17-C , 33-H ) :   0.9482
B( 17-C , 34-H ) :   0.9388 B( 18-O , 19-C ) :   0.9476 B( 19-C , 35-H ) :   0.9264
B( 19-C , 36-H ) :   0.9479 B( 19-C , 37-H ) :   0.9590

Dispersion correction           -0.053263398
FINAL SINGLE POINT ENERGY     -1979.005892198794

DIPOLE MOMENT
-------------

Method             : SCF
Type of density    : Electron Density
Multiplicity       :   1
Irrep              :   0
Energy             : -1979.1356060022835663 Eh
Relativity type    :
Basis              : AO
                                X                 Y                 Z
Electronic contribution:     -6.701003784       0.888989148       0.449613941
Nuclear contribution   :      7.048544236      -0.372572812      -1.807305053
                        -----------------------------------------
Total Dipole Moment    :      0.347540452       0.516416336      -1.357691112
                        -----------------------------------------
Magnitude (a.u.)       :      1.493584733
Magnitude (Debye)      :      3.796390687

Rotational constants in cm-1:             0.010478             0.009890             0.006436
Rotational constants in MHz :           314.132561           296.497473           192.951994

                             ****ORCA TERMINATED NORMALLY****
TOTAL RUN TIME: 0 days 0 hours 0 minutes 36 seconds 552 msec
