                         Program Version 6.0.0  -   RELEASE  -
|  1> ! pbe def2-sv(p) def2/J RI DEFGRID1 loosescf d4 GCP(DFT/SV(P)) printgap
|  2> %output
|  3>     printlevel normal
|  4> end
|  5> * xyz 0 1
|  6> C 4.5611826093 -1.574509372 -0.5531933016
|  7> C 4.5769484094 -0.1026530705 -0.1937658797
|  8> O 3.3924679852 0.2993143461 0.5146098587
|  9> P 1.9573537271 0.352836717 -0.1710634954
| 10> S 1.9744203497 0.9580146976 -2.0401486915
| 11> O 1.152558189 1.2233145701 0.8787887356
| 12> C 1.1009368071 2.6601668519 0.8195721286
| 13> C 2.446233644 3.2929948508 1.1035061156
| 14> S 1.1784624899 -1.5573216345 0.2298297923
| 15> C -0.0056877058 -1.742437647 -1.1477965519
| 16> S -1.7028529843 -1.9982261339 -0.5865387761
| 17> P -2.0844965003 -0.025494315 0.1056112184
| 18> S -1.5264875388 1.4259166395 -1.0815776574
| 19> O -1.4203950473 0.0673619355 1.5320449932
| 20> C -1.7621529114 -0.8425928559 2.6125034113
| 21> C -0.5814351605 -0.9139304356 3.5576860691
| 22> O -3.6310364082 -0.0538820433 0.4742457001
| 23> C -4.6725708546 0.2232964411 -0.4797359609
| 24> C -4.7527245287 -0.8255365212 -1.5695660457
| 25> H 4.3546582648 -2.1770129289 0.3276578095
| 26> H 3.7918581468 -1.7662455984 -1.2998499895
| 27> H 5.5263648496 -1.8525037999 -0.9642073565
| 28> H 4.663274894 0.5104299233 -1.0967668394
| 29> H 5.3869083269 0.1350052583 0.4971561355
| 30> H 0.7296425889 2.9531246165 -0.1687502608
| 31> H 0.3565596458 2.9225606273 1.5733659331
| 32> H 2.8478404968 2.9144653406 2.0398498607
| 33> H 3.1428166344 3.06041886 0.2990085804
| 34> H 2.3273697976 4.3702223824 1.1661629584
| 35> H 0.2633021523 -2.6364421844 -1.7041360517
| 36> H 0.0497732673 -0.8519576424 -1.7801144679
| 37> H -2.6513370728 -0.4429244902 3.1031889279
| 38> H -1.9931681318 -1.8232037947 2.185873715
| 39> H 0.288861951 -1.3143777899 3.043588023
| 40> H -0.3400592883 0.0780389764 3.928868867
| 41> H -0.8342572818 -1.56052446 4.391718839
| 42> H -5.5781276674 0.2431006886 0.1283311932
| 43> H -4.4905283721 1.2129050612 -0.9098859433
| 44> H -3.8732754404 -0.7682218643 -2.2089860123
| 45> H -4.8070877332 -1.820508672 -1.1351378717
| 46> H -5.6365145513 -0.6455241794 -2.1731718125
| 47> *
| 48>
| 49>                          ****END OF INPUT****

CARTESIAN COORDINATES (ANGSTROEM)
---------------------------------
  C      4.561183   -1.574509   -0.553193
  C      4.576948   -0.102653   -0.193766
  O      3.392468    0.299314    0.514610
  P      1.957354    0.352837   -0.171063
  S      1.974420    0.958015   -2.040149
  O      1.152558    1.223315    0.878789
  C      1.100937    2.660167    0.819572
  C      2.446234    3.292995    1.103506
  S      1.178462   -1.557322    0.229830
  C     -0.005688   -1.742438   -1.147797
  S     -1.702853   -1.998226   -0.586539
  P     -2.084497   -0.025494    0.105611
  S     -1.526488    1.425917   -1.081578
  O     -1.420395    0.067362    1.532045
  C     -1.762153   -0.842593    2.612503
  C     -0.581435   -0.913930    3.557686
  O     -3.631036   -0.053882    0.474246
  C     -4.672571    0.223296   -0.479736
  C     -4.752725   -0.825537   -1.569566
  H      4.354658   -2.177013    0.327658
  H      3.791858   -1.766246   -1.299850
  H      5.526365   -1.852504   -0.964207
  H      4.663275    0.510430   -1.096767
  H      5.386908    0.135005    0.497156
  H      0.729643    2.953125   -0.168750
  H      0.356560    2.922561    1.573366
  H      2.847840    2.914465    2.039850
  H      3.142817    3.060419    0.299009
  H      2.327370    4.370222    1.166163
  H      0.263302   -2.636442   -1.704136
  H      0.049773   -0.851958   -1.780114
  H     -2.651337   -0.442924    3.103189
  H     -1.993168   -1.823204    2.185874
  H      0.288862   -1.314378    3.043588
  H     -0.340059    0.078039    3.928869
  H     -0.834257   -1.560524    4.391719
  H     -5.578128    0.243101    0.128331
  H     -4.490528    1.212905   -0.909886
  H     -3.873275   -0.768222   -2.208986
  H     -4.807088   -1.820509   -1.135138
  H     -5.636515   -0.645524   -2.173172

 Total Charge           Charge          ....    0
 Multiplicity           Mult            ....    1
 Number of Electrons    NEL             ....  202
 Basis Dimension        Dim             ....  334

ORBITAL ENERGIES
----------------

  NO   OCC          E(Eh)            E(eV)
   0   2.0000     -88.043999     -2395.7990
   1   2.0000     -88.040937     -2395.7157
   2   2.0000     -87.982593     -2394.1281
   3   2.0000     -87.982518     -2394.1260
   4   2.0000     -76.423549     -2079.5905
   5   2.0000     -76.420888     -2079.5181
   6   2.0000     -18.793958      -511.4096
   7   2.0000     -18.788550      -511.2624
   8   2.0000     -18.787358      -511.2300
   9   2.0000     -18.778987      -511.0022
  10   2.0000      -9.954979      -270.8887
  11   2.0000      -9.953765      -270.8557
  12   2.0000      -9.951144      -270.7844
  13   2.0000      -9.948733      -270.7188
  14   2.0000      -9.937983      -270.4263
  15   2.0000      -9.884939      -268.9829
  16   2.0000      -9.881519      -268.8898
  17   2.0000      -9.881301      -268.8839
  18   2.0000      -9.875719      -268.7320
  19   2.0000      -7.689059      -209.2299
  20   2.0000      -7.686054      -209.1482
  21   2.0000      -7.627455      -207.5536
  22   2.0000      -7.627427      -207.5528
  23   2.0000      -6.421129      -174.7278
  24   2.0000      -6.418455      -174.6550
  25   2.0000      -5.716855      -155.5635
  26   2.0000      -5.713922      -155.4837
  27   2.0000      -5.713402      -155.4696
  28   2.0000      -5.710596      -155.3932
  29   2.0000      -5.706266      -155.2754
  30   2.0000      -5.702909      -155.1840
  31   2.0000      -5.656402      -153.9185
  32   2.0000      -5.656338      -153.9168
  33   2.0000      -5.648271      -153.6973
  34   2.0000      -5.647894      -153.6870
  35   2.0000      -5.647669      -153.6809
  36   2.0000      -5.647485      -153.6759
  37   2.0000      -4.644009      -126.3699
  38   2.0000      -4.642851      -126.3384
  39   2.0000      -4.641337      -126.2972
  40   2.0000      -4.640719      -126.2804
  41   2.0000      -4.640081      -126.2630
  42   2.0000      -4.639329      -126.2426
  43   2.0000      -0.986665       -26.8485
  44   2.0000      -0.980102       -26.6699
  45   2.0000      -0.942527       -25.6475
  46   2.0000      -0.937519       -25.5112
  47   2.0000      -0.762021       -20.7356
  48   2.0000      -0.718687       -19.5565
  49   2.0000      -0.706258       -19.2183
  50   2.0000      -0.688282       -18.7291
  51   2.0000      -0.682490       -18.5715
  52   2.0000      -0.672246       -18.2928
  53   2.0000      -0.648824       -17.6554
  54   2.0000      -0.632462       -17.2102
  55   2.0000      -0.600132       -16.3304
  56   2.0000      -0.588953       -16.0262
  57   2.0000      -0.568124       -15.4594
  58   2.0000      -0.565714       -15.3939
  59   2.0000      -0.559338       -15.2204
  60   2.0000      -0.503539       -13.7020
  61   2.0000      -0.486298       -13.2329
  62   2.0000      -0.473267       -12.8782
  63   2.0000      -0.465492       -12.6667
  64   2.0000      -0.450681       -12.2637
  65   2.0000      -0.445053       -12.1105
  66   2.0000      -0.437133       -11.8950
  67   2.0000      -0.434426       -11.8213
  68   2.0000      -0.429566       -11.6891
  69   2.0000      -0.414479       -11.2785
  70   2.0000      -0.412269       -11.2184
  71   2.0000      -0.389030       -10.5860
  72   2.0000      -0.386092       -10.5061
  73   2.0000      -0.383982       -10.4487
  74   2.0000      -0.379266       -10.3204
  75   2.0000      -0.377187       -10.2638
  76   2.0000      -0.362178        -9.8554
  77   2.0000      -0.355042        -9.6612
  78   2.0000      -0.350985        -9.5508
  79   2.0000      -0.350119        -9.5272
  80   2.0000      -0.342902        -9.3308
  81   2.0000      -0.339991        -9.2516
  82   2.0000      -0.337401        -9.1811
  83   2.0000      -0.335625        -9.1328
  84   2.0000      -0.331215        -9.0128
  85   2.0000      -0.313211        -8.5229
  86   2.0000      -0.306353        -8.3363
  87   2.0000      -0.300075        -8.1654
  88   2.0000      -0.293823        -7.9953
  89   2.0000      -0.290737        -7.9114
  90   2.0000      -0.274273        -7.4633
  91   2.0000      -0.267179        -7.2703
  92   2.0000      -0.264496        -7.1973
  93   2.0000      -0.261863        -7.1256
  94   2.0000      -0.256603        -6.9825
  95   2.0000      -0.236469        -6.4346
  96   2.0000      -0.218569        -5.9476
  97   2.0000      -0.214885        -5.8473
  98   2.0000      -0.203774        -5.5450
  99   2.0000      -0.193858        -5.2751
 100   2.0000      -0.186694        -5.0802
 101   0.0000      -0.038447        -1.0462
 102   0.0000      -0.029619        -0.8060
 103   0.0000      -0.010553        -0.2872
 104   0.0000       0.013390         0.3644
 105   0.0000       0.022721         0.6183

MULLIKEN ATOMIC CHARGES
-----------------------
   0 C :   -0.308690
   1 C :   -0.003685
   2 O :   -0.375627
   3 P :    0.613402
   4 S :   -0.320170
   5 O :   -0.351517
   6 C :   -0.002872
   7 C :   -0.301198
   8 S :   -0.092892
   9 C :   -0.358384
  10 S :   -0.102311
  11 P :    0.594817
  12 S :   -0.297088
  13 O :   -0.346949
  14 C :   -0.011670
  15 C :   -0.278436
  16 O :   -0.384784
  17 C :    0.001876
  18 C :   -0.322540
  19 H :    0.116030
  20 H :    0.120928
  21 H :    0.110926
  22 H :    0.109141
  23 H :    0.103257
  24 H :    0.121821
  25 H :    0.101107
  26 H :    0.112028
  27 H :    0.118904
  28 H :    0.108836
  29 H :    0.182863
  30 H :    0.210329
  31 H :    0.105558
  32 H :    0.099475
  33 H :    0.126260
  34 H :    0.116187
  35 H :    0.104568
  36 H :    0.104164
  37 H :    0.111879
  38 H :    0.132128
  39 H :    0.117436
  40 H :    0.114894
Sum of atomic charges:    0.0000000

LOEWDIN ATOMIC CHARGES
----------------------
   0 C :   -0.369267
   1 C :   -0.120274
   2 O :   -0.245809
   3 P :    0.571317
   4 S :   -0.313068
   5 O :   -0.229895
   6 C :   -0.119504
   7 C :   -0.365416
   8 S :    0.090477
   9 C :   -0.480123
  10 S :    0.076596
  11 P :    0.564613
  12 S :   -0.289432
  13 O :   -0.230874
  14 C :   -0.115610
  15 C :   -0.352751
  16 O :   -0.250598
  17 C :   -0.116161
  18 C :   -0.371870
  19 H :    0.123197
  20 H :    0.119707
  21 H :    0.129751
  22 H :    0.109298
  23 H :    0.117651
  24 H :    0.109059
  25 H :    0.117594
  26 H :    0.123914
  27 H :    0.120891
  28 H :    0.128858
  29 H :    0.137268
  30 H :    0.127296
  31 H :    0.114298
  32 H :    0.101755
  33 H :    0.122545
  34 H :    0.127704
  35 H :    0.127359
  36 H :    0.118385
  37 H :    0.112917
  38 H :    0.123158
  39 H :    0.122947
  40 H :    0.132099

  Mayer bond orders larger than 0.100000
B(  0-C ,  1-C ) :   1.1678 B(  0-C , 19-H ) :   0.9441 B(  0-C , 20-H ) :   0.9369
B(  0-C , 21-H ) :   0.9381 B(  1-C ,  2-O ) :   0.9124 B(  1-C , 22-H ) :   0.9142
B(  1-C , 23-H ) :   0.9340 B(  2-O ,  3-P ) :   1.0953 B(  3-P ,  4-S ) :   1.5944
B(  3-P ,  5-O ) :   1.1492 B(  3-P ,  8-S ) :   0.9619 B(  4-S ,  8-S ) :   0.1143
B(  5-O ,  6-C ) :   0.9050 B(  6-C ,  7-C ) :   1.1571 B(  6-C , 24-H ) :   0.9133
B(  6-C , 25-H ) :   0.9355 B(  7-C , 26-H ) :   0.9450 B(  7-C , 27-H ) :   0.9386
B(  7-C , 28-H ) :   0.9395 B(  8-S ,  9-C ) :   0.9915 B(  9-C , 10-S ) :   1.0020
B(  9-C , 29-H ) :   0.9116 B(  9-C , 30-H ) :   0.8478 B( 10-S , 11-P ) :   0.9441
B( 10-S , 12-S ) :   0.1045 B( 11-P , 12-S ) :   1.6484 B( 11-P , 13-O ) :   1.1440
B( 11-P , 16-O ) :   1.0821 B( 13-O , 14-C ) :   0.8894 B( 14-C , 15-C ) :   1.1650
B( 14-C , 31-H ) :   0.9323 B( 14-C , 32-H ) :   0.9090 B( 15-C , 33-H ) :   0.9420
B( 15-C , 34-H ) :   0.9491 B( 15-C , 35-H ) :   0.9402 B( 16-O , 17-C ) :   0.9080
B( 17-C , 18-C ) :   1.1665 B( 17-C , 36-H ) :   0.9344 B( 17-C , 37-H ) :   0.9179
B( 18-C , 38-H ) :   0.9345 B( 18-C , 39-H ) :   0.9435 B( 18-C , 40-H ) :   0.9371

Dispersion correction           -0.068302827
FINAL SINGLE POINT ENERGY     -2929.521977153706

DIPOLE MOMENT
-------------

Method             : SCF
Type of density    : Electron Density
Multiplicity       :   1
Irrep              :   0
Energy             : -2929.6396307431014066 Eh
Relativity type    :
Basis              : AO
                                X                 Y                 Z
Electronic contribution:     -3.708107315      -1.121615306      -7.934564395
Nuclear contribution   :      3.415254700       0.459203471       8.881762032
                        -----------------------------------------
Total Dipole Moment    :     -0.292852614      -0.662411835       0.947197637
                        -----------------------------------------
Magnitude (a.u.)       :      1.192365488
Magnitude (Debye)      :      3.030752212

Rotational constants in cm-1:             0.012594             0.005360             0.005264
Rotational constants in MHz :           377.567852           160.684117           157.803167

                             ****ORCA TERMINATED NORMALLY****
TOTAL RUN TIME: 0 days 0 hours 0 minutes 22 seconds 897 msec
