                         Program Version 6.0.0  -   RELEASE  -
|  1> ! pbe def2-sv(p) def2/J RI DEFGRID1 loosescf d4 GCP(DFT/SV(P)) printgap
|  2> %output
|  3>     printlevel normal
|  4> end
|  5> * xyz 0 1
|  6> C 4.4624992282 -1.78414243 -0.3738902822
|  7> C 4.8276392502 -0.3562370892 -0.0251163534
|  8> O 3.7013954878 0.3953879322 0.4657330447
|  9> P 2.4321747895 0.7178377623 -0.4340516528
| 10> S 2.781110789 1.1747240034 -2.3011468951
| 11> O 1.7438639921 1.9057758162 0.3378545597
| 12> C 1.4460900316 1.8632263709 1.7551007465
| 13> C 2.5113773485 2.5898188401 2.5481537571
| 14> S 1.1419644854 -0.9504973064 -0.1229909025
| 15> C 0.0937953607 -0.616239456 -1.5808414597
| 16> S -1.4061067947 -1.6164143527 -1.5513632736
| 17> P -2.4944488071 -0.4956995838 -0.112834185
| 18> S -1.813981611 1.3021421984 0.3055245685
| 19> O -2.7282354996 -1.4938098354 1.1021378484
| 20> C -1.69508809 -1.9903179496 1.9735464348
| 21> C -1.402462845 -1.0186056584 3.1004658343
| 22> O -3.9150904002 -0.524007527 -0.8015594166
| 23> C -4.9468991009 0.4307063147 -0.4765495564
| 24> C -5.4674781703 0.2335509576 0.931440314
| 25> H 3.9557661226 -2.2620566475 0.4607804648
| 26> H 3.8041159389 -1.7987411308 -1.2412929744
| 27> H 5.3661926065 -2.3358462825 -0.6121140217
| 28> H 5.2302163953 0.162407876 -0.9002592323
| 29> H 5.5447181941 -0.3130871624 0.7958489077
| 30> H 0.4724030281 2.3506168571 1.8428873213
| 31> H 1.364068253 0.8176793193 2.0660546259
| 32> H 2.6109922146 3.6098397676 2.1875247975
| 33> H 2.2230234248 2.6056387788 3.5944273563
| 34> H 3.4678056407 2.0844503526 2.4446375054
| 35> H 0.6422188523 -0.8808585284 -2.4823312314
| 36> H -0.169083243 0.4437191145 -1.5802623914
| 37> H -2.1013120782 -2.9290800817 2.3544796813
| 38> H -0.7928898574 -2.1940339292 1.3873003401
| 39> H -2.3027649642 -0.8312527729 3.6790897459
| 40> H -0.6414005727 -1.442275117 3.7473207114
| 41> H -1.0425689936 -0.0734479857 2.7005726961
| 42> H -4.5402821064 1.4397049304 -0.6014744429
| 43> H -5.7173142966 0.246901515 -1.2263303609
| 44> H -4.6769491342 0.451890602 1.6483114731
| 45> H -6.3010847516 0.906561089 1.1061368705
| 46> H -5.7929884578 -0.793880479 1.0698814205
| 47> *
| 48>
| 49>                          ****END OF INPUT****

CARTESIAN COORDINATES (ANGSTROEM)
---------------------------------
  C      4.462499   -1.784142   -0.373890
  C      4.827639   -0.356237   -0.025116
  O      3.701395    0.395388    0.465733
  P      2.432175    0.717838   -0.434052
  S      2.781111    1.174724   -2.301147
  O      1.743864    1.905776    0.337855
  C      1.446090    1.863226    1.755101
  C      2.511377    2.589819    2.548154
  S      1.141964   -0.950497   -0.122991
  C      0.093795   -0.616239   -1.580841
  S     -1.406107   -1.616414   -1.551363
  P     -2.494449   -0.495700   -0.112834
  S     -1.813982    1.302142    0.305525
  O     -2.728235   -1.493810    1.102138
  C     -1.695088   -1.990318    1.973546
  C     -1.402463   -1.018606    3.100466
  O     -3.915090   -0.524008   -0.801559
  C     -4.946899    0.430706   -0.476550
  C     -5.467478    0.233551    0.931440
  H      3.955766   -2.262057    0.460780
  H      3.804116   -1.798741   -1.241293
  H      5.366193   -2.335846   -0.612114
  H      5.230216    0.162408   -0.900259
  H      5.544718   -0.313087    0.795849
  H      0.472403    2.350617    1.842887
  H      1.364068    0.817679    2.066055
  H      2.610992    3.609840    2.187525
  H      2.223023    2.605639    3.594427
  H      3.467806    2.084450    2.444638
  H      0.642219   -0.880859   -2.482331
  H     -0.169083    0.443719   -1.580262
  H     -2.101312   -2.929080    2.354480
  H     -0.792890   -2.194034    1.387300
  H     -2.302765   -0.831253    3.679090
  H     -0.641401   -1.442275    3.747321
  H     -1.042569   -0.073448    2.700573
  H     -4.540282    1.439705   -0.601474
  H     -5.717314    0.246902   -1.226330
  H     -4.676949    0.451891    1.648311
  H     -6.301085    0.906561    1.106137
  H     -5.792988   -0.793880    1.069881

 Total Charge           Charge          ....    0
 Multiplicity           Mult            ....    1
 Number of Electrons    NEL             ....  202
 Basis Dimension        Dim             ....  334

ORBITAL ENERGIES
----------------

  NO   OCC          E(Eh)            E(eV)
   0   2.0000     -88.048745     -2395.9282
   1   2.0000     -88.040678     -2395.7086
   2   2.0000     -87.993768     -2394.4322
   3   2.0000     -87.984541     -2394.1811
   4   2.0000     -76.430544     -2079.7808
   5   2.0000     -76.425452     -2079.6423
   6   2.0000     -18.796482      -511.4783
   7   2.0000     -18.793863      -511.4070
   8   2.0000     -18.792200      -511.3618
   9   2.0000     -18.788636      -511.2648
  10   2.0000      -9.956651      -270.9343
  11   2.0000      -9.956123      -270.9199
  12   2.0000      -9.954541      -270.8768
  13   2.0000      -9.952647      -270.8253
  14   2.0000      -9.950244      -270.7599
  15   2.0000      -9.886068      -269.0136
  16   2.0000      -9.885829      -269.0071
  17   2.0000      -9.885174      -268.9893
  18   2.0000      -9.883269      -268.9374
  19   2.0000      -7.693994      -209.3642
  20   2.0000      -7.685173      -209.1242
  21   2.0000      -7.638331      -207.8496
  22   2.0000      -7.629909      -207.6204
  23   2.0000      -6.428177      -174.9196
  24   2.0000      -6.422955      -174.7775
  25   2.0000      -5.721834      -155.6990
  26   2.0000      -5.718592      -155.6108
  27   2.0000      -5.712950      -155.4573
  28   2.0000      -5.710902      -155.4016
  29   2.0000      -5.709953      -155.3757
  30   2.0000      -5.702104      -155.1621
  31   2.0000      -5.667139      -154.2107
  32   2.0000      -5.659111      -153.9922
  33   2.0000      -5.658931      -153.9873
  34   2.0000      -5.658477      -153.9750
  35   2.0000      -5.650393      -153.7550
  36   2.0000      -5.650061      -153.7460
  37   2.0000      -4.650526      -126.5472
  38   2.0000      -4.650002      -126.5330
  39   2.0000      -4.648786      -126.4999
  40   2.0000      -4.645846      -126.4199
  41   2.0000      -4.644689      -126.3884
  42   2.0000      -4.643174      -126.3472
  43   2.0000      -0.989615       -26.9288
  44   2.0000      -0.988619       -26.9017
  45   2.0000      -0.947632       -25.7864
  46   2.0000      -0.945321       -25.7235
  47   2.0000      -0.763700       -20.7813
  48   2.0000      -0.723066       -19.6756
  49   2.0000      -0.710454       -19.3324
  50   2.0000      -0.691027       -18.8038
  51   2.0000      -0.689581       -18.7645
  52   2.0000      -0.676318       -18.4036
  53   2.0000      -0.654013       -17.7966
  54   2.0000      -0.638200       -17.3663
  55   2.0000      -0.602377       -16.3915
  56   2.0000      -0.594393       -16.1743
  57   2.0000      -0.574388       -15.6299
  58   2.0000      -0.572547       -15.5798
  59   2.0000      -0.559339       -15.2204
  60   2.0000      -0.503829       -13.7099
  61   2.0000      -0.495760       -13.4903
  62   2.0000      -0.477379       -12.9901
  63   2.0000      -0.474764       -12.9190
  64   2.0000      -0.452629       -12.3167
  65   2.0000      -0.449783       -12.2392
  66   2.0000      -0.442235       -12.0338
  67   2.0000      -0.436992       -11.8912
  68   2.0000      -0.427440       -11.6312
  69   2.0000      -0.426287       -11.5999
  70   2.0000      -0.406765       -11.0686
  71   2.0000      -0.397317       -10.8115
  72   2.0000      -0.395581       -10.7643
  73   2.0000      -0.392327       -10.6758
  74   2.0000      -0.385253       -10.4833
  75   2.0000      -0.372134       -10.1263
  76   2.0000      -0.366768        -9.9803
  77   2.0000      -0.358947        -9.7674
  78   2.0000      -0.355667        -9.6782
  79   2.0000      -0.353055        -9.6071
  80   2.0000      -0.349710        -9.5161
  81   2.0000      -0.344417        -9.3721
  82   2.0000      -0.340746        -9.2722
  83   2.0000      -0.339025        -9.2253
  84   2.0000      -0.338586        -9.2134
  85   2.0000      -0.318958        -8.6793
  86   2.0000      -0.314667        -8.5625
  87   2.0000      -0.299929        -8.1615
  88   2.0000      -0.296836        -8.0773
  89   2.0000      -0.292188        -7.9509
  90   2.0000      -0.290634        -7.9086
  91   2.0000      -0.277164        -7.5420
  92   2.0000      -0.269517        -7.3339
  93   2.0000      -0.266433        -7.2500
  94   2.0000      -0.261720        -7.1218
  95   2.0000      -0.233488        -6.3535
  96   2.0000      -0.222423        -6.0524
  97   2.0000      -0.213121        -5.7993
  98   2.0000      -0.206849        -5.6287
  99   2.0000      -0.204426        -5.5627
 100   2.0000      -0.197637        -5.3780
 101   0.0000      -0.049181        -1.3383
 102   0.0000      -0.034834        -0.9479
 103   0.0000      -0.008835        -0.2404
 104   0.0000       0.007258         0.1975
 105   0.0000       0.015484         0.4213

MULLIKEN ATOMIC CHARGES
-----------------------
   0 C :   -0.317977
   1 C :    0.000224
   2 O :   -0.382299
   3 P :    0.600584
   4 S :   -0.315173
   5 O :   -0.347805
   6 C :   -0.030992
   7 C :   -0.279048
   8 S :   -0.124376
   9 C :   -0.345882
  10 S :   -0.082968
  11 P :    0.622170
  12 S :   -0.329015
  13 O :   -0.368952
  14 C :   -0.014644
  15 C :   -0.314252
  16 O :   -0.368529
  17 C :   -0.004409
  18 C :   -0.309220
  19 H :    0.116111
  20 H :    0.129963
  21 H :    0.114580
  22 H :    0.114442
  23 H :    0.105029
  24 H :    0.126054
  25 H :    0.103872
  26 H :    0.119643
  27 H :    0.107251
  28 H :    0.116573
  29 H :    0.189971
  30 H :    0.207617
  31 H :    0.107326
  32 H :    0.112995
  33 H :    0.114418
  34 H :    0.106948
  35 H :    0.140235
  36 H :    0.115337
  37 H :    0.108489
  38 H :    0.124340
  39 H :    0.112953
  40 H :    0.118420
Sum of atomic charges:   -0.0000000

LOEWDIN ATOMIC CHARGES
----------------------
   0 C :   -0.371418
   1 C :   -0.115346
   2 O :   -0.247613
   3 P :    0.574097
   4 S :   -0.309299
   5 O :   -0.230920
   6 C :   -0.118348
   7 C :   -0.358548
   8 S :    0.056750
   9 C :   -0.479788
  10 S :    0.095741
  11 P :    0.572592
  12 S :   -0.298505
  13 O :   -0.242619
  14 C :   -0.116630
  15 C :   -0.366958
  16 O :   -0.241479
  17 C :   -0.114200
  18 C :   -0.365205
  19 H :    0.122605
  20 H :    0.122229
  21 H :    0.131811
  22 H :    0.114489
  23 H :    0.118498
  24 H :    0.118324
  25 H :    0.101161
  26 H :    0.128935
  27 H :    0.128595
  28 H :    0.124325
  29 H :    0.133921
  30 H :    0.124520
  31 H :    0.119606
  32 H :    0.097875
  33 H :    0.125728
  34 H :    0.128402
  35 H :    0.123000
  36 H :    0.112198
  37 H :    0.120694
  38 H :    0.122581
  39 H :    0.130934
  40 H :    0.127265

  Mayer bond orders larger than 0.100000
B(  0-C ,  1-C ) :   1.1663 B(  0-C , 19-H ) :   0.9434 B(  0-C , 20-H ) :   0.9338
B(  0-C , 21-H ) :   0.9366 B(  1-C ,  2-O ) :   0.9045 B(  1-C , 22-H ) :   0.9199
B(  1-C , 23-H ) :   0.9342 B(  2-O ,  3-P ) :   1.0819 B(  3-P ,  4-S ) :   1.6299
B(  3-P ,  5-O ) :   1.1495 B(  3-P ,  8-S ) :   0.9494 B(  4-S ,  8-S ) :   0.1095
B(  5-O ,  6-C ) :   0.8904 B(  6-C ,  7-C ) :   1.1588 B(  6-C , 24-H ) :   0.9269
B(  6-C , 25-H ) :   0.9081 B(  7-C , 26-H ) :   0.9466 B(  7-C , 27-H ) :   0.9406
B(  7-C , 28-H ) :   0.9423 B(  8-S ,  9-C ) :   0.9677 B(  9-C , 10-S ) :   1.0160
B(  9-C , 29-H ) :   0.8956 B(  9-C , 30-H ) :   0.8638 B( 10-S , 11-P ) :   0.9408
B( 10-S , 12-S ) :   0.1163 B( 11-P , 12-S ) :   1.6034 B( 11-P , 13-O ) :   1.1079
B( 11-P , 16-O ) :   1.1440 B( 13-O , 14-C ) :   0.9086 B( 14-C , 15-C ) :   1.1664
B( 14-C , 31-H ) :   0.9351 B( 14-C , 32-H ) :   0.9054 B( 15-C , 33-H ) :   0.9448
B( 15-C , 34-H ) :   0.9395 B( 15-C , 35-H ) :   0.9250 B( 16-O , 17-C ) :   0.9047
B( 17-C , 18-C ) :   1.1639 B( 17-C , 36-H ) :   0.9170 B( 17-C , 37-H ) :   0.9346
B( 18-C , 38-H ) :   0.9357 B( 18-C , 39-H ) :   0.9380 B( 18-C , 40-H ) :   0.9459

Dispersion correction           -0.064536381
FINAL SINGLE POINT ENERGY     -2929.519755836576

DIPOLE MOMENT
-------------

Method             : SCF
Type of density    : Electron Density
Multiplicity       :   1
Irrep              :   0
Energy             : -2929.6401861732947509 Eh
Relativity type    :
Basis              : AO
                                X                 Y                 Z
Electronic contribution:     -0.756986906       0.064504584     -20.124977479
Nuclear contribution   :      0.583156169      -0.881375638      21.664924911
                        -----------------------------------------
Total Dipole Moment    :     -0.173830737      -0.816871054       1.539947432
                        -----------------------------------------
Magnitude (a.u.)       :      1.751837189
Magnitude (Debye)      :      4.452816263

Rotational constants in cm-1:             0.013186             0.004556             0.004316
Rotational constants in MHz :           395.299075           136.599531           129.377784

                             ****ORCA TERMINATED NORMALLY****
TOTAL RUN TIME: 0 days 0 hours 0 minutes 21 seconds 204 msec
