                         Program Version 6.0.0  -   RELEASE  -
|  1> ! pbe def2-sv(p) def2/J RI DEFGRID1 loosescf d4 GCP(DFT/SV(P)) printgap
|  2> %output
|  3>     printlevel normal
|  4> end
|  5> * xyz 0 1
|  6> C -0.0001274648 1.77314e-05 -1.8431063148
|  7> C -7.6326e-06 2.59878e-05 -0.3393665394
|  8> Cl -1.607795207 0.4324060805 0.3092204226
|  9> Cl 0.4294360243 -1.6085722547 0.3091477042
| 10> Cl 1.1784198195 1.1761513945 0.3091387843
| 11> H -0.2643968975 0.9899503463 -2.2057572534
| 12> H 0.9892674676 -0.2661711466 -2.2058183766
| 13> H -0.7253935473 -0.723780309 -2.2056184487
| 14> *
| 15>
| 16>                          ****END OF INPUT****

CARTESIAN COORDINATES (ANGSTROEM)
---------------------------------
  C     -0.000127    0.000018   -1.843106
  C     -0.000008    0.000026   -0.339367
  Cl    -1.607795    0.432406    0.309220
  Cl     0.429436   -1.608572    0.309148
  Cl     1.178420    1.176151    0.309139
  H     -0.264397    0.989950   -2.205757
  H      0.989267   -0.266171   -2.205818
  H     -0.725394   -0.723780   -2.205618

 Total Charge           Charge          ....    0
 Multiplicity           Mult            ....    1
 Number of Electrons    NEL             ....   66
 Basis Dimension        Dim             ....   88

ORBITAL ENERGIES
----------------

  NO   OCC          E(Eh)            E(eV)
   0   2.0000    -100.648426     -2738.7829
   1   2.0000    -100.648413     -2738.7825
   2   2.0000    -100.648353     -2738.7809
   3   2.0000     -10.064215      -273.8612
   4   2.0000      -9.916707      -269.8473
   5   2.0000      -9.184977      -249.9359
   6   2.0000      -9.184966      -249.9356
   7   2.0000      -9.184917      -249.9343
   8   2.0000      -7.016916      -190.9400
   9   2.0000      -7.016897      -190.9395
  10   2.0000      -7.016877      -190.9389
  11   2.0000      -7.004418      -190.5999
  12   2.0000      -7.004399      -190.5994
  13   2.0000      -7.004393      -190.5992
  14   2.0000      -7.004237      -190.5950
  15   2.0000      -7.004228      -190.5947
  16   2.0000      -7.004220      -190.5945
  17   2.0000      -0.865501       -23.5515
  18   2.0000      -0.756249       -20.5786
  19   2.0000      -0.756241       -20.5784
  20   2.0000      -0.684300       -18.6207
  21   2.0000      -0.537437       -14.6244
  22   2.0000      -0.448257       -12.1977
  23   2.0000      -0.448254       -12.1976
  24   2.0000      -0.424658       -11.5555
  25   2.0000      -0.368972       -10.0402
  26   2.0000      -0.368965       -10.0401
  27   2.0000      -0.303670        -8.2633
  28   2.0000      -0.303666        -8.2632
  29   2.0000      -0.283368        -7.7108
  30   2.0000      -0.267503        -7.2791
  31   2.0000      -0.267496        -7.2789
  32   2.0000      -0.254693        -6.9305
  33   0.0000      -0.041083        -1.1179
  34   0.0000      -0.015186        -0.4132
  35   0.0000      -0.015182        -0.4131
  36   0.0000       0.055408         1.5077
  37   0.0000       0.101873         2.7721

MULLIKEN ATOMIC CHARGES
-----------------------
   0 C :   -0.143530
   1 C :   -0.173779
   2 Cl:   -0.028809
   3 Cl:   -0.028805
   4 Cl:   -0.028824
   5 H :    0.134620
   6 H :    0.134616
   7 H :    0.134511
Sum of atomic charges:    0.0000000

LOEWDIN ATOMIC CHARGES
----------------------
   0 C :   -0.371862
   1 C :   -0.291249
   2 Cl:    0.082122
   3 Cl:    0.082122
   4 Cl:    0.082133
   5 H :    0.138916
   6 H :    0.138914
   7 H :    0.138905

  Mayer bond orders larger than 0.100000
B(  0-C ,  1-C ) :   1.0388 B(  0-C ,  5-H ) :   0.9247 B(  0-C ,  6-H ) :   0.9247
B(  0-C ,  7-H ) :   0.9247 B(  1-C ,  2-Cl) :   1.0418 B(  1-C ,  3-Cl) :   1.0418
B(  1-C ,  4-Cl) :   1.0418

Dispersion correction           -0.009245629
FINAL SINGLE POINT ENERGY     -1457.423272990967

DIPOLE MOMENT
-------------

Method             : SCF
Type of density    : Electron Density
Multiplicity       :   1
Irrep              :   0
Energy             : -1457.4414266314897759 Eh
Relativity type    :
Basis              : AO
                                X                 Y                 Z
Electronic contribution:      0.000540913       0.000005453       6.777846988
Nuclear contribution   :     -0.000572033       0.000018797      -7.453010384
                        -----------------------------------------
Total Dipole Moment    :     -0.000031119       0.000024249      -0.675163396
                        -----------------------------------------
Magnitude (a.u.)       :      0.675163397
Magnitude (Debye)      :      1.716128972

Rotational constants in cm-1:             0.078024             0.078020             0.056570
Rotational constants in MHz :          2339.088916          2338.980123          1695.913040

                             ****ORCA TERMINATED NORMALLY****
TOTAL RUN TIME: 0 days 0 hours 0 minutes 4 seconds 844 msec
