                         Program Version 6.0.0  -   RELEASE  -
|  1> ! pbe def2-sv(p) def2/J RI DEFGRID1 loosescf d4 GCP(DFT/SV(P)) printgap
|  2> %output
|  3>     printlevel normal
|  4> end
|  5> * xyz 0 1
|  6> C 0.6558304397 1.6968314025 -0.0494221639
|  7> C 1.411669085 0.3880416192 -0.2958738724
|  8> H 1.5884843246 0.2700684728 -1.377528692
|  9> C 0.5589221427 -0.7985919328 0.1953433545
| 10> H 0.4346433412 -0.72364766 1.2826027326
| 11> C -0.8075886508 -0.7409977615 -0.5060879081
| 12> H -0.6552740681 -0.8597657385 -1.5854513775
| 13> C -1.4676399171 0.637674593 -0.2558350541
| 14> H -2.3597862753 0.728846225 -0.8862980751
| 15> O -0.6348328185 1.6941883294 -0.6411210392
| 16> O -1.9348870597 0.7311614788 1.0574735753
| 17> O -1.6644745713 -1.7781235717 -0.1134919785
| 18> O 1.233619287 -2.0179676428 -0.003019197
| 19> O 2.635653741 0.4562924199 0.3914314056
| 20> H 1.1819081212 2.5309968705 -0.5127173504
| 21> H 0.6079799742 1.8771332999 1.0317599981
| 22> H -1.2080181762 0.9209119859 1.6689938829
| 23> H -2.0736079766 -1.5455756483 0.7357740177
| 24> H 1.0826415716 -2.3416556537 -0.9020531997
| 25> H 3.0086722561 -0.4384932907 0.4383488267
| 26> *
| 27>
| 28>                          ****END OF INPUT****

CARTESIAN COORDINATES (ANGSTROEM)
---------------------------------
  C      0.655830    1.696831   -0.049422
  C      1.411669    0.388042   -0.295874
  H      1.588484    0.270068   -1.377529
  C      0.558922   -0.798592    0.195343
  H      0.434643   -0.723648    1.282603
  C     -0.807589   -0.740998   -0.506088
  H     -0.655274   -0.859766   -1.585451
  C     -1.467640    0.637675   -0.255835
  H     -2.359786    0.728846   -0.886298
  O     -0.634833    1.694188   -0.641121
  O     -1.934887    0.731161    1.057474
  O     -1.664475   -1.778124   -0.113492
  O      1.233619   -2.017968   -0.003019
  O      2.635654    0.456292    0.391431
  H      1.181908    2.530997   -0.512717
  H      0.607980    1.877133    1.031760
  H     -1.208018    0.920912    1.668994
  H     -2.073608   -1.545576    0.735774
  H      1.082642   -2.341656   -0.902053
  H      3.008672   -0.438493    0.438349

 Total Charge           Charge          ....    0
 Multiplicity           Mult            ....    1
 Number of Electrons    NEL             ....   80
 Basis Dimension        Dim             ....  160

ORBITAL ENERGIES
----------------

  NO   OCC          E(Eh)            E(eV)
   0   2.0000     -18.780178      -511.0346
   1   2.0000     -18.779594      -511.0187
   2   2.0000     -18.765325      -510.6305
   3   2.0000     -18.754930      -510.3476
   4   2.0000     -18.752788      -510.2893
   5   2.0000      -9.994081      -271.9528
   6   2.0000      -9.950495      -270.7667
   7   2.0000      -9.949666      -270.7442
   8   2.0000      -9.948469      -270.7116
   9   2.0000      -9.947676      -270.6900
  10   2.0000      -0.993764       -27.0417
  11   2.0000      -0.951580       -25.8938
  12   2.0000      -0.936827       -25.4924
  13   2.0000      -0.922667       -25.1070
  14   2.0000      -0.919608       -25.0238
  15   2.0000      -0.708070       -19.2676
  16   2.0000      -0.689116       -18.7518
  17   2.0000      -0.599816       -16.3218
  18   2.0000      -0.586914       -15.9708
  19   2.0000      -0.548254       -14.9188
  20   2.0000      -0.503276       -13.6948
  21   2.0000      -0.500254       -13.6126
  22   2.0000      -0.466666       -12.6986
  23   2.0000      -0.456641       -12.4258
  24   2.0000      -0.439647       -11.9634
  25   2.0000      -0.423875       -11.5342
  26   2.0000      -0.418557       -11.3895
  27   2.0000      -0.396877       -10.7996
  28   2.0000      -0.362693        -9.8694
  29   2.0000      -0.354070        -9.6347
  30   2.0000      -0.335721        -9.1354
  31   2.0000      -0.315336        -8.5807
  32   2.0000      -0.308101        -8.3839
  33   2.0000      -0.297041        -8.0829
  34   2.0000      -0.294235        -8.0066
  35   2.0000      -0.257550        -7.0083
  36   2.0000      -0.249862        -6.7991
  37   2.0000      -0.242330        -6.5941
  38   2.0000      -0.223941        -6.0937
  39   2.0000      -0.207974        -5.6592
  40   0.0000       0.000688         0.0187
  41   0.0000       0.016467         0.4481
  42   0.0000       0.032092         0.8733
  43   0.0000       0.053493         1.4556
  44   0.0000       0.059573         1.6211

MULLIKEN ATOMIC CHARGES
-----------------------
   0 C :    0.055914
   1 C :    0.037172
   2 H :    0.050386
   3 C :    0.019146
   4 H :    0.040363
   5 C :    0.045185
   6 H :    0.063571
   7 C :    0.159864
   8 H :    0.084585
   9 O :   -0.298260
  10 O :   -0.410613
  11 O :   -0.409722
  12 O :   -0.410934
  13 O :   -0.418509
  14 H :    0.112485
  15 H :    0.059296
  16 H :    0.309120
  17 H :    0.300152
  18 H :    0.304632
  19 H :    0.306167
Sum of atomic charges:    0.0000000

LOEWDIN ATOMIC CHARGES
----------------------
   0 C :   -0.116930
   1 C :   -0.085701
   2 H :    0.098446
   3 C :   -0.090715
   4 H :    0.104655
   5 C :   -0.101703
   6 H :    0.114491
   7 C :   -0.005104
   8 H :    0.116210
   9 O :   -0.143932
  10 O :   -0.304441
  11 O :   -0.314502
  12 O :   -0.310390
  13 O :   -0.324337
  14 H :    0.128092
  15 H :    0.095779
  16 H :    0.285037
  17 H :    0.280308
  18 H :    0.289172
  19 H :    0.285566

  Mayer bond orders larger than 0.100000
B(  0-C ,  1-C ) :   1.0389 B(  0-C ,  9-O ) :   1.0068 B(  0-C , 14-H ) :   0.9223
B(  0-C , 15-H ) :   0.8924 B(  1-C ,  2-H ) :   0.8705 B(  1-C ,  3-C ) :   0.9934
B(  1-C , 13-O ) :   1.0858 B(  3-C ,  4-H ) :   0.8753 B(  3-C ,  5-C ) :   0.9628
B(  3-C , 12-O ) :   1.0723 B(  5-C ,  6-H ) :   0.8703 B(  5-C ,  7-C ) :   0.9764
B(  5-C , 11-O ) :   1.0867 B(  7-C ,  8-H ) :   0.9022 B(  7-C ,  9-O ) :   1.0706
B(  7-C , 10-O ) :   1.0688 B( 10-O , 16-H ) :   0.8335 B( 11-O , 17-H ) :   0.8304
B( 12-O , 18-H ) :   0.8452 B( 13-O , 19-H ) :   0.8310

Dispersion correction           -0.019209594
FINAL SINGLE POINT ENERGY      -571.414385305869

DIPOLE MOMENT
-------------

Method             : SCF
Type of density    : Electron Density
Multiplicity       :   1
Irrep              :   0
Energy             :  -571.5232223464162189 Eh
Relativity type    :
Basis              : AO
                                X                 Y                 Z
Electronic contribution:     -1.207583177      -0.501370247       0.039165592
Nuclear contribution   :      1.502836585       0.379376245      -0.089739219
                        -----------------------------------------
Total Dipole Moment    :      0.295253408      -0.121994001      -0.050573627
                        -----------------------------------------
Magnitude (a.u.)       :      0.323442117
Magnitude (Debye)      :      0.822124526

Rotational constants in cm-1:             0.057140             0.043841             0.028602
Rotational constants in MHz :          1713.010675          1314.326939           857.472175

                             ****ORCA TERMINATED NORMALLY****
TOTAL RUN TIME: 0 days 0 hours 0 minutes 11 seconds 386 msec
