                         Program Version 6.0.0  -   RELEASE  -
|  1> ! pbe def2-sv(p) def2/J RI DEFGRID1 loosescf d4 GCP(DFT/SV(P)) printgap
|  2> %output
|  3>     printlevel normal
|  4> end
|  5> * xyz 0 1
|  6> C 1.6214051862 -2.244221589 1.5687148596
|  7> C 3.0711509021 -1.953035196 1.2402206336
|  8> O 3.2961031441 -0.5571555572 0.9773212991
|  9> P 2.8205720202 0.1545534824 -0.3644426018
| 10> S 3.0016857935 -0.919790065 -1.9924255101
| 11> O 3.7435239837 1.4329994082 -0.3999956647
| 12> C 4.2401082188 2.1436318997 0.7605230378
| 13> C 3.1268277441 2.6732571629 1.6383948153
| 14> S 0.8503200599 0.9251448877 -0.0031977313
| 15> C -0.0687645975 0.1107045781 -1.3307664352
| 16> S -1.1859043897 -1.1809077749 -0.7371858089
| 17> P -2.7156288111 0.1496274714 -0.0738205653
| 18> S -3.1278044435 1.6352439419 -1.2770333806
| 19> O -2.2449213105 0.6577123143 1.3393803261
| 20> C -1.9308080002 -0.2360632226 2.4403252323
| 21> C -0.9377201941 0.4698761641 3.3395990378
| 22> O -3.923569341 -0.8135913269 0.3029650288
| 23> C -4.9160222976 -1.2378725544 -0.6489199716
| 24> C -4.3307310957 -2.1023768204 -1.7465119524
| 25> H 1.2773471384 -1.5914714933 2.3666633705
| 26> H 0.9986494366 -2.0940235159 0.6877225691
| 27> H 1.5275321072 -3.2780890631 1.8847632447
| 28> H 3.3940718966 -2.5284955587 0.3669774705
| 29> H 3.7249475474 -2.1658795193 2.0874305724
| 30> H 4.8902514057 1.4682020639 1.3197669236
| 31> H 4.8289421077 2.9514847163 0.3236271801
| 32> H 3.5577058341 3.2523124298 2.4492105554
| 33> H 2.4543089186 3.305869857 1.0643648867
| 34> H 2.5558119948 1.8466277401 2.0572359662
| 35> H 0.6424850416 -0.3616148684 -2.0131591744
| 36> H -0.6626751599 0.870402661 -1.840669004
| 37> H -2.8649287886 -0.4546286434 2.9604974572
| 38> H -1.519131312 -1.1638941194 2.0319619797
| 39> H -1.3648603299 1.3972989015 3.7092080231
| 40> H -0.694094041 -0.1745998226 4.1781418996
| 41> H -0.035115812 0.7060820185 2.781789021
| 42> H -5.6355170162 -1.7893420329 -0.0420392993
| 43> H -5.3901742472 -0.3472651464 -1.0724711686
| 44> H -5.1356463332 -2.500576421 -2.3559310478
| 45> H -3.6730175105 -1.5081526396 -2.37937999
| 46> H -3.7598470164 -2.9232859399 -1.3197802894
| 47> *
| 48>
| 49>                          ****END OF INPUT****

CARTESIAN COORDINATES (ANGSTROEM)
---------------------------------
  C      1.621405   -2.244222    1.568715
  C      3.071151   -1.953035    1.240221
  O      3.296103   -0.557156    0.977321
  P      2.820572    0.154553   -0.364443
  S      3.001686   -0.919790   -1.992426
  O      3.743524    1.432999   -0.399996
  C      4.240108    2.143632    0.760523
  C      3.126828    2.673257    1.638395
  S      0.850320    0.925145   -0.003198
  C     -0.068765    0.110705   -1.330766
  S     -1.185904   -1.180908   -0.737186
  P     -2.715629    0.149627   -0.073821
  S     -3.127804    1.635244   -1.277033
  O     -2.244921    0.657712    1.339380
  C     -1.930808   -0.236063    2.440325
  C     -0.937720    0.469876    3.339599
  O     -3.923569   -0.813591    0.302965
  C     -4.916022   -1.237873   -0.648920
  C     -4.330731   -2.102377   -1.746512
  H      1.277347   -1.591471    2.366663
  H      0.998649   -2.094024    0.687723
  H      1.527532   -3.278089    1.884763
  H      3.394072   -2.528496    0.366977
  H      3.724948   -2.165880    2.087431
  H      4.890251    1.468202    1.319767
  H      4.828942    2.951485    0.323627
  H      3.557706    3.252312    2.449211
  H      2.454309    3.305870    1.064365
  H      2.555812    1.846628    2.057236
  H      0.642485   -0.361615   -2.013159
  H     -0.662675    0.870403   -1.840669
  H     -2.864929   -0.454629    2.960497
  H     -1.519131   -1.163894    2.031962
  H     -1.364860    1.397299    3.709208
  H     -0.694094   -0.174600    4.178142
  H     -0.035116    0.706082    2.781789
  H     -5.635517   -1.789342   -0.042039
  H     -5.390174   -0.347265   -1.072471
  H     -5.135646   -2.500576   -2.355931
  H     -3.673018   -1.508153   -2.379380
  H     -3.759847   -2.923286   -1.319780

 Total Charge           Charge          ....    0
 Multiplicity           Mult            ....    1
 Number of Electrons    NEL             ....  202
 Basis Dimension        Dim             ....  334

ORBITAL ENERGIES
----------------

  NO   OCC          E(Eh)            E(eV)
   0   2.0000     -88.044414     -2395.8103
   1   2.0000     -88.042278     -2395.7522
   2   2.0000     -87.990863     -2394.3531
   3   2.0000     -87.986864     -2394.2443
   4   2.0000     -76.430021     -2079.7666
   5   2.0000     -76.426924     -2079.6823
   6   2.0000     -18.798525      -511.5339
   7   2.0000     -18.796472      -511.4780
   8   2.0000     -18.793482      -511.3966
   9   2.0000     -18.793226      -511.3897
  10   2.0000      -9.960842      -271.0483
  11   2.0000      -9.958006      -270.9711
  12   2.0000      -9.956957      -270.9426
  13   2.0000      -9.956237      -270.9230
  14   2.0000      -9.947236      -270.6781
  15   2.0000      -9.893790      -269.2237
  16   2.0000      -9.889116      -269.0965
  17   2.0000      -9.888565      -269.0815
  18   2.0000      -9.886113      -269.0148
  19   2.0000      -7.688747      -209.2214
  20   2.0000      -7.686665      -209.1648
  21   2.0000      -7.635939      -207.7845
  22   2.0000      -7.632094      -207.6798
  23   2.0000      -6.427548      -174.9025
  24   2.0000      -6.424657      -174.8238
  25   2.0000      -5.716364      -155.5502
  26   2.0000      -5.714533      -155.5004
  27   2.0000      -5.713343      -155.4680
  28   2.0000      -5.711147      -155.4082
  29   2.0000      -5.705999      -155.2681
  30   2.0000      -5.703788      -155.2080
  31   2.0000      -5.664855      -154.1485
  32   2.0000      -5.661070      -154.0455
  33   2.0000      -5.656401      -153.9185
  34   2.0000      -5.656228      -153.9138
  35   2.0000      -5.652642      -153.8162
  36   2.0000      -5.652247      -153.8055
  37   2.0000      -4.650512      -126.5469
  38   2.0000      -4.648908      -126.5032
  39   2.0000      -4.648031      -126.4793
  40   2.0000      -4.647594      -126.4675
  41   2.0000      -4.646299      -126.4322
  42   2.0000      -4.644862      -126.3931
  43   2.0000      -0.992568       -27.0091
  44   2.0000      -0.990716       -26.9587
  45   2.0000      -0.948198       -25.8018
  46   2.0000      -0.947456       -25.7816
  47   2.0000      -0.761700       -20.7269
  48   2.0000      -0.724704       -19.7202
  49   2.0000      -0.715043       -19.4573
  50   2.0000      -0.696207       -18.9448
  51   2.0000      -0.691776       -18.8242
  52   2.0000      -0.680171       -18.5084
  53   2.0000      -0.652720       -17.7614
  54   2.0000      -0.638105       -17.3637
  55   2.0000      -0.604154       -16.4399
  56   2.0000      -0.593494       -16.1498
  57   2.0000      -0.584240       -15.8980
  58   2.0000      -0.574384       -15.6298
  59   2.0000      -0.556424       -15.1411
  60   2.0000      -0.507845       -13.8192
  61   2.0000      -0.500259       -13.6127
  62   2.0000      -0.476846       -12.9756
  63   2.0000      -0.475469       -12.9382
  64   2.0000      -0.462332       -12.5807
  65   2.0000      -0.453482       -12.3399
  66   2.0000      -0.442948       -12.0532
  67   2.0000      -0.439380       -11.9561
  68   2.0000      -0.434645       -11.8273
  69   2.0000      -0.428811       -11.6685
  70   2.0000      -0.413256       -11.2453
  71   2.0000      -0.404316       -11.0020
  72   2.0000      -0.393461       -10.7066
  73   2.0000      -0.388223       -10.5641
  74   2.0000      -0.378691       -10.3047
  75   2.0000      -0.375788       -10.2257
  76   2.0000      -0.366439        -9.9713
  77   2.0000      -0.361674        -9.8417
  78   2.0000      -0.360993        -9.8231
  79   2.0000      -0.356400        -9.6981
  80   2.0000      -0.354027        -9.6336
  81   2.0000      -0.347160        -9.4467
  82   2.0000      -0.344865        -9.3842
  83   2.0000      -0.340795        -9.2735
  84   2.0000      -0.339902        -9.2492
  85   2.0000      -0.319165        -8.6849
  86   2.0000      -0.312291        -8.4979
  87   2.0000      -0.304609        -8.2888
  88   2.0000      -0.301657        -8.2085
  89   2.0000      -0.299829        -8.1587
  90   2.0000      -0.296266        -8.0618
  91   2.0000      -0.278434        -7.5766
  92   2.0000      -0.273022        -7.4293
  93   2.0000      -0.265694        -7.2299
  94   2.0000      -0.257422        -7.0048
  95   2.0000      -0.233635        -6.3575
  96   2.0000      -0.222205        -6.0465
  97   2.0000      -0.211789        -5.7631
  98   2.0000      -0.207188        -5.6379
  99   2.0000      -0.205197        -5.5837
 100   2.0000      -0.199485        -5.4283
 101   0.0000      -0.042305        -1.1512
 102   0.0000      -0.033347        -0.9074
 103   0.0000      -0.014891        -0.4052
 104   0.0000       0.003660         0.0996
 105   0.0000       0.007115         0.1936

MULLIKEN ATOMIC CHARGES
-----------------------
   0 C :   -0.339437
   1 C :    0.004224
   2 O :   -0.386187
   3 P :    0.611021
   4 S :   -0.306401
   5 O :   -0.362087
   6 C :    0.011342
   7 C :   -0.348621
   8 S :   -0.104126
   9 C :   -0.355846
  10 S :   -0.103485
  11 P :    0.597420
  12 S :   -0.306710
  13 O :   -0.355988
  14 C :   -0.015731
  15 C :   -0.305127
  16 O :   -0.385455
  17 C :    0.001522
  18 C :   -0.322743
  19 H :    0.120272
  20 H :    0.137753
  21 H :    0.112096
  22 H :    0.114476
  23 H :    0.103198
  24 H :    0.109158
  25 H :    0.114171
  26 H :    0.118909
  27 H :    0.136981
  28 H :    0.136047
  29 H :    0.195289
  30 H :    0.195485
  31 H :    0.108779
  32 H :    0.108234
  33 H :    0.120489
  34 H :    0.107702
  35 H :    0.147759
  36 H :    0.105289
  37 H :    0.113836
  38 H :    0.115718
  39 H :    0.132856
  40 H :    0.117920
Sum of atomic charges:    0.0000000

LOEWDIN ATOMIC CHARGES
----------------------
   0 C :   -0.372088
   1 C :   -0.116475
   2 O :   -0.248914
   3 P :    0.572566
   4 S :   -0.296490
   5 O :   -0.238874
   6 C :   -0.107033
   7 C :   -0.373434
   8 S :    0.083334
   9 C :   -0.494148
  10 S :    0.086692
  11 P :    0.568363
  12 S :   -0.307165
  13 O :   -0.236573
  14 C :   -0.114321
  15 C :   -0.357574
  16 O :   -0.249715
  17 C :   -0.114827
  18 C :   -0.371609
  19 H :    0.123801
  20 H :    0.113506
  21 H :    0.131411
  22 H :    0.112245
  23 H :    0.117839
  24 H :    0.114909
  25 H :    0.124648
  26 H :    0.134498
  27 H :    0.131108
  28 H :    0.117906
  29 H :    0.125784
  30 H :    0.128066
  31 H :    0.116458
  32 H :    0.103782
  33 H :    0.130120
  34 H :    0.128048
  35 H :    0.121526
  36 H :    0.118919
  37 H :    0.114312
  38 H :    0.132525
  39 H :    0.123589
  40 H :    0.123285

  Mayer bond orders larger than 0.100000
B(  0-C ,  1-C ) :   1.1623 B(  0-C , 19-H ) :   0.9388 B(  0-C , 20-H ) :   0.9260
B(  0-C , 21-H ) :   0.9366 B(  1-C ,  2-O ) :   0.9104 B(  1-C , 22-H ) :   0.9140
B(  1-C , 23-H ) :   0.9332 B(  2-O ,  3-P ) :   1.0646 B(  3-P ,  4-S ) :   1.6305
B(  3-P ,  5-O ) :   1.1416 B(  3-P ,  8-S ) :   0.9478 B(  4-S ,  8-S ) :   0.1182
B(  4-S , 29-H ) :   0.1232 B(  5-O ,  6-C ) :   0.8999 B(  6-C ,  7-C ) :   1.1691
B(  6-C , 24-H ) :   0.9278 B(  6-C , 25-H ) :   0.9333 B(  7-C , 26-H ) :   0.9346
B(  7-C , 27-H ) :   0.9392 B(  7-C , 28-H ) :   0.9308 B(  8-S ,  9-C ) :   1.0080
B(  9-C , 10-S ) :   1.0015 B(  9-C , 29-H ) :   0.8458 B(  9-C , 30-H ) :   0.8646
B( 10-S , 11-P ) :   0.9487 B( 10-S , 12-S ) :   0.1066 B( 11-P , 12-S ) :   1.6420
B( 11-P , 13-O ) :   1.1424 B( 11-P , 16-O ) :   1.0899 B( 13-O , 14-C ) :   0.8864
B( 14-C , 15-C ) :   1.1691 B( 14-C , 31-H ) :   0.9311 B( 14-C , 32-H ) :   0.9076
B( 15-C , 33-H ) :   0.9455 B( 15-C , 34-H ) :   0.9382 B( 15-C , 35-H ) :   0.9297
B( 16-O , 17-C ) :   0.9063 B( 17-C , 18-C ) :   1.1656 B( 17-C , 36-H ) :   0.9345
B( 17-C , 37-H ) :   0.9199 B( 18-C , 38-H ) :   0.9368 B( 18-C , 39-H ) :   0.9345
B( 18-C , 40-H ) :   0.9435

Dispersion correction           -0.064311354
FINAL SINGLE POINT ENERGY     -2929.518496540308

DIPOLE MOMENT
-------------

Method             : SCF
Type of density    : Electron Density
Multiplicity       :   1
Irrep              :   0
Energy             : -2929.6400334832046610 Eh
Relativity type    :
Basis              : AO
                                X                 Y                 Z
Electronic contribution:      0.966248203       6.077756648     -16.661931458
Nuclear contribution   :     -0.895863282      -6.919538194      18.596527978
                        -----------------------------------------
Total Dipole Moment    :      0.070384920      -0.841781546       1.934596520
                        -----------------------------------------
Magnitude (a.u.)       :      2.110974634
Magnitude (Debye)      :      5.365671102

Rotational constants in cm-1:             0.012713             0.004472             0.004287
Rotational constants in MHz :           381.114010           134.076170           128.507814

                             ****ORCA TERMINATED NORMALLY****
TOTAL RUN TIME: 0 days 0 hours 0 minutes 21 seconds 105 msec
