                         Program Version 6.0.0  -   RELEASE  -
|  1> ! pbe def2-sv(p) def2/J RI DEFGRID1 loosescf d4 GCP(DFT/SV(P)) printgap
|  2> %output
|  3>     printlevel normal
|  4> end
|  5> * xyz 0 1
|  6> C 5.2324994555 -0.6184527366 -1.4928339847
|  7> C 4.3800044165 -0.8064980968 -0.2529261612
|  8> O 3.5513341742 0.3453701754 -0.0097418603
|  9> P 2.0541447751 0.4658231959 -0.5428759004
| 10> S 1.8453025594 0.2970220108 -2.4815765312
| 11> O 1.6696277025 1.8958644881 -0.0165796909
| 12> C 1.3057793656 2.2630010921 1.3350191763
| 13> C 2.3089888182 1.8031177709 2.3701253411
| 14> S 1.0579123689 -1.01231536 0.6162205466
| 15> C -0.0096602061 -1.7881082173 -0.6394220433
| 16> S -1.7104448185 -1.9835823285 -0.0736321716
| 17> P -2.1642548889 0.0752671546 0.2153836986
| 18> S -1.3495795481 1.3270658878 -1.0577247327
| 19> O -1.7408138692 0.4784563553 1.6798552564
| 20> C -2.2020359291 -0.202706349 2.8787807706
| 21> C -1.0893220719 -1.0417290612 3.4737292261
| 22> O -3.7471259634 0.0674068976 0.3472579863
| 23> C -4.6594902325 -0.5824387591 -0.557711928
| 24> C -4.4754927481 -0.1381072754 -1.993344641
| 25> H 4.6012347149 -0.5291419995 -2.3742784793
| 26> H 5.8299291584 0.284265829 -1.4008153994
| 27> H 5.8885754192 -1.4748681006 -1.6098653984
| 28> H 4.9988923216 -0.8919725637 0.6425190532
| 29> H 3.7469907283 -1.6937842812 -0.3446184384
| 30> H 1.2447286573 3.3514467639 1.2844667894
| 31> H 0.3097246802 1.8559901246 1.5351255745
| 32> H 3.3024700175 2.1607516182 2.1123071783
| 33> H 2.0215076727 2.2021060448 3.3381894242
| 34> H 2.3281301051 0.7156051096 2.4247418745
| 35> H 0.3562724688 -2.7921670198 -0.8396505205
| 36> H 0.023133682 -1.1697491764 -1.5414646163
| 37> H -2.4986690215 0.6020723783 3.5529948807
| 38> H -3.0725012308 -0.8120939958 2.6296859705
| 39> H -0.2144383399 -0.4264640643 3.6629298827
| 40> H -1.4353764051 -1.4702582445 4.4087412325
| 41> H -0.8063763344 -1.8444761772 2.7972116048
| 42> H -4.5199887098 -1.663123659 -0.4663167375
| 43> H -5.6420325797 -0.2994669846 -0.1759566264
| 44> H -4.5555719227 0.9438884109 -2.0695226007
| 45> H -3.4915788246 -0.432840834 -2.3565770272
| 46> H -5.2348126431 -0.6002260455 -2.6158513463
| 47> *
| 48>
| 49>                          ****END OF INPUT****

CARTESIAN COORDINATES (ANGSTROEM)
---------------------------------
  C      5.232499   -0.618453   -1.492834
  C      4.380004   -0.806498   -0.252926
  O      3.551334    0.345370   -0.009742
  P      2.054145    0.465823   -0.542876
  S      1.845303    0.297022   -2.481577
  O      1.669628    1.895864   -0.016580
  C      1.305779    2.263001    1.335019
  C      2.308989    1.803118    2.370125
  S      1.057912   -1.012315    0.616221
  C     -0.009660   -1.788108   -0.639422
  S     -1.710445   -1.983582   -0.073632
  P     -2.164255    0.075267    0.215384
  S     -1.349580    1.327066   -1.057725
  O     -1.740814    0.478456    1.679855
  C     -2.202036   -0.202706    2.878781
  C     -1.089322   -1.041729    3.473729
  O     -3.747126    0.067407    0.347258
  C     -4.659490   -0.582439   -0.557712
  C     -4.475493   -0.138107   -1.993345
  H      4.601235   -0.529142   -2.374278
  H      5.829929    0.284266   -1.400815
  H      5.888575   -1.474868   -1.609865
  H      4.998892   -0.891973    0.642519
  H      3.746991   -1.693784   -0.344618
  H      1.244729    3.351447    1.284467
  H      0.309725    1.855990    1.535126
  H      3.302470    2.160752    2.112307
  H      2.021508    2.202106    3.338189
  H      2.328130    0.715605    2.424742
  H      0.356272   -2.792167   -0.839651
  H      0.023134   -1.169749   -1.541465
  H     -2.498669    0.602072    3.552995
  H     -3.072501   -0.812094    2.629686
  H     -0.214438   -0.426464    3.662930
  H     -1.435376   -1.470258    4.408741
  H     -0.806376   -1.844476    2.797212
  H     -4.519989   -1.663124   -0.466317
  H     -5.642033   -0.299467   -0.175957
  H     -4.555572    0.943888   -2.069523
  H     -3.491579   -0.432841   -2.356577
  H     -5.234813   -0.600226   -2.615851

 Total Charge           Charge          ....    0
 Multiplicity           Mult            ....    1
 Number of Electrons    NEL             ....  202
 Basis Dimension        Dim             ....  334

ORBITAL ENERGIES
----------------

  NO   OCC          E(Eh)            E(eV)
   0   2.0000     -88.049461     -2395.9476
   1   2.0000     -88.042676     -2395.7630
   2   2.0000     -87.979879     -2394.0542
   3   2.0000     -87.975480     -2393.9345
   4   2.0000     -76.426666     -2079.6753
   5   2.0000     -76.420144     -2079.4978
   6   2.0000     -18.795737      -511.4580
   7   2.0000     -18.792704      -511.3755
   8   2.0000     -18.783622      -511.1283
   9   2.0000     -18.781697      -511.0760
  10   2.0000      -9.960953      -271.0513
  11   2.0000      -9.959470      -271.0110
  12   2.0000      -9.955191      -270.8945
  13   2.0000      -9.948699      -270.7179
  14   2.0000      -9.944484      -270.6032
  15   2.0000      -9.889044      -269.0946
  16   2.0000      -9.884182      -268.9623
  17   2.0000      -9.883421      -268.9416
  18   2.0000      -9.874788      -268.7066
  19   2.0000      -7.694326      -209.3733
  20   2.0000      -7.686739      -209.1668
  21   2.0000      -7.624553      -207.4746
  22   2.0000      -7.620717      -207.3703
  23   2.0000      -6.423662      -174.7967
  24   2.0000      -6.417087      -174.6178
  25   2.0000      -5.722085      -155.7058
  26   2.0000      -5.718615      -155.6114
  27   2.0000      -5.714570      -155.5013
  28   2.0000      -5.711693      -155.4231
  29   2.0000      -5.711124      -155.4076
  30   2.0000      -5.703993      -155.2135
  31   2.0000      -5.653813      -153.8481
  32   2.0000      -5.649775      -153.7382
  33   2.0000      -5.644960      -153.6072
  34   2.0000      -5.644653      -153.5988
  35   2.0000      -5.641345      -153.5088
  36   2.0000      -5.640660      -153.4902
  37   2.0000      -4.646484      -126.4373
  38   2.0000      -4.645800      -126.4187
  39   2.0000      -4.643590      -126.3585
  40   2.0000      -4.639682      -126.2522
  41   2.0000      -4.639096      -126.2362
  42   2.0000      -4.637416      -126.1905
  43   2.0000      -0.990595       -26.9555
  44   2.0000      -0.978507       -26.6265
  45   2.0000      -0.946390       -25.7526
  46   2.0000      -0.935501       -25.4563
  47   2.0000      -0.763825       -20.7847
  48   2.0000      -0.720244       -19.5988
  49   2.0000      -0.709458       -19.3053
  50   2.0000      -0.692276       -18.8378
  51   2.0000      -0.684319       -18.6213
  52   2.0000      -0.676845       -18.4179
  53   2.0000      -0.648823       -17.6554
  54   2.0000      -0.632395       -17.2083
  55   2.0000      -0.591045       -16.0831
  56   2.0000      -0.586302       -15.9541
  57   2.0000      -0.579284       -15.7631
  58   2.0000      -0.568480       -15.4691
  59   2.0000      -0.565022       -15.3750
  60   2.0000      -0.508316       -13.8320
  61   2.0000      -0.493697       -13.4342
  62   2.0000      -0.474614       -12.9149
  63   2.0000      -0.466284       -12.6882
  64   2.0000      -0.451677       -12.2907
  65   2.0000      -0.446803       -12.1581
  66   2.0000      -0.442021       -12.0280
  67   2.0000      -0.433984       -11.8093
  68   2.0000      -0.432645       -11.7729
  69   2.0000      -0.419649       -11.4192
  70   2.0000      -0.411512       -11.1978
  71   2.0000      -0.397912       -10.8277
  72   2.0000      -0.393420       -10.7055
  73   2.0000      -0.388347       -10.5675
  74   2.0000      -0.385067       -10.4782
  75   2.0000      -0.362100        -9.8532
  76   2.0000      -0.359760        -9.7896
  77   2.0000      -0.356170        -9.6919
  78   2.0000      -0.351496        -9.5647
  79   2.0000      -0.348600        -9.4859
  80   2.0000      -0.347074        -9.4444
  81   2.0000      -0.346530        -9.4296
  82   2.0000      -0.342405        -9.3173
  83   2.0000      -0.339696        -9.2436
  84   2.0000      -0.326063        -8.8726
  85   2.0000      -0.319268        -8.6877
  86   2.0000      -0.308397        -8.3919
  87   2.0000      -0.299074        -8.1382
  88   2.0000      -0.296913        -8.0794
  89   2.0000      -0.288453        -7.8492
  90   2.0000      -0.281208        -7.6520
  91   2.0000      -0.280465        -7.6318
  92   2.0000      -0.266869        -7.2619
  93   2.0000      -0.263613        -7.1733
  94   2.0000      -0.255504        -6.9526
  95   2.0000      -0.237035        -6.4500
  96   2.0000      -0.222557        -6.0561
  97   2.0000      -0.206083        -5.6078
  98   2.0000      -0.194880        -5.3029
  99   2.0000      -0.193035        -5.2528
 100   2.0000      -0.180218        -4.9040
 101   0.0000      -0.044777        -1.2184
 102   0.0000      -0.033429        -0.9096
 103   0.0000      -0.010339        -0.2813
 104   0.0000       0.007347         0.1999
 105   0.0000       0.017130         0.4661

MULLIKEN ATOMIC CHARGES
-----------------------
   0 C :   -0.288266
   1 C :   -0.004130
   2 O :   -0.372565
   3 P :    0.609221
   4 S :   -0.298965
   5 O :   -0.350525
   6 C :   -0.020630
   7 C :   -0.319725
   8 S :   -0.142037
   9 C :   -0.322734
  10 S :   -0.132631
  11 P :    0.585316
  12 S :   -0.275798
  13 O :   -0.350709
  14 C :   -0.008819
  15 C :   -0.288981
  16 O :   -0.376964
  17 C :   -0.012169
  18 C :   -0.308708
  19 H :    0.128799
  20 H :    0.112216
  21 H :    0.102827
  22 H :    0.100816
  23 H :    0.090757
  24 H :    0.107317
  25 H :    0.137062
  26 H :    0.123222
  27 H :    0.111251
  28 H :    0.122777
  29 H :    0.177035
  30 H :    0.210571
  31 H :    0.111060
  32 H :    0.100975
  33 H :    0.120181
  34 H :    0.108965
  35 H :    0.122574
  36 H :    0.112312
  37 H :    0.109378
  38 H :    0.128347
  39 H :    0.130076
  40 H :    0.111301
Sum of atomic charges:    0.0000000

LOEWDIN ATOMIC CHARGES
----------------------
   0 C :   -0.364069
   1 C :   -0.118231
   2 O :   -0.247102
   3 P :    0.570873
   4 S :   -0.297680
   5 O :   -0.223803
   6 C :   -0.117644
   7 C :   -0.368590
   8 S :    0.066277
   9 C :   -0.478216
  10 S :    0.062020
  11 P :    0.557031
  12 S :   -0.279615
  13 O :   -0.233420
  14 C :   -0.111483
  15 C :   -0.361641
  16 O :   -0.245722
  17 C :   -0.115322
  18 C :   -0.368405
  19 H :    0.124324
  20 H :    0.125578
  21 H :    0.126394
  22 H :    0.115624
  23 H :    0.101193
  24 H :    0.123020
  25 H :    0.112496
  26 H :    0.128718
  27 H :    0.129844
  28 H :    0.113554
  29 H :    0.134581
  30 H :    0.125811
  31 H :    0.121606
  32 H :    0.108120
  33 H :    0.125797
  34 H :    0.128974
  35 H :    0.115807
  36 H :    0.106930
  37 H :    0.121350
  38 H :    0.131658
  39 H :    0.123195
  40 H :    0.130169

  Mayer bond orders larger than 0.100000
B(  0-C ,  1-C ) :   1.1663 B(  0-C , 19-H ) :   0.9293 B(  0-C , 20-H ) :   0.9473
B(  0-C , 21-H ) :   0.9397 B(  1-C ,  2-O ) :   0.9135 B(  1-C , 22-H ) :   0.9367
B(  1-C , 23-H ) :   0.9119 B(  2-O ,  3-P ) :   1.0800 B(  3-P ,  4-S ) :   1.6326
B(  3-P ,  5-O ) :   1.1553 B(  3-P ,  8-S ) :   0.9349 B(  4-S ,  8-S ) :   0.1150
B(  4-S , 30-H ) :   0.1021 B(  5-O ,  6-C ) :   0.8949 B(  6-C ,  7-C ) :   1.1653
B(  6-C , 24-H ) :   0.9338 B(  6-C , 25-H ) :   0.9061 B(  7-C , 26-H ) :   0.9405
B(  7-C , 27-H ) :   0.9360 B(  7-C , 28-H ) :   0.9355 B(  8-S ,  9-C ) :   0.9956
B(  9-C , 10-S ) :   1.0051 B(  9-C , 29-H ) :   0.9102 B(  9-C , 30-H ) :   0.8421
B( 10-S , 11-P ) :   0.9254 B( 10-S , 12-S ) :   0.1086 B( 11-P , 12-S ) :   1.6707
B( 11-P , 13-O ) :   1.1097 B( 11-P , 16-O ) :   1.0889 B( 13-O , 14-C ) :   0.8888
B( 14-C , 15-C ) :   1.1670 B( 14-C , 31-H ) :   0.9357 B( 14-C , 32-H ) :   0.9176
B( 15-C , 33-H ) :   0.9450 B( 15-C , 34-H ) :   0.9383 B( 15-C , 35-H ) :   0.9322
B( 16-O , 17-C ) :   0.9112 B( 17-C , 18-C ) :   1.1665 B( 17-C , 36-H ) :   0.9260
B( 17-C , 37-H ) :   0.9333 B( 18-C , 38-H ) :   0.9431 B( 18-C , 39-H ) :   0.9324
B( 18-C , 40-H ) :   0.9350

Dispersion correction           -0.068253552
FINAL SINGLE POINT ENERGY     -2929.514624829548

DIPOLE MOMENT
-------------

Method             : SCF
Type of density    : Electron Density
Multiplicity       :   1
Irrep              :   0
Energy             : -2929.6324606274447433 Eh
Relativity type    :
Basis              : AO
                                X                 Y                 Z
Electronic contribution:     -3.720645798       2.991422293     -10.442427858
Nuclear contribution   :      3.082583892      -4.140631536      12.224326898
                        -----------------------------------------
Total Dipole Moment    :     -0.638061906      -1.149209243       1.781899039
                        -----------------------------------------
Magnitude (a.u.)       :      2.214264904
Magnitude (Debye)      :      5.628214106

Rotational constants in cm-1:             0.012872             0.005399             0.004885
Rotational constants in MHz :           385.884425           161.866544           146.437273

                             ****ORCA TERMINATED NORMALLY****
TOTAL RUN TIME: 0 days 0 hours 0 minutes 21 seconds 480 msec
