                         Program Version 6.0.0  -   RELEASE  -
|  1> ! pbe def2-sv(p) def2/J RI DEFGRID1 loosescf d4 GCP(DFT/SV(P)) printgap
|  2> %output
|  3>     printlevel normal
|  4> end
|  5> * xyz 0 1
|  6> C 4.7227813001 -1.2855025414 -0.7050170579
|  7> C 4.6287410074 0.1547753279 -0.2452651725
|  8> O 3.4451968698 0.3973985986 0.5333575579
|  9> P 1.9874092221 0.3895790947 -0.1062490294
| 10> S 1.9350587695 1.1179320607 -1.9327335901
| 11> O 1.1655931844 1.0734190875 1.0648370444
| 12> C 1.527520624 2.3290372654 1.6820447655
| 13> C 1.4168957142 3.4946010813 0.7210446586
| 14> S 1.3140363101 -1.6017132357 0.1009495099
| 15> C 0.2977890794 -1.7599657125 -1.3989944905
| 16> S -1.4327495502 -2.1690998724 -1.0439492873
| 17> P -2.0127038155 -0.4278764654 -0.0290174389
| 18> S -1.469525083 1.3108312983 -0.7693968071
| 19> O -1.5357876123 -0.7583072214 1.4396844933
| 20> C -1.6864688245 0.1901778745 2.520855592
| 21> C -0.7384339071 -0.2194931584 3.6283260136
| 22> O -3.5892969308 -0.5874516881 0.1048039771
| 23> C -4.4939136656 -0.2311688332 -0.9598966316
| 24> C -5.8484826641 0.0625728828 -0.3471155571
| 25> H 4.6058618654 -1.9605132121 0.1388297822
| 26> H 3.9401162302 -1.4932598583 -1.433032961
| 27> H 5.6890965574 -1.4505896626 -1.1704104906
| 28> H 4.6207468703 0.8318503724 -1.1054692328
| 29> H 5.4444727729 0.4175530999 0.4295924825
| 30> H 0.8149021424 2.4242079722 2.5034573478
| 31> H 2.5416944537 2.2380461414 2.0776533846
| 32> H 2.1648537059 3.4107541459 -0.0659158574
| 33> H 0.4331104753 3.5032518037 0.2546507406
| 34> H 1.5691715618 4.4246573167 1.2592064576
| 35> H 0.6765855615 -2.5940304066 -1.9842877155
| 36> H 0.3579298718 -0.824135824 -1.9633970052
| 37> H -1.4592354185 1.1903070539 2.1361551119
| 38> H -2.7280711171 0.1599370669 2.8489334261
| 39> H -0.8442150029 0.4659898428 4.4630494617
| 40> H -0.9703277378 -1.2285251759 3.9562501018
| 41> H 0.2864742542 -0.1980016591 3.2670098178
| 42> H -4.090946854 0.6433980357 -1.4822226135
| 43> H -4.5433251157 -1.0734298054 -1.6543169518
| 44> H -5.7790616283 0.91022199 0.328894816
| 45> H -6.5532838546 0.2936310727 -1.1389927769
| 46> H -6.1988001004 -0.8037247936 0.2064727299
| 47> *
| 48>
| 49>                          ****END OF INPUT****

CARTESIAN COORDINATES (ANGSTROEM)
---------------------------------
  C      4.722781   -1.285503   -0.705017
  C      4.628741    0.154775   -0.245265
  O      3.445197    0.397399    0.533358
  P      1.987409    0.389579   -0.106249
  S      1.935059    1.117932   -1.932734
  O      1.165593    1.073419    1.064837
  C      1.527521    2.329037    1.682045
  C      1.416896    3.494601    0.721045
  S      1.314036   -1.601713    0.100950
  C      0.297789   -1.759966   -1.398994
  S     -1.432750   -2.169100   -1.043949
  P     -2.012704   -0.427876   -0.029017
  S     -1.469525    1.310831   -0.769397
  O     -1.535788   -0.758307    1.439684
  C     -1.686469    0.190178    2.520856
  C     -0.738434   -0.219493    3.628326
  O     -3.589297   -0.587452    0.104804
  C     -4.493914   -0.231169   -0.959897
  C     -5.848483    0.062573   -0.347116
  H      4.605862   -1.960513    0.138830
  H      3.940116   -1.493260   -1.433033
  H      5.689097   -1.450590   -1.170410
  H      4.620747    0.831850   -1.105469
  H      5.444473    0.417553    0.429592
  H      0.814902    2.424208    2.503457
  H      2.541694    2.238046    2.077653
  H      2.164854    3.410754   -0.065916
  H      0.433110    3.503252    0.254651
  H      1.569172    4.424657    1.259206
  H      0.676586   -2.594030   -1.984288
  H      0.357930   -0.824136   -1.963397
  H     -1.459235    1.190307    2.136155
  H     -2.728071    0.159937    2.848933
  H     -0.844215    0.465990    4.463049
  H     -0.970328   -1.228525    3.956250
  H      0.286474   -0.198002    3.267010
  H     -4.090947    0.643398   -1.482223
  H     -4.543325   -1.073430   -1.654317
  H     -5.779062    0.910222    0.328895
  H     -6.553284    0.293631   -1.138993
  H     -6.198800   -0.803725    0.206473

 Total Charge           Charge          ....    0
 Multiplicity           Mult            ....    1
 Number of Electrons    NEL             ....  202
 Basis Dimension        Dim             ....  334

ORBITAL ENERGIES
----------------

  NO   OCC          E(Eh)            E(eV)
   0   2.0000     -88.040216     -2395.6961
   1   2.0000     -88.040062     -2395.6919
   2   2.0000     -87.983677     -2394.1576
   3   2.0000     -87.977415     -2393.9872
   4   2.0000     -76.425055     -2079.6315
   5   2.0000     -76.419771     -2079.4877
   6   2.0000     -18.793185      -511.3886
   7   2.0000     -18.788677      -511.2659
   8   2.0000     -18.787581      -511.2361
   9   2.0000     -18.784053      -511.1401
  10   2.0000      -9.952584      -270.8236
  11   2.0000      -9.952146      -270.8117
  12   2.0000      -9.950719      -270.7728
  13   2.0000      -9.948645      -270.7164
  14   2.0000      -9.947600      -270.6880
  15   2.0000      -9.885990      -269.0115
  16   2.0000      -9.882509      -268.9167
  17   2.0000      -9.881525      -268.8900
  18   2.0000      -9.876261      -268.7467
  19   2.0000      -7.685966      -209.1458
  20   2.0000      -7.685294      -209.1275
  21   2.0000      -7.628579      -207.5842
  22   2.0000      -7.622297      -207.4132
  23   2.0000      -6.422242      -174.7581
  24   2.0000      -6.417593      -174.6316
  25   2.0000      -5.713985      -155.4854
  26   2.0000      -5.713170      -155.4633
  27   2.0000      -5.710284      -155.3847
  28   2.0000      -5.709896      -155.3742
  29   2.0000      -5.702863      -155.1828
  30   2.0000      -5.702124      -155.1627
  31   2.0000      -5.657482      -153.9479
  32   2.0000      -5.651022      -153.7721
  33   2.0000      -5.649410      -153.7283
  34   2.0000      -5.648530      -153.7043
  35   2.0000      -5.643000      -153.5538
  36   2.0000      -5.642541      -153.5414
  37   2.0000      -4.644998      -126.3968
  38   2.0000      -4.643730      -126.3623
  39   2.0000      -4.642824      -126.3377
  40   2.0000      -4.640153      -126.2650
  41   2.0000      -4.639379      -126.2439
  42   2.0000      -4.637968      -126.2055
  43   2.0000      -0.986522       -26.8446
  44   2.0000      -0.981787       -26.7158
  45   2.0000      -0.941794       -25.6275
  46   2.0000      -0.939501       -25.5651
  47   2.0000      -0.761178       -20.7127
  48   2.0000      -0.720213       -19.5980
  49   2.0000      -0.707058       -19.2400
  50   2.0000      -0.686104       -18.6698
  51   2.0000      -0.685496       -18.6533
  52   2.0000      -0.672293       -18.2940
  53   2.0000      -0.647056       -17.6073
  54   2.0000      -0.629750       -17.1364
  55   2.0000      -0.597015       -16.2456
  56   2.0000      -0.585201       -15.9241
  57   2.0000      -0.574932       -15.6447
  58   2.0000      -0.567009       -15.4291
  59   2.0000      -0.554273       -15.0825
  60   2.0000      -0.504465       -13.7272
  61   2.0000      -0.494876       -13.4663
  62   2.0000      -0.478054       -13.0085
  63   2.0000      -0.467498       -12.7213
  64   2.0000      -0.453572       -12.3423
  65   2.0000      -0.441827       -12.0227
  66   2.0000      -0.434545       -11.8246
  67   2.0000      -0.431489       -11.7414
  68   2.0000      -0.429197       -11.6790
  69   2.0000      -0.414878       -11.2894
  70   2.0000      -0.407029       -11.0758
  71   2.0000      -0.404030       -10.9942
  72   2.0000      -0.386289       -10.5115
  73   2.0000      -0.384849       -10.4723
  74   2.0000      -0.376366       -10.2414
  75   2.0000      -0.368841       -10.0367
  76   2.0000      -0.366528        -9.9737
  77   2.0000      -0.354028        -9.6336
  78   2.0000      -0.351233        -9.5575
  79   2.0000      -0.348593        -9.4857
  80   2.0000      -0.342994        -9.3333
  81   2.0000      -0.340472        -9.2647
  82   2.0000      -0.336523        -9.1573
  83   2.0000      -0.331932        -9.0323
  84   2.0000      -0.330039        -8.9808
  85   2.0000      -0.312405        -8.5010
  86   2.0000      -0.310934        -8.4609
  87   2.0000      -0.297094        -8.0843
  88   2.0000      -0.294401        -8.0111
  89   2.0000      -0.287979        -7.8363
  90   2.0000      -0.286515        -7.7965
  91   2.0000      -0.273448        -7.4409
  92   2.0000      -0.267559        -7.2807
  93   2.0000      -0.260395        -7.0857
  94   2.0000      -0.257688        -7.0120
  95   2.0000      -0.233940        -6.3658
  96   2.0000      -0.219558        -5.9745
  97   2.0000      -0.213227        -5.8022
  98   2.0000      -0.199173        -5.4198
  99   2.0000      -0.190422        -5.1817
 100   2.0000      -0.182878        -4.9764
 101   0.0000      -0.039057        -1.0628
 102   0.0000      -0.032250        -0.8776
 103   0.0000      -0.007066        -0.1923
 104   0.0000       0.013379         0.3641
 105   0.0000       0.019032         0.5179

MULLIKEN ATOMIC CHARGES
-----------------------
   0 C :   -0.307756
   1 C :   -0.004032
   2 O :   -0.383105
   3 P :    0.628504
   4 S :   -0.307225
   5 O :   -0.361937
   6 C :   -0.009139
   7 C :   -0.314936
   8 S :   -0.080015
   9 C :   -0.364239
  10 S :   -0.089605
  11 P :    0.609279
  12 S :   -0.318137
  13 O :   -0.360218
  14 C :   -0.005326
  15 C :   -0.289036
  16 O :   -0.385901
  17 C :   -0.009543
  18 C :   -0.281802
  19 H :    0.116949
  20 H :    0.119353
  21 H :    0.111621
  22 H :    0.110263
  23 H :    0.101625
  24 H :    0.104912
  25 H :    0.107261
  26 H :    0.124594
  27 H :    0.137482
  28 H :    0.105230
  29 H :    0.180846
  30 H :    0.210200
  31 H :    0.105013
  32 H :    0.100267
  33 H :    0.103476
  34 H :    0.115749
  35 H :    0.129145
  36 H :    0.105609
  37 H :    0.100835
  38 H :    0.116223
  39 H :    0.111616
  40 H :    0.115903
Sum of atomic charges:   -0.0000000

LOEWDIN ATOMIC CHARGES
----------------------
   0 C :   -0.368226
   1 C :   -0.121621
   2 O :   -0.247807
   3 P :    0.573317
   4 S :   -0.295413
   5 O :   -0.235665
   6 C :   -0.110976
   7 C :   -0.368458
   8 S :    0.093154
   9 C :   -0.480281
  10 S :    0.080637
  11 P :    0.557383
  12 S :   -0.309067
  13 O :   -0.238434
  14 C :   -0.113412
  15 C :   -0.353971
  16 O :   -0.254093
  17 C :   -0.121254
  18 C :   -0.350959
  19 H :    0.124265
  20 H :    0.119360
  21 H :    0.130124
  22 H :    0.109072
  23 H :    0.116635
  24 H :    0.114895
  25 H :    0.111048
  26 H :    0.120959
  27 H :    0.130505
  28 H :    0.126935
  29 H :    0.136089
  30 H :    0.126153
  31 H :    0.106050
  32 H :    0.111160
  33 H :    0.126271
  34 H :    0.127529
  35 H :    0.126873
  36 H :    0.106838
  37 H :    0.110571
  38 H :    0.126932
  39 H :    0.130616
  40 H :    0.126265

  Mayer bond orders larger than 0.100000
B(  0-C ,  1-C ) :   1.1671 B(  0-C , 19-H ) :   0.9447 B(  0-C , 20-H ) :   0.9367
B(  0-C , 21-H ) :   0.9383 B(  1-C ,  2-O ) :   0.9117 B(  1-C , 22-H ) :   0.9120
B(  1-C , 23-H ) :   0.9330 B(  2-O ,  3-P ) :   1.0828 B(  3-P ,  4-S ) :   1.6008
B(  3-P ,  5-O ) :   1.1192 B(  3-P ,  8-S ) :   0.9678 B(  4-S ,  8-S ) :   0.1241
B(  5-O ,  6-C ) :   0.9038 B(  6-C ,  7-C ) :   1.1698 B(  6-C , 24-H ) :   0.9266
B(  6-C , 25-H ) :   0.9287 B(  7-C , 26-H ) :   0.9351 B(  7-C , 27-H ) :   0.9397
B(  7-C , 28-H ) :   0.9366 B(  8-S ,  9-C ) :   1.0044 B(  9-C , 10-S ) :   0.9972
B(  9-C , 29-H ) :   0.9114 B(  9-C , 30-H ) :   0.8462 B( 10-S , 11-P ) :   0.9690
B( 10-S , 12-S ) :   0.1131 B( 11-P , 12-S ) :   1.6418 B( 11-P , 13-O ) :   1.1382
B( 11-P , 16-O ) :   1.0927 B( 13-O , 14-C ) :   0.8970 B( 14-C , 15-C ) :   1.1657
B( 14-C , 31-H ) :   0.9060 B( 14-C , 32-H ) :   0.9305 B( 15-C , 33-H ) :   0.9408
B( 15-C , 34-H ) :   0.9482 B( 15-C , 35-H ) :   0.9421 B( 16-O , 17-C ) :   0.9079
B( 17-C , 18-C ) :   1.1607 B( 17-C , 36-H ) :   0.9041 B( 17-C , 37-H ) :   0.9316
B( 18-C , 38-H ) :   0.9513 B( 18-C , 39-H ) :   0.9422 B( 18-C , 40-H ) :   0.9509

Dispersion correction           -0.067002075
FINAL SINGLE POINT ENERGY     -2929.519288861874

DIPOLE MOMENT
-------------

Method             : SCF
Type of density    : Electron Density
Multiplicity       :   1
Irrep              :   0
Energy             : -2929.6376479717141592 Eh
Relativity type    :
Basis              : AO
                                X                 Y                 Z
Electronic contribution:      0.145080874      -8.838108985     -10.480479087
Nuclear contribution   :     -0.015930239       8.788279915      11.411000339
                        -----------------------------------------
Total Dipole Moment    :      0.129150634      -0.049829070       0.930521252
                        -----------------------------------------
Magnitude (a.u.)       :      0.940761725
Magnitude (Debye)      :      2.391226271

Rotational constants in cm-1:             0.012639             0.005332             0.004954
Rotational constants in MHz :           378.910541           159.857559           148.523392

                             ****ORCA TERMINATED NORMALLY****
TOTAL RUN TIME: 0 days 0 hours 0 minutes 22 seconds 561 msec
