                         Program Version 6.0.0  -   RELEASE  -
|  1> ! pbe def2-sv(p) def2/J RI DEFGRID1 loosescf d4 GCP(DFT/SV(P)) printgap
|  2> %output
|  3>     printlevel normal
|  4> end
|  5> * xyz 0 1
|  6> C 5.3736304339 -0.6571168773 -0.6184566202
|  7> C 4.3191806855 -0.2745439978 -1.6371366622
|  8> O 3.3206955406 0.6060592446 -1.0780870963
|  9> P 2.2580841242 0.1545240166 0.0038974162
| 10> S 2.7889286769 0.041010835 1.8896663647
| 11> O 1.7114661639 -1.2058567479 -0.6083184252
| 12> C 1.1765925932 -2.2990505341 0.1576845771
| 13> C 2.1478291698 -3.4621977407 0.1375408454
| 14> S 0.8789062179 1.6967733012 -0.4430626704
| 15> C 0.0200189359 1.7175223092 1.1540436929
| 16> S -1.0028461148 0.248118267 1.4566873712
| 17> P -2.1596547868 0.2125015474 -0.3550379657
| 18> S -1.3889305886 -0.6690217061 -1.9205516093
| 19> O -2.5305536813 1.7198182719 -0.6154226624
| 20> C -3.3558896802 2.5115539684 0.2802887527
| 21> C -4.7957965442 2.5190071282 -0.1901725329
| 22> O -3.5337394295 -0.4251635436 0.1283480254
| 23> C -3.7435687704 -1.8464735149 0.1849052878
| 24> C -3.0496748348 -2.4689508162 1.3792735345
| 25> H 4.9237727824 -1.2241181159 0.1951171212
| 26> H 6.1338997899 -1.2653699163 -1.098125024
| 27> H 5.8346197719 0.2344779713 -0.200565154
| 28> H 3.8170415693 -1.1581973467 -2.0382235374
| 29> H 4.7451632823 0.3103832207 -2.4541495326
| 30> H 0.992791543 -1.9666881829 1.1847146994
| 31> H 0.2316130122 -2.5549671759 -0.3275516155
| 32> H 2.3740696493 -3.743843181 -0.8869943184
| 33> H 3.0694285682 -3.186318921 0.6454970857
| 34> H 1.6996374389 -4.3060324498 0.6515793772
| 35> H -0.5939711116 2.6138688066 1.1663010628
| 36> H 0.753783816 1.7315808563 1.9622547156
| 37> H -3.2761895066 2.1085714623 1.2931104855
| 38> H -2.922432053 3.5128209938 0.23568551
| 39> H -5.21514508 1.5181551432 -0.1378433694
| 40> H -5.3724264223 3.183762446 0.445580242
| 41> H -4.849177274 2.8687245855 -1.2175238327
| 42> H -4.827306086 -1.9522872581 0.251097158
| 43> H -3.3842723079 -2.2866023981 -0.7511605093
| 44> H -3.3664844879 -1.9815615828 2.2972050908
| 45> H -3.2953955429 -3.5247829232 1.4274567518
| 46> H -1.9700433517 -2.360281178 1.2844236982
| 47> *
| 48>
| 49>                          ****END OF INPUT****

CARTESIAN COORDINATES (ANGSTROEM)
---------------------------------
  C      5.373630   -0.657117   -0.618457
  C      4.319181   -0.274544   -1.637137
  O      3.320696    0.606059   -1.078087
  P      2.258084    0.154524    0.003897
  S      2.788929    0.041011    1.889666
  O      1.711466   -1.205857   -0.608318
  C      1.176593   -2.299051    0.157685
  C      2.147829   -3.462198    0.137541
  S      0.878906    1.696773   -0.443063
  C      0.020019    1.717522    1.154044
  S     -1.002846    0.248118    1.456687
  P     -2.159655    0.212502   -0.355038
  S     -1.388931   -0.669022   -1.920552
  O     -2.530554    1.719818   -0.615423
  C     -3.355890    2.511554    0.280289
  C     -4.795797    2.519007   -0.190173
  O     -3.533739   -0.425164    0.128348
  C     -3.743569   -1.846474    0.184905
  C     -3.049675   -2.468951    1.379274
  H      4.923773   -1.224118    0.195117
  H      6.133900   -1.265370   -1.098125
  H      5.834620    0.234478   -0.200565
  H      3.817042   -1.158197   -2.038224
  H      4.745163    0.310383   -2.454150
  H      0.992792   -1.966688    1.184715
  H      0.231613   -2.554967   -0.327552
  H      2.374070   -3.743843   -0.886994
  H      3.069429   -3.186319    0.645497
  H      1.699637   -4.306032    0.651579
  H     -0.593971    2.613869    1.166301
  H      0.753784    1.731581    1.962255
  H     -3.276190    2.108571    1.293110
  H     -2.922432    3.512821    0.235686
  H     -5.215145    1.518155   -0.137843
  H     -5.372426    3.183762    0.445580
  H     -4.849177    2.868725   -1.217524
  H     -4.827306   -1.952287    0.251097
  H     -3.384272   -2.286602   -0.751161
  H     -3.366484   -1.981562    2.297205
  H     -3.295396   -3.524783    1.427457
  H     -1.970043   -2.360281    1.284424

 Total Charge           Charge          ....    0
 Multiplicity           Mult            ....    1
 Number of Electrons    NEL             ....  202
 Basis Dimension        Dim             ....  334

ORBITAL ENERGIES
----------------

  NO   OCC          E(Eh)            E(eV)
   0   2.0000     -88.041271     -2395.7248
   1   2.0000     -88.034956     -2395.5529
   2   2.0000     -87.984461     -2394.1789
   3   2.0000     -87.981469     -2394.0975
   4   2.0000     -76.427589     -2079.7004
   5   2.0000     -76.422689     -2079.5671
   6   2.0000     -18.797949      -511.5182
   7   2.0000     -18.796182      -511.4701
   8   2.0000     -18.788454      -511.2598
   9   2.0000     -18.785975      -511.1924
  10   2.0000      -9.963409      -271.1181
  11   2.0000      -9.956715      -270.9360
  12   2.0000      -9.954670      -270.8803
  13   2.0000      -9.952985      -270.8345
  14   2.0000      -9.940302      -270.4894
  15   2.0000      -9.891496      -269.1613
  16   2.0000      -9.890651      -269.1383
  17   2.0000      -9.882256      -268.9098
  18   2.0000      -9.880475      -268.8614
  19   2.0000      -7.685509      -209.1333
  20   2.0000      -7.680158      -208.9877
  21   2.0000      -7.629435      -207.6075
  22   2.0000      -7.626720      -207.5336
  23   2.0000      -6.424872      -174.8297
  24   2.0000      -6.420099      -174.6998
  25   2.0000      -5.713379      -155.4690
  26   2.0000      -5.709997      -155.3769
  27   2.0000      -5.708169      -155.3272
  28   2.0000      -5.704757      -155.2343
  29   2.0000      -5.702667      -155.1775
  30   2.0000      -5.696847      -155.0191
  31   2.0000      -5.658178      -153.9669
  32   2.0000      -5.655806      -153.9023
  33   2.0000      -5.650302      -153.7525
  34   2.0000      -5.649525      -153.7314
  35   2.0000      -5.647427      -153.6743
  36   2.0000      -5.646582      -153.6513
  37   2.0000      -4.648112      -126.4816
  38   2.0000      -4.646626      -126.4411
  39   2.0000      -4.644745      -126.3899
  40   2.0000      -4.642890      -126.3395
  41   2.0000      -4.641586      -126.3040
  42   2.0000      -4.640661      -126.2788
  43   2.0000      -0.993102       -27.0237
  44   2.0000      -0.982886       -26.7457
  45   2.0000      -0.950775       -25.8719
  46   2.0000      -0.938754       -25.5448
  47   2.0000      -0.760323       -20.6894
  48   2.0000      -0.721995       -19.6465
  49   2.0000      -0.710042       -19.3212
  50   2.0000      -0.696227       -18.9453
  51   2.0000      -0.684062       -18.6143
  52   2.0000      -0.670097       -18.2343
  53   2.0000      -0.650709       -17.7067
  54   2.0000      -0.636809       -17.3284
  55   2.0000      -0.596928       -16.2432
  56   2.0000      -0.589735       -16.0475
  57   2.0000      -0.580780       -15.8038
  58   2.0000      -0.571231       -15.5440
  59   2.0000      -0.559184       -15.2162
  60   2.0000      -0.508190       -13.8286
  61   2.0000      -0.493875       -13.4390
  62   2.0000      -0.481645       -13.1062
  63   2.0000      -0.471358       -12.8263
  64   2.0000      -0.460204       -12.5228
  65   2.0000      -0.449544       -12.2327
  66   2.0000      -0.436915       -11.8891
  67   2.0000      -0.432959       -11.7814
  68   2.0000      -0.428600       -11.6628
  69   2.0000      -0.416521       -11.3341
  70   2.0000      -0.407778       -11.0962
  71   2.0000      -0.398359       -10.8399
  72   2.0000      -0.385743       -10.4966
  73   2.0000      -0.385258       -10.4834
  74   2.0000      -0.377276       -10.2662
  75   2.0000      -0.375447       -10.2164
  76   2.0000      -0.367624       -10.0036
  77   2.0000      -0.363913        -9.9026
  78   2.0000      -0.358850        -9.7648
  79   2.0000      -0.352264        -9.5856
  80   2.0000      -0.349065        -9.4986
  81   2.0000      -0.345876        -9.4118
  82   2.0000      -0.342680        -9.3248
  83   2.0000      -0.336428        -9.1547
  84   2.0000      -0.332230        -9.0404
  85   2.0000      -0.324546        -8.8313
  86   2.0000      -0.311881        -8.4867
  87   2.0000      -0.303875        -8.2689
  88   2.0000      -0.295415        -8.0386
  89   2.0000      -0.290919        -7.9163
  90   2.0000      -0.285488        -7.7685
  91   2.0000      -0.273758        -7.4493
  92   2.0000      -0.271933        -7.3997
  93   2.0000      -0.262174        -7.1341
  94   2.0000      -0.257413        -7.0046
  95   2.0000      -0.238351        -6.4859
  96   2.0000      -0.216663        -5.8957
  97   2.0000      -0.205857        -5.6016
  98   2.0000      -0.201945        -5.4952
  99   2.0000      -0.193740        -5.2719
 100   2.0000      -0.188471        -5.1285
 101   0.0000      -0.046222        -1.2578
 102   0.0000      -0.021311        -0.5799
 103   0.0000      -0.014921        -0.4060
 104   0.0000       0.005724         0.1558
 105   0.0000       0.020713         0.5636

MULLIKEN ATOMIC CHARGES
-----------------------
   0 C :   -0.320692
   1 C :   -0.007698
   2 O :   -0.376250
   3 P :    0.651901
   4 S :   -0.342978
   5 O :   -0.367542
   6 C :   -0.032807
   7 C :   -0.294273
   8 S :   -0.070741
   9 C :   -0.353779
  10 S :   -0.122433
  11 P :    0.602160
  12 S :   -0.288249
  13 O :   -0.361459
  14 C :   -0.033565
  15 C :   -0.278949
  16 O :   -0.379546
  17 C :   -0.003361
  18 C :   -0.332326
  19 H :    0.137478
  20 H :    0.109565
  21 H :    0.122820
  22 H :    0.113598
  23 H :    0.109218
  24 H :    0.118510
  25 H :    0.111878
  26 H :    0.113246
  27 H :    0.119530
  28 H :    0.106744
  29 H :    0.183302
  30 H :    0.194673
  31 H :    0.107559
  32 H :    0.114404
  33 H :    0.123991
  34 H :    0.110195
  35 H :    0.122722
  36 H :    0.105764
  37 H :    0.109653
  38 H :    0.120776
  39 H :    0.116856
  40 H :    0.140104
Sum of atomic charges:   -0.0000000

LOEWDIN ATOMIC CHARGES
----------------------
   0 C :   -0.366212
   1 C :   -0.110932
   2 O :   -0.243246
   3 P :    0.573982
   4 S :   -0.321420
   5 O :   -0.233339
   6 C :   -0.130686
   7 C :   -0.357970
   8 S :    0.100062
   9 C :   -0.483380
  10 S :    0.063590
  11 P :    0.564799
  12 S :   -0.292632
  13 O :   -0.236377
  14 C :   -0.116253
  15 C :   -0.356588
  16 O :   -0.247732
  17 C :   -0.120347
  18 C :   -0.369386
  19 H :    0.121985
  20 H :    0.129162
  21 H :    0.130348
  22 H :    0.113237
  23 H :    0.121527
  24 H :    0.101983
  25 H :    0.107523
  26 H :    0.123176
  27 H :    0.122395
  28 H :    0.129012
  29 H :    0.128432
  30 H :    0.129936
  31 H :    0.108252
  32 H :    0.119673
  33 H :    0.127836
  34 H :    0.130387
  35 H :    0.130482
  36 H :    0.118807
  37 H :    0.109290
  38 H :    0.127136
  39 H :    0.133246
  40 H :    0.120240

  Mayer bond orders larger than 0.100000
B(  0-C ,  1-C ) :   1.1634 B(  0-C , 19-H ) :   0.9327 B(  0-C , 20-H ) :   0.9373
B(  0-C , 21-H ) :   0.9449 B(  1-C ,  2-O ) :   0.9094 B(  1-C , 22-H ) :   0.9254
B(  1-C , 23-H ) :   0.9354 B(  2-O ,  3-P ) :   1.1294 B(  3-P ,  4-S ) :   1.6029
B(  3-P ,  5-O ) :   1.1049 B(  3-P ,  8-S ) :   0.9468 B(  4-S ,  8-S ) :   0.1121
B(  5-O ,  6-C ) :   0.9015 B(  6-C ,  7-C ) :   1.1593 B(  6-C , 24-H ) :   0.9002
B(  6-C , 25-H ) :   0.9099 B(  7-C , 26-H ) :   0.9476 B(  7-C , 27-H ) :   0.9406
B(  7-C , 28-H ) :   0.9413 B(  8-S ,  9-C ) :   1.0235 B(  9-C , 10-S ) :   0.9852
B(  9-C , 29-H ) :   0.9002 B(  9-C , 30-H ) :   0.8717 B( 10-S , 11-P ) :   0.9422
B( 10-S , 12-S ) :   0.1065 B( 11-P , 12-S ) :   1.6756 B( 11-P , 13-O ) :   1.1241
B( 11-P , 16-O ) :   1.0655 B( 13-O , 14-C ) :   0.8904 B( 14-C , 15-C ) :   1.1693
B( 14-C , 31-H ) :   0.9099 B( 14-C , 32-H ) :   0.9297 B( 15-C , 33-H ) :   0.9416
B( 15-C , 34-H ) :   0.9388 B( 15-C , 35-H ) :   0.9467 B( 16-O , 17-C ) :   0.9117
B( 17-C , 18-C ) :   1.1647 B( 17-C , 36-H ) :   0.9322 B( 17-C , 37-H ) :   0.9092
B( 18-C , 38-H ) :   0.9442 B( 18-C , 39-H ) :   0.9384 B( 18-C , 40-H ) :   0.9279

Dispersion correction           -0.066689991
FINAL SINGLE POINT ENERGY     -2929.518075971648

DIPOLE MOMENT
-------------

Method             : SCF
Type of density    : Electron Density
Multiplicity       :   1
Irrep              :   0
Energy             : -2929.6364705645605682 Eh
Relativity type    :
Basis              : AO
                                X                 Y                 Z
Electronic contribution:      3.429630342      12.629053389      -3.581226917
Nuclear contribution   :     -4.359150790     -12.954200896       3.938140616
                        -----------------------------------------
Total Dipole Moment    :     -0.929520449      -0.325147507       0.356913700
                        -----------------------------------------
Magnitude (a.u.)       :      1.047433317
Magnitude (Debye)      :      2.662363911

Rotational constants in cm-1:             0.013449             0.005050             0.004568
Rotational constants in MHz :           403.177288           151.387882           136.959584

                             ****ORCA TERMINATED NORMALLY****
TOTAL RUN TIME: 0 days 0 hours 0 minutes 21 seconds 479 msec
