                         Program Version 6.0.1  -  RELEASE   -
|  1> ! pbe def2-sv(p) def2/J RI DEFGRID1 loosescf d4 GCP(DFT/SV(P)) printgap
|  2> %output
|  3>     printlevel normal
|  4> end
|  5> * xyz 0 1
|  6> C 5.054130334 -0.2084394215 -1.3143733404
|  7> C 4.4257544151 -1.5622786845 -1.028960563
|  8> O 3.06227865 -1.5516961795 -1.4989621122
|  9> C 2.0781180539 -1.7322684699 -0.6508442409
| 10> O 2.2040428405 -1.9934989161 0.5270344978
| 11> C 0.7326200869 -1.4958144041 -1.3132598769
| 12> C 0.47138851 0.0170053495 -1.2677041445
| 13> H 1.0891359905 0.5500225244 -1.9911291728
| 14> C 0.7347057907 0.5292831479 0.1308379025
| 15> O -0.0463570148 0.3135249342 1.0378776776
| 16> O 1.8480393373 1.1980852733 0.2305343566
| 17> C 2.2279576259 1.7189186264 1.5274002456
| 18> C 3.1862189974 0.7690143559 2.2259278067
| 19> S -1.2641321105 0.3943978107 -1.6696416216
| 20> P -2.3350885787 0.2925380278 0.1801239066
| 21> S -2.4098380335 1.8175519205 1.4268020386
| 22> O -3.7802849933 0.090907547 -0.4929323568
| 23> C -4.4595600778 1.1538827964 -1.1630198211
| 24> O -2.2453380663 -1.1943655854 0.7353114926
| 25> C -1.8466793301 -1.5351169492 2.0647433846
| 26> H 4.4929280268 0.5784960243 -0.8162458194
| 27> H 6.0771690511 -0.204007947 -0.9530541442
| 28> H 5.0509383839 -0.0149164476 -2.3828121392
| 29> H 4.4245202448 -1.7935051518 0.0397651011
| 30> H 4.9322514531 -2.3573912068 -1.5792740255
| 31> H -0.0392819485 -2.022396577 -0.7499591825
| 32> H 0.7450412795 -1.8317491152 -2.347962508
| 33> H 2.6991725353 2.6776611666 1.3091617926
| 34> H 1.319405016 1.867857659 2.117068457
| 35> H 2.74407229 -0.2231028217 2.2989605823
| 36> H 4.12057528 0.6962114887 1.6767823423
| 37> H 3.3880015937 1.1396119677 3.2252522978
| 38> H -4.4048589562 2.0681927544 -0.5681480129
| 39> H -5.4920095259 0.8275072002 -1.260239181
| 40> H -4.0163861018 1.321969394 -2.1448826011
| 41> H -2.5405405848 -2.3005918736 2.4048554139
| 42> H -1.895145561 -0.6600154777 2.7147956086
| 43> H -0.8257699566 -1.916974963 2.0475874194
| 44> *
| 45>
| 46>                          ****END OF INPUT****

CARTESIAN COORDINATES (ANGSTROEM)
---------------------------------
  C      5.054130   -0.208439   -1.314373
  C      4.425754   -1.562279   -1.028961
  O      3.062279   -1.551696   -1.498962
  C      2.078118   -1.732268   -0.650844
  O      2.204043   -1.993499    0.527034
  C      0.732620   -1.495814   -1.313260
  C      0.471389    0.017005   -1.267704
  H      1.089136    0.550023   -1.991129
  C      0.734706    0.529283    0.130838
  O     -0.046357    0.313525    1.037878
  O      1.848039    1.198085    0.230534
  C      2.227958    1.718919    1.527400
  C      3.186219    0.769014    2.225928
  S     -1.264132    0.394398   -1.669642
  P     -2.335089    0.292538    0.180124
  S     -2.409838    1.817552    1.426802
  O     -3.780285    0.090908   -0.492932
  C     -4.459560    1.153883   -1.163020
  O     -2.245338   -1.194366    0.735311
  C     -1.846679   -1.535117    2.064743
  H      4.492928    0.578496   -0.816246
  H      6.077169   -0.204008   -0.953054
  H      5.050938   -0.014916   -2.382812
  H      4.424520   -1.793505    0.039765
  H      4.932251   -2.357391   -1.579274
  H     -0.039282   -2.022397   -0.749959
  H      0.745041   -1.831749   -2.347963
  H      2.699173    2.677661    1.309162
  H      1.319405    1.867858    2.117068
  H      2.744072   -0.223103    2.298961
  H      4.120575    0.696211    1.676782
  H      3.388002    1.139612    3.225252
  H     -4.404859    2.068193   -0.568148
  H     -5.492010    0.827507   -1.260239
  H     -4.016386    1.321969   -2.144883
  H     -2.540541   -2.300592    2.404855
  H     -1.895146   -0.660015    2.714796
  H     -0.825770   -1.916975    2.047587

 Total Charge           Charge          ....    0
 Multiplicity           Mult            ....    1
 Number of Electrons    NEL             ....  174
 Basis Dimension        Dim             ....  316

ORBITAL ENERGIES
----------------

  NO   OCC          E(Eh)            E(eV)
   0   2.0000     -88.035457     -2395.5666
   1   2.0000     -87.965572     -2393.6649
   2   2.0000     -76.417235     -2079.4187
   3   2.0000     -18.827075      -512.3108
   4   2.0000     -18.818494      -512.0772
   5   2.0000     -18.778561      -510.9906
   6   2.0000     -18.768622      -510.7202
   7   2.0000     -18.766036      -510.6498
   8   2.0000     -18.752241      -510.2744
   9   2.0000     -10.031474      -272.9703
  10   2.0000     -10.023881      -272.7637
  11   2.0000      -9.959746      -271.0185
  12   2.0000      -9.957875      -270.9675
  13   2.0000      -9.957688      -270.9625
  14   2.0000      -9.929346      -270.1912
  15   2.0000      -9.929015      -270.1822
  16   2.0000      -9.917896      -269.8797
  17   2.0000      -9.900126      -269.3961
  18   2.0000      -9.892614      -269.1917
  19   2.0000      -7.680606      -208.9999
  20   2.0000      -7.610778      -207.0998
  21   2.0000      -6.412646      -174.4970
  22   2.0000      -5.708897      -155.3470
  23   2.0000      -5.704866      -155.2373
  24   2.0000      -5.697376      -155.0335
  25   2.0000      -5.639980      -153.4716
  26   2.0000      -5.631556      -153.2424
  27   2.0000      -5.630497      -153.2136
  28   2.0000      -4.635211      -126.1305
  29   2.0000      -4.634922      -126.1226
  30   2.0000      -4.633058      -126.0719
  31   2.0000      -1.036778       -28.2122
  32   2.0000      -1.025646       -27.9093
  33   2.0000      -0.969713       -26.3872
  34   2.0000      -0.943966       -25.6866
  35   2.0000      -0.929958       -25.3054
  36   2.0000      -0.924501       -25.1570
  37   2.0000      -0.772704       -21.0264
  38   2.0000      -0.723657       -19.6917
  39   2.0000      -0.714266       -19.4362
  40   2.0000      -0.689245       -18.7553
  41   2.0000      -0.658408       -17.9162
  42   2.0000      -0.627609       -17.0781
  43   2.0000      -0.616094       -16.7648
  44   2.0000      -0.608637       -16.5619
  45   2.0000      -0.602620       -16.3981
  46   2.0000      -0.569626       -15.5003
  47   2.0000      -0.519553       -14.1378
  48   2.0000      -0.513053       -13.9609
  49   2.0000      -0.505651       -13.7595
  50   2.0000      -0.487390       -13.2626
  51   2.0000      -0.470673       -12.8077
  52   2.0000      -0.461960       -12.5706
  53   2.0000      -0.458842       -12.4857
  54   2.0000      -0.450740       -12.2653
  55   2.0000      -0.435509       -11.8508
  56   2.0000      -0.423771       -11.5314
  57   2.0000      -0.422571       -11.4987
  58   2.0000      -0.411112       -11.1869
  59   2.0000      -0.407893       -11.0993
  60   2.0000      -0.404232       -10.9997
  61   2.0000      -0.398443       -10.8422
  62   2.0000      -0.391264       -10.6468
  63   2.0000      -0.387002       -10.5309
  64   2.0000      -0.381695       -10.3864
  65   2.0000      -0.373926       -10.1750
  66   2.0000      -0.369063       -10.0427
  67   2.0000      -0.361458        -9.8358
  68   2.0000      -0.353196        -9.6110
  69   2.0000      -0.350197        -9.5293
  70   2.0000      -0.341063        -9.2808
  71   2.0000      -0.336995        -9.1701
  72   2.0000      -0.332079        -9.0363
  73   2.0000      -0.311779        -8.4839
  74   2.0000      -0.309193        -8.4136
  75   2.0000      -0.300346        -8.1728
  76   2.0000      -0.291101        -7.9213
  77   2.0000      -0.284535        -7.7426
  78   2.0000      -0.273536        -7.4433
  79   2.0000      -0.273226        -7.4349
  80   2.0000      -0.264707        -7.2030
  81   2.0000      -0.246337        -6.7032
  82   2.0000      -0.242583        -6.6010
  83   2.0000      -0.236556        -6.4370
  84   2.0000      -0.221523        -6.0279
  85   2.0000      -0.184922        -5.0320
  86   2.0000      -0.175954        -4.7880
  87   0.0000      -0.059445        -1.6176
  88   0.0000      -0.042390        -1.1535
  89   0.0000      -0.024345        -0.6625
  90   0.0000       0.005323         0.1448
  91   0.0000       0.023594         0.6420

MULLIKEN ATOMIC CHARGES
-----------------------
   0 C :   -0.303427
   1 C :   -0.032240
   2 O :   -0.225745
   3 C :    0.096386
   4 O :   -0.202297
   5 C :   -0.024987
   6 C :   -0.297360
   7 H :    0.139460
   8 C :    0.207602
   9 O :   -0.192602
  10 O :   -0.219745
  11 C :   -0.025532
  12 C :   -0.324033
  13 S :   -0.098598
  14 P :    0.619170
  15 S :   -0.335101
  16 O :   -0.377241
  17 C :   -0.104466
  18 O :   -0.371640
  19 C :   -0.095829
  20 H :    0.125147
  21 H :    0.115792
  22 H :    0.117573
  23 H :    0.121706
  24 H :    0.112073
  25 H :    0.129712
  26 H :    0.116340
  27 H :    0.110622
  28 H :    0.133150
  29 H :    0.151620
  30 H :    0.114771
  31 H :    0.117016
  32 H :    0.113043
  33 H :    0.120721
  34 H :    0.110382
  35 H :    0.118738
  36 H :    0.120241
  37 H :    0.119578
Sum of atomic charges:   -0.0000000

LOEWDIN ATOMIC CHARGES
----------------------
   0 C :   -0.354966
   1 C :   -0.110872
   2 O :   -0.052765
   3 C :    0.026252
   4 O :   -0.163747
   5 C :   -0.240317
   6 C :   -0.258926
   7 H :    0.141408
   8 C :    0.020421
   9 O :   -0.141704
  10 O :   -0.034252
  11 C :   -0.106625
  12 C :   -0.358623
  13 S :    0.096459
  14 P :    0.584289
  15 S :   -0.334656
  16 O :   -0.261776
  17 C :   -0.221497
  18 O :   -0.243488
  19 C :   -0.213129
  20 H :    0.124702
  21 H :    0.131926
  22 H :    0.127442
  23 H :    0.121946
  24 H :    0.121286
  25 H :    0.144611
  26 H :    0.140111
  27 H :    0.121295
  28 H :    0.129992
  29 H :    0.137936
  30 H :    0.121403
  31 H :    0.133651
  32 H :    0.106360
  33 H :    0.120171
  34 H :    0.104461
  35 H :    0.117500
  36 H :    0.111134
  37 H :    0.112589

  Mayer bond orders larger than 0.100000
B(  0-C ,  1-C ) :   1.1718 B(  0-C , 20-H ) :   0.9376 B(  0-C , 21-H ) :   0.9439
B(  0-C , 22-H ) :   0.9471 B(  1-C ,  2-O ) :   0.8994 B(  1-C , 23-H ) :   0.9057
B(  1-C , 24-H ) :   0.9350 B(  2-O ,  3-C ) :   1.2382 B(  3-C ,  4-O ) :   1.9948
B(  3-C ,  5-C ) :   1.0039 B(  5-C ,  6-C ) :   1.0273 B(  5-C , 25-H ) :   0.8845
B(  5-C , 26-H ) :   0.8997 B(  6-C ,  7-H ) :   0.8795 B(  6-C ,  8-C ) :   0.9222
B(  6-C , 13-S ) :   1.0292 B(  8-C ,  9-O ) :   1.8737 B(  8-C , 10-O ) :   1.2644
B(  9-O , 14-P ) :   0.1494 B( 10-O , 11-C ) :   0.8846 B( 11-C , 12-C ) :   1.1747
B( 11-C , 27-H ) :   0.9361 B( 11-C , 28-H ) :   0.9095 B( 12-C , 29-H ) :   0.9324
B( 12-C , 30-H ) :   0.9463 B( 12-C , 31-H ) :   0.9399 B( 13-S , 14-P ) :   0.9206
B( 13-S , 15-S ) :   0.1093 B( 14-P , 15-S ) :   1.5749 B( 14-P , 16-O ) :   1.0671
B( 14-P , 18-O ) :   1.1103 B( 16-O , 17-C ) :   0.9468 B( 17-C , 32-H ) :   0.9279
B( 17-C , 33-H ) :   0.9598 B( 17-C , 34-H ) :   0.9474 B( 18-O , 19-C ) :   0.9230
B( 19-C , 35-H ) :   0.9542 B( 19-C , 36-H ) :   0.9322 B( 19-C , 37-H ) :   0.9492

Dispersion correction           -0.052919340
FINAL SINGLE POINT ENERGY     -1979.005030591899

DIPOLE MOMENT
-------------

Method             : SCF
Type of density    : Electron Density
Multiplicity       :   1
Irrep              :   0
Energy             : -1979.1373566309089256 Eh
Relativity type    :
Basis              : AO
                                X                 Y                 Z
Electronic contribution:    -20.675893389       1.656315080      -3.391823166
Nuclear contribution   :     22.725285053      -1.870251379       2.706599320
                        -----------------------------------------
Total Dipole Moment    :      2.049391664      -0.213936299      -0.685223845
                        -----------------------------------------
Magnitude (a.u.)       :      2.171475685
Magnitude (Debye)      :      5.519452553

Rotational constants in cm-1:             0.017942             0.006134             0.005626
Rotational constants in MHz :           537.900930           183.896359           168.668934

                             ****ORCA TERMINATED NORMALLY****
TOTAL RUN TIME: 0 days 0 hours 0 minutes 44 seconds 924 msec
