                         Program Version 6.0.0  -   RELEASE  -
|  1> ! pbe def2-sv(p) def2/J RI DEFGRID1 loosescf d4 GCP(DFT/SV(P)) printgap
|  2> %output
|  3>     printlevel normal
|  4> end
|  5> * xyz 0 1
|  6> C 4.0084477422 -1.0542252509 -2.8348762456
|  7> C 4.487345861 -0.5959065254 -1.4737931238
|  8> O 3.6062013462 0.3683389321 -0.8653980218
|  9> P 2.0477955655 0.1730997639 -0.6245756796
| 10> S 0.8508923445 0.4229500365 -2.1527090904
| 11> O 1.7691279498 1.2762470172 0.4617176166
| 12> C 2.4605505048 1.3600592678 1.7340186936
| 13> C 1.5307342346 0.9510808179 2.8588635632
| 14> S 1.950489071 -1.7375441001 0.3020218642
| 15> C 0.2111084607 -2.1029425781 -0.0248931617
| 16> S -0.9248434433 -1.4804116427 1.2566858192
| 17> P -1.9967032015 0.0920851286 0.3321927148
| 18> S -1.3588200566 1.950986998 0.3932634497
| 19> O -3.4302900537 -0.074342966 1.0070406235
| 20> C -3.7945422468 0.6122475126 2.2129729858
| 21> C -3.0789919941 0.0381700025 3.4190176718
| 22> O -2.2269430869 -0.5632726474 -1.0903291432
| 23> C -2.6495893653 0.2080443848 -2.2313297497
| 24> C -4.0556856063 0.7410325511 -2.0629513309
| 25> H 3.0667858485 -1.5932319706 -2.741278122
| 26> H 3.8496237596 -0.200173353 -3.4892417868
| 27> H 4.7511319597 -1.7118452433 -3.2748024583
| 28> H 5.4371772318 -0.0628787065 -1.543322062
| 29> H 4.5847430018 -1.4448880306 -0.79180811
| 30> H 3.353324988 0.7314639191 1.7000248844
| 31> H 2.7492106196 2.4085422226 1.821236672
| 32> H 1.2837673441 -0.1067966649 2.7948400691
| 33> H 2.0149853329 1.146029923 3.81008739
| 34> H 0.6117142672 1.5302783838 2.7988150223
| 35> H 0.1190968744 -3.185527264 -0.0194090683
| 36> H -0.0666772916 -1.6802204751 -0.9920265396
| 37> H -3.5570384146 1.6748542247 2.0919582422
| 38> H -4.8747620602 0.4771500347 2.2804788223
| 39> H -2.0057660049 0.20309949 3.3226771201
| 40> H -3.43334972 0.5296586687 4.3192198496
| 41> H -3.259867673 -1.030916501 3.4923493976
| 42> H -1.9338363033 1.0227644757 -2.383978103
| 43> H -2.573534354 -0.4954694067 -3.0616340941
| 44> H -4.0794799034 1.4734921636 -1.2568702401
| 45> H -4.3685421848 1.2207482887 -2.9849938608
| 46> H -4.737574138 -0.0706445163 -1.8233178189
| 47> *
| 48>
| 49>                          ****END OF INPUT****

CARTESIAN COORDINATES (ANGSTROEM)
---------------------------------
  C      4.008448   -1.054225   -2.834876
  C      4.487346   -0.595907   -1.473793
  O      3.606201    0.368339   -0.865398
  P      2.047796    0.173100   -0.624576
  S      0.850892    0.422950   -2.152709
  O      1.769128    1.276247    0.461718
  C      2.460551    1.360059    1.734019
  C      1.530734    0.951081    2.858864
  S      1.950489   -1.737544    0.302022
  C      0.211108   -2.102943   -0.024893
  S     -0.924843   -1.480412    1.256686
  P     -1.996703    0.092085    0.332193
  S     -1.358820    1.950987    0.393263
  O     -3.430290   -0.074343    1.007041
  C     -3.794542    0.612248    2.212973
  C     -3.078992    0.038170    3.419018
  O     -2.226943   -0.563273   -1.090329
  C     -2.649589    0.208044   -2.231330
  C     -4.055686    0.741033   -2.062951
  H      3.066786   -1.593232   -2.741278
  H      3.849624   -0.200173   -3.489242
  H      4.751132   -1.711845   -3.274802
  H      5.437177   -0.062879   -1.543322
  H      4.584743   -1.444888   -0.791808
  H      3.353325    0.731464    1.700025
  H      2.749211    2.408542    1.821237
  H      1.283767   -0.106797    2.794840
  H      2.014985    1.146030    3.810087
  H      0.611714    1.530278    2.798815
  H      0.119097   -3.185527   -0.019409
  H     -0.066677   -1.680220   -0.992027
  H     -3.557038    1.674854    2.091958
  H     -4.874762    0.477150    2.280479
  H     -2.005766    0.203099    3.322677
  H     -3.433350    0.529659    4.319220
  H     -3.259868   -1.030917    3.492349
  H     -1.933836    1.022764   -2.383978
  H     -2.573534   -0.495469   -3.061634
  H     -4.079480    1.473492   -1.256870
  H     -4.368542    1.220748   -2.984994
  H     -4.737574   -0.070645   -1.823318

 Total Charge           Charge          ....    0
 Multiplicity           Mult            ....    1
 Number of Electrons    NEL             ....  202
 Basis Dimension        Dim             ....  334

ORBITAL ENERGIES
----------------

  NO   OCC          E(Eh)            E(eV)
   0   2.0000     -88.046364     -2395.8634
   1   2.0000     -88.037927     -2395.6338
   2   2.0000     -87.981701     -2394.1038
   3   2.0000     -87.976726     -2393.9684
   4   2.0000     -76.424432     -2079.6145
   5   2.0000     -76.419307     -2079.4750
   6   2.0000     -18.793932      -511.4089
   7   2.0000     -18.785524      -511.1801
   8   2.0000     -18.783742      -511.1316
   9   2.0000     -18.783482      -511.1245
  10   2.0000      -9.958915      -270.9959
  11   2.0000      -9.957076      -270.9458
  12   2.0000      -9.949671      -270.7443
  13   2.0000      -9.946759      -270.6651
  14   2.0000      -9.942696      -270.5545
  15   2.0000      -9.883690      -268.9489
  16   2.0000      -9.883604      -268.9465
  17   2.0000      -9.876596      -268.7558
  18   2.0000      -9.874100      -268.6879
  19   2.0000      -7.691396      -209.2935
  20   2.0000      -7.683230      -209.0713
  21   2.0000      -7.626773      -207.5350
  22   2.0000      -7.621504      -207.3917
  23   2.0000      -6.421787      -174.7457
  24   2.0000      -6.416889      -174.6124
  25   2.0000      -5.719030      -155.6227
  26   2.0000      -5.715742      -155.5332
  27   2.0000      -5.711436      -155.4161
  28   2.0000      -5.708774      -155.3436
  29   2.0000      -5.707489      -155.3087
  30   2.0000      -5.700038      -155.1059
  31   2.0000      -5.655777      -153.9015
  32   2.0000      -5.650456      -153.7567
  33   2.0000      -5.647431      -153.6744
  34   2.0000      -5.646734      -153.6555
  35   2.0000      -5.642283      -153.5343
  36   2.0000      -5.641519      -153.5136
  37   2.0000      -4.644471      -126.3825
  38   2.0000      -4.643861      -126.3659
  39   2.0000      -4.641888      -126.3122
  40   2.0000      -4.639396      -126.2444
  41   2.0000      -4.638751      -126.2268
  42   2.0000      -4.637306      -126.1875
  43   2.0000      -0.985924       -26.8283
  44   2.0000      -0.980538       -26.6818
  45   2.0000      -0.940837       -25.6015
  46   2.0000      -0.940319       -25.5874
  47   2.0000      -0.761149       -20.7119
  48   2.0000      -0.717823       -19.5330
  49   2.0000      -0.706812       -19.2333
  50   2.0000      -0.687076       -18.6963
  51   2.0000      -0.683118       -18.5886
  52   2.0000      -0.671462       -18.2714
  53   2.0000      -0.648991       -17.6599
  54   2.0000      -0.632126       -17.2010
  55   2.0000      -0.595964       -16.2170
  56   2.0000      -0.587163       -15.9775
  57   2.0000      -0.571283       -15.5454
  58   2.0000      -0.567399       -15.4397
  59   2.0000      -0.561923       -15.2907
  60   2.0000      -0.501859       -13.6563
  61   2.0000      -0.487030       -13.2527
  62   2.0000      -0.469426       -12.7737
  63   2.0000      -0.468060       -12.7366
  64   2.0000      -0.453790       -12.3483
  65   2.0000      -0.446568       -12.1517
  66   2.0000      -0.435521       -11.8511
  67   2.0000      -0.433725       -11.8023
  68   2.0000      -0.429275       -11.6812
  69   2.0000      -0.416098       -11.3226
  70   2.0000      -0.412697       -11.2301
  71   2.0000      -0.398200       -10.8356
  72   2.0000      -0.388683       -10.5766
  73   2.0000      -0.384215       -10.4550
  74   2.0000      -0.381368       -10.3775
  75   2.0000      -0.372708       -10.1419
  76   2.0000      -0.355304        -9.6683
  77   2.0000      -0.351364        -9.5611
  78   2.0000      -0.350578        -9.5397
  79   2.0000      -0.346122        -9.4185
  80   2.0000      -0.342634        -9.3235
  81   2.0000      -0.342334        -9.3154
  82   2.0000      -0.338364        -9.2074
  83   2.0000      -0.336829        -9.1656
  84   2.0000      -0.326591        -8.8870
  85   2.0000      -0.313122        -8.5205
  86   2.0000      -0.306385        -8.3372
  87   2.0000      -0.296767        -8.0754
  88   2.0000      -0.290201        -7.8968
  89   2.0000      -0.288965        -7.8631
  90   2.0000      -0.277568        -7.5530
  91   2.0000      -0.273636        -7.4460
  92   2.0000      -0.267606        -7.2819
  93   2.0000      -0.261839        -7.1250
  94   2.0000      -0.255241        -6.9455
  95   2.0000      -0.235948        -6.4205
  96   2.0000      -0.220618        -6.0033
  97   2.0000      -0.208691        -5.6788
  98   2.0000      -0.200456        -5.4547
  99   2.0000      -0.190088        -5.1726
 100   2.0000      -0.179815        -4.8930
 101   0.0000      -0.039673        -1.0796
 102   0.0000      -0.026941        -0.7331
 103   0.0000      -0.023381        -0.6362
 104   0.0000       0.000720         0.0196
 105   0.0000       0.016909         0.4601

MULLIKEN ATOMIC CHARGES
-----------------------
   0 C :   -0.306119
   1 C :   -0.009564
   2 O :   -0.377914
   3 P :    0.599551
   4 S :   -0.303953
   5 O :   -0.332918
   6 C :   -0.002556
   7 C :   -0.310844
   8 S :   -0.123584
   9 C :   -0.341214
  10 S :   -0.106409
  11 P :    0.611332
  12 S :   -0.302441
  13 O :   -0.371493
  14 C :   -0.003367
  15 C :   -0.330458
  16 O :   -0.371740
  17 C :   -0.009873
  18 C :   -0.301560
  19 H :    0.120842
  20 H :    0.127797
  21 H :    0.110346
  22 H :    0.109456
  23 H :    0.111051
  24 H :    0.093273
  25 H :    0.109815
  26 H :    0.126343
  27 H :    0.100585
  28 H :    0.135162
  29 H :    0.183856
  30 H :    0.208481
  31 H :    0.106674
  32 H :    0.103531
  33 H :    0.135342
  34 H :    0.114280
  35 H :    0.121288
  36 H :    0.128989
  37 H :    0.101814
  38 H :    0.122057
  39 H :    0.110282
  40 H :    0.113858
Sum of atomic charges:    0.0000000

LOEWDIN ATOMIC CHARGES
----------------------
   0 C :   -0.369208
   1 C :   -0.115235
   2 O :   -0.245018
   3 P :    0.567444
   4 S :   -0.288912
   5 O :   -0.222194
   6 C :   -0.109695
   7 C :   -0.367620
   8 S :    0.062122
   9 C :   -0.477403
  10 S :    0.081825
  11 P :    0.566151
  12 S :   -0.299873
  13 O :   -0.244613
  14 C :   -0.124179
  15 C :   -0.370618
  16 O :   -0.237032
  17 C :   -0.119422
  18 C :   -0.365440
  19 H :    0.119538
  20 H :    0.130943
  21 H :    0.129608
  22 H :    0.121488
  23 H :    0.106793
  24 H :    0.103129
  25 H :    0.122180
  26 H :    0.115095
  27 H :    0.125229
  28 H :    0.126795
  29 H :    0.139239
  30 H :    0.129437
  31 H :    0.106541
  32 H :    0.118011
  33 H :    0.120994
  34 H :    0.131726
  35 H :    0.125864
  36 H :    0.111446
  37 H :    0.117689
  38 H :    0.122262
  39 H :    0.129879
  40 H :    0.125034

  Mayer bond orders larger than 0.100000
B(  0-C ,  1-C ) :   1.1673 B(  0-C , 19-H ) :   0.9326 B(  0-C , 20-H ) :   0.9430
B(  0-C , 21-H ) :   0.9349 B(  1-C ,  2-O ) :   0.9120 B(  1-C , 22-H ) :   0.9332
B(  1-C , 23-H ) :   0.9261 B(  2-O ,  3-P ) :   1.0933 B(  3-P ,  4-S ) :   1.6305
B(  3-P ,  5-O ) :   1.1633 B(  3-P ,  8-S ) :   0.9288 B(  4-S ,  8-S ) :   0.1087
B(  5-O ,  6-C ) :   0.8902 B(  6-C ,  7-C ) :   1.1662 B(  6-C , 24-H ) :   0.9188
B(  6-C , 25-H ) :   0.9334 B(  7-C , 26-H ) :   0.9327 B(  7-C , 27-H ) :   0.9369
B(  7-C , 28-H ) :   0.9334 B(  8-S ,  9-C ) :   1.0086 B(  9-C , 10-S ) :   0.9995
B(  9-C , 29-H ) :   0.9102 B(  9-C , 30-H ) :   0.8515 B( 10-S , 11-P ) :   0.9504
B( 10-S , 12-S ) :   0.1074 B( 11-P , 12-S ) :   1.6346 B( 11-P , 13-O ) :   1.0827
B( 11-P , 16-O ) :   1.1232 B( 13-O , 14-C ) :   0.9175 B( 14-C , 15-C ) :   1.1646
B( 14-C , 31-H ) :   0.9077 B( 14-C , 32-H ) :   0.9319 B( 15-C , 33-H ) :   0.9312
B( 15-C , 34-H ) :   0.9388 B( 15-C , 35-H ) :   0.9435 B( 16-O , 17-C ) :   0.8952
B( 17-C , 18-C ) :   1.1635 B( 17-C , 36-H ) :   0.9105 B( 17-C , 37-H ) :   0.9361
B( 18-C , 38-H ) :   0.9352 B( 18-C , 39-H ) :   0.9390 B( 18-C , 40-H ) :   0.9450

Dispersion correction           -0.068430710
FINAL SINGLE POINT ENERGY     -2929.514103393288

DIPOLE MOMENT
-------------

Method             : SCF
Type of density    : Electron Density
Multiplicity       :   1
Irrep              :   0
Energy             : -2929.6316288957555116 Eh
Relativity type    :
Basis              : AO
                                X                 Y                 Z
Electronic contribution:      3.416039958      -1.395410184      -3.610601799
Nuclear contribution   :     -2.943937010       0.586234226       4.077270407
                        -----------------------------------------
Total Dipole Moment    :      0.472102948      -0.809175958       0.466668608
                        -----------------------------------------
Magnitude (a.u.)       :      1.046626253
Magnitude (Debye)      :      2.660312518

Rotational constants in cm-1:             0.012532             0.005674             0.004984
Rotational constants in MHz :           375.712409           170.092712           149.422719

                             ****ORCA TERMINATED NORMALLY****
TOTAL RUN TIME: 0 days 0 hours 0 minutes 21 seconds 798 msec
