                         Program Version 6.0.0  -   RELEASE  -
|  1> ! pbe def2-sv(p) def2/J RI DEFGRID1 loosescf d4 GCP(DFT/SV(P)) printgap
|  2> %output
|  3>     printlevel normal
|  4> end
|  5> * xyz 0 1
|  6> C 4.2409830537 0.1001629604 -2.1796354864
|  7> C 4.4241238884 -0.2986067763 -0.7287907334
|  8> O 3.1738761168 -0.6072023132 -0.0919521997
|  9> P 2.1102752056 0.527434266 0.2716708443
| 10> S 2.8715713963 2.2357842044 0.8495613884
| 11> O 1.1921967043 -0.2183179391 1.3240292729
| 12> C 1.4514245879 -0.1718844839 2.7399968665
| 13> C 2.6901387275 -0.9592649848 3.1113203022
| 14> S 0.7859747869 0.6015644641 -1.3732235195
| 15> C 0.4237013884 -1.1620623549 -1.5876104632
| 16> S -0.6432128459 -1.8797280032 -0.2972476632
| 17> P -2.1378680724 -0.4097900467 -0.2783539942
| 18> S -2.7018620342 0.3543476191 -1.9989476581
| 19> O -1.5908721593 0.5878611003 0.825823148
| 20> C -2.1875397202 1.8867915808 1.0431988832
| 21> C -1.3507836753 2.9738119903 0.398149335
| 22> O -3.3222489658 -1.109997047 0.5219152423
| 23> C -4.2508033092 -2.0100472498 -0.1173533159
| 24> C -5.5032563976 -2.0740455495 0.7332565854
| 25> H 5.2140470937 0.2683797626 -2.6298914826
| 26> H 3.7219896438 -0.679555349 -2.7310488052
| 27> H 3.6607466395 1.0205757169 -2.2414355846
| 28> H 4.906602921 0.5097922307 -0.1701195445
| 29> H 5.0052884487 -1.216672703 -0.6315794266
| 30> H 1.5533848558 0.8765330591 3.0390545843
| 31> H 0.5493776873 -0.5982908567 3.1817922105
| 32> H 2.7838392749 -0.9920852684 4.1923037527
| 33> H 2.6210967401 -1.9715667773 2.7216714239
| 34> H 3.573306773 -0.4775743868 2.6940434988
| 35> H 1.3443674478 -1.7403114558 -1.5747642116
| 36> H -0.0808455088 -1.2327552131 -2.5499042892
| 37> H -3.203842641 1.8882033961 0.63950653
| 38> H -2.2225503207 1.9997957107 2.1280146464
| 39> H -1.7681295474 3.9440812081 0.6472285456
| 40> H -0.3239931723 2.9255898568 0.7562659518
| 41> H -1.3446867554 2.8551331374 -0.683760388
| 42> H -4.46553131 -1.6316956898 -1.1225495759
| 43> H -3.7716398414 -2.9890986758 -0.1966038648
| 44> H -5.2526873916 -2.4065127701 1.7364551123
| 45> H -5.9676306807 -1.093746413 0.7928569159
| 46> H -6.2010398777 -2.7737373368 0.2852412092
| 47> *
| 48>
| 49>                          ****END OF INPUT****

CARTESIAN COORDINATES (ANGSTROEM)
---------------------------------
  C      4.240983    0.100163   -2.179635
  C      4.424124   -0.298607   -0.728791
  O      3.173876   -0.607202   -0.091952
  P      2.110275    0.527434    0.271671
  S      2.871571    2.235784    0.849561
  O      1.192197   -0.218318    1.324029
  C      1.451425   -0.171884    2.739997
  C      2.690139   -0.959265    3.111320
  S      0.785975    0.601564   -1.373224
  C      0.423701   -1.162062   -1.587610
  S     -0.643213   -1.879728   -0.297248
  P     -2.137868   -0.409790   -0.278354
  S     -2.701862    0.354348   -1.998948
  O     -1.590872    0.587861    0.825823
  C     -2.187540    1.886792    1.043199
  C     -1.350784    2.973812    0.398149
  O     -3.322249   -1.109997    0.521915
  C     -4.250803   -2.010047   -0.117353
  C     -5.503256   -2.074046    0.733257
  H      5.214047    0.268380   -2.629891
  H      3.721990   -0.679555   -2.731049
  H      3.660747    1.020576   -2.241436
  H      4.906603    0.509792   -0.170120
  H      5.005288   -1.216673   -0.631579
  H      1.553385    0.876533    3.039055
  H      0.549378   -0.598291    3.181792
  H      2.783839   -0.992085    4.192304
  H      2.621097   -1.971567    2.721671
  H      3.573307   -0.477574    2.694043
  H      1.344367   -1.740311   -1.574764
  H     -0.080846   -1.232755   -2.549904
  H     -3.203843    1.888203    0.639507
  H     -2.222550    1.999796    2.128015
  H     -1.768130    3.944081    0.647229
  H     -0.323993    2.925590    0.756266
  H     -1.344687    2.855133   -0.683760
  H     -4.465531   -1.631696   -1.122550
  H     -3.771640   -2.989099   -0.196604
  H     -5.252687   -2.406513    1.736455
  H     -5.967631   -1.093746    0.792857
  H     -6.201040   -2.773737    0.285241

 Total Charge           Charge          ....    0
 Multiplicity           Mult            ....    1
 Number of Electrons    NEL             ....  202
 Basis Dimension        Dim             ....  334

ORBITAL ENERGIES
----------------

  NO   OCC          E(Eh)            E(eV)
   0   2.0000     -88.044063     -2395.8008
   1   2.0000     -88.040332     -2395.6992
   2   2.0000     -87.991615     -2394.3736
   3   2.0000     -87.984060     -2394.1680
   4   2.0000     -76.426672     -2079.6755
   5   2.0000     -76.424022     -2079.6034
   6   2.0000     -18.796627      -511.4822
   7   2.0000     -18.790722      -511.3215
   8   2.0000     -18.786524      -511.2073
   9   2.0000     -18.783535      -511.1260
  10   2.0000      -9.960712      -271.0447
  11   2.0000      -9.955241      -270.8959
  12   2.0000      -9.950194      -270.7585
  13   2.0000      -9.949780      -270.7473
  14   2.0000      -9.946594      -270.6606
  15   2.0000      -9.887374      -269.0491
  16   2.0000      -9.887351      -269.0485
  17   2.0000      -9.883794      -268.9517
  18   2.0000      -9.869580      -268.5649
  19   2.0000      -7.688615      -209.2178
  20   2.0000      -7.685983      -209.1462
  21   2.0000      -7.636622      -207.8031
  22   2.0000      -7.629076      -207.5977
  23   2.0000      -6.424440      -174.8179
  24   2.0000      -6.421413      -174.7355
  25   2.0000      -5.716950      -155.5661
  26   2.0000      -5.713986      -155.4855
  27   2.0000      -5.712903      -155.4560
  28   2.0000      -5.710583      -155.3929
  29   2.0000      -5.705350      -155.2505
  30   2.0000      -5.702588      -155.1753
  31   2.0000      -5.665460      -154.1650
  32   2.0000      -5.657903      -153.9594
  33   2.0000      -5.657215      -153.9406
  34   2.0000      -5.656910      -153.9323
  35   2.0000      -5.649829      -153.7397
  36   2.0000      -5.649234      -153.7235
  37   2.0000      -4.646744      -126.4443
  38   2.0000      -4.646429      -126.4358
  39   2.0000      -4.644934      -126.3951
  40   2.0000      -4.643887      -126.3666
  41   2.0000      -4.643202      -126.3480
  42   2.0000      -4.641985      -126.3148
  43   2.0000      -0.987435       -26.8695
  44   2.0000      -0.982051       -26.7230
  45   2.0000      -0.946393       -25.7527
  46   2.0000      -0.939519       -25.5656
  47   2.0000      -0.765237       -20.8231
  48   2.0000      -0.721377       -19.6297
  49   2.0000      -0.707455       -19.2508
  50   2.0000      -0.688398       -18.7323
  51   2.0000      -0.682701       -18.5773
  52   2.0000      -0.672538       -18.3007
  53   2.0000      -0.653054       -17.7705
  54   2.0000      -0.637865       -17.3572
  55   2.0000      -0.600756       -16.3474
  56   2.0000      -0.588699       -16.0193
  57   2.0000      -0.573860       -15.6155
  58   2.0000      -0.568648       -15.4737
  59   2.0000      -0.557714       -15.1762
  60   2.0000      -0.505280       -13.7494
  61   2.0000      -0.494825       -13.4649
  62   2.0000      -0.475103       -12.9282
  63   2.0000      -0.470995       -12.8164
  64   2.0000      -0.459824       -12.5124
  65   2.0000      -0.443008       -12.0549
  66   2.0000      -0.440885       -11.9971
  67   2.0000      -0.432771       -11.7763
  68   2.0000      -0.426506       -11.6058
  69   2.0000      -0.416290       -11.3278
  70   2.0000      -0.409032       -11.1303
  71   2.0000      -0.396613       -10.7924
  72   2.0000      -0.392248       -10.6736
  73   2.0000      -0.383325       -10.4308
  74   2.0000      -0.376904       -10.2561
  75   2.0000      -0.374205       -10.1826
  76   2.0000      -0.370192       -10.0734
  77   2.0000      -0.356986        -9.7141
  78   2.0000      -0.352119        -9.5817
  79   2.0000      -0.351104        -9.5540
  80   2.0000      -0.349391        -9.5074
  81   2.0000      -0.341601        -9.2954
  82   2.0000      -0.341101        -9.2818
  83   2.0000      -0.334339        -9.0978
  84   2.0000      -0.330040        -8.9808
  85   2.0000      -0.322699        -8.7811
  86   2.0000      -0.306393        -8.3374
  87   2.0000      -0.298324        -8.1178
  88   2.0000      -0.294515        -8.0142
  89   2.0000      -0.290947        -7.9171
  90   2.0000      -0.282677        -7.6920
  91   2.0000      -0.274525        -7.4702
  92   2.0000      -0.265943        -7.2367
  93   2.0000      -0.263504        -7.1703
  94   2.0000      -0.260338        -7.0841
  95   2.0000      -0.228716        -6.2237
  96   2.0000      -0.218752        -5.9525
  97   2.0000      -0.212252        -5.7757
  98   2.0000      -0.208920        -5.6850
  99   2.0000      -0.199155        -5.4193
 100   2.0000      -0.197050        -5.3620
 101   0.0000      -0.044338        -1.2065
 102   0.0000      -0.023559        -0.6411
 103   0.0000      -0.007196        -0.1958
 104   0.0000       0.003332         0.0907
 105   0.0000       0.008630         0.2348

MULLIKEN ATOMIC CHARGES
-----------------------
   0 C :   -0.313099
   1 C :   -0.009161
   2 O :   -0.382039
   3 P :    0.617267
   4 S :   -0.320802
   5 O :   -0.356839
   6 C :   -0.000901
   7 C :   -0.306783
   8 S :   -0.057286
   9 C :   -0.348601
  10 S :   -0.082056
  11 P :    0.612635
  12 S :   -0.340422
  13 O :   -0.358820
  14 C :   -0.001622
  15 C :   -0.299885
  16 O :   -0.379210
  17 C :   -0.009863
  18 C :   -0.280701
  19 H :    0.114393
  20 H :    0.113718
  21 H :    0.130980
  22 H :    0.112458
  23 H :    0.105194
  24 H :    0.109789
  25 H :    0.106187
  26 H :    0.111168
  27 H :    0.116831
  28 H :    0.119512
  29 H :    0.181546
  30 H :    0.193616
  31 H :    0.099128
  32 H :    0.102893
  33 H :    0.103000
  34 H :    0.119210
  35 H :    0.128866
  36 H :    0.105752
  37 H :    0.099095
  38 H :    0.115736
  39 H :    0.117620
  40 H :    0.111495
Sum of atomic charges:    0.0000000

LOEWDIN ATOMIC CHARGES
----------------------
   0 C :   -0.366769
   1 C :   -0.122238
   2 O :   -0.249491
   3 P :    0.568141
   4 S :   -0.317080
   5 O :   -0.234206
   6 C :   -0.115442
   7 C :   -0.364291
   8 S :    0.119997
   9 C :   -0.473832
  10 S :    0.087741
  11 P :    0.565602
  12 S :   -0.333735
  13 O :   -0.238865
  14 C :   -0.111138
  15 C :   -0.365570
  16 O :   -0.253252
  17 C :   -0.121807
  18 C :   -0.350669
  19 H :    0.131896
  20 H :    0.122531
  21 H :    0.123365
  22 H :    0.110116
  23 H :    0.118070
  24 H :    0.109872
  25 H :    0.119449
  26 H :    0.129811
  27 H :    0.126459
  28 H :    0.121538
  29 H :    0.130954
  30 H :    0.137410
  31 H :    0.107205
  32 H :    0.116767
  33 H :    0.126339
  34 H :    0.119893
  35 H :    0.124595
  36 H :    0.106884
  37 H :    0.109266
  38 H :    0.126346
  39 H :    0.127554
  40 H :    0.130583

  Mayer bond orders larger than 0.100000
B(  0-C ,  1-C ) :   1.1636 B(  0-C , 19-H ) :   0.9384 B(  0-C , 20-H ) :   0.9466
B(  0-C , 21-H ) :   0.9350 B(  1-C ,  2-O ) :   0.9099 B(  1-C , 22-H ) :   0.9137
B(  1-C , 23-H ) :   0.9340 B(  2-O ,  3-P ) :   1.0643 B(  3-P ,  4-S ) :   1.6150
B(  3-P ,  5-O ) :   1.1320 B(  3-P ,  8-S ) :   0.9655 B(  5-O ,  6-C ) :   0.9072
B(  6-C ,  7-C ) :   1.1624 B(  6-C , 24-H ) :   0.9184 B(  6-C , 25-H ) :   0.9326
B(  7-C , 26-H ) :   0.9391 B(  7-C , 27-H ) :   0.9465 B(  7-C , 28-H ) :   0.9387
B(  8-S ,  9-C ) :   1.0010 B(  9-C , 10-S ) :   0.9904 B(  9-C , 29-H ) :   0.8964
B(  9-C , 30-H ) :   0.8971 B( 10-S , 11-P ) :   0.9845 B( 10-S , 12-S ) :   0.1135
B( 11-P , 12-S ) :   1.5941 B( 11-P , 13-O ) :   1.1369 B( 11-P , 16-O ) :   1.1045
B( 13-O , 14-C ) :   0.8925 B( 14-C , 15-C ) :   1.1716 B( 14-C , 31-H ) :   0.9138
B( 14-C , 32-H ) :   0.9338 B( 15-C , 33-H ) :   0.9392 B( 15-C , 34-H ) :   0.9338
B( 15-C , 35-H ) :   0.9372 B( 16-O , 17-C ) :   0.9070 B( 17-C , 18-C ) :   1.1604
B( 17-C , 36-H ) :   0.9063 B( 17-C , 37-H ) :   0.9301 B( 18-C , 38-H ) :   0.9509
B( 18-C , 39-H ) :   0.9513 B( 18-C , 40-H ) :   0.9422

Dispersion correction           -0.066373851
FINAL SINGLE POINT ENERGY     -2929.522753291649

DIPOLE MOMENT
-------------

Method             : SCF
Type of density    : Electron Density
Multiplicity       :   1
Irrep              :   0
Energy             : -2929.6410197344757762 Eh
Relativity type    :
Basis              : AO
                                X                 Y                 Z
Electronic contribution:     -0.142216207       2.261255688      -7.342814994
Nuclear contribution   :      0.318483573      -3.461213186       7.896474084
                        -----------------------------------------
Total Dipole Moment    :      0.176267367      -1.199957497       0.553659090
                        -----------------------------------------
Magnitude (a.u.)       :      1.333231626
Magnitude (Debye)      :      3.388805480

Rotational constants in cm-1:             0.013141             0.004914             0.004829
Rotational constants in MHz :           393.966533           147.303629           144.774089

                             ****ORCA TERMINATED NORMALLY****
TOTAL RUN TIME: 0 days 0 hours 0 minutes 21 seconds 452 msec
