                         Program Version 6.0.0  -   RELEASE  -
|  1> ! pbe def2-sv(p) def2/J RI DEFGRID1 loosescf d4 GCP(DFT/SV(P)) printgap
|  2> %output
|  3>     printlevel normal
|  4> end
|  5> * xyz 0 1
|  6> C 3.354726314 -1.1745548372 -2.9827517792
|  7> C 2.1309054656 -0.6460929183 -2.2652531467
|  8> O 2.5176107613 0.2338457883 -1.1821808297
|  9> P 2.5622475909 -0.2265861267 0.325098495
| 10> S 3.2733714403 1.1759123348 1.4848368789
| 11> O 3.3936880523 -1.5793888271 0.2586006227
| 12> C 4.005021756 -2.1707563596 1.421519684
| 13> C 2.9822014014 -2.6543583275 2.4284920799
| 14> S 0.5830470502 -0.8565177581 0.764052129
| 15> C -0.0105705707 0.8104315315 1.22150771
| 16> S -1.7918932637 0.8391793182 1.4226386132
| 17> P -2.3462566568 0.894907836 -0.6475525444
| 18> S -0.891151926 1.2744801776 -1.9037324402
| 19> O -3.4741908848 1.9840101651 -0.7358151501
| 20> C -4.4923222536 2.2603537677 0.2595423965
| 21> C -5.2422364778 1.0215344783 0.6959768653
| 22> O -3.1451560748 -0.4412517358 -0.9653885323
| 23> C -2.5182596675 -1.7118337265 -1.2124298087
| 24> C -2.5029118884 -2.563408542 0.0422328719
| 25> H 3.0364574252 -1.7722754096 -3.8309672503
| 26> H 3.963547018 -0.3464632449 -3.3350189262
| 27> H 3.9488473068 -1.7880564902 -2.3105333968
| 28> H 1.5254361113 -1.4616719282 -1.8592827251
| 29> H 1.5126099143 -0.0246646473 -2.9170958379
| 30> H 4.5900274155 -2.9961494063 1.013422364
| 31> H 4.6706223252 -1.42910207 1.8732309599
| 32> H 2.2490761114 -3.296495078 1.9467993354
| 33> H 3.4884155625 -3.2085447427 3.2123631811
| 34> H 2.4677593703 -1.8051237928 2.8754333363
| 35> H 0.2793230416 1.5059979194 0.4306156839
| 36> H 0.4303922847 1.0951327153 2.1749404189
| 37> H -4.0074108976 2.7427174449 1.1118080665
| 38> H -5.1449282258 2.9721437934 -0.2482300622
| 39> H -6.0494378358 1.313710137 1.3606000441
| 40> H -5.6540748501 0.5061811517 -0.1675878718
| 41> H -4.5733012166 0.3476884313 1.2281527817
| 42> H -3.1275174589 -2.1702760991 -1.9937009399
| 43> H -1.5062223443 -1.5434910934 -1.5950909969
| 44> H -1.8669584512 -2.1159666129 0.8031750091
| 45> H -3.5106096182 -2.664121776 0.4346320269
| 46> H -2.1129398969 -3.5458035661 -0.2023784517
| 47> *
| 48>
| 49>                          ****END OF INPUT****

CARTESIAN COORDINATES (ANGSTROEM)
---------------------------------
  C      3.354726   -1.174555   -2.982752
  C      2.130905   -0.646093   -2.265253
  O      2.517611    0.233846   -1.182181
  P      2.562248   -0.226586    0.325098
  S      3.273371    1.175912    1.484837
  O      3.393688   -1.579389    0.258601
  C      4.005022   -2.170756    1.421520
  C      2.982201   -2.654358    2.428492
  S      0.583047   -0.856518    0.764052
  C     -0.010571    0.810432    1.221508
  S     -1.791893    0.839179    1.422639
  P     -2.346257    0.894908   -0.647553
  S     -0.891152    1.274480   -1.903732
  O     -3.474191    1.984010   -0.735815
  C     -4.492322    2.260354    0.259542
  C     -5.242236    1.021534    0.695977
  O     -3.145156   -0.441252   -0.965389
  C     -2.518260   -1.711834   -1.212430
  C     -2.502912   -2.563409    0.042233
  H      3.036457   -1.772275   -3.830967
  H      3.963547   -0.346463   -3.335019
  H      3.948847   -1.788056   -2.310533
  H      1.525436   -1.461672   -1.859283
  H      1.512610   -0.024665   -2.917096
  H      4.590027   -2.996149    1.013422
  H      4.670622   -1.429102    1.873231
  H      2.249076   -3.296495    1.946799
  H      3.488416   -3.208545    3.212363
  H      2.467759   -1.805124    2.875433
  H      0.279323    1.505998    0.430616
  H      0.430392    1.095133    2.174940
  H     -4.007411    2.742717    1.111808
  H     -5.144928    2.972144   -0.248230
  H     -6.049438    1.313710    1.360600
  H     -5.654075    0.506181   -0.167588
  H     -4.573301    0.347688    1.228153
  H     -3.127517   -2.170276   -1.993701
  H     -1.506222   -1.543491   -1.595091
  H     -1.866958   -2.115967    0.803175
  H     -3.510610   -2.664122    0.434632
  H     -2.112940   -3.545804   -0.202378

 Total Charge           Charge          ....    0
 Multiplicity           Mult            ....    1
 Number of Electrons    NEL             ....  202
 Basis Dimension        Dim             ....  334

ORBITAL ENERGIES
----------------

  NO   OCC          E(Eh)            E(eV)
   0   2.0000     -88.052327     -2396.0256
   1   2.0000     -88.040602     -2395.7066
   2   2.0000     -87.986318     -2394.2294
   3   2.0000     -87.983809     -2394.1612
   4   2.0000     -76.429372     -2079.7490
   5   2.0000     -76.424681     -2079.6213
   6   2.0000     -18.795674      -511.4563
   7   2.0000     -18.795468      -511.4507
   8   2.0000     -18.792315      -511.3649
   9   2.0000     -18.786611      -511.2097
  10   2.0000      -9.963442      -271.1190
  11   2.0000      -9.955977      -270.9159
  12   2.0000      -9.954139      -270.8659
  13   2.0000      -9.953186      -270.8400
  14   2.0000      -9.948125      -270.7022
  15   2.0000      -9.895045      -269.2579
  16   2.0000      -9.886534      -269.0263
  17   2.0000      -9.886026      -269.0125
  18   2.0000      -9.881606      -268.8922
  19   2.0000      -7.696887      -209.4430
  20   2.0000      -7.685215      -209.1253
  21   2.0000      -7.631242      -207.6567
  22   2.0000      -7.629144      -207.5996
  23   2.0000      -6.426901      -174.8849
  24   2.0000      -6.422209      -174.7572
  25   2.0000      -5.724671      -155.7762
  26   2.0000      -5.721335      -155.6854
  27   2.0000      -5.714115      -155.4890
  28   2.0000      -5.712971      -155.4578
  29   2.0000      -5.709981      -155.3765
  30   2.0000      -5.702140      -155.1631
  31   2.0000      -5.660303      -154.0247
  32   2.0000      -5.658165      -153.9665
  33   2.0000      -5.651713      -153.7909
  34   2.0000      -5.651376      -153.7818
  35   2.0000      -5.649644      -153.7346
  36   2.0000      -5.649291      -153.7250
  37   2.0000      -4.649536      -126.5203
  38   2.0000      -4.648757      -126.4991
  39   2.0000      -4.647206      -126.4569
  40   2.0000      -4.645116      -126.4000
  41   2.0000      -4.643929      -126.3677
  42   2.0000      -4.642420      -126.3267
  43   2.0000      -0.990336       -26.9484
  44   2.0000      -0.987457       -26.8701
  45   2.0000      -0.948225       -25.8025
  46   2.0000      -0.943906       -25.6850
  47   2.0000      -0.764992       -20.8165
  48   2.0000      -0.723906       -19.6985
  49   2.0000      -0.713264       -19.4089
  50   2.0000      -0.695148       -18.9159
  51   2.0000      -0.690390       -18.7865
  52   2.0000      -0.678360       -18.4591
  53   2.0000      -0.650249       -17.6942
  54   2.0000      -0.636863       -17.3299
  55   2.0000      -0.602557       -16.3964
  56   2.0000      -0.594789       -16.1850
  57   2.0000      -0.577458       -15.7134
  58   2.0000      -0.570758       -15.5311
  59   2.0000      -0.560680       -15.2569
  60   2.0000      -0.501889       -13.6571
  61   2.0000      -0.497676       -13.5424
  62   2.0000      -0.479866       -13.0578
  63   2.0000      -0.474367       -12.9082
  64   2.0000      -0.457553       -12.4507
  65   2.0000      -0.450380       -12.2555
  66   2.0000      -0.443981       -12.0813
  67   2.0000      -0.438199       -11.9240
  68   2.0000      -0.433171       -11.7872
  69   2.0000      -0.424696       -11.5566
  70   2.0000      -0.409427       -11.1411
  71   2.0000      -0.401692       -10.9306
  72   2.0000      -0.394967       -10.7476
  73   2.0000      -0.389997       -10.6123
  74   2.0000      -0.383735       -10.4420
  75   2.0000      -0.370357       -10.0779
  76   2.0000      -0.365122        -9.9355
  77   2.0000      -0.360454        -9.8085
  78   2.0000      -0.359403        -9.7799
  79   2.0000      -0.354138        -9.6366
  80   2.0000      -0.352217        -9.5843
  81   2.0000      -0.349956        -9.5228
  82   2.0000      -0.342962        -9.3325
  83   2.0000      -0.339187        -9.2298
  84   2.0000      -0.337604        -9.1867
  85   2.0000      -0.320489        -8.7210
  86   2.0000      -0.313482        -8.5303
  87   2.0000      -0.298578        -8.1247
  88   2.0000      -0.295619        -8.0442
  89   2.0000      -0.294724        -8.0199
  90   2.0000      -0.291050        -7.9199
  91   2.0000      -0.279717        -7.6115
  92   2.0000      -0.269410        -7.3310
  93   2.0000      -0.263263        -7.1638
  94   2.0000      -0.261655        -7.1200
  95   2.0000      -0.233195        -6.3456
  96   2.0000      -0.223585        -6.0840
  97   2.0000      -0.206832        -5.6282
  98   2.0000      -0.204822        -5.5735
  99   2.0000      -0.202850        -5.5198
 100   2.0000      -0.195142        -5.3101
 101   0.0000      -0.048562        -1.3214
 102   0.0000      -0.034365        -0.9351
 103   0.0000      -0.012229        -0.3328
 104   0.0000       0.005556         0.1512
 105   0.0000       0.009918         0.2699

MULLIKEN ATOMIC CHARGES
-----------------------
   0 C :   -0.280190
   1 C :   -0.023757
   2 O :   -0.349463
   3 P :    0.604503
   4 S :   -0.318358
   5 O :   -0.381874
   6 C :   -0.001771
   7 C :   -0.317145
   8 S :   -0.124160
   9 C :   -0.327302
  10 S :   -0.130534
  11 P :    0.600858
  12 S :   -0.303991
  13 O :   -0.357190
  14 C :   -0.006124
  15 C :   -0.322796
  16 O :   -0.370433
  17 C :   -0.011265
  18 C :   -0.306291
  19 H :    0.107259
  20 H :    0.120219
  21 H :    0.115195
  22 H :    0.100820
  23 H :    0.125293
  24 H :    0.105315
  25 H :    0.114714
  26 H :    0.115718
  27 H :    0.114554
  28 H :    0.129656
  29 H :    0.206388
  30 H :    0.188613
  31 H :    0.117765
  32 H :    0.116600
  33 H :    0.118462
  34 H :    0.128676
  35 H :    0.129732
  36 H :    0.106147
  37 H :    0.111305
  38 H :    0.133677
  39 H :    0.113198
  40 H :    0.107976
Sum of atomic charges:   -0.0000000

LOEWDIN ATOMIC CHARGES
----------------------
   0 C :   -0.358423
   1 C :   -0.117372
   2 O :   -0.231011
   3 P :    0.573393
   4 S :   -0.312063
   5 O :   -0.247531
   6 C :   -0.115694
   7 C :   -0.371298
   8 S :    0.064674
   9 C :   -0.481014
  10 S :    0.076220
  11 P :    0.569474
  12 S :   -0.292776
  13 O :   -0.232361
  14 C :   -0.111757
  15 C :   -0.368671
  16 O :   -0.242331
  17 C :   -0.118716
  18 C :   -0.364842
  19 H :    0.128559
  20 H :    0.129083
  21 H :    0.123908
  22 H :    0.100813
  23 H :    0.118681
  24 H :    0.118624
  25 H :    0.114315
  26 H :    0.122730
  27 H :    0.131825
  28 H :    0.122165
  29 H :    0.125777
  30 H :    0.133231
  31 H :    0.113092
  32 H :    0.125869
  33 H :    0.133953
  34 H :    0.131510
  35 H :    0.118101
  36 H :    0.119097
  37 H :    0.105541
  38 H :    0.110951
  39 H :    0.124630
  40 H :    0.129644

  Mayer bond orders larger than 0.100000
B(  0-C ,  1-C ) :   1.1598 B(  0-C , 19-H ) :   0.9407 B(  0-C , 20-H ) :   0.9470
B(  0-C , 21-H ) :   0.9430 B(  1-C ,  2-O ) :   0.8895 B(  1-C , 22-H ) :   0.9128
B(  1-C , 23-H ) :   0.9269 B(  2-O ,  3-P ) :   1.1483 B(  3-P ,  4-S ) :   1.6288
B(  3-P ,  5-O ) :   1.0819 B(  3-P ,  8-S ) :   0.9584 B(  4-S ,  8-S ) :   0.1093
B(  5-O ,  6-C ) :   0.9049 B(  6-C ,  7-C ) :   1.1667 B(  6-C , 24-H ) :   0.9342
B(  6-C , 25-H ) :   0.9188 B(  7-C , 26-H ) :   0.9439 B(  7-C , 27-H ) :   0.9368
B(  7-C , 28-H ) :   0.9340 B(  8-S ,  9-C ) :   0.9695 B(  9-C , 10-S ) :   1.0219
B(  9-C , 29-H ) :   0.8608 B(  9-C , 30-H ) :   0.8905 B( 10-S , 11-P ) :   0.9172
B( 10-S , 12-S ) :   0.1117 B( 11-P , 12-S ) :   1.6468 B( 11-P , 13-O ) :   1.1557
B( 11-P , 16-O ) :   1.0923 B( 13-O , 14-C ) :   0.8991 B( 14-C , 15-C ) :   1.1683
B( 14-C , 31-H ) :   0.9240 B( 14-C , 32-H ) :   0.9338 B( 15-C , 33-H ) :   0.9336
B( 15-C , 34-H ) :   0.9412 B( 15-C , 35-H ) :   0.9364 B( 16-O , 17-C ) :   0.9067
B( 17-C , 18-C ) :   1.1680 B( 17-C , 36-H ) :   0.9344 B( 17-C , 37-H ) :   0.9034
B( 18-C , 38-H ) :   0.9280 B( 18-C , 39-H ) :   0.9450 B( 18-C , 40-H ) :   0.9402

Dispersion correction           -0.064791264
FINAL SINGLE POINT ENERGY     -2929.514634936723

DIPOLE MOMENT
-------------

Method             : SCF
Type of density    : Electron Density
Multiplicity       :   1
Irrep              :   0
Energy             : -2929.6354749361853465 Eh
Relativity type    :
Basis              : AO
                                X                 Y                 Z
Electronic contribution:      4.188780814      17.491432556       0.101568064
Nuclear contribution   :     -5.295019387     -19.132227260       0.203027963
                        -----------------------------------------
Total Dipole Moment    :     -1.106238572      -1.640794704       0.304596027
                        -----------------------------------------
Magnitude (a.u.)       :      2.002186250
Magnitude (Debye)      :      5.089153005

Rotational constants in cm-1:             0.013132             0.004511             0.004358
Rotational constants in MHz :           393.691261           135.232088           130.638097

                             ****ORCA TERMINATED NORMALLY****
TOTAL RUN TIME: 0 days 0 hours 0 minutes 21 seconds 70 msec
