                         Program Version 6.0.0  -   RELEASE  -
|  1> ! pbe def2-sv(p) def2/J RI DEFGRID1 loosescf d4 GCP(DFT/SV(P)) printgap
|  2> %output
|  3>     printlevel normal
|  4> end
|  5> * xyz 0 1
|  6> C 5.6000336093 0.7111665843 -0.23841175
|  7> C 4.3361821813 1.2532857829 -0.8776988104
|  8> O 3.3386454125 0.218965918 -1.0127652655
|  9> P 2.2351400512 -0.0552211164 0.0941514231
| 10> S 2.8613069652 -0.4054574313 1.921530126
| 11> O 1.4016235271 -1.213532791 -0.5835043037
| 12> C 1.5872096424 -2.6014273528 -0.2469315194
| 13> C 2.9225973347 -3.1139832773 -0.7409317879
| 14> S 0.9365621257 1.5955772441 -0.1230491024
| 15> C 0.0463081354 1.3627052462 1.4394036481
| 16> S -0.8699721696 -0.2043967073 1.5235606222
| 17> P -2.0724986056 -0.0344452655 -0.219097254
| 18> S -1.4093422257 -0.4982751619 -1.9959075767
| 19> O -2.5472377259 1.4796260414 -0.0232480408
| 20> C -2.9870740433 2.2805567676 -1.1377120842
| 21> C -4.3729160854 1.8704152667 -1.5915791737
| 22> O -3.2921824647 -0.9809422467 0.1400131434
| 23> C -4.0987947754 -0.814317139 1.3341082445
| 24> C -5.5093526924 -1.2638989028 1.0119411027
| 25> H 5.9819819643 -0.1254963482 -0.8168272083
| 26> H 6.3481495904 1.4965772446 -0.2062433647
| 27> H 5.3963105086 0.3740838376 0.7755669544
| 28> H 4.5191283253 1.5880414796 -1.9004733335
| 29> H 3.9220882323 2.0795950186 -0.2925646169
| 30> H 1.5029418284 -2.7092069573 0.8400840364
| 31> H 0.7484670201 -3.1013286831 -0.7347956775
| 32> H 3.0177528739 -2.9370950763 -1.8091072762
| 33> H 3.7274928412 -2.5927224461 -0.2232728246
| 34> H 2.9991439188 -4.1775839579 -0.5385728106
| 35> H -0.6412381954 2.1977700273 1.5403538338
| 36> H 0.7592495975 1.3283776663 2.2641004585
| 37> H -2.9665727866 3.302675684 -0.7573662157
| 38> H -2.2646301391 2.171482315 -1.9525272948
| 39> H -4.689621499 2.511930306 -2.4077640644
| 40> H -4.3511309358 0.8382923104 -1.9411029899
| 41> H -5.0814750763 1.9552606399 -0.771557097
| 42> H -3.6517490142 -1.4295811188 2.1180688674
| 43> H -4.0706293741 0.2349719644 1.6379468306
| 44> H -5.9365364021 -0.6412813892 0.2306485963
| 45> H -5.4993678334 -2.2942899601 0.6684482877
| 46> H -6.11939918 -1.1886485598 1.9063240926
| 47> *
| 48>
| 49>                          ****END OF INPUT****

CARTESIAN COORDINATES (ANGSTROEM)
---------------------------------
  C      5.600034    0.711167   -0.238412
  C      4.336182    1.253286   -0.877699
  O      3.338645    0.218966   -1.012765
  P      2.235140   -0.055221    0.094151
  S      2.861307   -0.405457    1.921530
  O      1.401624   -1.213533   -0.583504
  C      1.587210   -2.601427   -0.246932
  C      2.922597   -3.113983   -0.740932
  S      0.936562    1.595577   -0.123049
  C      0.046308    1.362705    1.439404
  S     -0.869972   -0.204397    1.523561
  P     -2.072499   -0.034445   -0.219097
  S     -1.409342   -0.498275   -1.995908
  O     -2.547238    1.479626   -0.023248
  C     -2.987074    2.280557   -1.137712
  C     -4.372916    1.870415   -1.591579
  O     -3.292182   -0.980942    0.140013
  C     -4.098795   -0.814317    1.334108
  C     -5.509353   -1.263899    1.011941
  H      5.981982   -0.125496   -0.816827
  H      6.348150    1.496577   -0.206243
  H      5.396311    0.374084    0.775567
  H      4.519128    1.588041   -1.900473
  H      3.922088    2.079595   -0.292565
  H      1.502942   -2.709207    0.840084
  H      0.748467   -3.101329   -0.734796
  H      3.017753   -2.937095   -1.809107
  H      3.727493   -2.592722   -0.223273
  H      2.999144   -4.177584   -0.538573
  H     -0.641238    2.197770    1.540354
  H      0.759250    1.328378    2.264100
  H     -2.966573    3.302676   -0.757366
  H     -2.264630    2.171482   -1.952527
  H     -4.689621    2.511930   -2.407764
  H     -4.351131    0.838292   -1.941103
  H     -5.081475    1.955261   -0.771557
  H     -3.651749   -1.429581    2.118069
  H     -4.070629    0.234972    1.637947
  H     -5.936536   -0.641281    0.230649
  H     -5.499368   -2.294290    0.668448
  H     -6.119399   -1.188649    1.906324

 Total Charge           Charge          ....    0
 Multiplicity           Mult            ....    1
 Number of Electrons    NEL             ....  202
 Basis Dimension        Dim             ....  334

ORBITAL ENERGIES
----------------

  NO   OCC          E(Eh)            E(eV)
   0   2.0000     -88.040383     -2395.7006
   1   2.0000     -88.038866     -2395.6593
   2   2.0000     -87.985397     -2394.2044
   3   2.0000     -87.976786     -2393.9701
   4   2.0000     -76.423443     -2079.5876
   5   2.0000     -76.421293     -2079.5291
   6   2.0000     -18.795162      -511.4424
   7   2.0000     -18.790937      -511.3274
   8   2.0000     -18.790769      -511.3228
   9   2.0000     -18.780441      -511.0418
  10   2.0000      -9.956015      -270.9169
  11   2.0000      -9.955542      -270.9041
  12   2.0000      -9.953899      -270.8594
  13   2.0000      -9.952506      -270.8215
  14   2.0000      -9.940416      -270.4925
  15   2.0000      -9.891227      -269.1540
  16   2.0000      -9.887350      -269.0485
  17   2.0000      -9.880003      -268.8485
  18   2.0000      -9.875564      -268.7278
  19   2.0000      -7.685615      -209.1362
  20   2.0000      -7.683799      -209.0868
  21   2.0000      -7.630359      -207.6326
  22   2.0000      -7.622149      -207.4092
  23   2.0000      -6.420889      -174.7213
  24   2.0000      -6.418945      -174.6684
  25   2.0000      -5.713437      -155.4705
  26   2.0000      -5.711892      -155.4285
  27   2.0000      -5.710169      -155.3816
  28   2.0000      -5.708199      -155.3280
  29   2.0000      -5.702530      -155.1737
  30   2.0000      -5.700676      -155.1233
  31   2.0000      -5.659073      -153.9912
  32   2.0000      -5.651280      -153.7791
  33   2.0000      -5.651053      -153.7730
  34   2.0000      -5.650655      -153.7621
  35   2.0000      -5.642594      -153.5428
  36   2.0000      -5.642214      -153.5324
  37   2.0000      -4.643263      -126.3496
  38   2.0000      -4.642676      -126.3336
  39   2.0000      -4.642118      -126.3185
  40   2.0000      -4.641549      -126.3030
  41   2.0000      -4.640469      -126.2736
  42   2.0000      -4.639081      -126.2358
  43   2.0000      -0.984807       -26.7980
  44   2.0000      -0.982352       -26.7312
  45   2.0000      -0.945513       -25.7287
  46   2.0000      -0.940331       -25.5877
  47   2.0000      -0.762506       -20.7488
  48   2.0000      -0.720226       -19.5984
  49   2.0000      -0.706713       -19.2306
  50   2.0000      -0.692895       -18.8546
  51   2.0000      -0.681180       -18.5359
  52   2.0000      -0.668626       -18.1942
  53   2.0000      -0.647996       -17.6329
  54   2.0000      -0.637775       -17.3547
  55   2.0000      -0.594241       -16.1701
  56   2.0000      -0.587617       -15.9899
  57   2.0000      -0.572454       -15.5773
  58   2.0000      -0.567981       -15.4556
  59   2.0000      -0.559898       -15.2356
  60   2.0000      -0.505735       -13.7617
  61   2.0000      -0.495099       -13.4723
  62   2.0000      -0.481891       -13.1129
  63   2.0000      -0.468972       -12.7614
  64   2.0000      -0.455615       -12.3979
  65   2.0000      -0.442816       -12.0496
  66   2.0000      -0.437711       -11.9107
  67   2.0000      -0.435026       -11.8377
  68   2.0000      -0.423152       -11.5145
  69   2.0000      -0.403897       -10.9906
  70   2.0000      -0.401385       -10.9222
  71   2.0000      -0.397644       -10.8204
  72   2.0000      -0.393044       -10.6953
  73   2.0000      -0.390465       -10.6251
  74   2.0000      -0.382939       -10.4203
  75   2.0000      -0.372126       -10.1261
  76   2.0000      -0.364443        -9.9170
  77   2.0000      -0.358540        -9.7564
  78   2.0000      -0.351383        -9.5616
  79   2.0000      -0.348888        -9.4937
  80   2.0000      -0.347257        -9.4493
  81   2.0000      -0.343873        -9.3573
  82   2.0000      -0.342489        -9.3196
  83   2.0000      -0.332517        -9.0483
  84   2.0000      -0.330122        -8.9831
  85   2.0000      -0.320204        -8.7132
  86   2.0000      -0.310951        -8.4614
  87   2.0000      -0.307698        -8.3729
  88   2.0000      -0.295347        -8.0368
  89   2.0000      -0.281068        -7.6482
  90   2.0000      -0.279214        -7.5978
  91   2.0000      -0.269387        -7.3304
  92   2.0000      -0.267974        -7.2920
  93   2.0000      -0.266473        -7.2511
  94   2.0000      -0.261576        -7.1178
  95   2.0000      -0.234387        -6.3780
  96   2.0000      -0.216966        -5.9039
  97   2.0000      -0.205934        -5.6038
  98   2.0000      -0.201311        -5.4780
  99   2.0000      -0.192793        -5.2462
 100   2.0000      -0.187336        -5.0977
 101   0.0000      -0.045502        -1.2382
 102   0.0000      -0.018761        -0.5105
 103   0.0000      -0.008088        -0.2201
 104   0.0000       0.004171         0.1135
 105   0.0000       0.023302         0.6341

MULLIKEN ATOMIC CHARGES
-----------------------
   0 C :   -0.295602
   1 C :   -0.010910
   2 O :   -0.366494
   3 P :    0.618622
   4 S :   -0.343122
   5 O :   -0.341303
   6 C :   -0.000165
   7 C :   -0.309275
   8 S :   -0.084139
   9 C :   -0.348307
  10 S :   -0.098383
  11 P :    0.612955
  12 S :   -0.289157
  13 O :   -0.395263
  14 C :   -0.009048
  15 C :   -0.318322
  16 O :   -0.371095
  17 C :   -0.024306
  18 C :   -0.282468
  19 H :    0.115162
  20 H :    0.107037
  21 H :    0.130411
  22 H :    0.109345
  23 H :    0.101025
  24 H :    0.109821
  25 H :    0.107451
  26 H :    0.118171
  27 H :    0.120570
  28 H :    0.109269
  29 H :    0.184129
  30 H :    0.191993
  31 H :    0.100833
  32 H :    0.117750
  33 H :    0.114629
  34 H :    0.133577
  35 H :    0.113264
  36 H :    0.112868
  37 H :    0.105906
  38 H :    0.118168
  39 H :    0.123303
  40 H :    0.111101
Sum of atomic charges:    0.0000000

LOEWDIN ATOMIC CHARGES
----------------------
   0 C :   -0.364358
   1 C :   -0.115234
   2 O :   -0.241635
   3 P :    0.573369
   4 S :   -0.325211
   5 O :   -0.223690
   6 C :   -0.117099
   7 C :   -0.365266
   8 S :    0.086292
   9 C :   -0.477275
  10 S :    0.079019
  11 P :    0.560590
  12 S :   -0.294728
  13 O :   -0.255957
  14 C :   -0.122233
  15 C :   -0.365933
  16 O :   -0.247282
  17 C :   -0.121502
  18 C :   -0.350900
  19 H :    0.125924
  20 H :    0.128528
  21 H :    0.124410
  22 H :    0.119864
  23 H :    0.106434
  24 H :    0.108398
  25 H :    0.119657
  26 H :    0.126941
  27 H :    0.120301
  28 H :    0.129069
  29 H :    0.131929
  30 H :    0.129708
  31 H :    0.115538
  32 H :    0.112396
  33 H :    0.132185
  34 H :    0.126654
  35 H :    0.121299
  36 H :    0.114615
  37 H :    0.107701
  38 H :    0.126301
  39 H :    0.130982
  40 H :    0.130202

  Mayer bond orders larger than 0.100000
B(  0-C ,  1-C ) :   1.1673 B(  0-C , 19-H ) :   0.9464 B(  0-C , 20-H ) :   0.9393
B(  0-C , 21-H ) :   0.9311 B(  1-C ,  2-O ) :   0.9051 B(  1-C , 22-H ) :   0.9358
B(  1-C , 23-H ) :   0.9157 B(  2-O ,  3-P ) :   1.1173 B(  3-P ,  4-S ) :   1.5860
B(  3-P ,  5-O ) :   1.1526 B(  3-P ,  8-S ) :   0.9532 B(  4-S ,  8-S ) :   0.1107
B(  5-O ,  6-C ) :   0.9027 B(  6-C ,  7-C ) :   1.1638 B(  6-C , 24-H ) :   0.9167
B(  6-C , 25-H ) :   0.9294 B(  7-C , 26-H ) :   0.9460 B(  7-C , 27-H ) :   0.9353
B(  7-C , 28-H ) :   0.9398 B(  8-S ,  9-C ) :   1.0125 B(  9-C , 10-S ) :   0.9987
B(  9-C , 29-H ) :   0.9023 B(  9-C , 30-H ) :   0.8806 B( 10-S , 11-P ) :   0.9540
B( 10-S , 12-S ) :   0.1061 B( 11-P , 12-S ) :   1.6723 B( 11-P , 13-O ) :   1.0510
B( 11-P , 16-O ) :   1.1167 B( 13-O , 14-C ) :   0.9039 B( 14-C , 15-C ) :   1.1632
B( 14-C , 31-H ) :   0.9335 B( 14-C , 32-H ) :   0.9103 B( 15-C , 33-H ) :   0.9388
B( 15-C , 34-H ) :   0.9330 B( 15-C , 35-H ) :   0.9442 B( 16-O , 17-C ) :   0.8955
B( 17-C , 18-C ) :   1.1624 B( 17-C , 36-H ) :   0.9311 B( 17-C , 37-H ) :   0.9165
B( 18-C , 38-H ) :   0.9483 B( 18-C , 39-H ) :   0.9484 B( 18-C , 40-H ) :   0.9409

Dispersion correction           -0.065826070
FINAL SINGLE POINT ENERGY     -2929.520572399660

DIPOLE MOMENT
-------------

Method             : SCF
Type of density    : Electron Density
Multiplicity       :   1
Irrep              :   0
Energy             : -2929.6386486634160065 Eh
Relativity type    :
Basis              : AO
                                X                 Y                 Z
Electronic contribution:      5.407263305       1.792251344       2.423763349
Nuclear contribution   :     -6.162614213      -0.990378195      -2.172720782
                        -----------------------------------------
Total Dipole Moment    :     -0.755350907       0.801873149       0.251042567
                        -----------------------------------------
Magnitude (a.u.)       :      1.129857474
Magnitude (Debye)      :      2.871869467

Rotational constants in cm-1:             0.014607             0.004588             0.004365
Rotational constants in MHz :           437.892855           137.545661           130.846084

                             ****ORCA TERMINATED NORMALLY****
TOTAL RUN TIME: 0 days 0 hours 0 minutes 20 seconds 792 msec
