                         Program Version 6.0.0  -   RELEASE  -
|  1> ! pbe def2-sv(p) def2/J RI DEFGRID1 loosescf d4 GCP(DFT/SV(P)) printgap
|  2> %output
|  3>     printlevel normal
|  4> end
|  5> * xyz 0 1
|  6> C 0.8259945405 1.3138358961 -0.9900992782
|  7> C 1.4386565672 0.3454478727 0.0240294995
|  8> H 2.4669182112 0.1350537232 -0.2895705556
|  9> C 0.6418417713 -0.9861121192 0.038460624
| 10> H 0.6004876302 -1.337350212 1.0799659259
| 11> C -0.7996800557 -0.7792623196 -0.4625063688
| 12> H -0.7990699672 -0.8764346447 -1.5569901905
| 13> C -1.2875063237 0.6303182694 -0.1010633487
| 14> H -2.3224817072 0.7614507429 -0.4518885464
| 15> O -0.5422164764 1.6266525938 -0.7188942896
| 16> O -1.241548677 0.8265932597 1.2951669907
| 17> O -1.7023127439 -1.6831835537 0.1218400751
| 18> O 1.2165759277 -1.9667092305 -0.7941897579
| 19> O 1.5489314212 0.9064301986 1.3064957897
| 20> H 0.9041229395 0.8767619459 -1.9928806681
| 21> H 1.3477108744 2.2716627304 -0.9654478149
| 22> H -1.8050565578 0.160492062 1.7178992122
| 23> H -1.4608269498 -2.585255319 -0.1337722342
| 24> H 2.0836483226 -2.2251176553 -0.4510831006
| 25> H 0.6593225462 1.1784904585 1.5997504667
| 26> *
| 27>
| 28>                          ****END OF INPUT****

CARTESIAN COORDINATES (ANGSTROEM)
---------------------------------
  C      0.825995    1.313836   -0.990099
  C      1.438657    0.345448    0.024029
  H      2.466918    0.135054   -0.289571
  C      0.641842   -0.986112    0.038461
  H      0.600488   -1.337350    1.079966
  C     -0.799680   -0.779262   -0.462506
  H     -0.799070   -0.876435   -1.556990
  C     -1.287506    0.630318   -0.101063
  H     -2.322482    0.761451   -0.451889
  O     -0.542216    1.626653   -0.718894
  O     -1.241549    0.826593    1.295167
  O     -1.702313   -1.683184    0.121840
  O      1.216576   -1.966709   -0.794190
  O      1.548931    0.906430    1.306496
  H      0.904123    0.876762   -1.992881
  H      1.347711    2.271663   -0.965448
  H     -1.805057    0.160492    1.717899
  H     -1.460827   -2.585255   -0.133772
  H      2.083648   -2.225118   -0.451083
  H      0.659323    1.178490    1.599750

 Total Charge           Charge          ....    0
 Multiplicity           Mult            ....    1
 Number of Electrons    NEL             ....   80
 Basis Dimension        Dim             ....  160

ORBITAL ENERGIES
----------------

  NO   OCC          E(Eh)            E(eV)
   0   2.0000     -18.769862      -510.7539
   1   2.0000     -18.769788      -510.7519
   2   2.0000     -18.766374      -510.6590
   3   2.0000     -18.762850      -510.5631
   4   2.0000     -18.732344      -509.7330
   5   2.0000      -9.991629      -271.8861
   6   2.0000      -9.947557      -270.6868
   7   2.0000      -9.942179      -270.5405
   8   2.0000      -9.940073      -270.4831
   9   2.0000      -9.935110      -270.3481
  10   2.0000      -0.985037       -26.8042
  11   2.0000      -0.946994       -25.7690
  12   2.0000      -0.934316       -25.4240
  13   2.0000      -0.917403       -24.9638
  14   2.0000      -0.909768       -24.7561
  15   2.0000      -0.699193       -19.0260
  16   2.0000      -0.680207       -18.5094
  17   2.0000      -0.591121       -16.0852
  18   2.0000      -0.588676       -16.0187
  19   2.0000      -0.521849       -14.2002
  20   2.0000      -0.503738       -13.7074
  21   2.0000      -0.488165       -13.2836
  22   2.0000      -0.472991       -12.8707
  23   2.0000      -0.447665       -12.1816
  24   2.0000      -0.433070       -11.7844
  25   2.0000      -0.422966       -11.5095
  26   2.0000      -0.402879       -10.9629
  27   2.0000      -0.380295       -10.3483
  28   2.0000      -0.375516       -10.2183
  29   2.0000      -0.355342        -9.6693
  30   2.0000      -0.326753        -8.8914
  31   2.0000      -0.315296        -8.5796
  32   2.0000      -0.310839        -8.4584
  33   2.0000      -0.298444        -8.1211
  34   2.0000      -0.264761        -7.2045
  35   2.0000      -0.244811        -6.6616
  36   2.0000      -0.240444        -6.5428
  37   2.0000      -0.231994        -6.3129
  38   2.0000      -0.228646        -6.2218
  39   2.0000      -0.199291        -5.4230
  40   0.0000       0.016034         0.4363
  41   0.0000       0.026093         0.7100
  42   0.0000       0.039554         1.0763
  43   0.0000       0.050383         1.3710
  44   0.0000       0.081038         2.2052

MULLIKEN ATOMIC CHARGES
-----------------------
   0 C :    0.054208
   1 C :    0.022128
   2 H :    0.057600
   3 C :    0.052167
   4 H :    0.053794
   5 C :    0.016836
   6 H :    0.074919
   7 C :    0.190003
   8 H :    0.075199
   9 O :   -0.303452
  10 O :   -0.423444
  11 O :   -0.421642
  12 O :   -0.425304
  13 O :   -0.440421
  14 H :    0.080160
  15 H :    0.100324
  16 H :    0.313769
  17 H :    0.313064
  18 H :    0.304707
  19 H :    0.305384
Sum of atomic charges:    0.0000000

LOEWDIN ATOMIC CHARGES
----------------------
   0 C :   -0.116529
   1 C :   -0.087504
   2 H :    0.115057
   3 C :   -0.082452
   4 H :    0.102665
   5 C :   -0.091321
   6 H :    0.114317
   7 C :    0.007027
   8 H :    0.103743
   9 O :   -0.138035
  10 O :   -0.321940
  11 O :   -0.322583
  12 O :   -0.326270
  13 O :   -0.330669
  14 H :    0.106142
  15 H :    0.121729
  16 H :    0.293849
  17 H :    0.294857
  18 H :    0.287524
  19 H :    0.270394

  Mayer bond orders larger than 0.100000
B(  0-C ,  1-C ) :   1.1111 B(  0-C ,  9-O ) :   0.9929 B(  0-C , 14-H ) :   0.9063
B(  0-C , 15-H ) :   0.9104 B(  1-C ,  2-H ) :   0.8860 B(  1-C ,  3-C ) :   0.9749
B(  1-C , 13-O ) :   1.0612 B(  3-C ,  4-H ) :   0.8688 B(  3-C ,  5-C ) :   1.0309
B(  3-C , 12-O ) :   1.0668 B(  5-C ,  6-H ) :   0.8619 B(  5-C ,  7-C ) :   1.0380
B(  5-C , 11-O ) :   1.0848 B(  7-C ,  8-H ) :   0.9036 B(  7-C ,  9-O ) :   1.1223
B(  7-C , 10-O ) :   0.9998 B( 10-O , 16-H ) :   0.8237 B( 10-O , 19-H ) :   0.1006
B( 11-O , 17-H ) :   0.8429 B( 12-O , 18-H ) :   0.8462 B( 13-O , 19-H ) :   0.8066

Dispersion correction           -0.019850706
FINAL SINGLE POINT ENERGY      -571.413008546977

DIPOLE MOMENT
-------------

Method             : SCF
Type of density    : Electron Density
Multiplicity       :   1
Irrep              :   0
Energy             :  -571.5224937768979316 Eh
Relativity type    :
Basis              : AO
                                X                 Y                 Z
Electronic contribution:     -1.542975442       0.460881694       1.138728874
Nuclear contribution   :      1.560549294      -1.543129354      -1.336802335
                        -----------------------------------------
Total Dipole Moment    :      0.017573852      -1.082247660      -0.198073460
                        -----------------------------------------
Magnitude (a.u.)       :      1.100364455
Magnitude (Debye)      :      2.796904171

Rotational constants in cm-1:             0.052236             0.048781             0.035352
Rotational constants in MHz :          1566.006180          1462.407056          1059.823339

                             ****ORCA TERMINATED NORMALLY****
TOTAL RUN TIME: 0 days 0 hours 0 minutes 11 seconds 919 msec
