                         Program Version 6.0.0  -   RELEASE  -
|  1> ! r2scan-3c def2/J RI DEFGRID2 scfconv6 printgap
|  2> %output
|  3>     printlevel normal
|  4> end
|  5> * xyz 0 1
|  6> C 3.7743612454 -1.4576446122 -2.5539578933
|  7> C 4.0661185175 -1.7411480613 -1.0944846402
|  8> O 2.8763352261 -1.7060142192 -0.2873576715
|  9> P 2.0769724897 -0.3642810561 0.001988805
| 10> S 3.1816742438 1.2334837716 0.2894273551
| 11> O 1.149772316 -0.809907426 1.2057012933
| 12> C 1.4718579258 -0.5235737926 2.5793532537
| 13> C 2.6537868803 -1.34152028 3.0552846341
| 14> S 0.6462495153 -0.2699530168 -1.5531361939
| 15> C 0.1313062111 1.439427231 -1.2433111719
| 16> S -0.6194277027 1.6634073957 0.3888070422
| 17> P -2.3091872977 0.4209288113 0.0458012636
| 18> S -3.0515490578 0.4833786215 -1.7719593277
| 19> O -3.2623073837 0.7968698336 1.2548711684
| 20> C -3.6115584261 2.1339456385 1.6591691961
| 21> C -4.1985928824 2.9548879153 0.5293586003
| 22> O -1.9101722959 -1.0304461411 0.5379892735
| 23> C -2.0288249802 -2.2243606762 -0.2661363443
| 24> C -0.9465738071 -3.201863023 0.1430012073
| 25> H 4.6764913294 -1.6115540859 -3.1373442686
| 26> H 2.9907407076 -2.1169738403 -2.9188539299
| 27> H 3.4475154732 -0.4256698698 -2.6758093617
| 28> H 4.7758225393 -1.0091652191 -0.6958203578
| 29> H 4.4513144712 -2.7511893503 -0.9487129228
| 30> H 1.6761732903 0.5483358063 2.6727516531
| 31> H 0.5569777126 -0.7715041894 3.1197009108
| 32> H 3.5488376065 -1.0468107674 2.5082556814
| 33> H 2.8129609753 -1.1635617822 4.1141473941
| 34> H 2.4716792376 -2.3996810569 2.8873947045
| 35> H -0.5949387437 1.6879734941 -2.0172010754
| 36> H 0.9983382971 2.0982661106 -1.2793223993
| 37> H -4.3389389974 1.9765000927 2.4576376122
| 38> H -2.7163860999 2.6149921894 2.0637442749
| 39> H -5.0419245429 2.4343493847 0.0816700922
| 40> H -4.5309876964 3.9131084712 0.9154822135
| 41> H -3.4489639561 3.1242121819 -0.2423634077
| 42> H -3.0229273578 -2.6389184205 -0.0816454819
| 43> H -1.947867635 -1.9551577783 -1.3246414331
| 44> H -1.0286888697 -3.4233525409 1.2030678207
| 45> H -1.0659681133 -4.1164417229 -0.4286835482
| 46> H 0.0386602407 -2.7854531754 -0.0523230164
| 47> *
| 48>
| 49>                          ****END OF INPUT****

CARTESIAN COORDINATES (ANGSTROEM)
---------------------------------
  C      3.774361   -1.457645   -2.553958
  C      4.066119   -1.741148   -1.094485
  O      2.876335   -1.706014   -0.287358
  P      2.076972   -0.364281    0.001989
  S      3.181674    1.233484    0.289427
  O      1.149772   -0.809907    1.205701
  C      1.471858   -0.523574    2.579353
  C      2.653787   -1.341520    3.055285
  S      0.646250   -0.269953   -1.553136
  C      0.131306    1.439427   -1.243311
  S     -0.619428    1.663407    0.388807
  P     -2.309187    0.420929    0.045801
  S     -3.051549    0.483379   -1.771959
  O     -3.262307    0.796870    1.254871
  C     -3.611558    2.133946    1.659169
  C     -4.198593    2.954888    0.529359
  O     -1.910172   -1.030446    0.537989
  C     -2.028825   -2.224361   -0.266136
  C     -0.946574   -3.201863    0.143001
  H      4.676491   -1.611554   -3.137344
  H      2.990741   -2.116974   -2.918854
  H      3.447515   -0.425670   -2.675809
  H      4.775823   -1.009165   -0.695820
  H      4.451314   -2.751189   -0.948713
  H      1.676173    0.548336    2.672752
  H      0.556978   -0.771504    3.119701
  H      3.548838   -1.046811    2.508256
  H      2.812961   -1.163562    4.114147
  H      2.471679   -2.399681    2.887395
  H     -0.594939    1.687973   -2.017201
  H      0.998338    2.098266   -1.279322
  H     -4.338939    1.976500    2.457638
  H     -2.716386    2.614992    2.063744
  H     -5.041925    2.434349    0.081670
  H     -4.530988    3.913108    0.915482
  H     -3.448964    3.124212   -0.242363
  H     -3.022927   -2.638918   -0.081645
  H     -1.947868   -1.955158   -1.324641
  H     -1.028689   -3.423353    1.203068
  H     -1.065968   -4.116442   -0.428684
  H      0.038660   -2.785453   -0.052323

 Total Charge           Charge          ....    0
 Multiplicity           Mult            ....    1
 Number of Electrons    NEL             ....  202
 Basis Dimension        Dim             ....  539

ORBITAL ENERGIES
----------------

  NO   OCC          E(Eh)            E(eV)
   0   2.0000     -88.577348     -2410.3122
   1   2.0000     -88.575215     -2410.2541
   2   2.0000     -88.524686     -2408.8792
   3   2.0000     -88.516804     -2408.6647
   4   2.0000     -76.916260     -2092.9978
   5   2.0000     -76.912396     -2092.8927
   6   2.0000     -18.997123      -516.9380
   7   2.0000     -18.990305      -516.7525
   8   2.0000     -18.988236      -516.6962
   9   2.0000     -18.982958      -516.5526
  10   2.0000     -10.106612      -275.0149
  11   2.0000     -10.102543      -274.9042
  12   2.0000     -10.102242      -274.8960
  13   2.0000     -10.096239      -274.7326
  14   2.0000     -10.089409      -274.5468
  15   2.0000     -10.031536      -272.9720
  16   2.0000     -10.028779      -272.8970
  17   2.0000     -10.026261      -272.8284
  18   2.0000     -10.021914      -272.7102
  19   2.0000      -7.871768      -214.2017
  20   2.0000      -7.869573      -214.1420
  21   2.0000      -7.819401      -212.7767
  22   2.0000      -7.811704      -212.5673
  23   2.0000      -6.594889      -179.4561
  24   2.0000      -6.590529      -179.3374
  25   2.0000      -5.818588      -158.3318
  26   2.0000      -5.816409      -158.2725
  27   2.0000      -5.815706      -158.2534
  28   2.0000      -5.813381      -158.1901
  29   2.0000      -5.808846      -158.0667
  30   2.0000      -5.806777      -158.0104
  31   2.0000      -5.766972      -156.9273
  32   2.0000      -5.759686      -156.7290
  33   2.0000      -5.759486      -156.7236
  34   2.0000      -5.759370      -156.7204
  35   2.0000      -5.752019      -156.5204
  36   2.0000      -5.751641      -156.5101
  37   2.0000      -4.740229      -128.9882
  38   2.0000      -4.739761      -128.9755
  39   2.0000      -4.738800      -128.9493
  40   2.0000      -4.735974      -128.8724
  41   2.0000      -4.735622      -128.8628
  42   2.0000      -4.734196      -128.8240
  43   2.0000      -1.052536       -28.6409
  44   2.0000      -1.046426       -28.4747
  45   2.0000      -1.013183       -27.5701
  46   2.0000      -1.004450       -27.3325
  47   2.0000      -0.804208       -21.8836
  48   2.0000      -0.758449       -20.6385
  49   2.0000      -0.749343       -20.3907
  50   2.0000      -0.732618       -19.9355
  51   2.0000      -0.726710       -19.7748
  52   2.0000      -0.711386       -19.3578
  53   2.0000      -0.686124       -18.6704
  54   2.0000      -0.670037       -18.2326
  55   2.0000      -0.635309       -17.2876
  56   2.0000      -0.624237       -16.9864
  57   2.0000      -0.606830       -16.5127
  58   2.0000      -0.601573       -16.3696
  59   2.0000      -0.589627       -16.0446
  60   2.0000      -0.525465       -14.2986
  61   2.0000      -0.518561       -14.1108
  62   2.0000      -0.495115       -13.4728
  63   2.0000      -0.487529       -13.2663
  64   2.0000      -0.477508       -12.9937
  65   2.0000      -0.461154       -12.5486
  66   2.0000      -0.460173       -12.5219
  67   2.0000      -0.448746       -12.2110
  68   2.0000      -0.440891       -11.9973
  69   2.0000      -0.435511       -11.8509
  70   2.0000      -0.430532       -11.7154
  71   2.0000      -0.413756       -11.2589
  72   2.0000      -0.411711       -11.2032
  73   2.0000      -0.405543       -11.0354
  74   2.0000      -0.398627       -10.8472
  75   2.0000      -0.392803       -10.6887
  76   2.0000      -0.382898       -10.4192
  77   2.0000      -0.373603       -10.1663
  78   2.0000      -0.365226        -9.9383
  79   2.0000      -0.362764        -9.8713
  80   2.0000      -0.361991        -9.8503
  81   2.0000      -0.359692        -9.7877
  82   2.0000      -0.356362        -9.6971
  83   2.0000      -0.352113        -9.5815
  84   2.0000      -0.342852        -9.3295
  85   2.0000      -0.336515        -9.1570
  86   2.0000      -0.324222        -8.8225
  87   2.0000      -0.312969        -8.5163
  88   2.0000      -0.310153        -8.4397
  89   2.0000      -0.301999        -8.2178
  90   2.0000      -0.297737        -8.1018
  91   2.0000      -0.290621        -7.9082
  92   2.0000      -0.285354        -7.7649
  93   2.0000      -0.282451        -7.6859
  94   2.0000      -0.267919        -7.2905
  95   2.0000      -0.245269        -6.6741
  96   2.0000      -0.231006        -6.2860
  97   2.0000      -0.228558        -6.2194
  98   2.0000      -0.222152        -6.0451
  99   2.0000      -0.212633        -5.7860
 100   2.0000      -0.211049        -5.7429
 101   0.0000      -0.049902        -1.3579
 102   0.0000      -0.026037        -0.7085
 103   0.0000      -0.002931        -0.0797
 104   0.0000      -0.001733        -0.0471
 105   0.0000       0.009403         0.2559

MULLIKEN ATOMIC CHARGES
-----------------------
   0 C :   -0.454327
   1 C :   -0.150736
   2 O :   -0.306363
   3 P :    0.691567
   4 S :   -0.483854
   5 O :   -0.248652
   6 C :   -0.161586
   7 C :   -0.445151
   8 S :   -0.129977
   9 C :   -0.237664
  10 S :   -0.149388
  11 P :    0.674784
  12 S :   -0.464930
  13 O :   -0.301457
  14 C :   -0.149496
  15 C :   -0.425851
  16 O :   -0.277439
  17 C :   -0.103330
  18 C :   -0.466547
  19 H :    0.149323
  20 H :    0.156470
  21 H :    0.178023
  22 H :    0.171737
  23 H :    0.149318
  24 H :    0.172229
  25 H :    0.159511
  26 H :    0.166418
  27 H :    0.147502
  28 H :    0.156253
  29 H :    0.213012
  30 H :    0.212730
  31 H :    0.150347
  32 H :    0.150804
  33 H :    0.164268
  34 H :    0.146575
  35 H :    0.168843
  36 H :    0.147190
  37 H :    0.171025
  38 H :    0.147087
  39 H :    0.143151
  40 H :    0.168584
Sum of atomic charges:   -0.0000000

LOEWDIN ATOMIC CHARGES
----------------------
   0 C :   -0.406460
   1 C :    0.020578
   2 O :   -0.661692
   3 P :    0.376691
   4 S :   -0.127976
   5 O :   -0.683080
   6 C :    0.017663
   7 C :   -0.398962
   8 S :    0.176532
   9 C :   -0.420072
  10 S :    0.162316
  11 P :    0.386678
  12 S :   -0.130908
  13 O :   -0.651963
  14 C :    0.022884
  15 C :   -0.406608
  16 O :   -0.653155
  17 C :    0.013996
  18 C :   -0.393103
  19 H :    0.159920
  20 H :    0.160378
  21 H :    0.165917
  22 H :    0.179784
  23 H :    0.180030
  24 H :    0.181088
  25 H :    0.182721
  26 H :    0.164141
  27 H :    0.159453
  28 H :    0.160188
  29 H :    0.192162
  30 H :    0.189677
  31 H :    0.181654
  32 H :    0.171501
  33 H :    0.165413
  34 H :    0.157860
  35 H :    0.165975
  36 H :    0.172138
  37 H :    0.182089
  38 H :    0.158743
  39 H :    0.157607
  40 H :    0.168201

  Mayer bond orders larger than 0.100000
B(  0-C ,  1-C ) :   0.9218 B(  0-C , 19-H ) :   0.9582 B(  0-C , 20-H ) :   0.9690
B(  0-C , 21-H ) :   0.9624 B(  1-C ,  2-O ) :   0.8132 B(  1-C , 22-H ) :   0.9666
B(  1-C , 23-H ) :   0.9580 B(  2-O ,  3-P ) :   1.0505 B(  3-P ,  4-S ) :   1.7648
B(  3-P ,  5-O ) :   1.1154 B(  3-P ,  8-S ) :   1.0787 B(  5-O ,  6-C ) :   0.7773
B(  6-C ,  7-C ) :   0.9165 B(  6-C , 24-H ) :   0.9592 B(  6-C , 25-H ) :   0.9638
B(  7-C , 26-H ) :   0.9609 B(  7-C , 27-H ) :   0.9631 B(  7-C , 28-H ) :   0.9745
B(  8-S ,  9-C ) :   0.8963 B(  9-C , 10-S ) :   0.9037 B(  9-C , 29-H ) :   0.9069
B(  9-C , 30-H ) :   0.9112 B( 10-S , 11-P ) :   1.0197 B( 11-P , 12-S ) :   1.7791
B( 11-P , 13-O ) :   1.1196 B( 11-P , 16-O ) :   1.1598 B( 13-O , 14-C ) :   0.8081
B( 14-C , 15-C ) :   0.9404 B( 14-C , 31-H ) :   0.9585 B( 14-C , 32-H ) :   0.9628
B( 15-C , 33-H ) :   0.9663 B( 15-C , 34-H ) :   0.9630 B( 15-C , 35-H ) :   0.9544
B( 16-O , 17-C ) :   0.7536 B( 17-C , 18-C ) :   0.9361 B( 17-C , 36-H ) :   0.9452
B( 17-C , 37-H ) :   0.9609 B( 18-C , 38-H ) :   0.9683 B( 18-C , 39-H ) :   0.9679
B( 18-C , 40-H ) :   0.9666

Dispersion correction           -0.022263579
FINAL SINGLE POINT ENERGY     -2932.461294805487

DIPOLE MOMENT
-------------

Method             : SCF
Type of density    : Electron Density
Multiplicity       :   1
Irrep              :   0
Energy             : -2932.4856261291424744 Eh
Relativity type    :
Basis              : AO
                                X                 Y                 Z
Electronic contribution:     -4.206949114       8.803169628      -5.195021724
Nuclear contribution   :      4.602801645      -9.392056296       5.910561929
                        -----------------------------------------
Total Dipole Moment    :      0.395852531      -0.588886668       0.715540205
                        -----------------------------------------
Magnitude (a.u.)       :      1.007712519
Magnitude (Debye)      :      2.561401664

Rotational constants in cm-1:             0.012735             0.005207             0.005048
Rotational constants in MHz :           381.794007           156.092632           151.328885

                             ****ORCA TERMINATED NORMALLY****
TOTAL RUN TIME: 0 days 0 hours 1 minutes 22 seconds 949 msec
