                         Program Version 6.0.0  -   RELEASE  -
|  1> ! r2scan-3c def2/J RI DEFGRID2 scfconv6 printgap
|  2> %output
|  3>     printlevel normal
|  4> end
|  5> %cpcm
|  6>     smd true
|  7>     smdsolvent "water"
|  8> end
|  9> * xyz 0 1
| 10> C 3.7743612454 -1.4576446122 -2.5539578933
| 11> C 4.0661185175 -1.7411480613 -1.0944846402
| 12> O 2.8763352261 -1.7060142192 -0.2873576715
| 13> P 2.0769724897 -0.3642810561 0.001988805
| 14> S 3.1816742438 1.2334837716 0.2894273551
| 15> O 1.149772316 -0.809907426 1.2057012933
| 16> C 1.4718579258 -0.5235737926 2.5793532537
| 17> C 2.6537868803 -1.34152028 3.0552846341
| 18> S 0.6462495153 -0.2699530168 -1.5531361939
| 19> C 0.1313062111 1.439427231 -1.2433111719
| 20> S -0.6194277027 1.6634073957 0.3888070422
| 21> P -2.3091872977 0.4209288113 0.0458012636
| 22> S -3.0515490578 0.4833786215 -1.7719593277
| 23> O -3.2623073837 0.7968698336 1.2548711684
| 24> C -3.6115584261 2.1339456385 1.6591691961
| 25> C -4.1985928824 2.9548879153 0.5293586003
| 26> O -1.9101722959 -1.0304461411 0.5379892735
| 27> C -2.0288249802 -2.2243606762 -0.2661363443
| 28> C -0.9465738071 -3.201863023 0.1430012073
| 29> H 4.6764913294 -1.6115540859 -3.1373442686
| 30> H 2.9907407076 -2.1169738403 -2.9188539299
| 31> H 3.4475154732 -0.4256698698 -2.6758093617
| 32> H 4.7758225393 -1.0091652191 -0.6958203578
| 33> H 4.4513144712 -2.7511893503 -0.9487129228
| 34> H 1.6761732903 0.5483358063 2.6727516531
| 35> H 0.5569777126 -0.7715041894 3.1197009108
| 36> H 3.5488376065 -1.0468107674 2.5082556814
| 37> H 2.8129609753 -1.1635617822 4.1141473941
| 38> H 2.4716792376 -2.3996810569 2.8873947045
| 39> H -0.5949387437 1.6879734941 -2.0172010754
| 40> H 0.9983382971 2.0982661106 -1.2793223993
| 41> H -4.3389389974 1.9765000927 2.4576376122
| 42> H -2.7163860999 2.6149921894 2.0637442749
| 43> H -5.0419245429 2.4343493847 0.0816700922
| 44> H -4.5309876964 3.9131084712 0.9154822135
| 45> H -3.4489639561 3.1242121819 -0.2423634077
| 46> H -3.0229273578 -2.6389184205 -0.0816454819
| 47> H -1.947867635 -1.9551577783 -1.3246414331
| 48> H -1.0286888697 -3.4233525409 1.2030678207
| 49> H -1.0659681133 -4.1164417229 -0.4286835482
| 50> H 0.0386602407 -2.7854531754 -0.0523230164
| 51> *
| 52>
| 53>                          ****END OF INPUT****

CARTESIAN COORDINATES (ANGSTROEM)
---------------------------------
  C      3.774361   -1.457645   -2.553958
  C      4.066119   -1.741148   -1.094485
  O      2.876335   -1.706014   -0.287358
  P      2.076972   -0.364281    0.001989
  S      3.181674    1.233484    0.289427
  O      1.149772   -0.809907    1.205701
  C      1.471858   -0.523574    2.579353
  C      2.653787   -1.341520    3.055285
  S      0.646250   -0.269953   -1.553136
  C      0.131306    1.439427   -1.243311
  S     -0.619428    1.663407    0.388807
  P     -2.309187    0.420929    0.045801
  S     -3.051549    0.483379   -1.771959
  O     -3.262307    0.796870    1.254871
  C     -3.611558    2.133946    1.659169
  C     -4.198593    2.954888    0.529359
  O     -1.910172   -1.030446    0.537989
  C     -2.028825   -2.224361   -0.266136
  C     -0.946574   -3.201863    0.143001
  H      4.676491   -1.611554   -3.137344
  H      2.990741   -2.116974   -2.918854
  H      3.447515   -0.425670   -2.675809
  H      4.775823   -1.009165   -0.695820
  H      4.451314   -2.751189   -0.948713
  H      1.676173    0.548336    2.672752
  H      0.556978   -0.771504    3.119701
  H      3.548838   -1.046811    2.508256
  H      2.812961   -1.163562    4.114147
  H      2.471679   -2.399681    2.887395
  H     -0.594939    1.687973   -2.017201
  H      0.998338    2.098266   -1.279322
  H     -4.338939    1.976500    2.457638
  H     -2.716386    2.614992    2.063744
  H     -5.041925    2.434349    0.081670
  H     -4.530988    3.913108    0.915482
  H     -3.448964    3.124212   -0.242363
  H     -3.022927   -2.638918   -0.081645
  H     -1.947868   -1.955158   -1.324641
  H     -1.028689   -3.423353    1.203068
  H     -1.065968   -4.116442   -0.428684
  H      0.038660   -2.785453   -0.052323

 Total Charge           Charge          ....    0
 Multiplicity           Mult            ....    1
 Number of Electrons    NEL             ....  202
 Basis Dimension        Dim             ....  539

ORBITAL ENERGIES
----------------

  NO   OCC          E(Eh)            E(eV)
   0   2.0000     -88.579434     -2410.3689
   1   2.0000     -88.579229     -2410.3634
   2   2.0000     -88.529545     -2409.0114
   3   2.0000     -88.526358     -2408.9247
   4   2.0000     -76.920014     -2093.1000
   5   2.0000     -76.919501     -2093.0860
   6   2.0000     -18.996939      -516.9330
   7   2.0000     -18.995323      -516.8890
   8   2.0000     -18.991406      -516.7824
   9   2.0000     -18.990890      -516.7684
  10   2.0000     -10.105471      -274.9838
  11   2.0000     -10.093167      -274.6490
  12   2.0000     -10.090363      -274.5727
  13   2.0000     -10.088826      -274.5309
  14   2.0000     -10.087691      -274.5000
  15   2.0000     -10.018979      -272.6303
  16   2.0000     -10.018533      -272.6182
  17   2.0000     -10.018438      -272.6156
  18   2.0000     -10.017064      -272.5782
  19   2.0000      -7.873880      -214.2592
  20   2.0000      -7.873550      -214.2502
  21   2.0000      -7.824532      -212.9163
  22   2.0000      -7.821546      -212.8351
  23   2.0000      -6.598235      -179.5471
  24   2.0000      -6.598154      -179.5449
  25   2.0000      -5.820689      -158.3890
  26   2.0000      -5.820400      -158.3811
  27   2.0000      -5.817815      -158.3108
  28   2.0000      -5.817353      -158.2982
  29   2.0000      -5.810975      -158.1247
  30   2.0000      -5.810757      -158.1187
  31   2.0000      -5.772057      -157.0657
  32   2.0000      -5.769148      -156.9865
  33   2.0000      -5.764802      -156.8682
  34   2.0000      -5.764627      -156.8635
  35   2.0000      -5.761886      -156.7889
  36   2.0000      -5.761466      -156.7775
  37   2.0000      -4.743654      -129.0814
  38   2.0000      -4.743454      -129.0760
  39   2.0000      -4.743344      -129.0729
  40   2.0000      -4.743039      -129.0647
  41   2.0000      -4.742117      -129.0396
  42   2.0000      -4.741931      -129.0345
  43   2.0000      -1.053460       -28.6661
  44   2.0000      -1.052432       -28.6381
  45   2.0000      -1.013693       -27.5840
  46   2.0000      -1.010445       -27.4956
  47   2.0000      -0.805814       -21.9273
  48   2.0000      -0.756692       -20.5906
  49   2.0000      -0.744666       -20.2634
  50   2.0000      -0.723503       -19.6875
  51   2.0000      -0.721833       -19.6421
  52   2.0000      -0.711113       -19.3504
  53   2.0000      -0.689882       -18.7726
  54   2.0000      -0.675528       -18.3820
  55   2.0000      -0.633320       -17.2335
  56   2.0000      -0.623170       -16.9573
  57   2.0000      -0.599372       -16.3097
  58   2.0000      -0.599041       -16.3007
  59   2.0000      -0.588605       -16.0167
  60   2.0000      -0.524738       -14.2788
  61   2.0000      -0.514584       -14.0025
  62   2.0000      -0.491800       -13.3826
  63   2.0000      -0.486815       -13.2469
  64   2.0000      -0.477389       -12.9904
  65   2.0000      -0.458488       -12.4761
  66   2.0000      -0.455254       -12.3881
  67   2.0000      -0.444824       -12.1043
  68   2.0000      -0.440764       -11.9938
  69   2.0000      -0.435039       -11.8380
  70   2.0000      -0.425954       -11.5908
  71   2.0000      -0.414013       -11.2659
  72   2.0000      -0.407733       -11.0950
  73   2.0000      -0.403714       -10.9856
  74   2.0000      -0.399338       -10.8665
  75   2.0000      -0.390282       -10.6201
  76   2.0000      -0.381181       -10.3725
  77   2.0000      -0.366818        -9.9816
  78   2.0000      -0.361783        -9.8446
  79   2.0000      -0.357723        -9.7341
  80   2.0000      -0.354932        -9.6582
  81   2.0000      -0.353383        -9.6160
  82   2.0000      -0.350279        -9.5316
  83   2.0000      -0.348458        -9.4820
  84   2.0000      -0.340925        -9.2770
  85   2.0000      -0.334060        -9.0902
  86   2.0000      -0.322394        -8.7728
  87   2.0000      -0.309580        -8.4241
  88   2.0000      -0.305459        -8.3120
  89   2.0000      -0.303885        -8.2691
  90   2.0000      -0.298652        -8.1267
  91   2.0000      -0.289728        -7.8839
  92   2.0000      -0.286843        -7.8054
  93   2.0000      -0.280405        -7.6302
  94   2.0000      -0.271437        -7.3862
  95   2.0000      -0.248631        -6.7656
  96   2.0000      -0.236320        -6.4306
  97   2.0000      -0.235108        -6.3976
  98   2.0000      -0.228306        -6.2125
  99   2.0000      -0.220273        -5.9939
 100   2.0000      -0.219418        -5.9707
 101   0.0000      -0.054156        -1.4737
 102   0.0000      -0.031515        -0.8576
 103   0.0000      -0.007239        -0.1970
 104   0.0000      -0.005315        -0.1446
 105   0.0000       0.009149         0.2489

MULLIKEN ATOMIC CHARGES
-----------------------
   0 C :   -0.490822
   1 C :   -0.150887
   2 O :   -0.331818
   3 P :    0.728662
   4 S :   -0.526731
   5 O :   -0.278040
   6 C :   -0.155873
   7 C :   -0.485906
   8 S :   -0.139002
   9 C :   -0.248341
  10 S :   -0.152642
  11 P :    0.704586
  12 S :   -0.509168
  13 O :   -0.335170
  14 C :   -0.149152
  15 C :   -0.466180
  16 O :   -0.311145
  17 C :   -0.098384
  18 C :   -0.512587
  19 H :    0.173606
  20 H :    0.170556
  21 H :    0.173408
  22 H :    0.178159
  23 H :    0.176000
  24 H :    0.176047
  25 H :    0.180551
  26 H :    0.167370
  27 H :    0.172343
  28 H :    0.170185
  29 H :    0.231951
  30 H :    0.235307
  31 H :    0.177282
  32 H :    0.170790
  33 H :    0.169973
  34 H :    0.173428
  35 H :    0.166148
  36 H :    0.170558
  37 H :    0.172072
  38 H :    0.167197
  39 H :    0.169220
  40 H :    0.166448
Sum of atomic charges:   -0.0000000

LOEWDIN ATOMIC CHARGES
----------------------
   0 C :   -0.409696
   1 C :    0.026414
   2 O :   -0.671612
   3 P :    0.382597
   4 S :   -0.153732
   5 O :   -0.699995
   6 C :    0.021208
   7 C :   -0.402075
   8 S :    0.173066
   9 C :   -0.413636
  10 S :    0.163775
  11 P :    0.389143
  12 S :   -0.160259
  13 O :   -0.668709
  14 C :    0.029360
  15 C :   -0.410034
  16 O :   -0.672677
  17 C :    0.016175
  18 C :   -0.396862
  19 H :    0.168734
  20 H :    0.163764
  21 H :    0.161684
  22 H :    0.181815
  23 H :    0.191404
  24 H :    0.182255
  25 H :    0.191045
  26 H :    0.162394
  27 H :    0.168645
  28 H :    0.163883
  29 H :    0.197970
  30 H :    0.196804
  31 H :    0.193158
  32 H :    0.179350
  33 H :    0.164319
  34 H :    0.168152
  35 H :    0.161879
  36 H :    0.180902
  37 H :    0.182642
  38 H :    0.163491
  39 H :    0.168053
  40 H :    0.165207

  Mayer bond orders larger than 0.100000
B(  0-C ,  1-C ) :   0.9084 B(  0-C , 19-H ) :   0.9529 B(  0-C , 20-H ) :   0.9660
B(  0-C , 21-H ) :   0.9636 B(  1-C ,  2-O ) :   0.8010 B(  1-C , 22-H ) :   0.9654
B(  1-C , 23-H ) :   0.9482 B(  2-O ,  3-P ) :   1.0596 B(  3-P ,  4-S ) :   1.7263
B(  3-P ,  5-O ) :   1.1215 B(  3-P ,  8-S ) :   1.0865 B(  5-O ,  6-C ) :   0.7656
B(  6-C ,  7-C ) :   0.9083 B(  6-C , 24-H ) :   0.9547 B(  6-C , 25-H ) :   0.9541
B(  7-C , 26-H ) :   0.9601 B(  7-C , 27-H ) :   0.9571 B(  7-C , 28-H ) :   0.9728
B(  8-S ,  9-C ) :   0.8865 B(  9-C , 10-S ) :   0.8923 B(  9-C , 29-H ) :   0.9023
B(  9-C , 30-H ) :   0.9048 B( 10-S , 11-P ) :   1.0395 B( 11-P , 12-S ) :   1.7468
B( 11-P , 13-O ) :   1.1250 B( 11-P , 16-O ) :   1.1545 B( 13-O , 14-C ) :   0.7988
B( 14-C , 15-C ) :   0.9215 B( 14-C , 31-H ) :   0.9486 B( 14-C , 32-H ) :   0.9572
B( 15-C , 33-H ) :   0.9673 B( 15-C , 34-H ) :   0.9567 B( 15-C , 35-H ) :   0.9569
B( 16-O , 17-C ) :   0.7467 B( 17-C , 18-C ) :   0.9266 B( 17-C , 36-H ) :   0.9364
B( 17-C , 37-H ) :   0.9573 B( 18-C , 38-H ) :   0.9662 B( 18-C , 39-H ) :   0.9607
B( 18-C , 40-H ) :   0.9668

Dispersion correction           -0.022263579
FINAL SINGLE POINT ENERGY     -2932.469291990385

DIPOLE MOMENT
-------------

Method             : SCF
Type of density    : Electron Density
Multiplicity       :   1
Irrep              :   0
Energy             : -2932.4936233140410877 Eh
Relativity type    :
Basis              : AO
                                X                 Y                 Z
Electronic contribution:     -4.050641599       8.717034012      -5.022009386
Nuclear contribution   :      4.602801645      -9.392056296       5.910561929
                        -----------------------------------------
Total Dipole Moment    :      0.552160046      -0.675022284       0.888552543
                        -----------------------------------------
Magnitude (a.u.)       :      1.245014627
Magnitude (Debye)      :      3.164575689

Rotational constants in cm-1:             0.012735             0.005207             0.005048
Rotational constants in MHz :           381.794007           156.092632           151.328885

                             ****ORCA TERMINATED NORMALLY****
TOTAL RUN TIME: 0 days 0 hours 1 minutes 51 seconds 415 msec
