                         Program Version 6.0.0  -   RELEASE  -
|  1> ! pbe def2-sv(p) def2/J RI DEFGRID1 loosescf d4 GCP(DFT/SV(P)) printgap
|  2> %output
|  3>     printlevel normal
|  4> end
|  5> * xyz 0 1
|  6> C 0.0081258822 -1.378413598 3.0732941567
|  7> C 1.2979146865 -1.4935864394 2.2877200067
|  8> O 1.5388577191 -0.2430846345 1.6061281977
|  9> P 2.318796762 -0.1094595265 0.2343282764
| 10> S 3.026681013 -1.8040477683 -0.4629848643
| 11> O 3.3514972577 1.0023012032 0.6901083426
| 12> C 4.0639519609 1.8925359072 -0.1891606758
| 13> C 4.842084002 1.159742643 -1.2625481426
| 14> S 1.0383141582 0.9635870937 -1.0808749095
| 15> C 0.246694218 -0.4854885149 -1.823864312
| 16> S -0.7218969455 -1.4400204957 -0.6307578873
| 17> P -2.104129134 0.107178157 -0.1744993328
| 18> S -2.6644079314 1.2313837678 -1.6849821649
| 19> O -1.3984730696 0.8895092136 1.0079634708
| 20> C -1.4229482076 2.3208113266 1.13438079
| 21> C -2.7267210009 2.779002093 1.7535646654
| 22> O -3.2245684144 -0.6494574322 0.6546952345
| 23> C -3.9101150181 -1.8468657668 0.2440328329
| 24> C -4.5563771847 -1.7176729841 -1.1198234231
| 25> H -0.163205591 -2.3077989882 3.6064448145
| 26> H 0.0780201532 -0.5599719194 3.7836702709
| 27> H -0.8291037382 -1.1891527668 2.4059474241
| 28> H 1.2495187276 -2.3021172489 1.5506360533
| 29> H 2.1485329179 -1.6703421869 2.9504059714
| 30> H 3.3432532291 2.583499751 -0.6357950734
| 31> H 4.7288292212 2.4368314206 0.4839308167
| 32> H 4.159773503 0.6473649351 -1.9393339373
| 33> H 5.4328726645 1.872298015 -1.829105377
| 34> H 5.5015555365 0.4205223182 -0.8140472137
| 35> H 1.0084571918 -1.1596583969 -2.2153084161
| 36> H -0.4055261335 -0.1112685597 -2.6126594641
| 37> H -0.5636083036 2.5509613842 1.766319668
| 38> H -1.282158673 2.7695490955 0.1449949201
| 39> H -3.5538727089 2.5142777153 1.0958310136
| 40> H -2.8763333773 2.2971241729 2.7156974873
| 41> H -2.7072632433 3.856200098 1.88446044
| 42> H -3.1926359891 -2.6724537296 0.2554476682
| 43> H -4.6562132235 -1.9944178502 1.0269513057
| 44> H -5.1349657434 -2.6114565908 -1.3301116147
| 45> H -5.211151578 -0.8499004935 -1.1492453103
| 46> H -3.7940036187 -1.6004309173 -1.8887864171
| 47> *
| 48>
| 49>                          ****END OF INPUT****

CARTESIAN COORDINATES (ANGSTROEM)
---------------------------------
  C      0.008126   -1.378414    3.073294
  C      1.297915   -1.493586    2.287720
  O      1.538858   -0.243085    1.606128
  P      2.318797   -0.109460    0.234328
  S      3.026681   -1.804048   -0.462985
  O      3.351497    1.002301    0.690108
  C      4.063952    1.892536   -0.189161
  C      4.842084    1.159743   -1.262548
  S      1.038314    0.963587   -1.080875
  C      0.246694   -0.485489   -1.823864
  S     -0.721897   -1.440020   -0.630758
  P     -2.104129    0.107178   -0.174499
  S     -2.664408    1.231384   -1.684982
  O     -1.398473    0.889509    1.007963
  C     -1.422948    2.320811    1.134381
  C     -2.726721    2.779002    1.753565
  O     -3.224568   -0.649457    0.654695
  C     -3.910115   -1.846866    0.244033
  C     -4.556377   -1.717673   -1.119823
  H     -0.163206   -2.307799    3.606445
  H      0.078020   -0.559972    3.783670
  H     -0.829104   -1.189153    2.405947
  H      1.249519   -2.302117    1.550636
  H      2.148533   -1.670342    2.950406
  H      3.343253    2.583500   -0.635795
  H      4.728829    2.436831    0.483931
  H      4.159774    0.647365   -1.939334
  H      5.432873    1.872298   -1.829105
  H      5.501556    0.420522   -0.814047
  H      1.008457   -1.159658   -2.215308
  H     -0.405526   -0.111269   -2.612659
  H     -0.563608    2.550961    1.766320
  H     -1.282159    2.769549    0.144995
  H     -3.553873    2.514278    1.095831
  H     -2.876333    2.297124    2.715697
  H     -2.707263    3.856200    1.884460
  H     -3.192636   -2.672454    0.255448
  H     -4.656213   -1.994418    1.026951
  H     -5.134966   -2.611457   -1.330112
  H     -5.211152   -0.849900   -1.149245
  H     -3.794004   -1.600431   -1.888786

 Total Charge           Charge          ....    0
 Multiplicity           Mult            ....    1
 Number of Electrons    NEL             ....  202
 Basis Dimension        Dim             ....  334

ORBITAL ENERGIES
----------------

  NO   OCC          E(Eh)            E(eV)
   0   2.0000     -88.047766     -2395.9015
   1   2.0000     -88.044936     -2395.8245
   2   2.0000     -87.990856     -2394.3529
   3   2.0000     -87.985859     -2394.2169
   4   2.0000     -76.430834     -2079.7887
   5   2.0000     -76.426385     -2079.6677
   6   2.0000     -18.798818      -511.5419
   7   2.0000     -18.792435      -511.3681
   8   2.0000     -18.788496      -511.2610
   9   2.0000     -18.784106      -511.1415
  10   2.0000      -9.961801      -271.0744
  11   2.0000      -9.957910      -270.9685
  12   2.0000      -9.956998      -270.9437
  13   2.0000      -9.946841      -270.6673
  14   2.0000      -9.943844      -270.5858
  15   2.0000      -9.886313      -269.0202
  16   2.0000      -9.883016      -268.9305
  17   2.0000      -9.880622      -268.8654
  18   2.0000      -9.876911      -268.7644
  19   2.0000      -7.692382      -209.3204
  20   2.0000      -7.689567      -209.2437
  21   2.0000      -7.635702      -207.7780
  22   2.0000      -7.630871      -207.6465
  23   2.0000      -6.427683      -174.9062
  24   2.0000      -6.423403      -174.7897
  25   2.0000      -5.720083      -155.6514
  26   2.0000      -5.717333      -155.5765
  27   2.0000      -5.716965      -155.5665
  28   2.0000      -5.714090      -155.4883
  29   2.0000      -5.709524      -155.3641
  30   2.0000      -5.706688      -155.2869
  31   2.0000      -5.664577      -154.1410
  32   2.0000      -5.659720      -154.0088
  33   2.0000      -5.656348      -153.9171
  34   2.0000      -5.655905      -153.9050
  35   2.0000      -5.651483      -153.7847
  36   2.0000      -5.651118      -153.7747
  37   2.0000      -4.650104      -126.5358
  38   2.0000      -4.649672      -126.5240
  39   2.0000      -4.648165      -126.4830
  40   2.0000      -4.645726      -126.4166
  41   2.0000      -4.645413      -126.4081
  42   2.0000      -4.643919      -126.3675
  43   2.0000      -0.989960       -26.9382
  44   2.0000      -0.984551       -26.7910
  45   2.0000      -0.947385       -25.7797
  46   2.0000      -0.940424       -25.5902
  47   2.0000      -0.768436       -20.9102
  48   2.0000      -0.722107       -19.6495
  49   2.0000      -0.710925       -19.3452
  50   2.0000      -0.687897       -18.7186
  51   2.0000      -0.683269       -18.5927
  52   2.0000      -0.674749       -18.3609
  53   2.0000      -0.652499       -17.7554
  54   2.0000      -0.641022       -17.4431
  55   2.0000      -0.600634       -16.3441
  56   2.0000      -0.594588       -16.1796
  57   2.0000      -0.575818       -15.6688
  58   2.0000      -0.569295       -15.4913
  59   2.0000      -0.559033       -15.2121
  60   2.0000      -0.502849       -13.6832
  61   2.0000      -0.494688       -13.4612
  62   2.0000      -0.473041       -12.8721
  63   2.0000      -0.469131       -12.7657
  64   2.0000      -0.462877       -12.5955
  65   2.0000      -0.445071       -12.1110
  66   2.0000      -0.437358       -11.9011
  67   2.0000      -0.432958       -11.7814
  68   2.0000      -0.423582       -11.5263
  69   2.0000      -0.420242       -11.4354
  70   2.0000      -0.415442       -11.3048
  71   2.0000      -0.397878       -10.8268
  72   2.0000      -0.391853       -10.6629
  73   2.0000      -0.388212       -10.5638
  74   2.0000      -0.383552       -10.4370
  75   2.0000      -0.380678       -10.3588
  76   2.0000      -0.368291       -10.0217
  77   2.0000      -0.350024        -9.5246
  78   2.0000      -0.349628        -9.5139
  79   2.0000      -0.348492        -9.4829
  80   2.0000      -0.347683        -9.4609
  81   2.0000      -0.345044        -9.3891
  82   2.0000      -0.342848        -9.3294
  83   2.0000      -0.337975        -9.1968
  84   2.0000      -0.327539        -8.9128
  85   2.0000      -0.322854        -8.7853
  86   2.0000      -0.313575        -8.5328
  87   2.0000      -0.300133        -8.1670
  88   2.0000      -0.296208        -8.0602
  89   2.0000      -0.286872        -7.8062
  90   2.0000      -0.283905        -7.7254
  91   2.0000      -0.278425        -7.5763
  92   2.0000      -0.272188        -7.4066
  93   2.0000      -0.267036        -7.2664
  94   2.0000      -0.252737        -6.8773
  95   2.0000      -0.234535        -6.3820
  96   2.0000      -0.221443        -6.0258
  97   2.0000      -0.213917        -5.8210
  98   2.0000      -0.207537        -5.6474
  99   2.0000      -0.200175        -5.4470
 100   2.0000      -0.199025        -5.4157
 101   0.0000      -0.050383        -1.3710
 102   0.0000      -0.026920        -0.7325
 103   0.0000      -0.007689        -0.2092
 104   0.0000      -0.002397        -0.0652
 105   0.0000       0.005348         0.1455

MULLIKEN ATOMIC CHARGES
-----------------------
   0 C :   -0.290935
   1 C :   -0.003452
   2 O :   -0.359696
   3 P :    0.610830
   4 S :   -0.336513
   5 O :   -0.363347
   6 C :   -0.013543
   7 C :   -0.307879
   8 S :   -0.101960
   9 C :   -0.350189
  10 S :   -0.096095
  11 P :    0.615410
  12 S :   -0.322452
  13 O :   -0.356389
  14 C :   -0.007168
  15 C :   -0.294330
  16 O :   -0.373285
  17 C :   -0.012316
  18 C :   -0.309941
  19 H :    0.102482
  20 H :    0.108559
  21 H :    0.126081
  22 H :    0.111769
  23 H :    0.101584
  24 H :    0.114790
  25 H :    0.109948
  26 H :    0.124222
  27 H :    0.111074
  28 H :    0.126555
  29 H :    0.193377
  30 H :    0.191639
  31 H :    0.104527
  32 H :    0.112742
  33 H :    0.119242
  34 H :    0.113522
  35 H :    0.109540
  36 H :    0.114449
  37 H :    0.111379
  38 H :    0.112893
  39 H :    0.126511
  40 H :    0.126366
Sum of atomic charges:    0.0000000

LOEWDIN ATOMIC CHARGES
----------------------
   0 C :   -0.356097
   1 C :   -0.117911
   2 O :   -0.238181
   3 P :    0.571452
   4 S :   -0.319055
   5 O :   -0.239902
   6 C :   -0.115214
   7 C :   -0.368910
   8 S :    0.083432
   9 C :   -0.480761
  10 S :    0.088643
  11 P :    0.572794
  12 S :   -0.314170
  13 O :   -0.226260
  14 C :   -0.122953
  15 C :   -0.361509
  16 O :   -0.240537
  17 C :   -0.114128
  18 C :   -0.368983
  19 H :    0.126576
  20 H :    0.124140
  21 H :    0.117048
  22 H :    0.102383
  23 H :    0.112246
  24 H :    0.108190
  25 H :    0.121838
  26 H :    0.120711
  27 H :    0.129813
  28 H :    0.130217
  29 H :    0.130259
  30 H :    0.130438
  31 H :    0.117864
  32 H :    0.105413
  33 H :    0.122655
  34 H :    0.124847
  35 H :    0.129251
  36 H :    0.109305
  37 H :    0.122507
  38 H :    0.130787
  39 H :    0.130071
  40 H :    0.121689

  Mayer bond orders larger than 0.100000
B(  0-C ,  1-C ) :   1.1627 B(  0-C , 19-H ) :   0.9401 B(  0-C , 20-H ) :   0.9485
B(  0-C , 21-H ) :   0.9364 B(  1-C ,  2-O ) :   0.8946 B(  1-C , 22-H ) :   0.9047
B(  1-C , 23-H ) :   0.9347 B(  2-O ,  3-P ) :   1.1400 B(  3-P ,  4-S ) :   1.6013
B(  3-P ,  5-O ) :   1.1310 B(  3-P ,  8-S ) :   0.9283 B(  4-S ,  8-S ) :   0.1097
B(  5-O ,  6-C ) :   0.9161 B(  6-C ,  7-C ) :   1.1636 B(  6-C , 24-H ) :   0.9255
B(  6-C , 25-H ) :   0.9338 B(  7-C , 26-H ) :   0.9336 B(  7-C , 27-H ) :   0.9355
B(  7-C , 28-H ) :   0.9432 B(  8-S ,  9-C ) :   1.0121 B(  9-C , 10-S ) :   1.0049
B(  9-C , 29-H ) :   0.8782 B(  9-C , 30-H ) :   0.8808 B( 10-S , 11-P ) :   0.9425
B( 10-S , 12-S ) :   0.1050 B( 11-P , 12-S ) :   1.5910 B( 11-P , 13-O ) :   1.1160
B( 11-P , 16-O ) :   1.1047 B( 13-O , 14-C ) :   0.8977 B( 14-C , 15-C ) :   1.1636
B( 14-C , 31-H ) :   0.9319 B( 14-C , 32-H ) :   0.9076 B( 15-C , 33-H ) :   0.9386
B( 15-C , 34-H ) :   0.9477 B( 15-C , 35-H ) :   0.9411 B( 16-O , 17-C ) :   0.9121
B( 17-C , 18-C ) :   1.1665 B( 17-C , 36-H ) :   0.9264 B( 17-C , 37-H ) :   0.9336
B( 18-C , 38-H ) :   0.9352 B( 18-C , 39-H ) :   0.9432 B( 18-C , 40-H ) :   0.9337

Dispersion correction           -0.067892858
FINAL SINGLE POINT ENERGY     -2929.522137037299

DIPOLE MOMENT
-------------

Method             : SCF
Type of density    : Electron Density
Multiplicity       :   1
Irrep              :   0
Energy             : -2929.6397227286106499 Eh
Relativity type    :
Basis              : AO
                                X                 Y                 Z
Electronic contribution:      6.197609543      -2.571167125      -8.189056568
Nuclear contribution   :     -6.511284828       2.786348218       8.800941134
                        -----------------------------------------
Total Dipole Moment    :     -0.313675285       0.215181092       0.611884566
                        -----------------------------------------
Magnitude (a.u.)       :      0.720484426
Magnitude (Debye)      :      1.831325874

Rotational constants in cm-1:             0.012576             0.005268             0.005071
Rotational constants in MHz :           377.008739           157.939131           152.031184

                             ****ORCA TERMINATED NORMALLY****
TOTAL RUN TIME: 0 days 0 hours 0 minutes 21 seconds 616 msec
