                         Program Version 6.0.0  -   RELEASE  -
|  1> ! r2scan-3c def2/J RI DEFGRID2 scfconv6 printgap
|  2> %output
|  3>     printlevel normal
|  4> end
|  5> * xyz 0 1
|  6> C 1.2641788833 -0.701794344 -6.025e-07
|  7> C -6.253e-06 0.1030989048 1.394e-07
|  8> C -9.36253e-05 1.4263362721 -1.7729e-06
|  9> C -1.2640876965 -0.7019482731 4.822e-07
| 10> H 1.299749791 -1.3433736433 0.8793435691
| 11> H 1.2996313782 -1.3435735639 -0.8792030567
| 12> H 2.1393093643 -0.0579868302 -0.0001276519
| 13> H -0.9140980259 1.9962668256 8.2716e-06
| 14> H 0.9138347522 1.9963854831 5.5756e-06
| 15> H -1.2994562136 -1.3437189779 0.8792134984
| 16> H -2.1392895533 -0.0582385646 0.0001302932
| 17> H -1.2995779239 -1.3435274775 -0.879349602
| 18> *
| 19>
| 20>                          ****END OF INPUT****

CARTESIAN COORDINATES (ANGSTROEM)
---------------------------------
  C      1.264179   -0.701794   -0.000001
  C     -0.000006    0.103099    0.000000
  C     -0.000094    1.426336   -0.000002
  C     -1.264088   -0.701948    0.000000
  H      1.299750   -1.343374    0.879344
  H      1.299631   -1.343574   -0.879203
  H      2.139309   -0.057987   -0.000128
  H     -0.914098    1.996267    0.000008
  H      0.913835    1.996385    0.000006
  H     -1.299456   -1.343719    0.879213
  H     -2.139290   -0.058239    0.000130
  H     -1.299578   -1.343527   -0.879350

 Total Charge           Charge          ....    0
 Multiplicity           Mult            ....    1
 Number of Electrons    NEL             ....   32
 Basis Dimension        Dim             ....  116

ORBITAL ENERGIES
----------------

  NO   OCC          E(Eh)            E(eV)
   0   2.0000     -10.039764      -273.1959
   1   2.0000     -10.023196      -272.7450
   2   2.0000     -10.023185      -272.7447
   3   2.0000     -10.008521      -272.3457
   4   2.0000      -0.775949       -21.1146
   5   2.0000      -0.661272       -17.9941
   6   2.0000      -0.648249       -17.6397
   7   2.0000      -0.491794       -13.3824
   8   2.0000      -0.421432       -11.4678
   9   2.0000      -0.414386       -11.2760
  10   2.0000      -0.405315       -11.0292
  11   2.0000      -0.357886        -9.7386
  12   2.0000      -0.338913        -9.2223
  13   2.0000      -0.334167        -9.0931
  14   2.0000      -0.306128        -8.3302
  15   2.0000      -0.224057        -6.0969
  16   0.0000      -0.002589        -0.0704
  17   0.0000       0.096441         2.6243
  18   0.0000       0.126081         3.4308
  19   0.0000       0.139563         3.7977
  20   0.0000       0.141211         3.8425

MULLIKEN ATOMIC CHARGES
-----------------------
   0 C :   -0.459666
   1 C :    0.130631
   2 C :   -0.387315
   3 C :   -0.459665
   4 H :    0.149739
   5 H :    0.149725
   6 H :    0.148792
   7 H :    0.139751
   8 H :    0.139751
   9 H :    0.149725
  10 H :    0.148791
  11 H :    0.149740
Sum of atomic charges:   -0.0000000

LOEWDIN ATOMIC CHARGES
----------------------
   0 C :   -0.397815
   1 C :   -0.139581
   2 C :   -0.336586
   3 C :   -0.397814
   4 H :    0.160260
   5 H :    0.160258
   6 H :    0.158976
   7 H :    0.156404
   8 H :    0.156403
   9 H :    0.160259
  10 H :    0.158976
  11 H :    0.160261

  Mayer bond orders larger than 0.100000
B(  0-C ,  1-C ) :   0.8833 B(  0-C ,  4-H ) :   0.9725 B(  0-C ,  5-H ) :   0.9725
B(  0-C ,  6-H ) :   0.9893 B(  1-C ,  2-C ) :   1.8820 B(  1-C ,  3-C ) :   0.8833
B(  2-C ,  7-H ) :   0.9796 B(  2-C ,  8-H ) :   0.9796 B(  3-C ,  9-H ) :   0.9725
B(  3-C , 10-H ) :   0.9893 B(  3-C , 11-H ) :   0.9725

Dispersion correction           -0.002338992
FINAL SINGLE POINT ENERGY      -157.165093349381

DIPOLE MOMENT
-------------

Method             : SCF
Type of density    : Electron Density
Multiplicity       :   1
Irrep              :   0
Energy             :  -157.1677595634315310 Eh
Relativity type    :
Basis              : AO
                                X                 Y                 Z
Electronic contribution:     -0.000079226       1.153515713      -0.000013029
Nuclear contribution   :      0.000097165      -1.405162010       0.000019605
                        -----------------------------------------
Total Dipole Moment    :      0.000017939      -0.251646297       0.000006576
                        -----------------------------------------
Magnitude (a.u.)       :      0.251646298
Magnitude (Debye)      :      0.639634057

Rotational constants in cm-1:             0.307432             0.284634             0.156343
Rotational constants in MHz :          9216.570890          8533.126160          4687.039952

                             ****ORCA TERMINATED NORMALLY****
TOTAL RUN TIME: 0 days 0 hours 0 minutes 10 seconds 260 msec
