                         Program Version 6.0.0  -   RELEASE  -
|  1> ! r2scan-3c def2/J RI DEFGRID2 scfconv6 printgap
|  2> %output
|  3>     printlevel normal
|  4> end
|  5> %cpcm
|  6>     smd true
|  7>     smdsolvent "water"
|  8> end
|  9> * xyz 0 1
| 10> C 1.2641788833 -0.701794344 -6.025e-07
| 11> C -6.253e-06 0.1030989048 1.394e-07
| 12> C -9.36253e-05 1.4263362721 -1.7729e-06
| 13> C -1.2640876965 -0.7019482731 4.822e-07
| 14> H 1.299749791 -1.3433736433 0.8793435691
| 15> H 1.2996313782 -1.3435735639 -0.8792030567
| 16> H 2.1393093643 -0.0579868302 -0.0001276519
| 17> H -0.9140980259 1.9962668256 8.2716e-06
| 18> H 0.9138347522 1.9963854831 5.5756e-06
| 19> H -1.2994562136 -1.3437189779 0.8792134984
| 20> H -2.1392895533 -0.0582385646 0.0001302932
| 21> H -1.2995779239 -1.3435274775 -0.879349602
| 22> *
| 23>
| 24>                          ****END OF INPUT****

CARTESIAN COORDINATES (ANGSTROEM)
---------------------------------
  C      1.264179   -0.701794   -0.000001
  C     -0.000006    0.103099    0.000000
  C     -0.000094    1.426336   -0.000002
  C     -1.264088   -0.701948    0.000000
  H      1.299750   -1.343374    0.879344
  H      1.299631   -1.343574   -0.879203
  H      2.139309   -0.057987   -0.000128
  H     -0.914098    1.996267    0.000008
  H      0.913835    1.996385    0.000006
  H     -1.299456   -1.343719    0.879213
  H     -2.139290   -0.058239    0.000130
  H     -1.299578   -1.343527   -0.879350

 Total Charge           Charge          ....    0
 Multiplicity           Mult            ....    1
 Number of Electrons    NEL             ....   32
 Basis Dimension        Dim             ....  116

ORBITAL ENERGIES
----------------

  NO   OCC          E(Eh)            E(eV)
   0   2.0000     -10.039224      -273.1812
   1   2.0000     -10.014761      -272.5155
   2   2.0000     -10.014750      -272.5152
   3   2.0000     -10.005726      -272.2696
   4   2.0000      -0.772610       -21.0238
   5   2.0000      -0.654138       -17.8000
   6   2.0000      -0.644656       -17.5420
   7   2.0000      -0.487422       -13.2634
   8   2.0000      -0.416885       -11.3440
   9   2.0000      -0.408420       -11.1137
  10   2.0000      -0.398488       -10.8434
  11   2.0000      -0.349425        -9.5083
  12   2.0000      -0.331479        -9.0200
  13   2.0000      -0.328156        -8.9296
  14   2.0000      -0.300978        -8.1900
  15   2.0000      -0.225301        -6.1308
  16   0.0000      -0.002984        -0.0812
  17   0.0000       0.103873         2.8265
  18   0.0000       0.132434         3.6037
  19   0.0000       0.146632         3.9901
  20   0.0000       0.147249         4.0069

MULLIKEN ATOMIC CHARGES
-----------------------
   0 C :   -0.494247
   1 C :    0.127944
   2 C :   -0.474295
   3 C :   -0.494246
   4 H :    0.169486
   5 H :    0.169472
   6 H :    0.163865
   7 H :    0.164600
   8 H :    0.164600
   9 H :    0.169472
  10 H :    0.163864
  11 H :    0.169485
Sum of atomic charges:   -0.0000000

LOEWDIN ATOMIC CHARGES
----------------------
   0 C :   -0.405374
   1 C :   -0.138696
   2 C :   -0.369710
   3 C :   -0.405373
   4 H :    0.167492
   5 H :    0.167490
   6 H :    0.162474
   7 H :    0.162121
   8 H :    0.162120
   9 H :    0.167490
  10 H :    0.162474
  11 H :    0.167493

  Mayer bond orders larger than 0.100000
B(  0-C ,  1-C ) :   0.8781 B(  0-C ,  4-H ) :   0.9662 B(  0-C ,  5-H ) :   0.9662
B(  0-C ,  6-H ) :   0.9857 B(  1-C ,  2-C ) :   1.8473 B(  1-C ,  3-C ) :   0.8781
B(  2-C ,  7-H ) :   0.9781 B(  2-C ,  8-H ) :   0.9781 B(  3-C ,  9-H ) :   0.9662
B(  3-C , 10-H ) :   0.9857 B(  3-C , 11-H ) :   0.9662

Dispersion correction           -0.002338992
FINAL SINGLE POINT ENERGY      -157.163618095455

DIPOLE MOMENT
-------------

Method             : SCF
Type of density    : Electron Density
Multiplicity       :   1
Irrep              :   0
Energy             :  -157.1662843095055848 Eh
Relativity type    :
Basis              : AO
                                X                 Y                 Z
Electronic contribution:     -0.000070487       1.010084695      -0.000009963
Nuclear contribution   :      0.000097165      -1.405162010       0.000019605
                        -----------------------------------------
Total Dipole Moment    :      0.000026679      -0.395077316       0.000009643
                        -----------------------------------------
Magnitude (a.u.)       :      0.395077317
Magnitude (Debye)      :      1.004206733

Rotational constants in cm-1:             0.307432             0.284634             0.156343
Rotational constants in MHz :          9216.570890          8533.126160          4687.039952

                             ****ORCA TERMINATED NORMALLY****
TOTAL RUN TIME: 0 days 0 hours 0 minutes 11 seconds 758 msec
