                         Program Version 6.0.0  -   RELEASE  -
|  1> ! pbe def2-sv(p) def2/J RI DEFGRID1 loosescf d4 GCP(DFT/SV(P)) printgap
|  2> %output
|  3>     printlevel normal
|  4> end
|  5> * xyz 0 1
|  6> C 4.6774355104 -2.0066106416 -0.3674662981
|  7> C 4.0296684056 -1.6752158556 0.9608204919
|  8> O 3.3396151507 -0.4107097553 0.9493558912
|  9> P 2.2547306666 0.0407261602 -0.1165882984
| 10> S 2.8956439289 0.6732197534 -1.8635976276
| 11> O 1.4760398938 1.1357387268 0.7370471451
| 12> C 1.6641234015 2.5463961365 0.5341005908
| 13> C 2.9796076704 3.0056836201 1.1260334675
| 14> S 0.8771895957 -1.5592536367 -0.1235772134
| 15> C -0.0512763585 -1.0410102328 -1.5900368849
| 16> S -0.7366111169 0.6435791813 -1.4795772034
| 17> P -2.3783243443 0.2693315647 -0.2027421813
| 18> S -3.3629691473 1.8540183038 0.3888019375
| 19> O -1.8299802084 -0.6564208989 0.969335968
| 20> C -1.3563712844 -0.1515852498 2.2299794791
| 21> C -1.4424832525 -1.2809867955 3.2364955132
| 22> O -3.1532681165 -0.7796015443 -1.1020115345
| 23> C -4.5560674184 -1.0594005122 -0.9037004281
| 24> C -4.8184592831 -1.7216631016 0.4320248383
| 25> H 3.9156680305 -2.1444584228 -1.1336213242
| 26> H 5.3370318876 -1.2007913987 -0.6807887202
| 27> H 5.2509739293 -2.9227583758 -0.2699357387
| 28> H 4.7748063741 -1.552205226 1.7488014951
| 29> H 3.3119984685 -2.4496143326 1.2453169494
| 30> H 1.6225314838 2.7553599647 -0.5405517242
| 31> H 0.8066477798 3.0091044109 1.0261867476
| 32> H 3.8015864811 2.5112808217 0.609030107
| 33> H 3.076611698 4.079773156 1.0044944916
| 34> H 3.0253863806 2.7517422686 2.1815322684
| 35> H -0.8564650005 -1.7566806604 -1.7301452162
| 36> H 0.6195113443 -1.0178622897 -2.4481624228
| 37> H -0.323267489 0.1854855862 2.1043965325
| 38> H -1.9770667942 0.7035041121 2.518876677
| 39> H -0.8528115335 -2.124871081 2.8891707525
| 40> H -1.0546517275 -0.9372638172 4.1896733289
| 41> H -2.4742989835 -1.5966630452 3.3614089152
| 42> H -5.1088391722 -0.1184415646 -0.9841278345
| 43> H -4.8094698973 -1.7123437767 -1.7399187037
| 44> H -5.8626294108 -2.0129151112 0.4893662944
| 45> H -4.1892508882 -2.6003302725 0.5474841668
| 46> H -4.6025745788 -1.0215618788 1.2380520927
| 47> *
| 48>
| 49>                          ****END OF INPUT****

CARTESIAN COORDINATES (ANGSTROEM)
---------------------------------
  C      4.677436   -2.006611   -0.367466
  C      4.029668   -1.675216    0.960820
  O      3.339615   -0.410710    0.949356
  P      2.254731    0.040726   -0.116588
  S      2.895644    0.673220   -1.863598
  O      1.476040    1.135739    0.737047
  C      1.664123    2.546396    0.534101
  C      2.979608    3.005684    1.126033
  S      0.877190   -1.559254   -0.123577
  C     -0.051276   -1.041010   -1.590037
  S     -0.736611    0.643579   -1.479577
  P     -2.378324    0.269332   -0.202742
  S     -3.362969    1.854018    0.388802
  O     -1.829980   -0.656421    0.969336
  C     -1.356371   -0.151585    2.229979
  C     -1.442483   -1.280987    3.236496
  O     -3.153268   -0.779602   -1.102012
  C     -4.556067   -1.059401   -0.903700
  C     -4.818459   -1.721663    0.432025
  H      3.915668   -2.144458   -1.133621
  H      5.337032   -1.200791   -0.680789
  H      5.250974   -2.922758   -0.269936
  H      4.774806   -1.552205    1.748801
  H      3.311998   -2.449614    1.245317
  H      1.622531    2.755360   -0.540552
  H      0.806648    3.009104    1.026187
  H      3.801586    2.511281    0.609030
  H      3.076612    4.079773    1.004494
  H      3.025386    2.751742    2.181532
  H     -0.856465   -1.756681   -1.730145
  H      0.619511   -1.017862   -2.448162
  H     -0.323267    0.185486    2.104397
  H     -1.977067    0.703504    2.518877
  H     -0.852812   -2.124871    2.889171
  H     -1.054652   -0.937264    4.189673
  H     -2.474299   -1.596663    3.361409
  H     -5.108839   -0.118442   -0.984128
  H     -4.809470   -1.712344   -1.739919
  H     -5.862629   -2.012915    0.489366
  H     -4.189251   -2.600330    0.547484
  H     -4.602575   -1.021562    1.238052

 Total Charge           Charge          ....    0
 Multiplicity           Mult            ....    1
 Number of Electrons    NEL             ....  202
 Basis Dimension        Dim             ....  334

ORBITAL ENERGIES
----------------

  NO   OCC          E(Eh)            E(eV)
   0   2.0000     -88.047740     -2395.9008
   1   2.0000     -88.039937     -2395.6885
   2   2.0000     -87.990590     -2394.3457
   3   2.0000     -87.986547     -2394.2357
   4   2.0000     -76.431333     -2079.8023
   5   2.0000     -76.424107     -2079.6057
   6   2.0000     -18.798049      -511.5209
   7   2.0000     -18.792831      -511.3789
   8   2.0000     -18.789803      -511.2965
   9   2.0000     -18.789719      -511.2943
  10   2.0000      -9.962812      -271.1019
  11   2.0000      -9.959946      -271.0239
  12   2.0000      -9.954356      -270.8718
  13   2.0000      -9.945801      -270.6390
  14   2.0000      -9.943887      -270.5869
  15   2.0000      -9.887347      -269.0484
  16   2.0000      -9.886251      -269.0186
  17   2.0000      -9.884094      -268.9599
  18   2.0000      -9.880362      -268.8583
  19   2.0000      -7.692784      -209.3313
  20   2.0000      -7.684936      -209.1177
  21   2.0000      -7.635469      -207.7717
  22   2.0000      -7.631748      -207.6704
  23   2.0000      -6.428298      -174.9229
  24   2.0000      -6.422132      -174.7551
  25   2.0000      -5.720547      -155.6640
  26   2.0000      -5.717276      -155.5750
  27   2.0000      -5.713220      -155.4646
  28   2.0000      -5.709838      -155.3726
  29   2.0000      -5.709294      -155.3578
  30   2.0000      -5.701634      -155.1493
  31   2.0000      -5.664381      -154.1356
  32   2.0000      -5.660615      -154.0332
  33   2.0000      -5.656152      -153.9117
  34   2.0000      -5.655623      -153.8973
  35   2.0000      -5.652358      -153.8085
  36   2.0000      -5.651983      -153.7983
  37   2.0000      -4.650752      -126.5534
  38   2.0000      -4.650251      -126.5398
  39   2.0000      -4.648785      -126.4999
  40   2.0000      -4.644485      -126.3829
  41   2.0000      -4.644125      -126.3731
  42   2.0000      -4.642543      -126.3300
  43   2.0000      -0.989415       -26.9234
  44   2.0000      -0.986155       -26.8347
  45   2.0000      -0.947276       -25.7767
  46   2.0000      -0.944384       -25.6980
  47   2.0000      -0.766210       -20.8496
  48   2.0000      -0.723784       -19.6952
  49   2.0000      -0.710109       -19.3231
  50   2.0000      -0.687747       -18.7145
  51   2.0000      -0.687560       -18.7095
  52   2.0000      -0.673737       -18.3333
  53   2.0000      -0.655507       -17.8373
  54   2.0000      -0.640429       -17.4269
  55   2.0000      -0.600584       -16.3427
  56   2.0000      -0.595833       -16.2134
  57   2.0000      -0.576401       -15.6847
  58   2.0000      -0.566009       -15.4019
  59   2.0000      -0.563716       -15.3395
  60   2.0000      -0.503138       -13.6911
  61   2.0000      -0.494801       -13.4642
  62   2.0000      -0.477886       -13.0040
  63   2.0000      -0.471416       -12.8279
  64   2.0000      -0.462827       -12.5942
  65   2.0000      -0.449058       -12.2195
  66   2.0000      -0.438227       -11.9248
  67   2.0000      -0.432521       -11.7695
  68   2.0000      -0.426492       -11.6054
  69   2.0000      -0.419371       -11.4117
  70   2.0000      -0.414801       -11.2873
  71   2.0000      -0.400448       -10.8967
  72   2.0000      -0.392850       -10.6900
  73   2.0000      -0.388964       -10.5842
  74   2.0000      -0.380408       -10.3514
  75   2.0000      -0.377395       -10.2694
  76   2.0000      -0.365578        -9.9479
  77   2.0000      -0.357226        -9.7206
  78   2.0000      -0.354791        -9.6544
  79   2.0000      -0.350992        -9.5510
  80   2.0000      -0.349084        -9.4991
  81   2.0000      -0.346688        -9.4339
  82   2.0000      -0.343981        -9.3602
  83   2.0000      -0.341845        -9.3021
  84   2.0000      -0.332248        -9.0409
  85   2.0000      -0.321482        -8.7480
  86   2.0000      -0.312875        -8.5138
  87   2.0000      -0.300752        -8.1839
  88   2.0000      -0.295520        -8.0415
  89   2.0000      -0.289330        -7.8731
  90   2.0000      -0.285891        -7.7795
  91   2.0000      -0.278392        -7.5754
  92   2.0000      -0.274889        -7.4801
  93   2.0000      -0.267349        -7.2749
  94   2.0000      -0.254996        -6.9388
  95   2.0000      -0.233069        -6.3421
  96   2.0000      -0.218409        -5.9432
  97   2.0000      -0.207775        -5.6538
  98   2.0000      -0.206957        -5.6316
  99   2.0000      -0.205402        -5.5893
 100   2.0000      -0.201265        -5.4767
 101   0.0000      -0.045462        -1.2371
 102   0.0000      -0.017455        -0.4750
 103   0.0000      -0.012909        -0.3513
 104   0.0000      -0.000091        -0.0025
 105   0.0000       0.008623         0.2346

MULLIKEN ATOMIC CHARGES
-----------------------
   0 C :   -0.311122
   1 C :   -0.011687
   2 O :   -0.371169
   3 P :    0.610785
   4 S :   -0.323538
   5 O :   -0.359953
   6 C :   -0.008891
   7 C :   -0.298510
   8 S :   -0.094263
   9 C :   -0.350145
  10 S :   -0.061786
  11 P :    0.616177
  12 S :   -0.328025
  13 O :   -0.380701
  14 C :   -0.025876
  15 C :   -0.284419
  16 O :   -0.381408
  17 C :   -0.002233
  18 C :   -0.313533
  19 H :    0.125421
  20 H :    0.127834
  21 H :    0.112727
  22 H :    0.111325
  23 H :    0.113321
  24 H :    0.118193
  25 H :    0.107630
  26 H :    0.120312
  27 H :    0.112151
  28 H :    0.111899
  29 H :    0.187775
  30 H :    0.194742
  31 H :    0.121050
  32 H :    0.105040
  33 H :    0.111400
  34 H :    0.108933
  35 H :    0.113286
  36 H :    0.114764
  37 H :    0.105785
  38 H :    0.113165
  39 H :    0.116442
  40 H :    0.127103
Sum of atomic charges:    0.0000000

LOEWDIN ATOMIC CHARGES
----------------------
   0 C :   -0.369729
   1 C :   -0.113435
   2 O :   -0.243354
   3 P :    0.571232
   4 S :   -0.314211
   5 O :   -0.235848
   6 C :   -0.122809
   7 C :   -0.362466
   8 S :    0.087685
   9 C :   -0.474444
  10 S :    0.101011
  11 P :    0.564476
  12 S :   -0.323893
  13 O :   -0.245512
  14 C :   -0.130220
  15 C :   -0.350783
  16 O :   -0.249085
  17 C :   -0.114135
  18 C :   -0.366799
  19 H :    0.120903
  20 H :    0.130438
  21 H :    0.130658
  22 H :    0.122533
  23 H :    0.109411
  24 H :    0.109331
  25 H :    0.118961
  26 H :    0.122075
  27 H :    0.130439
  28 H :    0.124171
  29 H :    0.135483
  30 H :    0.134979
  31 H :    0.108821
  32 H :    0.105279
  33 H :    0.123468
  34 H :    0.129390
  35 H :    0.123734
  36 H :    0.113924
  37 H :    0.119104
  38 H :    0.130963
  39 H :    0.125726
  40 H :    0.122529

  Mayer bond orders larger than 0.100000
B(  0-C ,  1-C ) :   1.1643 B(  0-C , 19-H ) :   0.9331 B(  0-C , 20-H ) :   0.9425
B(  0-C , 21-H ) :   0.9347 B(  1-C ,  2-O ) :   0.9132 B(  1-C , 22-H ) :   0.9340
B(  1-C , 23-H ) :   0.9281 B(  2-O ,  3-P ) :   1.1183 B(  3-P ,  4-S ) :   1.5975
B(  3-P ,  5-O ) :   1.0994 B(  3-P ,  8-S ) :   0.9599 B(  4-S ,  8-S ) :   0.1095
B(  5-O ,  6-C ) :   0.8950 B(  6-C ,  7-C ) :   1.1633 B(  6-C , 24-H ) :   0.9108
B(  6-C , 25-H ) :   0.9318 B(  7-C , 26-H ) :   0.9370 B(  7-C , 27-H ) :   0.9408
B(  7-C , 28-H ) :   0.9472 B(  8-S ,  9-C ) :   0.9933 B(  9-C , 10-S ) :   0.9923
B(  9-C , 29-H ) :   0.8973 B(  9-C , 30-H ) :   0.8886 B( 10-S , 11-P ) :   0.9732
B( 11-P , 12-S ) :   1.6450 B( 11-P , 13-O ) :   1.0962 B( 11-P , 16-O ) :   1.1000
B( 13-O , 14-C ) :   0.8908 B( 14-C , 15-C ) :   1.1609 B( 14-C , 31-H ) :   0.9067
B( 14-C , 32-H ) :   0.9101 B( 15-C , 33-H ) :   0.9495 B( 15-C , 34-H ) :   0.9426
B( 15-C , 35-H ) :   0.9514 B( 16-O , 17-C ) :   0.9066 B( 17-C , 18-C ) :   1.1629
B( 17-C , 36-H ) :   0.9198 B( 17-C , 37-H ) :   0.9359 B( 18-C , 38-H ) :   0.9371
B( 18-C , 39-H ) :   0.9455 B( 18-C , 40-H ) :   0.9333

Dispersion correction           -0.065881104
FINAL SINGLE POINT ENERGY     -2929.522276778113

DIPOLE MOMENT
-------------

Method             : SCF
Type of density    : Electron Density
Multiplicity       :   1
Irrep              :   0
Energy             : -2929.6421342953208296 Eh
Relativity type    :
Basis              : AO
                                X                 Y                 Z
Electronic contribution:     -3.050917971       7.554680815     -14.170357691
Nuclear contribution   :      3.336677261      -8.939609480      15.057810968
                        -----------------------------------------
Total Dipole Moment    :      0.285759290      -1.384928666       0.887453278
                        -----------------------------------------
Magnitude (a.u.)       :      1.669508641
Magnitude (Debye)      :      4.243553724

Rotational constants in cm-1:             0.013096             0.004863             0.004689
Rotational constants in MHz :           392.620900           145.794453           140.571994

                             ****ORCA TERMINATED NORMALLY****
TOTAL RUN TIME: 0 days 0 hours 0 minutes 21 seconds 756 msec
