                         Program Version 6.0.0  -   RELEASE  -
|  1> ! pbe def2-sv(p) def2/J RI DEFGRID1 loosescf d4 GCP(DFT/SV(P)) printgap
|  2> %output
|  3>     printlevel normal
|  4> end
|  5> * xyz 0 1
|  6> C 2.4282597571 -0.2964677722 -3.0761218359
|  7> C 2.7610871418 0.9096882517 -2.2250967548
|  8> O 2.0823007091 0.8822229777 -0.9530097082
|  9> P 2.3996858797 -0.2254351406 0.1375398472
| 10> S 4.2436698024 -0.8768559513 0.2059042727
| 11> O 1.3044562982 -1.3446074033 -0.1743281428
| 12> C 1.4745496411 -2.6952837184 0.2885712462
| 13> C 1.2379295658 -2.8140495805 1.7809021772
| 14> S 1.7184292189 0.8044334452 1.8480601834
| 15> C 0.0729754794 1.338707161 1.2926166488
| 16> S -1.1948191962 0.0414656768 1.4493802302
| 17> P -2.1720399809 0.4560266446 -0.4005862682
| 18> S -1.1097522264 0.3900150782 -2.0379661048
| 19> O -2.7831065968 1.896299882 -0.1876642986
| 20> C -3.7503089789 2.1922649217 0.853767828
| 21> C -3.6272284127 3.6606577611 1.2038163713
| 22> O -3.4637462791 -0.4698398242 -0.3564544818
| 23> C -3.470447259 -1.8223959803 -0.8484626862
| 24> C -2.5232505138 -2.7121747607 -0.0714885853
| 25> H 2.8805609808 -0.1806915236 -4.0557962403
| 26> H 2.8188831883 -1.199116154 -2.6078793455
| 27> H 1.3496751132 -0.3897618429 -3.1830448251
| 28> H 2.4107683242 1.8349514967 -2.6844517613
| 29> H 3.8377756219 0.9662607035 -2.0357588025
| 30> H 0.7490309924 -3.2710392684 -0.2878275466
| 31> H 2.4891413932 -3.0204404038 0.0352153369
| 32> H 0.2603958256 -2.4190226087 2.0470383368
| 33> H 1.2966210506 -3.8580623394 2.0704948354
| 34> H 2.0013234338 -2.2533951401 2.3203914841
| 35> H 0.1284114994 1.6529496471 0.2504708309
| 36> H -0.1892129612 2.1657126525 1.9474607393
| 37> H -4.7386190646 1.9559371774 0.4563221006
| 38> H -3.5465215082 1.551793876 1.7166932253
| 39> H -2.6399403293 3.8762866485 1.6033070022
| 40> H -3.783503004 4.2679975109 0.316802264
| 41> H -4.375883159 3.9126172369 1.9479144862
| 42> H -4.50924944 -2.1351738524 -0.7336048794
| 43> H -3.200880779 -1.8047810247 -1.9089350288
| 44> H -2.6280185364 -3.7372390862 -0.4120838686
| 45> H -1.4981206223 -2.3847913644 -0.2395786878
| 46> H -2.7399846698 -2.659726188 0.9927250898
| 47> *
| 48>
| 49>                          ****END OF INPUT****

CARTESIAN COORDINATES (ANGSTROEM)
---------------------------------
  C      2.428260   -0.296468   -3.076122
  C      2.761087    0.909688   -2.225097
  O      2.082301    0.882223   -0.953010
  P      2.399686   -0.225435    0.137540
  S      4.243670   -0.876856    0.205904
  O      1.304456   -1.344607   -0.174328
  C      1.474550   -2.695284    0.288571
  C      1.237930   -2.814050    1.780902
  S      1.718429    0.804433    1.848060
  C      0.072975    1.338707    1.292617
  S     -1.194819    0.041466    1.449380
  P     -2.172040    0.456027   -0.400586
  S     -1.109752    0.390015   -2.037966
  O     -2.783107    1.896300   -0.187664
  C     -3.750309    2.192265    0.853768
  C     -3.627228    3.660658    1.203816
  O     -3.463746   -0.469840   -0.356454
  C     -3.470447   -1.822396   -0.848463
  C     -2.523251   -2.712175   -0.071489
  H      2.880561   -0.180692   -4.055796
  H      2.818883   -1.199116   -2.607879
  H      1.349675   -0.389762   -3.183045
  H      2.410768    1.834951   -2.684452
  H      3.837776    0.966261   -2.035759
  H      0.749031   -3.271039   -0.287828
  H      2.489141   -3.020440    0.035215
  H      0.260396   -2.419023    2.047038
  H      1.296621   -3.858062    2.070495
  H      2.001323   -2.253395    2.320391
  H      0.128411    1.652950    0.250471
  H     -0.189213    2.165713    1.947461
  H     -4.738619    1.955937    0.456322
  H     -3.546522    1.551794    1.716693
  H     -2.639940    3.876287    1.603307
  H     -3.783503    4.267998    0.316802
  H     -4.375883    3.912617    1.947914
  H     -4.509249   -2.135174   -0.733605
  H     -3.200881   -1.804781   -1.908935
  H     -2.628019   -3.737239   -0.412084
  H     -1.498121   -2.384791   -0.239579
  H     -2.739985   -2.659726    0.992725

 Total Charge           Charge          ....    0
 Multiplicity           Mult            ....    1
 Number of Electrons    NEL             ....  202
 Basis Dimension        Dim             ....  334

ORBITAL ENERGIES
----------------

  NO   OCC          E(Eh)            E(eV)
   0   2.0000     -88.044923     -2395.8242
   1   2.0000     -88.042884     -2395.7687
   2   2.0000     -87.987821     -2394.2703
   3   2.0000     -87.986017     -2394.2212
   4   2.0000     -76.429511     -2079.7527
   5   2.0000     -76.422819     -2079.5706
   6   2.0000     -18.800776      -511.5951
   7   2.0000     -18.795295      -511.4460
   8   2.0000     -18.785767      -511.1867
   9   2.0000     -18.784798      -511.1603
  10   2.0000      -9.960978      -271.0520
  11   2.0000      -9.959255      -271.0051
  12   2.0000      -9.959235      -271.0046
  13   2.0000      -9.946356      -270.6541
  14   2.0000      -9.945193      -270.6225
  15   2.0000      -9.894650      -269.2471
  16   2.0000      -9.893104      -269.2050
  17   2.0000      -9.878001      -268.7941
  18   2.0000      -9.873594      -268.6741
  19   2.0000      -7.689618      -209.2451
  20   2.0000      -7.688327      -209.2100
  21   2.0000      -7.632919      -207.7023
  22   2.0000      -7.631164      -207.6545
  23   2.0000      -6.426962      -174.8865
  24   2.0000      -6.420644      -174.7146
  25   2.0000      -5.717472      -155.5803
  26   2.0000      -5.716635      -155.5575
  27   2.0000      -5.714231      -155.4921
  28   2.0000      -5.712573      -155.4470
  29   2.0000      -5.706558      -155.2833
  30   2.0000      -5.705080      -155.2431
  31   2.0000      -5.661886      -154.0677
  32   2.0000      -5.660119      -154.0197
  33   2.0000      -5.653700      -153.8450
  34   2.0000      -5.652832      -153.8214
  35   2.0000      -5.651837      -153.7943
  36   2.0000      -5.651241      -153.7781
  37   2.0000      -4.650055      -126.5344
  38   2.0000      -4.648645      -126.4961
  39   2.0000      -4.647032      -126.4522
  40   2.0000      -4.642898      -126.3397
  41   2.0000      -4.642581      -126.3310
  42   2.0000      -4.641234      -126.2944
  43   2.0000      -0.993563       -27.0362
  44   2.0000      -0.980116       -26.6703
  45   2.0000      -0.950474       -25.8637
  46   2.0000      -0.940223       -25.5848
  47   2.0000      -0.762971       -20.7615
  48   2.0000      -0.724967       -19.7273
  49   2.0000      -0.708369       -19.2757
  50   2.0000      -0.696857       -18.9624
  51   2.0000      -0.681158       -18.5352
  52   2.0000      -0.674827       -18.3630
  53   2.0000      -0.654535       -17.8108
  54   2.0000      -0.639523       -17.4023
  55   2.0000      -0.600057       -16.3284
  56   2.0000      -0.592255       -16.1161
  57   2.0000      -0.577451       -15.7132
  58   2.0000      -0.565830       -15.3970
  59   2.0000      -0.561228       -15.2718
  60   2.0000      -0.511501       -13.9187
  61   2.0000      -0.487806       -13.2739
  62   2.0000      -0.480198       -13.0669
  63   2.0000      -0.467716       -12.7272
  64   2.0000      -0.459491       -12.5034
  65   2.0000      -0.449480       -12.2310
  66   2.0000      -0.445418       -12.1204
  67   2.0000      -0.435420       -11.8484
  68   2.0000      -0.434210       -11.8155
  69   2.0000      -0.419919       -11.4266
  70   2.0000      -0.408617       -11.1190
  71   2.0000      -0.397614       -10.8196
  72   2.0000      -0.394864       -10.7448
  73   2.0000      -0.388178       -10.5629
  74   2.0000      -0.386770       -10.5246
  75   2.0000      -0.371689       -10.1142
  76   2.0000      -0.364932        -9.9303
  77   2.0000      -0.363006        -9.8779
  78   2.0000      -0.359223        -9.7749
  79   2.0000      -0.350309        -9.5324
  80   2.0000      -0.347441        -9.4544
  81   2.0000      -0.345802        -9.4097
  82   2.0000      -0.340784        -9.2732
  83   2.0000      -0.335024        -9.1165
  84   2.0000      -0.326845        -8.8939
  85   2.0000      -0.318541        -8.6679
  86   2.0000      -0.316177        -8.6036
  87   2.0000      -0.307100        -8.3566
  88   2.0000      -0.299878        -8.1601
  89   2.0000      -0.290840        -7.9142
  90   2.0000      -0.282014        -7.6740
  91   2.0000      -0.273698        -7.4477
  92   2.0000      -0.268609        -7.3092
  93   2.0000      -0.266027        -7.2390
  94   2.0000      -0.262058        -7.1310
  95   2.0000      -0.229969        -6.2578
  96   2.0000      -0.219063        -5.9610
  97   2.0000      -0.210665        -5.7325
  98   2.0000      -0.207675        -5.6511
  99   2.0000      -0.201964        -5.4957
 100   2.0000      -0.197289        -5.3685
 101   0.0000      -0.041432        -1.1274
 102   0.0000      -0.030027        -0.8171
 103   0.0000      -0.020662        -0.5622
 104   0.0000       0.000876         0.0238
 105   0.0000       0.018479         0.5028

MULLIKEN ATOMIC CHARGES
-----------------------
   0 C :   -0.321337
   1 C :    0.003988
   2 O :   -0.375034
   3 P :    0.623005
   4 S :   -0.321976
   5 O :   -0.369206
   6 C :   -0.014367
   7 C :   -0.317343
   8 S :   -0.076471
   9 C :   -0.362376
  10 S :   -0.094018
  11 P :    0.581341
  12 S :   -0.298651
  13 O :   -0.364978
  14 C :   -0.012004
  15 C :   -0.283222
  16 O :   -0.383199
  17 C :    0.009873
  18 C :   -0.370672
  19 H :    0.107791
  20 H :    0.118065
  21 H :    0.137625
  22 H :    0.105620
  23 H :    0.110431
  24 H :    0.108847
  25 H :    0.113629
  26 H :    0.127482
  27 H :    0.107719
  28 H :    0.121206
  29 H :    0.209833
  30 H :    0.186632
  31 H :    0.109714
  32 H :    0.101643
  33 H :    0.115644
  34 H :    0.124884
  35 H :    0.112959
  36 H :    0.107417
  37 H :    0.112840
  38 H :    0.118310
  39 H :    0.164848
  40 H :    0.123507
Sum of atomic charges:   -0.0000000

LOEWDIN ATOMIC CHARGES
----------------------
   0 C :   -0.369638
   1 C :   -0.113275
   2 O :   -0.239805
   3 P :    0.574819
   4 S :   -0.317133
   5 O :   -0.239708
   6 C :   -0.123785
   7 C :   -0.370475
   8 S :    0.091784
   9 C :   -0.477447
  10 S :    0.074937
  11 P :    0.568022
  12 S :   -0.296443
  13 O :   -0.243514
  14 C :   -0.117950
  15 C :   -0.350391
  16 O :   -0.247890
  17 C :   -0.113373
  18 C :   -0.376440
  19 H :    0.128861
  20 H :    0.120112
  21 H :    0.124010
  22 H :    0.120203
  23 H :    0.110562
  24 H :    0.114482
  25 H :    0.107527
  26 H :    0.118052
  27 H :    0.128587
  28 H :    0.121109
  29 H :    0.132138
  30 H :    0.134587
  31 H :    0.117421
  32 H :    0.102354
  33 H :    0.125000
  34 H :    0.131364
  35 H :    0.131410
  36 H :    0.119881
  37 H :    0.114604
  38 H :    0.133555
  39 H :    0.126873
  40 H :    0.125013

  Mayer bond orders larger than 0.100000
B(  0-C ,  1-C ) :   1.1656 B(  0-C , 19-H ) :   0.9371 B(  0-C , 20-H ) :   0.9342
B(  0-C , 21-H ) :   0.9359 B(  1-C ,  2-O ) :   0.8996 B(  1-C , 22-H ) :   0.9334
B(  1-C , 23-H ) :   0.9211 B(  2-O ,  3-P ) :   1.1117 B(  3-P ,  4-S ) :   1.6316
B(  3-P ,  5-O ) :   1.0904 B(  3-P ,  8-S ) :   0.9655 B(  5-O ,  6-C ) :   0.9046
B(  6-C ,  7-C ) :   1.1689 B(  6-C , 24-H ) :   0.9219 B(  6-C , 25-H ) :   0.9116
B(  7-C , 26-H ) :   0.9382 B(  7-C , 27-H ) :   0.9386 B(  7-C , 28-H ) :   0.9357
B(  8-S ,  9-C ) :   1.0011 B(  9-C , 10-S ) :   0.9712 B(  9-C , 29-H ) :   0.8611
B(  9-C , 30-H ) :   0.9074 B( 10-S , 11-P ) :   0.9547 B( 10-S , 12-S ) :   0.1104
B( 11-P , 12-S ) :   1.6547 B( 11-P , 13-O ) :   1.1142 B( 11-P , 16-O ) :   1.0860
B( 13-O , 14-C ) :   0.8928 B( 14-C , 15-C ) :   1.1622 B( 14-C , 31-H ) :   0.9315
B( 14-C , 32-H ) :   0.9076 B( 15-C , 33-H ) :   0.9497 B( 15-C , 34-H ) :   0.9488
B( 15-C , 35-H ) :   0.9408 B( 16-O , 17-C ) :   0.9054 B( 17-C , 18-C ) :   1.1634
B( 17-C , 36-H ) :   0.9337 B( 17-C , 37-H ) :   0.9196 B( 18-C , 38-H ) :   0.9360
B( 18-C , 39-H ) :   0.9169 B( 18-C , 40-H ) :   0.9408

Dispersion correction           -0.066442828
FINAL SINGLE POINT ENERGY     -2929.517720226265

DIPOLE MOMENT
-------------

Method             : SCF
Type of density    : Electron Density
Multiplicity       :   1
Irrep              :   0
Energy             : -2929.6382203202524579 Eh
Relativity type    :
Basis              : AO
                                X                 Y                 Z
Electronic contribution:     11.246345804       6.680712977       2.413210679
Nuclear contribution   :    -13.136428977      -6.890127536      -2.125149263
                        -----------------------------------------
Total Dipole Moment    :     -1.890083173      -0.209414559       0.288061416
                        -----------------------------------------
Magnitude (a.u.)       :      1.923342985
Magnitude (Debye)      :      4.888749352

Rotational constants in cm-1:             0.011606             0.005278             0.005098
Rotational constants in MHz :           347.939184           158.221717           152.848322

                             ****ORCA TERMINATED NORMALLY****
TOTAL RUN TIME: 0 days 0 hours 0 minutes 21 seconds 961 msec
