                         Program Version 6.0.0  -   RELEASE  -
|  1> ! pbe def2-sv(p) def2/J RI DEFGRID1 loosescf d4 GCP(DFT/SV(P)) printgap
|  2> %output
|  3>     printlevel normal
|  4> end
|  5> * xyz 0 1
|  6> C 1.4437114464 -0.3832596665 -2.8861734114
|  7> C 2.4993915815 0.2638929886 -2.0117935063
|  8> O 2.8880821351 -0.6177184874 -0.9438895299
|  9> P 2.3629528764 -0.5021834582 0.5509216436
| 10> S 2.4657990746 1.2840778919 1.3629367672
| 11> O 3.2315200377 -1.6109840667 1.2721757346
| 12> C 4.5104663956 -1.3214675112 1.8729807014
| 13> C 5.5636029318 -1.0005475137 0.8336601742
| 14> S 0.5083080812 -1.5049426868 0.576420403
| 15> C -0.3358234966 -0.5127719758 1.8610122321
| 16> S -2.1007682649 -0.3792514436 1.5326929405
| 17> P -1.98334544 0.5506440588 -0.3882609199
| 18> S -0.5516632941 1.8619326863 -0.6271623799
| 19> O -3.4593683635 1.1060471512 -0.5695275355
| 20> C -3.9359333598 2.228847226 0.2011579227
| 21> C -5.2407754784 2.6913911187 -0.4145206331
| 22> O -1.9104914392 -0.6058826275 -1.4504833641
| 23> C -2.8776714782 -1.6852117499 -1.5265564616
| 24> C -3.9194983164 -1.3905274759 -2.5854623821
| 25> H 1.2636827499 0.2494897373 -3.7493642307
| 26> H 1.7826008194 -1.361644483 -3.2147503799
| 27> H 0.509905284 -0.4972928036 -2.3386428356
| 28> H 2.1396525961 1.2091214978 -1.5912515602
| 29> H 3.4183300164 0.4437884272 -2.5732634115
| 30> H 4.3835853286 -0.483250949 2.5655569878
| 31> H 4.7486026407 -2.2310021939 2.4257694267
| 32> H 6.5288958733 -0.8956415109 1.3189846126
| 33> H 5.6130643342 -1.7933564723 0.0919795239
| 34> H 5.315116295 -0.0654009975 0.3333102595
| 35> H 0.1151769359 0.4838782801 1.8765956275
| 36> H -0.2395510192 -1.0062903605 2.8248783457
| 37> H -4.0745997141 1.8998787882 1.2345779267
| 38> H -3.1760162456 3.0166944622 0.1748195698
| 39> H -5.6211497503 3.5351507235 0.1516320879
| 40> H -5.0807426047 2.9948771041 -1.4452737447
| 41> H -5.9687825528 1.8858459744 -0.3910975842
| 42> H -2.282931531 -2.5647435577 -1.7791732492
| 43> H -3.3356861781 -1.8199139964 -0.543005052
| 44> H -4.5933275433 -2.2378095593 -2.6647478214
| 45> H -4.4866970309 -0.5032663097 -2.3177360151
| 46> H -3.4385832343 -1.2227094269 -3.5450497587
| 47> *
| 48>
| 49>                          ****END OF INPUT****

CARTESIAN COORDINATES (ANGSTROEM)
---------------------------------
  C      1.443711   -0.383260   -2.886173
  C      2.499392    0.263893   -2.011794
  O      2.888082   -0.617718   -0.943890
  P      2.362953   -0.502183    0.550922
  S      2.465799    1.284078    1.362937
  O      3.231520   -1.610984    1.272176
  C      4.510466   -1.321468    1.872981
  C      5.563603   -1.000548    0.833660
  S      0.508308   -1.504943    0.576420
  C     -0.335823   -0.512772    1.861012
  S     -2.100768   -0.379251    1.532693
  P     -1.983345    0.550644   -0.388261
  S     -0.551663    1.861933   -0.627162
  O     -3.459368    1.106047   -0.569528
  C     -3.935933    2.228847    0.201158
  C     -5.240775    2.691391   -0.414521
  O     -1.910491   -0.605883   -1.450483
  C     -2.877671   -1.685212   -1.526556
  C     -3.919498   -1.390527   -2.585462
  H      1.263683    0.249490   -3.749364
  H      1.782601   -1.361644   -3.214750
  H      0.509905   -0.497293   -2.338643
  H      2.139653    1.209121   -1.591252
  H      3.418330    0.443788   -2.573263
  H      4.383585   -0.483251    2.565557
  H      4.748603   -2.231002    2.425769
  H      6.528896   -0.895642    1.318985
  H      5.613064   -1.793356    0.091980
  H      5.315116   -0.065401    0.333310
  H      0.115177    0.483878    1.876596
  H     -0.239551   -1.006290    2.824878
  H     -4.074600    1.899879    1.234578
  H     -3.176016    3.016694    0.174820
  H     -5.621150    3.535151    0.151632
  H     -5.080743    2.994877   -1.445274
  H     -5.968783    1.885846   -0.391098
  H     -2.282932   -2.564744   -1.779173
  H     -3.335686   -1.819914   -0.543005
  H     -4.593328   -2.237810   -2.664748
  H     -4.486697   -0.503266   -2.317736
  H     -3.438583   -1.222709   -3.545050

 Total Charge           Charge          ....    0
 Multiplicity           Mult            ....    1
 Number of Electrons    NEL             ....  202
 Basis Dimension        Dim             ....  334

ORBITAL ENERGIES
----------------

  NO   OCC          E(Eh)            E(eV)
   0   2.0000     -88.046014     -2395.8539
   1   2.0000     -88.036930     -2395.6067
   2   2.0000     -87.982470     -2394.1247
   3   2.0000     -87.981678     -2394.1032
   4   2.0000     -76.427338     -2079.6936
   5   2.0000     -76.419605     -2079.4832
   6   2.0000     -18.798465      -511.5322
   7   2.0000     -18.796592      -511.4813
   8   2.0000     -18.785716      -511.1853
   9   2.0000     -18.781650      -511.0747
  10   2.0000      -9.958489      -270.9842
  11   2.0000      -9.957032      -270.9446
  12   2.0000      -9.951477      -270.7935
  13   2.0000      -9.945598      -270.6335
  14   2.0000      -9.940133      -270.4848
  15   2.0000      -9.892547      -269.1899
  16   2.0000      -9.888969      -269.0925
  17   2.0000      -9.878650      -268.8117
  18   2.0000      -9.868866      -268.5455
  19   2.0000      -7.691018      -209.2832
  20   2.0000      -7.682017      -209.0383
  21   2.0000      -7.627434      -207.5530
  22   2.0000      -7.626628      -207.5311
  23   2.0000      -6.424718      -174.8255
  24   2.0000      -6.417400      -174.6263
  25   2.0000      -5.718848      -155.6178
  26   2.0000      -5.715340      -155.5223
  27   2.0000      -5.709887      -155.3739
  28   2.0000      -5.708286      -155.3304
  29   2.0000      -5.706756      -155.2887
  30   2.0000      -5.698731      -155.0703
  31   2.0000      -5.656454      -153.9199
  32   2.0000      -5.655406      -153.8914
  33   2.0000      -5.647776      -153.6838
  34   2.0000      -5.647742      -153.6829
  35   2.0000      -5.647348      -153.6722
  36   2.0000      -5.646817      -153.6577
  37   2.0000      -4.647575      -126.4670
  38   2.0000      -4.646617      -126.4409
  39   2.0000      -4.644772      -126.3907
  40   2.0000      -4.639729      -126.2534
  41   2.0000      -4.639044      -126.2348
  42   2.0000      -4.638163      -126.2108
  43   2.0000      -0.993378       -27.0312
  44   2.0000      -0.979261       -26.6470
  45   2.0000      -0.950482       -25.8639
  46   2.0000      -0.937623       -25.5140
  47   2.0000      -0.761397       -20.7187
  48   2.0000      -0.721836       -19.6421
  49   2.0000      -0.707978       -19.2651
  50   2.0000      -0.696271       -18.9465
  51   2.0000      -0.678467       -18.4620
  52   2.0000      -0.670421       -18.2431
  53   2.0000      -0.647802       -17.6276
  54   2.0000      -0.631374       -17.1806
  55   2.0000      -0.594895       -16.1879
  56   2.0000      -0.589837       -16.0503
  57   2.0000      -0.573189       -15.5973
  58   2.0000      -0.562749       -15.3132
  59   2.0000      -0.560412       -15.2496
  60   2.0000      -0.510759       -13.8985
  61   2.0000      -0.489824       -13.3288
  62   2.0000      -0.485140       -13.2013
  63   2.0000      -0.468509       -12.7488
  64   2.0000      -0.449787       -12.2393
  65   2.0000      -0.445939       -12.1346
  66   2.0000      -0.444250       -12.0887
  67   2.0000      -0.432849       -11.7784
  68   2.0000      -0.427838       -11.6421
  69   2.0000      -0.411289       -11.1917
  70   2.0000      -0.403437       -10.9781
  71   2.0000      -0.392676       -10.6853
  72   2.0000      -0.389384       -10.5957
  73   2.0000      -0.385362       -10.4862
  74   2.0000      -0.384093       -10.4517
  75   2.0000      -0.371932       -10.1208
  76   2.0000      -0.364266        -9.9122
  77   2.0000      -0.358416        -9.7530
  78   2.0000      -0.355360        -9.6698
  79   2.0000      -0.350316        -9.5326
  80   2.0000      -0.348217        -9.4755
  81   2.0000      -0.342512        -9.3202
  82   2.0000      -0.337399        -9.1811
  83   2.0000      -0.334152        -9.0927
  84   2.0000      -0.324915        -8.8414
  85   2.0000      -0.320014        -8.7080
  86   2.0000      -0.306872        -8.3504
  87   2.0000      -0.303770        -8.2660
  88   2.0000      -0.297742        -8.1020
  89   2.0000      -0.283107        -7.7037
  90   2.0000      -0.279179        -7.5968
  91   2.0000      -0.277814        -7.5597
  92   2.0000      -0.267468        -7.2782
  93   2.0000      -0.263934        -7.1820
  94   2.0000      -0.257001        -6.9934
  95   2.0000      -0.234201        -6.3729
  96   2.0000      -0.222031        -6.0418
  97   2.0000      -0.209188        -5.6923
  98   2.0000      -0.199066        -5.4169
  99   2.0000      -0.196189        -5.3386
 100   2.0000      -0.187025        -5.0892
 101   0.0000      -0.043260        -1.1772
 102   0.0000      -0.030658        -0.8342
 103   0.0000      -0.006520        -0.1774
 104   0.0000       0.013235         0.3601
 105   0.0000       0.017780         0.4838

MULLIKEN ATOMIC CHARGES
-----------------------
   0 C :   -0.312672
   1 C :   -0.010701
   2 O :   -0.374199
   3 P :    0.627560
   4 S :   -0.320183
   5 O :   -0.368167
   6 C :   -0.003558
   7 C :   -0.304816
   8 S :   -0.105303
   9 C :   -0.349088
  10 S :   -0.116168
  11 P :    0.596072
  12 S :   -0.298454
  13 O :   -0.381632
  14 C :   -0.012710
  15 C :   -0.283368
  16 O :   -0.345539
  17 C :   -0.009287
  18 C :   -0.291658
  19 H :    0.104907
  20 H :    0.102559
  21 H :    0.146282
  22 H :    0.120371
  23 H :    0.098596
  24 H :    0.108248
  25 H :    0.102578
  26 H :    0.109236
  27 H :    0.116271
  28 H :    0.122886
  29 H :    0.212558
  30 H :    0.180857
  31 H :    0.105799
  32 H :    0.109950
  33 H :    0.115183
  34 H :    0.123294
  35 H :    0.115710
  36 H :    0.112565
  37 H :    0.101964
  38 H :    0.110619
  39 H :    0.123063
  40 H :    0.120374
Sum of atomic charges:    0.0000000

LOEWDIN ATOMIC CHARGES
----------------------
   0 C :   -0.367652
   1 C :   -0.117228
   2 O :   -0.241562
   3 P :    0.570518
   4 S :   -0.303687
   5 O :   -0.246694
   6 C :   -0.117738
   7 C :   -0.364455
   8 S :    0.076134
   9 C :   -0.478078
  10 S :    0.064148
  11 P :    0.562400
  12 S :   -0.293199
  13 O :   -0.249790
  14 C :   -0.120005
  15 C :   -0.350521
  16 O :   -0.226462
  17 C :   -0.114314
  18 C :   -0.359305
  19 H :    0.128973
  20 H :    0.120064
  21 H :    0.121795
  22 H :    0.108435
  23 H :    0.114728
  24 H :    0.108928
  25 H :    0.117603
  26 H :    0.128867
  27 H :    0.126248
  28 H :    0.123586
  29 H :    0.123895
  30 H :    0.134341
  31 H :    0.108821
  32 H :    0.112374
  33 H :    0.132514
  34 H :    0.129838
  35 H :    0.125566
  36 H :    0.121850
  37 H :    0.103913
  38 H :    0.129951
  39 H :    0.126169
  40 H :    0.129034

  Mayer bond orders larger than 0.100000
B(  0-C ,  1-C ) :   1.1726 B(  0-C , 19-H ) :   0.9403 B(  0-C , 20-H ) :   0.9462
B(  0-C , 21-H ) :   0.9243 B(  1-C ,  2-O ) :   0.8982 B(  1-C , 22-H ) :   0.9042
B(  1-C , 23-H ) :   0.9344 B(  2-O ,  3-P ) :   1.1197 B(  3-P ,  4-S ) :   1.6113
B(  3-P ,  5-O ) :   1.1275 B(  3-P ,  8-S ) :   0.9530 B(  4-S ,  8-S ) :   0.1192
B(  5-O ,  6-C ) :   0.9137 B(  6-C ,  7-C ) :   1.1636 B(  6-C , 24-H ) :   0.9155
B(  6-C , 25-H ) :   0.9351 B(  7-C , 26-H ) :   0.9388 B(  7-C , 27-H ) :   0.9464
B(  7-C , 28-H ) :   0.9374 B(  8-S ,  9-C ) :   0.9924 B(  9-C , 10-S ) :   1.0050
B(  9-C , 29-H ) :   0.8475 B(  9-C , 30-H ) :   0.9093 B( 10-S , 11-P ) :   0.9410
B( 10-S , 12-S ) :   0.1103 B( 11-P , 12-S ) :   1.6663 B( 11-P , 13-O ) :   1.0797
B( 11-P , 16-O ) :   1.1250 B( 13-O , 14-C ) :   0.9021 B( 14-C , 15-C ) :   1.1595
B( 14-C , 31-H ) :   0.9267 B( 14-C , 32-H ) :   0.9122 B( 15-C , 33-H ) :   0.9416
B( 15-C , 34-H ) :   0.9508 B( 15-C , 35-H ) :   0.9507 B( 16-O , 17-C ) :   0.8871
B( 17-C , 18-C ) :   1.1651 B( 17-C , 36-H ) :   0.9344 B( 17-C , 37-H ) :   0.9117
B( 18-C , 38-H ) :   0.9400 B( 18-C , 39-H ) :   0.9414 B( 18-C , 40-H ) :   0.9472

Dispersion correction           -0.064787722
FINAL SINGLE POINT ENERGY     -2929.521889027691

DIPOLE MOMENT
-------------

Method             : SCF
Type of density    : Electron Density
Multiplicity       :   1
Irrep              :   0
Energy             : -2929.6415920800418462 Eh
Relativity type    :
Basis              : AO
                                X                 Y                 Z
Electronic contribution:      5.400723051       0.307343082      12.376709633
Nuclear contribution   :     -6.416230566      -1.009445999     -12.594630357
                        -----------------------------------------
Total Dipole Moment    :     -1.015507516      -0.702102917      -0.217920724
                        -----------------------------------------
Magnitude (a.u.)       :      1.253671991
Magnitude (Debye)      :      3.186580960

Rotational constants in cm-1:             0.014558             0.004470             0.004314
Rotational constants in MHz :           436.436585           133.996739           129.316721

                             ****ORCA TERMINATED NORMALLY****
TOTAL RUN TIME: 0 days 0 hours 0 minutes 20 seconds 897 msec
