                         Program Version 6.0.0  -   RELEASE  -
|  1> ! pbe def2-sv(p) def2/J RI DEFGRID1 loosescf d4 GCP(DFT/SV(P)) printgap
|  2> %output
|  3>     printlevel normal
|  4> end
|  5> * xyz 0 1
|  6> C 3.5958709538 -1.6945982551 -2.5995218011
|  7> C 3.9896446544 -0.2797786861 -2.2291635173
|  8> O 3.597321593 0.0622330399 -0.8873377225
|  9> P 2.0771126121 0.1498614066 -0.4279363539
| 10> S 0.8800809037 0.992797116 -1.7261349629
| 11> O 2.1761156914 0.9795072432 0.9057645382
| 12> C 3.0695757453 0.6412736721 1.9987699168
| 13> C 2.6071969655 1.4093970957 3.219172946
| 14> S 1.6690551625 -1.8468372303 0.1737952004
| 15> C 0.0365422143 -1.6196552517 0.9264375537
| 16> S -1.3133726807 -1.4307381406 -0.279434648
| 17> P -2.0385463016 0.4962646242 0.2664479232
| 18> S -1.0092655105 1.4596117861 1.6245405422
| 19> O -3.5571871437 0.2569202016 0.6984526619
| 20> C -3.9587053436 -0.0659031521 2.0379565403
| 21> C -3.4950941978 -1.4438321088 2.4673134898
| 22> O -2.2385530911 1.3187346503 -1.0576915743
| 23> C -2.5642853449 0.7971557031 -2.3669159162
| 24> C -3.7987749618 -0.0769114698 -2.3589730796
| 25> H 4.0215057417 -1.9430279061 -3.5664056894
| 26> H 3.9575219274 -2.3970401824 -1.8526686048
| 27> H 2.5112723185 -1.7736300305 -2.6616511588
| 28> H 3.5316454678 0.4397355188 -2.9148680366
| 29> H 5.0726891671 -0.1492713012 -2.2214077916
| 30> H 3.0282501249 -0.4397072224 2.1618850436
| 31> H 4.0813423418 0.9223057918 1.7006884855
| 32> H 3.2228186084 1.1358564065 4.0696030023
| 33> H 2.687047135 2.4778767659 3.0407756307
| 34> H 1.5657817195 1.1807829883 3.4334455137
| 35> H 0.0467693329 -0.7331337583 1.5687200097
| 36> H -0.1464061439 -2.5284513156 1.4938059695
| 37> H -3.5626233023 0.70060231 2.7120737982
| 38> H -5.0472001754 -0.0011849874 2.0035253517
| 39> H -3.7754237889 -2.1862915464 1.7246466242
| 40> H -2.4131850888 -1.4501535043 2.5877275338
| 41> H -3.9545268951 -1.6938044765 3.4182014857
| 42> H -2.7074105431 1.7006657247 -2.961408038
| 43> H -1.6898282525 0.2564820064 -2.7400437228
| 44> H -4.6383241034 0.4633566107 -1.9292742579
| 45> H -4.0346302057 -0.3616964198 -3.3795595212
| 46> H -3.6195534826 -0.9771288241 -1.7730866063
| 47> *
| 48>
| 49>                          ****END OF INPUT****

CARTESIAN COORDINATES (ANGSTROEM)
---------------------------------
  C      3.595871   -1.694598   -2.599522
  C      3.989645   -0.279779   -2.229164
  O      3.597322    0.062233   -0.887338
  P      2.077113    0.149861   -0.427936
  S      0.880081    0.992797   -1.726135
  O      2.176116    0.979507    0.905765
  C      3.069576    0.641274    1.998770
  C      2.607197    1.409397    3.219173
  S      1.669055   -1.846837    0.173795
  C      0.036542   -1.619655    0.926438
  S     -1.313373   -1.430738   -0.279435
  P     -2.038546    0.496265    0.266448
  S     -1.009266    1.459612    1.624541
  O     -3.557187    0.256920    0.698453
  C     -3.958705   -0.065903    2.037957
  C     -3.495094   -1.443832    2.467313
  O     -2.238553    1.318735   -1.057692
  C     -2.564285    0.797156   -2.366916
  C     -3.798775   -0.076911   -2.358973
  H      4.021506   -1.943028   -3.566406
  H      3.957522   -2.397040   -1.852669
  H      2.511272   -1.773630   -2.661651
  H      3.531645    0.439736   -2.914868
  H      5.072689   -0.149271   -2.221408
  H      3.028250   -0.439707    2.161885
  H      4.081342    0.922306    1.700688
  H      3.222819    1.135856    4.069603
  H      2.687047    2.477877    3.040776
  H      1.565782    1.180783    3.433446
  H      0.046769   -0.733134    1.568720
  H     -0.146406   -2.528451    1.493806
  H     -3.562623    0.700602    2.712074
  H     -5.047200   -0.001185    2.003525
  H     -3.775424   -2.186292    1.724647
  H     -2.413185   -1.450154    2.587728
  H     -3.954527   -1.693804    3.418201
  H     -2.707411    1.700666   -2.961408
  H     -1.689828    0.256482   -2.740044
  H     -4.638324    0.463357   -1.929274
  H     -4.034630   -0.361696   -3.379560
  H     -3.619553   -0.977129   -1.773087

 Total Charge           Charge          ....    0
 Multiplicity           Mult            ....    1
 Number of Electrons    NEL             ....  202
 Basis Dimension        Dim             ....  334

ORBITAL ENERGIES
----------------

  NO   OCC          E(Eh)            E(eV)
   0   2.0000     -88.042411     -2395.7558
   1   2.0000     -88.039470     -2395.6758
   2   2.0000     -87.979745     -2394.0506
   3   2.0000     -87.978340     -2394.0123
   4   2.0000     -76.420904     -2079.5185
   5   2.0000     -76.420642     -2079.5114
   6   2.0000     -18.789201      -511.2802
   7   2.0000     -18.785252      -511.1727
   8   2.0000     -18.783247      -511.1181
   9   2.0000     -18.779829      -511.0251
  10   2.0000      -9.956327      -270.9254
  11   2.0000      -9.951862      -270.8039
  12   2.0000      -9.950414      -270.7645
  13   2.0000      -9.948985      -270.7256
  14   2.0000      -9.947281      -270.6793
  15   2.0000      -9.884590      -268.9734
  16   2.0000      -9.884377      -268.9676
  17   2.0000      -9.883974      -268.9566
  18   2.0000      -9.881870      -268.8994
  19   2.0000      -7.687435      -209.1857
  20   2.0000      -7.684164      -209.0967
  21   2.0000      -7.624890      -207.4838
  22   2.0000      -7.623259      -207.4394
  23   2.0000      -6.418435      -174.6545
  24   2.0000      -6.417761      -174.6362
  25   2.0000      -5.715117      -155.5162
  26   2.0000      -5.712082      -155.4337
  27   2.0000      -5.711842      -155.4271
  28   2.0000      -5.708726      -155.3423
  29   2.0000      -5.704687      -155.2324
  30   2.0000      -5.701097      -155.1347
  31   2.0000      -5.653747      -153.8463
  32   2.0000      -5.652226      -153.8049
  33   2.0000      -5.645790      -153.6298
  34   2.0000      -5.644730      -153.6009
  35   2.0000      -5.643831      -153.5764
  36   2.0000      -5.643425      -153.5654
  37   2.0000      -4.641429      -126.2997
  38   2.0000      -4.640372      -126.2709
  39   2.0000      -4.640225      -126.2669
  40   2.0000      -4.639513      -126.2476
  41   2.0000      -4.638493      -126.2198
  42   2.0000      -4.638270      -126.2137
  43   2.0000      -0.983785       -26.7702
  44   2.0000      -0.978398       -26.6236
  45   2.0000      -0.940769       -25.5996
  46   2.0000      -0.935773       -25.4637
  47   2.0000      -0.759749       -20.6738
  48   2.0000      -0.716630       -19.5005
  49   2.0000      -0.708568       -19.2811
  50   2.0000      -0.687233       -18.7006
  51   2.0000      -0.685769       -18.6607
  52   2.0000      -0.676660       -18.4129
  53   2.0000      -0.647439       -17.6177
  54   2.0000      -0.631930       -17.1957
  55   2.0000      -0.597310       -16.2536
  56   2.0000      -0.587652       -15.9908
  57   2.0000      -0.570341       -15.5198
  58   2.0000      -0.567535       -15.4434
  59   2.0000      -0.560695       -15.2573
  60   2.0000      -0.503007       -13.6875
  61   2.0000      -0.487648       -13.2696
  62   2.0000      -0.471639       -12.8339
  63   2.0000      -0.464631       -12.6432
  64   2.0000      -0.455127       -12.3846
  65   2.0000      -0.447215       -12.1693
  66   2.0000      -0.436523       -11.8784
  67   2.0000      -0.434346       -11.8192
  68   2.0000      -0.428707       -11.6657
  69   2.0000      -0.420893       -11.4531
  70   2.0000      -0.412237       -11.2175
  71   2.0000      -0.394779       -10.7425
  72   2.0000      -0.388221       -10.5640
  73   2.0000      -0.383608       -10.4385
  74   2.0000      -0.379662       -10.3311
  75   2.0000      -0.365933        -9.9575
  76   2.0000      -0.359789        -9.7904
  77   2.0000      -0.356350        -9.6968
  78   2.0000      -0.353246        -9.6123
  79   2.0000      -0.350567        -9.5394
  80   2.0000      -0.349147        -9.5008
  81   2.0000      -0.343233        -9.3398
  82   2.0000      -0.337486        -9.1834
  83   2.0000      -0.335699        -9.1348
  84   2.0000      -0.333355        -9.0711
  85   2.0000      -0.312207        -8.4956
  86   2.0000      -0.305655        -8.3173
  87   2.0000      -0.296191        -8.0598
  88   2.0000      -0.290984        -7.9181
  89   2.0000      -0.288373        -7.8470
  90   2.0000      -0.284944        -7.7537
  91   2.0000      -0.267951        -7.2913
  92   2.0000      -0.264250        -7.1906
  93   2.0000      -0.259117        -7.0509
  94   2.0000      -0.255633        -6.9561
  95   2.0000      -0.239482        -6.5166
  96   2.0000      -0.216355        -5.8873
  97   2.0000      -0.201936        -5.4949
  98   2.0000      -0.199790        -5.4366
  99   2.0000      -0.188668        -5.1339
 100   2.0000      -0.186422        -5.0728
 101   0.0000      -0.038062        -1.0357
 102   0.0000      -0.029280        -0.7968
 103   0.0000      -0.012884        -0.3506
 104   0.0000       0.003180         0.0865
 105   0.0000       0.022332         0.6077

MULLIKEN ATOMIC CHARGES
-----------------------
   0 C :   -0.328107
   1 C :    0.003023
   2 O :   -0.386033
   3 P :    0.604756
   4 S :   -0.301028
   5 O :   -0.348301
   6 C :   -0.014895
   7 C :   -0.283972
   8 S :   -0.103559
   9 C :   -0.358976
  10 S :   -0.106197
  11 P :    0.604178
  12 S :   -0.300861
  13 O :   -0.375582
  14 C :    0.004391
  15 C :   -0.318925
  16 O :   -0.351428
  17 C :   -0.007963
  18 C :   -0.315184
  19 H :    0.114989
  20 H :    0.119180
  21 H :    0.132352
  22 H :    0.112368
  23 H :    0.103994
  24 H :    0.097375
  25 H :    0.106676
  26 H :    0.106365
  27 H :    0.122196
  28 H :    0.130698
  29 H :    0.197627
  30 H :    0.183765
  31 H :    0.108702
  32 H :    0.101841
  33 H :    0.118069
  34 H :    0.118784
  35 H :    0.110503
  36 H :    0.110593
  37 H :    0.126115
  38 H :    0.123545
  39 H :    0.113989
  40 H :    0.124938
Sum of atomic charges:   -0.0000000

LOEWDIN ATOMIC CHARGES
----------------------
   0 C :   -0.373821
   1 C :   -0.116883
   2 O :   -0.250471
   3 P :    0.565605
   4 S :   -0.298649
   5 O :   -0.228359
   6 C :   -0.116142
   7 C :   -0.352070
   8 S :    0.075763
   9 C :   -0.486940
  10 S :    0.070025
  11 P :    0.575278
  12 S :   -0.292509
  13 O :   -0.250804
  14 C :   -0.118808
  15 C :   -0.369645
  16 O :   -0.223835
  17 C :   -0.115470
  18 C :   -0.367283
  19 H :    0.132225
  20 H :    0.122952
  21 H :    0.123084
  22 H :    0.112924
  23 H :    0.118306
  24 H :    0.100427
  25 H :    0.114487
  26 H :    0.127771
  27 H :    0.130605
  28 H :    0.128105
  29 H :    0.119600
  30 H :    0.135570
  31 H :    0.109377
  32 H :    0.117463
  33 H :    0.124040
  34 H :    0.117891
  35 H :    0.129373
  36 H :    0.123924
  37 H :    0.109808
  38 H :    0.129383
  39 H :    0.131948
  40 H :    0.115757

  Mayer bond orders larger than 0.100000
B(  0-C ,  1-C ) :   1.1652 B(  0-C , 19-H ) :   0.9370 B(  0-C , 20-H ) :   0.9423
B(  0-C , 21-H ) :   0.9328 B(  1-C ,  2-O ) :   0.9085 B(  1-C , 22-H ) :   0.9177
B(  1-C , 23-H ) :   0.9339 B(  2-O ,  3-P ) :   1.0803 B(  3-P ,  4-S ) :   1.6596
B(  3-P ,  5-O ) :   1.1397 B(  3-P ,  8-S ) :   0.9491 B(  4-S ,  8-S ) :   0.1111
B(  5-O ,  6-C ) :   0.8935 B(  6-C ,  7-C ) :   1.1620 B(  6-C , 24-H ) :   0.9110
B(  6-C , 25-H ) :   0.9296 B(  7-C , 26-H ) :   0.9406 B(  7-C , 27-H ) :   0.9493
B(  7-C , 28-H ) :   0.9460 B(  8-S ,  9-C ) :   0.9922 B(  9-C , 10-S ) :   1.0057
B(  9-C , 29-H ) :   0.8395 B(  9-C , 30-H ) :   0.9073 B( 10-S , 11-P ) :   0.9404
B( 10-S , 12-S ) :   0.1135 B( 11-P , 12-S ) :   1.6077 B( 11-P , 13-O ) :   1.0703
B( 11-P , 16-O ) :   1.1584 B( 12-S , 29-H ) :   0.1222 B( 13-O , 14-C ) :   0.9248
B( 14-C , 15-C ) :   1.1623 B( 14-C , 31-H ) :   0.9143 B( 14-C , 32-H ) :   0.9344
B( 15-C , 33-H ) :   0.9430 B( 15-C , 34-H ) :   0.9377 B( 15-C , 35-H ) :   0.9377
B( 16-O , 17-C ) :   0.8976 B( 17-C , 18-C ) :   1.1666 B( 17-C , 36-H ) :   0.9344
B( 17-C , 37-H ) :   0.9132 B( 18-C , 38-H ) :   0.9417 B( 18-C , 39-H ) :   0.9354
B( 18-C , 40-H ) :   0.9368

Dispersion correction           -0.067882061
FINAL SINGLE POINT ENERGY     -2929.512464382522

DIPOLE MOMENT
-------------

Method             : SCF
Type of density    : Electron Density
Multiplicity       :   1
Irrep              :   0
Energy             : -2929.6301549973291003 Eh
Relativity type    :
Basis              : AO
                                X                 Y                 Z
Electronic contribution:      1.975127269       6.170275134      -3.629991833
Nuclear contribution   :     -1.788660981      -7.416662735       3.817926599
                        -----------------------------------------
Total Dipole Moment    :      0.186466288      -1.246387601       0.187934766
                        -----------------------------------------
Magnitude (a.u.)       :      1.274194336
Magnitude (Debye)      :      3.238744614

Rotational constants in cm-1:             0.011695             0.005729             0.004944
Rotational constants in MHz :           350.606502           171.742089           148.211801

                             ****ORCA TERMINATED NORMALLY****
TOTAL RUN TIME: 0 days 0 hours 0 minutes 21 seconds 364 msec
