                         Program Version 6.0.0  -   RELEASE  -
|  1> ! wb97x-v def2-tzvp def2/J RIJCOSX DEFGRID2 scfconv7 GCP(DFT/TZ) printgap
|  2> %output
|  3>     printlevel normal
|  4> end
|  5> * xyz 0 1
|  6> C -0.7276831866159368 -1.8241034572700336 -4.873465600084663e-05
|  7> C 0.6047381776235505 -1.4340628444933181 -0.00016525240937987392
|  8> C 0.8996122333108307 -0.06327755455126587 -0.0002961829236574687
|  9> C -0.1113994719293613 0.9037571603861085 -0.00012119786414791308
| 10> C -1.4378001015047852 0.48288873854288805 8.125890229876426e-06
| 11> C -1.7481736772005185 -0.8791331616126268 -1.2174467225734197e-05
| 12> O -2.4019769178636547 1.4544211860358733 3.979944052568924e-05
| 13> C 2.2576880025005566 0.3568927371036236 -0.0004365502294572633
| 14> N 3.3688628597409798 0.6930308652894508 0.0006947686656138679
| 15> H -0.9793738603390716 -2.879175743534525 -4.836582931712221e-05
| 16> H 1.4061754421825667 -2.163005100755061 -0.00021314157682104215
| 17> H 0.1289722255849656 1.9606778971442258 -0.00014472998826945812
| 18> H -2.7886999720585988 -1.190988640420665 -1.4572139125889718e-05
| 19> H -3.2770331648669364 1.040073301963307 5.9441196365312535e-05
| 20> *
| 21>
| 22>                          ****END OF INPUT****

CARTESIAN COORDINATES (ANGSTROEM)
---------------------------------
  C     -0.727683   -1.824103   -0.000049
  C      0.604738   -1.434063   -0.000165
  C      0.899612   -0.063278   -0.000296
  C     -0.111399    0.903757   -0.000121
  C     -1.437800    0.482889    0.000008
  C     -1.748174   -0.879133   -0.000012
  O     -2.401977    1.454421    0.000040
  C      2.257688    0.356893   -0.000437
  N      3.368863    0.693031    0.000695
  H     -0.979374   -2.879176   -0.000048
  H      1.406175   -2.163005   -0.000213
  H      0.128972    1.960678   -0.000145
  H     -2.788700   -1.190989   -0.000015
  H     -3.277033    1.040073    0.000059

 Total Charge           Charge          ....    0
 Multiplicity           Mult            ....    1
 Number of Electrons    NEL             ....   62
 Basis Dimension        Dim             ....  309

ORBITAL ENERGIES
----------------

  NO   OCC          E(Eh)            E(eV)
   0   2.0000     -21.726617      -591.2113
   1   2.0000     -16.531088      -449.8338
   2   2.0000     -12.142453      -330.4129
   3   2.0000     -12.109609      -329.5192
   4   2.0000     -12.090259      -328.9927
   5   2.0000     -12.084160      -328.8267
   6   2.0000     -12.081512      -328.7547
   7   2.0000     -12.080989      -328.7404
   8   2.0000     -12.078920      -328.6841
   9   2.0000      -1.742432       -47.4140
  10   2.0000      -1.521102       -41.3913
  11   2.0000      -1.421212       -38.6731
  12   2.0000      -1.328197       -36.1421
  13   2.0000      -1.312783       -35.7226
  14   2.0000      -1.196227       -32.5510
  15   2.0000      -1.167862       -31.7791
  16   2.0000      -1.119948       -30.4753
  17   2.0000      -1.035937       -28.1893
  18   2.0000      -1.018105       -27.7040
  19   2.0000      -0.978536       -26.6273
  20   2.0000      -0.972166       -26.4540
  21   2.0000      -0.970983       -26.4218
  22   2.0000      -0.915224       -24.9045
  23   2.0000      -0.899654       -24.4808
  24   2.0000      -0.870589       -23.6899
  25   2.0000      -0.853162       -23.2157
  26   2.0000      -0.834765       -22.7151
  27   2.0000      -0.801478       -21.8093
  28   2.0000      -0.785219       -21.3669
  29   2.0000      -0.676798       -18.4166
  30   2.0000      -0.666189       -18.1279
  31   0.0000      -0.316207        -8.6044
  32   0.0000      -0.270555        -7.3622
  33   0.0000      -0.237318        -6.4578
  34   0.0000      -0.178354        -4.8532
  35   0.0000      -0.165865        -4.5134

MULLIKEN ATOMIC CHARGES
-----------------------
   0 C :   -0.097210
   1 C :   -0.252991
   2 C :    0.349784
   3 C :   -0.315385
   4 C :    0.282182
   5 C :   -0.201349
   6 O :   -0.379060
   7 C :   -0.257233
   8 N :    0.004277
   9 H :    0.132675
  10 H :    0.145354
  11 H :    0.150564
  12 H :    0.120713
  13 H :    0.317680
Sum of atomic charges:   -0.0000000

LOEWDIN ATOMIC CHARGES
----------------------
   0 C :   -0.123320
   1 C :   -0.093010
   2 C :   -0.144083
   3 C :   -0.054467
   4 C :   -0.257194
   5 C :   -0.126118
   6 O :    0.080921
   7 C :   -0.145744
   8 N :    0.066047
   9 H :    0.148611
  10 H :    0.153775
  11 H :    0.160726
  12 H :    0.144300
  13 H :    0.189557

  Mayer bond orders larger than 0.100000
B(  0-C ,  1-C ) :   1.4616 B(  0-C ,  5-C ) :   1.4216 B(  0-C ,  9-H ) :   0.9616
B(  1-C ,  2-C ) :   1.3609 B(  1-C , 10-H ) :   0.9679 B(  2-C ,  3-C ) :   1.3720
B(  2-C ,  7-C ) :   0.8980 B(  3-C ,  4-C ) :   1.4181 B(  3-C , 11-H ) :   0.9713
B(  4-C ,  5-C ) :   1.3593 B(  4-C ,  6-O ) :   1.1686 B(  5-C , 12-H ) :   0.9551
B(  6-O , 13-H ) :   0.8850 B(  7-C ,  8-N ) :   3.1278

FINAL SINGLE POINT ENERGY      -399.734912561922

DIPOLE MOMENT
-------------

Method             : SCF
Type of density    : Electron Density
Multiplicity       :   1
Irrep              :   0
Energy             :  -399.7414146657218339 Eh
Relativity type    :
Basis              : AO
                                X                 Y                 Z
Electronic contribution:      3.065961778       2.097083299      -0.000365460
Nuclear contribution   :     -5.188077255      -3.015431246      -0.000221057
                        -----------------------------------------
Total Dipole Moment    :     -2.122115476      -0.918347947      -0.000586518
                        -----------------------------------------
Magnitude (a.u.)       :      2.312301319
Magnitude (Debye)      :      5.877402868

Rotational constants in cm-1:             0.113768             0.040494             0.029864
Rotational constants in MHz :          3410.683251          1213.988558           895.313387

                             ****ORCA TERMINATED NORMALLY****
TOTAL RUN TIME: 0 days 0 hours 3 minutes 4 seconds 991 msec
