                         Program Version 6.0.0  -   RELEASE  -
|  1> ! wb97x-v def2-tzvp def2/J RIJCOSX DEFGRID2 scfconv7 GCP(DFT/TZ) printgap
|  2> %output
|  3>     printlevel normal
|  4> end
|  5> %cpcm
|  6>     smd true
|  7>     smdsolvent "water"
|  8> end
|  9> * xyz 0 1
| 10> C -0.7276831866159368 -1.8241034572700336 -4.873465600084663e-05
| 11> C 0.6047381776235505 -1.4340628444933181 -0.00016525240937987392
| 12> C 0.8996122333108307 -0.06327755455126587 -0.0002961829236574687
| 13> C -0.1113994719293613 0.9037571603861085 -0.00012119786414791308
| 14> C -1.4378001015047852 0.48288873854288805 8.125890229876426e-06
| 15> C -1.7481736772005185 -0.8791331616126268 -1.2174467225734197e-05
| 16> O -2.4019769178636547 1.4544211860358733 3.979944052568924e-05
| 17> C 2.2576880025005566 0.3568927371036236 -0.0004365502294572633
| 18> N 3.3688628597409798 0.6930308652894508 0.0006947686656138679
| 19> H -0.9793738603390716 -2.879175743534525 -4.836582931712221e-05
| 20> H 1.4061754421825667 -2.163005100755061 -0.00021314157682104215
| 21> H 0.1289722255849656 1.9606778971442258 -0.00014472998826945812
| 22> H -2.7886999720585988 -1.190988640420665 -1.4572139125889718e-05
| 23> H -3.2770331648669364 1.040073301963307 5.9441196365312535e-05
| 24> *
| 25>
| 26>                          ****END OF INPUT****

CARTESIAN COORDINATES (ANGSTROEM)
---------------------------------
  C     -0.727683   -1.824103   -0.000049
  C      0.604738   -1.434063   -0.000165
  C      0.899612   -0.063278   -0.000296
  C     -0.111399    0.903757   -0.000121
  C     -1.437800    0.482889    0.000008
  C     -1.748174   -0.879133   -0.000012
  O     -2.401977    1.454421    0.000040
  C      2.257688    0.356893   -0.000437
  N      3.368863    0.693031    0.000695
  H     -0.979374   -2.879176   -0.000048
  H      1.406175   -2.163005   -0.000213
  H      0.128972    1.960678   -0.000145
  H     -2.788700   -1.190989   -0.000015
  H     -3.277033    1.040073    0.000059

 Total Charge           Charge          ....    0
 Multiplicity           Mult            ....    1
 Number of Electrons    NEL             ....   62
 Basis Dimension        Dim             ....  309

ORBITAL ENERGIES
----------------

  NO   OCC          E(Eh)            E(eV)
   0   2.0000     -21.708108      -590.7077
   1   2.0000     -16.538676      -450.0403
   2   2.0000     -12.126826      -329.9877
   3   2.0000     -12.104434      -329.3784
   4   2.0000     -12.098822      -329.2257
   5   2.0000     -12.068852      -328.4102
   6   2.0000     -12.066582      -328.3484
   7   2.0000     -12.064822      -328.3005
   8   2.0000     -12.062712      -328.2431
   9   2.0000      -1.724239       -46.9189
  10   2.0000      -1.532480       -41.7009
  11   2.0000      -1.408725       -38.3334
  12   2.0000      -1.315858       -35.8063
  13   2.0000      -1.298005       -35.3205
  14   2.0000      -1.182002       -32.1639
  15   2.0000      -1.154320       -31.4106
  16   2.0000      -1.105543       -30.0834
  17   2.0000      -1.021810       -27.8049
  18   2.0000      -1.007665       -27.4200
  19   2.0000      -0.961378       -26.1604
  20   2.0000      -0.956345       -26.0235
  21   2.0000      -0.955155       -25.9911
  22   2.0000      -0.915302       -24.9066
  23   2.0000      -0.896034       -24.3823
  24   2.0000      -0.852769       -23.2050
  25   2.0000      -0.839953       -22.8563
  26   2.0000      -0.836796       -22.7704
  27   2.0000      -0.811416       -22.0798
  28   2.0000      -0.779001       -21.1977
  29   2.0000      -0.665405       -18.1066
  30   2.0000      -0.652663       -17.7599
  31   0.0000      -0.309129        -8.4118
  32   0.0000      -0.256341        -6.9754
  33   0.0000      -0.243167        -6.6169
  34   0.0000      -0.175486        -4.7752
  35   0.0000      -0.150122        -4.0850

MULLIKEN ATOMIC CHARGES
-----------------------
   0 C :   -0.115164
   1 C :   -0.285553
   2 C :    0.335616
   3 C :   -0.348584
   4 C :    0.301904
   5 C :   -0.234634
   6 O :   -0.457233
   7 C :   -0.179915
   8 N :   -0.105148
   9 H :    0.173543
  10 H :    0.178095
  11 H :    0.175196
  12 H :    0.179002
  13 H :    0.382874
Sum of atomic charges:   -0.0000000

LOEWDIN ATOMIC CHARGES
----------------------
   0 C :   -0.123177
   1 C :   -0.092497
   2 C :   -0.154107
   3 C :   -0.058543
   4 C :   -0.260755
   5 C :   -0.106384
   6 O :    0.057527
   7 C :   -0.126301
   8 N :   -0.002836
   9 H :    0.159419
  10 H :    0.162641
  11 H :    0.167406
  12 H :    0.162442
  13 H :    0.215165

  Mayer bond orders larger than 0.100000
B(  0-C ,  1-C ) :   1.4336 B(  0-C ,  5-C ) :   1.3793 B(  0-C ,  9-H ) :   0.9639
B(  1-C ,  2-C ) :   1.3271 B(  1-C , 10-H ) :   0.9758 B(  2-C ,  3-C ) :   1.3498
B(  2-C ,  7-C ) :   0.9217 B(  3-C ,  4-C ) :   1.4060 B(  3-C , 11-H ) :   0.9771
B(  4-C ,  5-C ) :   1.3525 B(  4-C ,  6-O ) :   1.1264 B(  5-C , 12-H ) :   0.9621
B(  6-O , 13-H ) :   0.8440 B(  7-C ,  8-N ) :   3.1206

FINAL SINGLE POINT ENERGY      -399.748263944777

DIPOLE MOMENT
-------------

Method             : SCF
Type of density    : Electron Density
Multiplicity       :   1
Irrep              :   0
Energy             :  -399.7547660485769256 Eh
Relativity type    :
Basis              : AO
                                X                 Y                 Z
Electronic contribution:      2.309331896       1.722544087      -0.000629526
Nuclear contribution   :     -5.188077255      -3.015431246      -0.000221057
                        -----------------------------------------
Total Dipole Moment    :     -2.878745359      -1.292887159      -0.000850583
                        -----------------------------------------
Magnitude (a.u.)       :      3.155745993
Magnitude (Debye)      :      8.021268853

Rotational constants in cm-1:             0.113768             0.040494             0.029864
Rotational constants in MHz :          3410.683251          1213.988558           895.313387

                             ****ORCA TERMINATED NORMALLY****
TOTAL RUN TIME: 0 days 0 hours 3 minutes 3 seconds 895 msec
