                         Program Version 6.0.1  -  RELEASE   -
|  1> ! pbe def2-sv(p) def2/J RI DEFGRID1 loosescf d4 GCP(DFT/SV(P)) printgap
|  2> %output
|  3>     printlevel normal
|  4> end
|  5> * xyz 0 1
|  6> C 5.6116169753 -0.4525743264 -0.593071014
|  7> C 4.92887132 -1.5263158253 -1.4240766736
|  8> O 3.6732659602 -1.9161790062 -0.8325729874
|  9> C 2.5888741024 -1.2396129189 -1.1511740385
| 10> O 2.5586115694 -0.2988486423 -1.9126231658
| 11> C 1.3656972522 -1.828179554 -0.4709939051
| 12> C 0.2655721456 -0.7841488536 -0.3646660455
| 13> H 0.2087139484 -0.2226148792 -1.3077762495
| 14> C 0.4849071375 0.2274330243 0.73592726
| 15> O -0.4533699792 0.7217591555 1.3381493189
| 16> O 1.732121981 0.5133920353 0.9539388993
| 17> C 2.0265219858 1.5215531481 1.9518490824
| 18> C 3.5069426723 1.8330401635 1.8846946235
| 19> S -1.3734136067 -1.5416839135 -0.0625968915
| 20> P -2.5183907982 0.227768565 -0.0098484346
| 21> S -1.9757194718 1.8516035084 -0.9841069958
| 22> O -3.7454947623 -0.5147690855 -0.7331456257
| 23> C -4.9581483546 0.1797310626 -1.0389121765
| 24> O -3.2018807584 0.4632335401 1.4152382313
| 25> C -2.8944084648 1.5039066114 2.3425592874
| 26> H 6.5782255395 -0.2218112758 -1.0283486869
| 27> H 5.0042808358 0.4489241717 -0.5823097461
| 28> H 5.7515995526 -0.8011219614 0.4261366091
| 29> H 5.5149539841 -2.4451454181 -1.4481700975
| 30> H 4.7394857425 -1.1671310849 -2.4394707015
| 31> H 1.6452057838 -2.2269143742 0.5025090518
| 32> H 1.0084203783 -2.6551294663 -1.0882877078
| 33> H 1.4121203833 2.4012329044 1.7393824785
| 34> H 1.739017863 1.1201885745 2.9277126532
| 35> H 4.0874278861 0.935906896 2.0760395152
| 36> H 3.7624756399 2.2175066629 0.9015520556
| 37> H 3.7467918251 2.5818750976 2.6320099862
| 38> H -5.5011337213 -0.4660218665 -1.7243335264
| 39> H -4.7317657614 1.1362304637 -1.5150694994
| 40> H -5.5340776786 0.3458587443 -0.1291426696
| 41> H -2.1833571182 1.134925875 3.078172695
| 42> H -3.8380196585 1.7720105022 2.8130345479
| 43> H -2.4698353437 2.3611843864 1.8184299658
| 44> *
| 45>
| 46>                          ****END OF INPUT****

CARTESIAN COORDINATES (ANGSTROEM)
---------------------------------
  C      5.611617   -0.452574   -0.593071
  C      4.928871   -1.526316   -1.424077
  O      3.673266   -1.916179   -0.832573
  C      2.588874   -1.239613   -1.151174
  O      2.558612   -0.298849   -1.912623
  C      1.365697   -1.828180   -0.470994
  C      0.265572   -0.784149   -0.364666
  H      0.208714   -0.222615   -1.307776
  C      0.484907    0.227433    0.735927
  O     -0.453370    0.721759    1.338149
  O      1.732122    0.513392    0.953939
  C      2.026522    1.521553    1.951849
  C      3.506943    1.833040    1.884695
  S     -1.373414   -1.541684   -0.062597
  P     -2.518391    0.227769   -0.009848
  S     -1.975719    1.851604   -0.984107
  O     -3.745495   -0.514769   -0.733146
  C     -4.958148    0.179731   -1.038912
  O     -3.201881    0.463234    1.415238
  C     -2.894408    1.503907    2.342559
  H      6.578226   -0.221811   -1.028349
  H      5.004281    0.448924   -0.582310
  H      5.751600   -0.801122    0.426137
  H      5.514954   -2.445145   -1.448170
  H      4.739486   -1.167131   -2.439471
  H      1.645206   -2.226914    0.502509
  H      1.008420   -2.655129   -1.088288
  H      1.412120    2.401233    1.739382
  H      1.739018    1.120189    2.927713
  H      4.087428    0.935907    2.076040
  H      3.762476    2.217507    0.901552
  H      3.746792    2.581875    2.632010
  H     -5.501134   -0.466022   -1.724334
  H     -4.731766    1.136230   -1.515069
  H     -5.534078    0.345859   -0.129143
  H     -2.183357    1.134926    3.078173
  H     -3.838020    1.772011    2.813035
  H     -2.469835    2.361184    1.818430

 Total Charge           Charge          ....    0
 Multiplicity           Mult            ....    1
 Number of Electrons    NEL             ....  174
 Basis Dimension        Dim             ....  316

ORBITAL ENERGIES
----------------

  NO   OCC          E(Eh)            E(eV)
   0   2.0000     -88.030112     -2395.4211
   1   2.0000     -87.964946     -2393.6479
   2   2.0000     -76.412306     -2079.2846
   3   2.0000     -18.829195      -512.3684
   4   2.0000     -18.810005      -511.8463
   5   2.0000     -18.777119      -510.9514
   6   2.0000     -18.765581      -510.6374
   7   2.0000     -18.758739      -510.4512
   8   2.0000     -18.746603      -510.1210
   9   2.0000     -10.028893      -272.9000
  10   2.0000     -10.018858      -272.6270
  11   2.0000      -9.964627      -271.1513
  12   2.0000      -9.955540      -270.9040
  13   2.0000      -9.944501      -270.6036
  14   2.0000      -9.929153      -270.1860
  15   2.0000      -9.926500      -270.1138
  16   2.0000      -9.919873      -269.9335
  17   2.0000      -9.901343      -269.4292
  18   2.0000      -9.895298      -269.2648
  19   2.0000      -7.675449      -208.8596
  20   2.0000      -7.610097      -207.0813
  21   2.0000      -6.408155      -174.3748
  22   2.0000      -5.703519      -155.2007
  23   2.0000      -5.700362      -155.1147
  24   2.0000      -5.691784      -154.8813
  25   2.0000      -5.639241      -153.4516
  26   2.0000      -5.631004      -153.2274
  27   2.0000      -5.629738      -153.1929
  28   2.0000      -4.630780      -126.0099
  29   2.0000      -4.630108      -125.9916
  30   2.0000      -4.628781      -125.9555
  31   2.0000      -1.038247       -28.2521
  32   2.0000      -1.018120       -27.7045
  33   2.0000      -0.965155       -26.2632
  34   2.0000      -0.938197       -25.5296
  35   2.0000      -0.923909       -25.1408
  36   2.0000      -0.919951       -25.0331
  37   2.0000      -0.766484       -20.8571
  38   2.0000      -0.722834       -19.6693
  39   2.0000      -0.717271       -19.5179
  40   2.0000      -0.689393       -18.7593
  41   2.0000      -0.652088       -17.7442
  42   2.0000      -0.625105       -17.0100
  43   2.0000      -0.614721       -16.7274
  44   2.0000      -0.611468       -16.6389
  45   2.0000      -0.601704       -16.3732
  46   2.0000      -0.563416       -15.3313
  47   2.0000      -0.526243       -14.3198
  48   2.0000      -0.507657       -13.8140
  49   2.0000      -0.499502       -13.5921
  50   2.0000      -0.480676       -13.0798
  51   2.0000      -0.472654       -12.8616
  52   2.0000      -0.461220       -12.5504
  53   2.0000      -0.455966       -12.4075
  54   2.0000      -0.447561       -12.1788
  55   2.0000      -0.433822       -11.8049
  56   2.0000      -0.427200       -11.6247
  57   2.0000      -0.415828       -11.3153
  58   2.0000      -0.408753       -11.1227
  59   2.0000      -0.406843       -11.0708
  60   2.0000      -0.397793       -10.8245
  61   2.0000      -0.395776       -10.7696
  62   2.0000      -0.387400       -10.5417
  63   2.0000      -0.384973       -10.4757
  64   2.0000      -0.378627       -10.3030
  65   2.0000      -0.373029       -10.1506
  66   2.0000      -0.364893        -9.9292
  67   2.0000      -0.359274        -9.7763
  68   2.0000      -0.353377        -9.6159
  69   2.0000      -0.347873        -9.4661
  70   2.0000      -0.339846        -9.2477
  71   2.0000      -0.332434        -9.0460
  72   2.0000      -0.329358        -8.9623
  73   2.0000      -0.317519        -8.6401
  74   2.0000      -0.304639        -8.2897
  75   2.0000      -0.299408        -8.1473
  76   2.0000      -0.288617        -7.8537
  77   2.0000      -0.285357        -7.7650
  78   2.0000      -0.272112        -7.4045
  79   2.0000      -0.267573        -7.2810
  80   2.0000      -0.256985        -6.9929
  81   2.0000      -0.252595        -6.8735
  82   2.0000      -0.241354        -6.5676
  83   2.0000      -0.233416        -6.3516
  84   2.0000      -0.206599        -5.6218
  85   2.0000      -0.187977        -5.1151
  86   2.0000      -0.178227        -4.8498
  87   0.0000      -0.048067        -1.3080
  88   0.0000      -0.033091        -0.9004
  89   0.0000      -0.024430        -0.6648
  90   0.0000       0.014964         0.4072
  91   0.0000       0.025096         0.6829

MULLIKEN ATOMIC CHARGES
-----------------------
   0 C :   -0.318161
   1 C :   -0.013786
   2 O :   -0.231183
   3 C :    0.118114
   4 O :   -0.199749
   5 C :   -0.080552
   6 C :   -0.326263
   7 H :    0.179894
   8 C :    0.234946
   9 O :   -0.205298
  10 O :   -0.211070
  11 C :   -0.034377
  12 C :   -0.289746
  13 S :   -0.075683
  14 P :    0.653157
  15 S :   -0.359977
  16 O :   -0.391082
  17 C :   -0.094512
  18 O :   -0.390872
  19 C :   -0.081597
  20 H :    0.115643
  21 H :    0.135486
  22 H :    0.116918
  23 H :    0.106129
  24 H :    0.112121
  25 H :    0.113657
  26 H :    0.134159
  27 H :    0.124735
  28 H :    0.110823
  29 H :    0.120637
  30 H :    0.138515
  31 H :    0.117063
  32 H :    0.119250
  33 H :    0.111256
  34 H :    0.105446
  35 H :    0.110941
  36 H :    0.112414
  37 H :    0.112603
Sum of atomic charges:   -0.0000000

LOEWDIN ATOMIC CHARGES
----------------------
   0 C :   -0.356438
   1 C :   -0.109125
   2 O :   -0.058874
   3 C :    0.033683
   4 O :   -0.162198
   5 C :   -0.249999
   6 C :   -0.273359
   7 H :    0.156127
   8 C :    0.032386
   9 O :   -0.155640
  10 O :   -0.031585
  11 C :   -0.101063
  12 C :   -0.351013
  13 S :    0.113702
  14 P :    0.588846
  15 S :   -0.352557
  16 O :   -0.270629
  17 C :   -0.215875
  18 O :   -0.252083
  19 C :   -0.211857
  20 H :    0.132498
  21 H :    0.130502
  22 H :    0.123966
  23 H :    0.119247
  24 H :    0.121896
  25 H :    0.138485
  26 H :    0.153082
  27 H :    0.126454
  28 H :    0.119830
  29 H :    0.127243
  30 H :    0.132468
  31 H :    0.134664
  32 H :    0.119238
  33 H :    0.107391
  34 H :    0.107941
  35 H :    0.110927
  36 H :    0.113651
  37 H :    0.108064

  Mayer bond orders larger than 0.100000
B(  0-C ,  1-C ) :   1.1755 B(  0-C , 20-H ) :   0.9414 B(  0-C , 21-H ) :   0.9394
B(  0-C , 22-H ) :   0.9454 B(  1-C ,  2-O ) :   0.9123 B(  1-C , 23-H ) :   0.9372
B(  1-C , 24-H ) :   0.9134 B(  2-O ,  3-C ) :   1.2403 B(  3-C ,  4-O ) :   2.0385
B(  3-C ,  5-C ) :   1.0012 B(  5-C ,  6-C ) :   1.0514 B(  5-C , 25-H ) :   0.9071
B(  5-C , 26-H ) :   0.8757 B(  6-C ,  7-H ) :   0.8272 B(  6-C ,  8-C ) :   0.9190
B(  6-C , 13-S ) :   1.0346 B(  8-C ,  9-O ) :   1.9152 B(  8-C , 10-O ) :   1.2950
B(  9-O , 14-P ) :   0.1250 B( 10-O , 11-C ) :   0.8856 B( 11-C , 12-C ) :   1.1598
B( 11-C , 27-H ) :   0.9268 B( 11-C , 28-H ) :   0.9331 B( 12-C , 29-H ) :   0.9452
B( 12-C , 30-H ) :   0.9410 B( 12-C , 31-H ) :   0.9392 B( 13-S , 14-P ) :   0.9298
B( 13-S , 15-S ) :   0.1091 B( 14-P , 15-S ) :   1.5773 B( 14-P , 16-O ) :   1.0791
B( 14-P , 18-O ) :   1.0921 B( 16-O , 17-C ) :   0.9422 B( 17-C , 32-H ) :   0.9612
B( 17-C , 33-H ) :   0.9330 B( 17-C , 34-H ) :   0.9509 B( 18-O , 19-C ) :   0.9314
B( 19-C , 35-H ) :   0.9536 B( 19-C , 36-H ) :   0.9542 B( 19-C , 37-H ) :   0.9338

Dispersion correction           -0.050139007
FINAL SINGLE POINT ENERGY     -1979.013579143730

DIPOLE MOMENT
-------------

Method             : SCF
Type of density    : Electron Density
Multiplicity       :   1
Irrep              :   0
Energy             : -1979.1464250512731269 Eh
Relativity type    :
Basis              : AO
                                X                 Y                 Z
Electronic contribution:    -20.323580657      -5.876426821      -5.954374136
Nuclear contribution   :     22.001298323       5.635767701       7.221445121
                        -----------------------------------------
Total Dipole Moment    :      1.677717665      -0.240659121       1.267070985
                        -----------------------------------------
Magnitude (a.u.)       :      2.116157427
Magnitude (Debye)      :      5.378844716

Rotational constants in cm-1:             0.018257             0.005374             0.004725
Rotational constants in MHz :           547.324807           161.094790           141.650980

                             ****ORCA TERMINATED NORMALLY****
TOTAL RUN TIME: 0 days 0 hours 0 minutes 28 seconds 991 msec
