                         Program Version 6.0.0  -   RELEASE  -
|  1> ! r2scan-3c def2/J RI DEFGRID2 scfconv6 printgap
|  2> %output
|  3>     printlevel normal
|  4> end
|  5> * xyz 0 1
|  6> C 0.6350900761 1.6977323399 -0.0419145703
|  7> C 1.3972674773 0.3939369134 -0.2866672324
|  8> H 1.5763820204 0.2760040577 -1.3691044952
|  9> C 0.5382308409 -0.7862301 0.2050074473
| 10> H 0.3753273422 -0.6798145131 1.2840889356
| 11> C -0.8132426365 -0.7414600927 -0.5215929756
| 12> H -0.6499932653 -0.8472759359 -1.6003627246
| 13> C -1.4670864511 0.6333382221 -0.2637365132
| 14> H -2.3647758356 0.7298413986 -0.8912314264
| 15> O -0.6349641353 1.6890013416 -0.6750454709
| 16> O -1.7846071912 0.69486929 1.0910964964
| 17> O -1.6690138219 -1.7874796289 -0.1581111989
| 18> O 1.2180302144 -2.0077681948 0.0459033628
| 19> O 2.6226059593 0.456016913 0.3983655543
| 20> H 1.1729134386 2.5438893235 -0.4671464744
| 21> H 0.5282443181 1.8397898148 1.03971279
| 22> H -2.3193924932 1.4809107474 1.2776703977
| 23> H -1.9253675794 -1.6748238604 0.7703904438
| 24> H 1.1291179671 -2.3213027094 -0.8652016377
| 25> H 2.9545063781 -0.450092253 0.5056027849
| 26> *
| 27>
| 28>                          ****END OF INPUT****

CARTESIAN COORDINATES (ANGSTROEM)
---------------------------------
  C      0.635090    1.697732   -0.041915
  C      1.397267    0.393937   -0.286667
  H      1.576382    0.276004   -1.369104
  C      0.538231   -0.786230    0.205007
  H      0.375327   -0.679815    1.284089
  C     -0.813243   -0.741460   -0.521593
  H     -0.649993   -0.847276   -1.600363
  C     -1.467086    0.633338   -0.263737
  H     -2.364776    0.729841   -0.891231
  O     -0.634964    1.689001   -0.675045
  O     -1.784607    0.694869    1.091096
  O     -1.669014   -1.787480   -0.158111
  O      1.218030   -2.007768    0.045903
  O      2.622606    0.456017    0.398366
  H      1.172913    2.543889   -0.467146
  H      0.528244    1.839790    1.039713
  H     -2.319392    1.480911    1.277670
  H     -1.925368   -1.674824    0.770390
  H      1.129118   -2.321303   -0.865202
  H      2.954506   -0.450092    0.505603

 Total Charge           Charge          ....    0
 Multiplicity           Mult            ....    1
 Number of Electrons    NEL             ....   80
 Basis Dimension        Dim             ....  265

ORBITAL ENERGIES
----------------

  NO   OCC          E(Eh)            E(eV)
   0   2.0000     -18.980806      -516.4940
   1   2.0000     -18.972388      -516.2649
   2   2.0000     -18.965653      -516.0817
   3   2.0000     -18.959699      -515.9196
   4   2.0000     -18.953252      -515.7442
   5   2.0000     -10.143662      -276.0231
   6   2.0000     -10.097440      -274.7653
   7   2.0000     -10.090033      -274.5637
   8   2.0000     -10.088121      -274.5117
   9   2.0000     -10.082488      -274.3584
  10   2.0000      -1.056013       -28.7356
  11   2.0000      -1.014363       -27.6022
  12   2.0000      -1.000614       -27.2281
  13   2.0000      -0.986087       -26.8328
  14   2.0000      -0.983900       -26.7733
  15   2.0000      -0.749459       -20.3938
  16   2.0000      -0.726876       -19.7793
  17   2.0000      -0.626730       -17.0542
  18   2.0000      -0.611314       -16.6347
  19   2.0000      -0.577776       -15.7221
  20   2.0000      -0.527130       -14.3439
  21   2.0000      -0.500414       -13.6170
  22   2.0000      -0.493679       -13.4337
  23   2.0000      -0.471954       -12.8425
  24   2.0000      -0.455636       -12.3985
  25   2.0000      -0.440944       -11.9987
  26   2.0000      -0.427633       -11.6365
  27   2.0000      -0.399304       -10.8656
  28   2.0000      -0.393508       -10.7079
  29   2.0000      -0.374534       -10.1916
  30   2.0000      -0.354809        -9.6548
  31   2.0000      -0.343389        -9.3441
  32   2.0000      -0.330638        -8.9971
  33   2.0000      -0.310471        -8.4483
  34   2.0000      -0.292756        -7.9663
  35   2.0000      -0.286311        -7.7909
  36   2.0000      -0.270615        -7.3638
  37   2.0000      -0.257784        -7.0147
  38   2.0000      -0.240603        -6.5471
  39   2.0000      -0.226151        -6.1539
  40   0.0000       0.033803         0.9198
  41   0.0000       0.039395         1.0720
  42   0.0000       0.067170         1.8278
  43   0.0000       0.082123         2.2347
  44   0.0000       0.092149         2.5075

MULLIKEN ATOMIC CHARGES
-----------------------
   0 C :   -0.268163
   1 C :    0.067236
   2 H :    0.152743
   3 C :   -0.068639
   4 H :    0.182266
   5 C :   -0.179549
   6 H :    0.170873
   7 C :    0.071021
   8 H :    0.135444
   9 O :   -0.204720
  10 O :   -0.418236
  11 O :   -0.379686
  12 O :   -0.398736
  13 O :   -0.422908
  14 H :    0.152841
  15 H :    0.167836
  16 H :    0.308083
  17 H :    0.314027
  18 H :    0.302545
  19 H :    0.315724
Sum of atomic charges:    0.0000000

LOEWDIN ATOMIC CHARGES
----------------------
   0 C :    0.056011
   1 C :    0.095234
   2 H :    0.171365
   3 C :    0.090503
   4 H :    0.203791
   5 C :    0.107048
   6 H :    0.196439
   7 C :    0.284796
   8 H :    0.197962
   9 O :   -0.677145
  10 O :   -0.528517
  11 O :   -0.546734
  12 O :   -0.564942
  13 O :   -0.578646
  14 H :    0.190510
  15 H :    0.181906
  16 H :    0.281523
  17 H :    0.281724
  18 H :    0.274024
  19 H :    0.283150

  Mayer bond orders larger than 0.100000
B(  0-C ,  1-C ) :   0.8730 B(  0-C ,  9-O ) :   0.9299 B(  0-C , 14-H ) :   0.9360
B(  0-C , 15-H ) :   0.9876 B(  1-C ,  2-H ) :   0.9588 B(  1-C ,  3-C ) :   0.8865
B(  1-C , 13-O ) :   0.8973 B(  3-C ,  4-H ) :   0.9497 B(  3-C ,  5-C ) :   0.9470
B(  3-C , 12-O ) :   1.0498 B(  5-C ,  6-H ) :   0.9586 B(  5-C ,  7-C ) :   0.9273
B(  5-C , 11-O ) :   1.0037 B(  7-C ,  8-H ) :   0.9506 B(  7-C ,  9-O ) :   0.9663
B(  7-C , 10-O ) :   1.0005 B( 10-O , 16-H ) :   0.8904 B( 11-O , 17-H ) :   0.8739
B( 12-O , 18-H ) :   0.8898 B( 13-O , 19-H ) :   0.8685

Dispersion correction           -0.006306442
FINAL SINGLE POINT ENERGY      -572.563096669471

DIPOLE MOMENT
-------------

Method             : SCF
Type of density    : Electron Density
Multiplicity       :   1
Irrep              :   0
Energy             :  -572.5730940696062135 Eh
Relativity type    :
Basis              : AO
                                X                 Y                 Z
Electronic contribution:     -0.936356873      -0.590399662       0.171788368
Nuclear contribution   :      0.443798531       0.827503695      -0.285666180
                        -----------------------------------------
Total Dipole Moment    :     -0.492558342       0.237104032      -0.113877812
                        -----------------------------------------
Magnitude (a.u.)       :      0.558390722
Magnitude (Debye)      :      1.419316420

Rotational constants in cm-1:             0.056862             0.044672             0.029015
Rotational constants in MHz :          1704.669082          1339.246345           869.854090

                             ****ORCA TERMINATED NORMALLY****
TOTAL RUN TIME: 0 days 0 hours 0 minutes 45 seconds 267 msec
