                         Program Version 6.0.0  -   RELEASE  -
|  1> ! r2scan-3c def2/J RI DEFGRID2 scfconv6 printgap
|  2> %output
|  3>     printlevel normal
|  4> end
|  5> %cpcm
|  6>     smd true
|  7>     smdsolvent "water"
|  8> end
|  9> * xyz 0 1
| 10> C 0.6350900761 1.6977323399 -0.0419145703
| 11> C 1.3972674773 0.3939369134 -0.2866672324
| 12> H 1.5763820204 0.2760040577 -1.3691044952
| 13> C 0.5382308409 -0.7862301 0.2050074473
| 14> H 0.3753273422 -0.6798145131 1.2840889356
| 15> C -0.8132426365 -0.7414600927 -0.5215929756
| 16> H -0.6499932653 -0.8472759359 -1.6003627246
| 17> C -1.4670864511 0.6333382221 -0.2637365132
| 18> H -2.3647758356 0.7298413986 -0.8912314264
| 19> O -0.6349641353 1.6890013416 -0.6750454709
| 20> O -1.7846071912 0.69486929 1.0910964964
| 21> O -1.6690138219 -1.7874796289 -0.1581111989
| 22> O 1.2180302144 -2.0077681948 0.0459033628
| 23> O 2.6226059593 0.456016913 0.3983655543
| 24> H 1.1729134386 2.5438893235 -0.4671464744
| 25> H 0.5282443181 1.8397898148 1.03971279
| 26> H -2.3193924932 1.4809107474 1.2776703977
| 27> H -1.9253675794 -1.6748238604 0.7703904438
| 28> H 1.1291179671 -2.3213027094 -0.8652016377
| 29> H 2.9545063781 -0.450092253 0.5056027849
| 30> *
| 31>
| 32>                          ****END OF INPUT****

CARTESIAN COORDINATES (ANGSTROEM)
---------------------------------
  C      0.635090    1.697732   -0.041915
  C      1.397267    0.393937   -0.286667
  H      1.576382    0.276004   -1.369104
  C      0.538231   -0.786230    0.205007
  H      0.375327   -0.679815    1.284089
  C     -0.813243   -0.741460   -0.521593
  H     -0.649993   -0.847276   -1.600363
  C     -1.467086    0.633338   -0.263737
  H     -2.364776    0.729841   -0.891231
  O     -0.634964    1.689001   -0.675045
  O     -1.784607    0.694869    1.091096
  O     -1.669014   -1.787480   -0.158111
  O      1.218030   -2.007768    0.045903
  O      2.622606    0.456017    0.398366
  H      1.172913    2.543889   -0.467146
  H      0.528244    1.839790    1.039713
  H     -2.319392    1.480911    1.277670
  H     -1.925368   -1.674824    0.770390
  H      1.129118   -2.321303   -0.865202
  H      2.954506   -0.450092    0.505603

 Total Charge           Charge          ....    0
 Multiplicity           Mult            ....    1
 Number of Electrons    NEL             ....   80
 Basis Dimension        Dim             ....  265

ORBITAL ENERGIES
----------------

  NO   OCC          E(Eh)            E(eV)
   0   2.0000     -18.972310      -516.2628
   1   2.0000     -18.967165      -516.1228
   2   2.0000     -18.961513      -515.9690
   3   2.0000     -18.961350      -515.9646
   4   2.0000     -18.958482      -515.8865
   5   2.0000     -10.133934      -275.7584
   6   2.0000     -10.088354      -274.5181
   7   2.0000     -10.083790      -274.3939
   8   2.0000     -10.083058      -274.3739
   9   2.0000     -10.077088      -274.2115
  10   2.0000      -1.049029       -28.5455
  11   2.0000      -1.011847       -27.5338
  12   2.0000      -1.001212       -27.2444
  13   2.0000      -0.984371       -26.7861
  14   2.0000      -0.978731       -26.6326
  15   2.0000      -0.743848       -20.2411
  16   2.0000      -0.720477       -19.6052
  17   2.0000      -0.619826       -16.8663
  18   2.0000      -0.606064       -16.4918
  19   2.0000      -0.568408       -15.4672
  20   2.0000      -0.519826       -14.1452
  21   2.0000      -0.494225       -13.4486
  22   2.0000      -0.488571       -13.2947
  23   2.0000      -0.469109       -12.7651
  24   2.0000      -0.450505       -12.2589
  25   2.0000      -0.434963       -11.8359
  26   2.0000      -0.423158       -11.5147
  27   2.0000      -0.397170       -10.8075
  28   2.0000      -0.388330       -10.5670
  29   2.0000      -0.371470       -10.1082
  30   2.0000      -0.347936        -9.4678
  31   2.0000      -0.343070        -9.3354
  32   2.0000      -0.336612        -9.1597
  33   2.0000      -0.307359        -8.3637
  34   2.0000      -0.292177        -7.9505
  35   2.0000      -0.278410        -7.5759
  36   2.0000      -0.270722        -7.3667
  37   2.0000      -0.258174        -7.0253
  38   2.0000      -0.240932        -6.5561
  39   2.0000      -0.227131        -6.1805
  40   0.0000       0.042300         1.1510
  41   0.0000       0.064088         1.7439
  42   0.0000       0.085958         2.3390
  43   0.0000       0.096623         2.6292
  44   0.0000       0.102788         2.7970

MULLIKEN ATOMIC CHARGES
-----------------------
   0 C :   -0.287527
   1 C :    0.057764
   2 H :    0.173513
   3 C :   -0.046606
   4 H :    0.193740
   5 C :   -0.141073
   6 H :    0.199895
   7 C :    0.064339
   8 H :    0.161686
   9 O :   -0.256102
  10 O :   -0.462051
  11 O :   -0.461476
  12 O :   -0.474029
  13 O :   -0.493983
  14 H :    0.172625
  15 H :    0.179983
  16 H :    0.354703
  17 H :    0.355763
  18 H :    0.356394
  19 H :    0.352442
Sum of atomic charges:    0.0000000

LOEWDIN ATOMIC CHARGES
----------------------
   0 C :    0.051764
   1 C :    0.097763
   2 H :    0.182907
   3 C :    0.093118
   4 H :    0.206688
   5 C :    0.110951
   6 H :    0.209120
   7 C :    0.287575
   8 H :    0.207681
   9 O :   -0.698880
  10 O :   -0.535334
  11 O :   -0.577508
  12 O :   -0.588286
  13 O :   -0.609208
  14 H :    0.196346
  15 H :    0.185208
  16 H :    0.298847
  17 H :    0.294330
  18 H :    0.292014
  19 H :    0.294904

  Mayer bond orders larger than 0.100000
B(  0-C ,  1-C ) :   0.8705 B(  0-C ,  9-O ) :   0.9239 B(  0-C , 14-H ) :   0.9316
B(  0-C , 15-H ) :   0.9833 B(  1-C ,  2-H ) :   0.9567 B(  1-C ,  3-C ) :   0.8891
B(  1-C , 13-O ) :   0.8852 B(  3-C ,  4-H ) :   0.9517 B(  3-C ,  5-C ) :   0.9181
B(  3-C , 12-O ) :   1.0268 B(  5-C ,  6-H ) :   0.9592 B(  5-C ,  7-C ) :   0.9166
B(  5-C , 11-O ) :   0.9720 B(  7-C ,  8-H ) :   0.9493 B(  7-C ,  9-O ) :   0.9541
B(  7-C , 10-O ) :   0.9917 B( 10-O , 16-H ) :   0.8659 B( 11-O , 17-H ) :   0.8523
B( 12-O , 18-H ) :   0.8620 B( 13-O , 19-H ) :   0.8518

Dispersion correction           -0.006306442
FINAL SINGLE POINT ENERGY      -572.591420171134

DIPOLE MOMENT
-------------

Method             : SCF
Type of density    : Electron Density
Multiplicity       :   1
Irrep              :   0
Energy             :  -572.6014175712697352 Eh
Relativity type    :
Basis              : AO
                                X                 Y                 Z
Electronic contribution:     -1.078800187      -0.525120524       0.009955549
Nuclear contribution   :      0.443798531       0.827503695      -0.285666180
                        -----------------------------------------
Total Dipole Moment    :     -0.635001656       0.302383170      -0.275710631
                        -----------------------------------------
Magnitude (a.u.)       :      0.755433013
Magnitude (Debye)      :      1.920158121

Rotational constants in cm-1:             0.056862             0.044672             0.029015
Rotational constants in MHz :          1704.669082          1339.246345           869.854090

                             ****ORCA TERMINATED NORMALLY****
TOTAL RUN TIME: 0 days 0 hours 0 minutes 51 seconds 624 msec
