                         Program Version 6.0.0  -   RELEASE  -
|  1> ! pbe def2-sv(p) def2/J RI DEFGRID1 loosescf d4 GCP(DFT/SV(P)) printgap
|  2> %output
|  3>     printlevel normal
|  4> end
|  5> * xyz 0 1
|  6> C 4.2786453258 -2.1847343033 -1.2029468177
|  7> C 4.4301123782 -0.7525982857 -0.7297834359
|  8> O 3.375381418 0.0775984848 -1.2874041567
|  9> P 2.1891866189 0.6868564791 -0.4501228298
| 10> S 1.1280507211 1.8773461483 -1.579016505
| 11> O 2.9604442097 1.3497395329 0.7680497476
| 12> C 2.3575194107 2.1509669895 1.8007762907
| 13> C 2.0890316814 1.3178299235 3.0381671933
| 14> S 1.2305896072 -1.0155799672 0.4166404379
| 15> C 0.4608349986 -1.6253157722 -1.0987925286
| 16> S -1.1097774824 -0.8054764139 -1.5664168217
| 17> P -1.8738906882 -0.1762020744 0.3309346655
| 18> S -1.1160365876 1.3807257236 1.2417681373
| 19> O -1.8765423084 -1.4498004202 1.2492480604
| 20> C -2.5299814003 -2.7005818502 0.9050126329
| 21> C -3.9042814077 -2.7718522123 1.5374800455
| 22> O -3.4039410045 0.0136024174 -0.0581647084
| 23> C -3.8454456134 1.1378603817 -0.8432657374
| 24> C -5.3462408646 1.2614027066 -0.6769313094
| 25> H 4.2056779946 -2.2123636113 -2.2866564822
| 26> H 5.1506637263 -2.7507411819 -0.8910032988
| 27> H 3.389858071 -2.6391579563 -0.7727548198
| 28> H 5.3542748097 -0.307382906 -1.1009295709
| 29> H 4.4020533431 -0.6846668014 0.3588297318
| 30> H 3.0898933754 2.9351864599 2.0009289179
| 31> H 1.4348718418 2.600737888 1.4216852132
| 32> H 3.0002219929 0.8247373986 3.3646534824
| 33> H 1.7245864989 1.9680403814 3.8266229295
| 34> H 1.3288873337 0.5666091903 2.8325005426
| 35> H 0.2614161122 -2.6829620813 -0.943181788
| 36> H 1.1358485689 -1.4709843339 -1.9405129211
| 37> H -2.5931439268 -2.7819683584 -0.1833757526
| 38> H -1.8664129178 -3.4694541587 1.3046106128
| 39> H -3.8263763589 -2.6412570717 2.6132044492
| 40> H -4.5436724976 -1.9903350924 1.1358307968
| 41> H -4.3437301793 -3.741190962 1.3236949037
| 42> H -3.3255727324 2.0363616822 -0.4928573086
| 43> H -3.5698247242 0.9557212406 -1.8860531874
| 44> H -5.8336491368 0.3517098025 -1.0153585993
| 45> H -5.5920981334 1.429248181 0.367935775
| 46> H -5.7000945211 2.1000416008 -1.267363976
| 47> *
| 48>
| 49>                          ****END OF INPUT****

CARTESIAN COORDINATES (ANGSTROEM)
---------------------------------
  C      4.278645   -2.184734   -1.202947
  C      4.430112   -0.752598   -0.729783
  O      3.375381    0.077598   -1.287404
  P      2.189187    0.686856   -0.450123
  S      1.128051    1.877346   -1.579017
  O      2.960444    1.349740    0.768050
  C      2.357519    2.150967    1.800776
  C      2.089032    1.317830    3.038167
  S      1.230590   -1.015580    0.416640
  C      0.460835   -1.625316   -1.098793
  S     -1.109777   -0.805476   -1.566417
  P     -1.873891   -0.176202    0.330935
  S     -1.116037    1.380726    1.241768
  O     -1.876542   -1.449800    1.249248
  C     -2.529981   -2.700582    0.905013
  C     -3.904281   -2.771852    1.537480
  O     -3.403941    0.013602   -0.058165
  C     -3.845446    1.137860   -0.843266
  C     -5.346241    1.261403   -0.676931
  H      4.205678   -2.212364   -2.286656
  H      5.150664   -2.750741   -0.891003
  H      3.389858   -2.639158   -0.772755
  H      5.354275   -0.307383   -1.100930
  H      4.402053   -0.684667    0.358830
  H      3.089893    2.935186    2.000929
  H      1.434872    2.600738    1.421685
  H      3.000222    0.824737    3.364653
  H      1.724586    1.968040    3.826623
  H      1.328887    0.566609    2.832501
  H      0.261416   -2.682962   -0.943182
  H      1.135849   -1.470984   -1.940513
  H     -2.593144   -2.781968   -0.183376
  H     -1.866413   -3.469454    1.304611
  H     -3.826376   -2.641257    2.613204
  H     -4.543672   -1.990335    1.135831
  H     -4.343730   -3.741191    1.323695
  H     -3.325573    2.036362   -0.492857
  H     -3.569825    0.955721   -1.886053
  H     -5.833649    0.351710   -1.015359
  H     -5.592098    1.429248    0.367936
  H     -5.700095    2.100042   -1.267364

 Total Charge           Charge          ....    0
 Multiplicity           Mult            ....    1
 Number of Electrons    NEL             ....  202
 Basis Dimension        Dim             ....  334

ORBITAL ENERGIES
----------------

  NO   OCC          E(Eh)            E(eV)
   0   2.0000     -88.041997     -2395.7445
   1   2.0000     -88.032858     -2395.4959
   2   2.0000     -87.975188     -2393.9266
   3   2.0000     -87.971107     -2393.8155
   4   2.0000     -76.422823     -2079.5707
   5   2.0000     -76.419509     -2079.4805
   6   2.0000     -18.795309      -511.4464
   7   2.0000     -18.792238      -511.3628
   8   2.0000     -18.791009      -511.3294
   9   2.0000     -18.787907      -511.2450
  10   2.0000      -9.959920      -271.0232
  11   2.0000      -9.958350      -270.9805
  12   2.0000      -9.954592      -270.8782
  13   2.0000      -9.950109      -270.7562
  14   2.0000      -9.945047      -270.6185
  15   2.0000      -9.889714      -269.1128
  16   2.0000      -9.888622      -269.0831
  17   2.0000      -9.887506      -269.0527
  18   2.0000      -9.877219      -268.7728
  19   2.0000      -7.686314      -209.1552
  20   2.0000      -7.677870      -208.9255
  21   2.0000      -7.620235      -207.3571
  22   2.0000      -7.616377      -207.2521
  23   2.0000      -6.419934      -174.6953
  24   2.0000      -6.416753      -174.6087
  25   2.0000      -5.714088      -155.4882
  26   2.0000      -5.710843      -155.3999
  27   2.0000      -5.705870      -155.2646
  28   2.0000      -5.703375      -155.1967
  29   2.0000      -5.702372      -155.1694
  30   2.0000      -5.694725      -154.9613
  31   2.0000      -5.649349      -153.7266
  32   2.0000      -5.645653      -153.6260
  33   2.0000      -5.640703      -153.4913
  34   2.0000      -5.640308      -153.4806
  35   2.0000      -5.636979      -153.3900
  36   2.0000      -5.636198      -153.3687
  37   2.0000      -4.643146      -126.3464
  38   2.0000      -4.641839      -126.3109
  39   2.0000      -4.639729      -126.2534
  40   2.0000      -4.639693      -126.2525
  41   2.0000      -4.638659      -126.2243
  42   2.0000      -4.636749      -126.1723
  43   2.0000      -0.988362       -26.8947
  44   2.0000      -0.983935       -26.7742
  45   2.0000      -0.946392       -25.7526
  46   2.0000      -0.940170       -25.5833
  47   2.0000      -0.759415       -20.6647
  48   2.0000      -0.718839       -19.5606
  49   2.0000      -0.711548       -19.3622
  50   2.0000      -0.692697       -18.8493
  51   2.0000      -0.686023       -18.6676
  52   2.0000      -0.668226       -18.1833
  53   2.0000      -0.645555       -17.5665
  54   2.0000      -0.630750       -17.1636
  55   2.0000      -0.586450       -15.9581
  56   2.0000      -0.583697       -15.8832
  57   2.0000      -0.574506       -15.6331
  58   2.0000      -0.570389       -15.5211
  59   2.0000      -0.563736       -15.3400
  60   2.0000      -0.508115       -13.8265
  61   2.0000      -0.499256       -13.5854
  62   2.0000      -0.483799       -13.1648
  63   2.0000      -0.474311       -12.9067
  64   2.0000      -0.457683       -12.4542
  65   2.0000      -0.444783       -12.1032
  66   2.0000      -0.439588       -11.9618
  67   2.0000      -0.435610       -11.8535
  68   2.0000      -0.428471       -11.6593
  69   2.0000      -0.414446       -11.2777
  70   2.0000      -0.403430       -10.9779
  71   2.0000      -0.393316       -10.7027
  72   2.0000      -0.391928       -10.6649
  73   2.0000      -0.382500       -10.4084
  74   2.0000      -0.374316       -10.1856
  75   2.0000      -0.371379       -10.1057
  76   2.0000      -0.359309        -9.7773
  77   2.0000      -0.358195        -9.7470
  78   2.0000      -0.357480        -9.7275
  79   2.0000      -0.353387        -9.6162
  80   2.0000      -0.352220        -9.5844
  81   2.0000      -0.345390        -9.3985
  82   2.0000      -0.343797        -9.3552
  83   2.0000      -0.336083        -9.1453
  84   2.0000      -0.326301        -8.8791
  85   2.0000      -0.318299        -8.6614
  86   2.0000      -0.312968        -8.5163
  87   2.0000      -0.299561        -8.1515
  88   2.0000      -0.297372        -8.0919
  89   2.0000      -0.295553        -8.0424
  90   2.0000      -0.284524        -7.7423
  91   2.0000      -0.275155        -7.4873
  92   2.0000      -0.267747        -7.2858
  93   2.0000      -0.256207        -6.9718
  94   2.0000      -0.254259        -6.9187
  95   2.0000      -0.241086        -6.5603
  96   2.0000      -0.220942        -6.0121
  97   2.0000      -0.201408        -5.4806
  98   2.0000      -0.188212        -5.1215
  99   2.0000      -0.179439        -4.8828
 100   2.0000      -0.174586        -4.7507
 101   0.0000      -0.049947        -1.3591
 102   0.0000      -0.025010        -0.6805
 103   0.0000      -0.013244        -0.3604
 104   0.0000       0.006729         0.1831
 105   0.0000       0.018202         0.4953

MULLIKEN ATOMIC CHARGES
-----------------------
   0 C :   -0.294766
   1 C :   -0.006777
   2 O :   -0.363709
   3 P :    0.597882
   4 S :   -0.287213
   5 O :   -0.382098
   6 C :   -0.008906
   7 C :   -0.309577
   8 S :   -0.118491
   9 C :   -0.320737
  10 S :   -0.107631
  11 P :    0.610684
  12 S :   -0.306832
  13 O :   -0.357312
  14 C :   -0.018531
  15 C :   -0.287957
  16 O :   -0.386730
  17 C :   -0.015908
  18 C :   -0.282132
  19 H :    0.119318
  20 H :    0.110284
  21 H :    0.116776
  22 H :    0.110946
  23 H :    0.106066
  24 H :    0.102753
  25 H :    0.126944
  26 H :    0.105906
  27 H :    0.110942
  28 H :    0.140449
  29 H :    0.178024
  30 H :    0.189399
  31 H :    0.101677
  32 H :    0.105470
  33 H :    0.120133
  34 H :    0.125788
  35 H :    0.108365
  36 H :    0.111413
  37 H :    0.107677
  38 H :    0.113865
  39 H :    0.121277
  40 H :    0.113271
Sum of atomic charges:   -0.0000000

LOEWDIN ATOMIC CHARGES
----------------------
   0 C :   -0.361021
   1 C :   -0.112580
   2 O :   -0.243158
   3 P :    0.560538
   4 S :   -0.297950
   5 O :   -0.245176
   6 C :   -0.114619
   7 C :   -0.365234
   8 S :    0.079713
   9 C :   -0.471314
  10 S :    0.055682
  11 P :    0.561702
  12 S :   -0.299617
  13 O :   -0.235206
  14 C :   -0.117227
  15 C :   -0.357802
  16 O :   -0.253251
  17 C :   -0.120911
  18 C :   -0.350449
  19 H :    0.127572
  20 H :    0.130151
  21 H :    0.117933
  22 H :    0.121938
  23 H :    0.109444
  24 H :    0.117542
  25 H :    0.111891
  26 H :    0.120420
  27 H :    0.131883
  28 H :    0.121013
  29 H :    0.129306
  30 H :    0.133682
  31 H :    0.104347
  32 H :    0.117801
  33 H :    0.129010
  34 H :    0.127734
  35 H :    0.129091
  36 H :    0.111655
  37 H :    0.110300
  38 H :    0.124522
  39 H :    0.129010
  40 H :    0.131633

  Mayer bond orders larger than 0.100000
B(  0-C ,  1-C ) :   1.1645 B(  0-C , 19-H ) :   0.9456 B(  0-C , 20-H ) :   0.9402
B(  0-C , 21-H ) :   0.9367 B(  1-C ,  2-O ) :   0.8952 B(  1-C , 22-H ) :   0.9350
B(  1-C , 23-H ) :   0.9174 B(  2-O ,  3-P ) :   1.1135 B(  3-P ,  4-S ) :   1.7099
B(  3-P ,  5-O ) :   1.1014 B(  3-P ,  8-S ) :   0.9087 B(  4-S ,  8-S ) :   0.1143
B(  5-O ,  6-C ) :   0.8967 B(  6-C ,  7-C ) :   1.1720 B(  6-C , 24-H ) :   0.9340
B(  6-C , 25-H ) :   0.9053 B(  7-C , 26-H ) :   0.9467 B(  7-C , 27-H ) :   0.9402
B(  7-C , 28-H ) :   0.9282 B(  8-S ,  9-C ) :   1.0141 B(  9-C , 10-S ) :   0.9802
B(  9-C , 29-H ) :   0.9092 B(  9-C , 30-H ) :   0.8954 B( 10-S , 11-P ) :   0.9687
B( 10-S , 12-S ) :   0.1155 B( 11-P , 12-S ) :   1.6542 B( 11-P , 13-O ) :   1.1270
B( 11-P , 16-O ) :   1.0669 B( 13-O , 14-C ) :   0.8959 B( 14-C , 15-C ) :   1.1683
B( 14-C , 31-H ) :   0.9048 B( 14-C , 32-H ) :   0.9344 B( 15-C , 33-H ) :   0.9473
B( 15-C , 34-H ) :   0.9412 B( 15-C , 35-H ) :   0.9392 B( 16-O , 17-C ) :   0.9074
B( 17-C , 18-C ) :   1.1597 B( 17-C , 36-H ) :   0.9076 B( 17-C , 37-H ) :   0.9281
B( 18-C , 38-H ) :   0.9511 B( 18-C , 39-H ) :   0.9510 B( 18-C , 40-H ) :   0.9418

Dispersion correction           -0.066532690
FINAL SINGLE POINT ENERGY     -2929.507046757685

DIPOLE MOMENT
-------------

Method             : SCF
Type of density    : Electron Density
Multiplicity       :   1
Irrep              :   0
Energy             : -2929.6240882506144771 Eh
Relativity type    :
Basis              : AO
                                X                 Y                 Z
Electronic contribution:      6.489889802       9.721111701      -7.148838455
Nuclear contribution   :     -6.570997051     -11.384613035       7.449505715
                        -----------------------------------------
Total Dipole Moment    :     -0.081107249      -1.663501334       0.300667260
                        -----------------------------------------
Magnitude (a.u.)       :      1.692399443
Magnitude (Debye)      :      4.301737519

Rotational constants in cm-1:             0.012312             0.005150             0.004838
Rotational constants in MHz :           369.105145           154.398610           145.040687

                             ****ORCA TERMINATED NORMALLY****
TOTAL RUN TIME: 0 days 0 hours 0 minutes 22 seconds 781 msec
