                         Program Version 6.0.1  -  RELEASE   -
|  1> ! pbe def2-sv(p) def2/J RI DEFGRID1 loosescf d4 GCP(DFT/SV(P)) printgap
|  2> %output
|  3>     printlevel normal
|  4> end
|  5> * xyz 0 1
|  6> C 3.6316005733 -2.9358205742 0.3361490906
|  7> C 3.0212899098 -1.6315713209 0.8230582688
|  8> O 2.6999911505 -0.7650165667 -0.2822725573
|  9> C 1.5864770242 -0.9731098291 -0.9484695112
| 10> O 0.7723501589 -1.8381576309 -0.6929379375
| 11> C 1.4127679285 0.0137516001 -2.0851811835
| 12> C 0.2158327491 0.9317955521 -1.8208083894
| 13> H 0.0646112924 1.5837902396 -2.6863884721
| 14> C 0.4053640273 1.8020536545 -0.5925348464
| 15> O -0.4779745168 1.9656555921 0.2279863643
| 16> O 1.5894377042 2.343355249 -0.5502848324
| 17> C 1.9551787702 3.1346122727 0.6016299989
| 18> C 2.6222630143 2.2552938311 1.6457274434
| 19> S -1.3603744475 0.0273439059 -1.6490200167
| 20> P -1.6698400429 -0.2411616783 0.4473808721
| 21> S -0.3109246478 -0.4310243558 1.8477942876
| 22> O -2.7854469293 0.7892933384 0.8993669394
| 23> C -3.997783953 1.0203262676 0.162279075
| 24> O -2.6103433657 -1.5456730493 0.3487554419
| 25> C -2.1594733445 -2.8722517649 0.0520944558
| 26> H 3.9235378218 -3.5322893078 1.193896494
| 27> H 2.9050119385 -3.4944549381 -0.2493223408
| 28> H 4.5056468126 -2.7344530335 -0.2772237299
| 29> H 3.7307430222 -1.0570397944 1.4181495434
| 30> H 2.1108364224 -1.8101898639 1.4028581313
| 31> H 1.2205796633 -0.5488392411 -2.999284678
| 32> H 2.3158517562 0.6147991398 -2.1823050045
| 33> H 2.6435504747 3.8824164287 0.2078518339
| 34> H 1.0563137147 3.6083099975 1.0042402838
| 35> H 3.4846680865 1.7549653598 1.2144659478
| 36> H 2.9397778887 2.8678947763 2.4826150615
| 37> H 1.9231225893 1.5016837956 2.0068899833
| 38> H -4.5893973706 0.107038219 0.1235732637
| 39> H -3.7637926328 1.3587471466 -0.8472378716
| 40> H -4.5184095061 1.7967864074 0.7168265018
| 41> H -1.1230752885 -2.8713867279 -0.2786568025
| 42> H -2.806332042 -3.2563909323 -0.7343202578
| 43> H -2.2554797543 -3.4703798526 0.9569692714
| 44> *
| 45>
| 46>                          ****END OF INPUT****

CARTESIAN COORDINATES (ANGSTROEM)
---------------------------------
  C      3.631601   -2.935821    0.336149
  C      3.021290   -1.631571    0.823058
  O      2.699991   -0.765017   -0.282273
  C      1.586477   -0.973110   -0.948470
  O      0.772350   -1.838158   -0.692938
  C      1.412768    0.013752   -2.085181
  C      0.215833    0.931796   -1.820808
  H      0.064611    1.583790   -2.686388
  C      0.405364    1.802054   -0.592535
  O     -0.477975    1.965656    0.227986
  O      1.589438    2.343355   -0.550285
  C      1.955179    3.134612    0.601630
  C      2.622263    2.255294    1.645727
  S     -1.360374    0.027344   -1.649020
  P     -1.669840   -0.241162    0.447381
  S     -0.310925   -0.431024    1.847794
  O     -2.785447    0.789293    0.899367
  C     -3.997784    1.020326    0.162279
  O     -2.610343   -1.545673    0.348755
  C     -2.159473   -2.872252    0.052094
  H      3.923538   -3.532289    1.193896
  H      2.905012   -3.494455   -0.249322
  H      4.505647   -2.734453   -0.277224
  H      3.730743   -1.057040    1.418150
  H      2.110836   -1.810190    1.402858
  H      1.220580   -0.548839   -2.999285
  H      2.315852    0.614799   -2.182305
  H      2.643550    3.882416    0.207852
  H      1.056314    3.608310    1.004240
  H      3.484668    1.754965    1.214466
  H      2.939778    2.867895    2.482615
  H      1.923123    1.501684    2.006890
  H     -4.589397    0.107038    0.123573
  H     -3.763793    1.358747   -0.847238
  H     -4.518410    1.796786    0.716827
  H     -1.123075   -2.871387   -0.278657
  H     -2.806332   -3.256391   -0.734320
  H     -2.255480   -3.470380    0.956969

 Total Charge           Charge          ....    0
 Multiplicity           Mult            ....    1
 Number of Electrons    NEL             ....  174
 Basis Dimension        Dim             ....  316

ORBITAL ENERGIES
----------------

  NO   OCC          E(Eh)            E(eV)
   0   2.0000     -88.030663     -2395.4361
   1   2.0000     -87.962914     -2393.5926
   2   2.0000     -76.414174     -2079.3354
   3   2.0000     -18.818811      -512.0859
   4   2.0000     -18.804720      -511.7024
   5   2.0000     -18.769119      -510.7337
   6   2.0000     -18.769048      -510.7318
   7   2.0000     -18.754049      -510.3236
   8   2.0000     -18.737879      -509.8836
   9   2.0000     -10.024152      -272.7710
  10   2.0000     -10.010863      -272.4094
  11   2.0000      -9.955449      -270.9015
  12   2.0000      -9.954016      -270.8625
  13   2.0000      -9.941876      -270.5322
  14   2.0000      -9.931806      -270.2582
  15   2.0000      -9.922328      -270.0003
  16   2.0000      -9.914354      -269.7833
  17   2.0000      -9.884257      -268.9643
  18   2.0000      -9.883543      -268.9449
  19   2.0000      -7.675505      -208.8611
  20   2.0000      -7.608123      -207.0275
  21   2.0000      -6.409105      -174.4006
  22   2.0000      -5.703776      -155.2076
  23   2.0000      -5.699973      -155.1042
  24   2.0000      -5.692107      -154.8901
  25   2.0000      -5.637500      -153.4042
  26   2.0000      -5.628559      -153.1609
  27   2.0000      -5.627870      -153.1421
  28   2.0000      -4.632021      -126.0437
  29   2.0000      -4.631309      -126.0243
  30   2.0000      -4.629435      -125.9733
  31   2.0000      -1.028672       -27.9916
  32   2.0000      -1.010858       -27.5068
  33   2.0000      -0.963982       -26.2313
  34   2.0000      -0.932929       -25.3863
  35   2.0000      -0.917112       -24.9559
  36   2.0000      -0.915141       -24.9022
  37   2.0000      -0.766274       -20.8514
  38   2.0000      -0.709783       -19.3142
  39   2.0000      -0.706436       -19.2231
  40   2.0000      -0.682450       -18.5704
  41   2.0000      -0.654062       -17.7979
  42   2.0000      -0.622738       -16.9456
  43   2.0000      -0.616165       -16.7667
  44   2.0000      -0.602406       -16.3923
  45   2.0000      -0.595535       -16.2053
  46   2.0000      -0.568671       -15.4743
  47   2.0000      -0.508998       -13.8505
  48   2.0000      -0.500181       -13.6106
  49   2.0000      -0.498114       -13.5544
  50   2.0000      -0.480993       -13.0885
  51   2.0000      -0.458501       -12.4764
  52   2.0000      -0.457806       -12.4575
  53   2.0000      -0.450666       -12.2633
  54   2.0000      -0.436369       -11.8742
  55   2.0000      -0.427978       -11.6459
  56   2.0000      -0.417888       -11.3713
  57   2.0000      -0.415596       -11.3089
  58   2.0000      -0.410609       -11.1732
  59   2.0000      -0.399550       -10.8723
  60   2.0000      -0.395744       -10.7687
  61   2.0000      -0.393082       -10.6963
  62   2.0000      -0.387089       -10.5332
  63   2.0000      -0.378982       -10.3126
  64   2.0000      -0.377750       -10.2791
  65   2.0000      -0.367761       -10.0073
  66   2.0000      -0.357869        -9.7381
  67   2.0000      -0.352805        -9.6003
  68   2.0000      -0.348304        -9.4778
  69   2.0000      -0.338991        -9.2244
  70   2.0000      -0.332494        -9.0476
  71   2.0000      -0.328830        -8.9479
  72   2.0000      -0.319412        -8.6917
  73   2.0000      -0.306268        -8.3340
  74   2.0000      -0.301510        -8.2045
  75   2.0000      -0.293127        -7.9764
  76   2.0000      -0.282812        -7.6957
  77   2.0000      -0.276461        -7.5229
  78   2.0000      -0.267479        -7.2785
  79   2.0000      -0.264458        -7.1963
  80   2.0000      -0.254475        -6.9246
  81   2.0000      -0.244693        -6.6584
  82   2.0000      -0.235734        -6.4146
  83   2.0000      -0.232679        -6.3315
  84   2.0000      -0.201469        -5.4823
  85   2.0000      -0.180063        -4.8998
  86   2.0000      -0.174247        -4.7415
  87   0.0000      -0.043840        -1.1929
  88   0.0000      -0.035410        -0.9636
  89   0.0000      -0.028043        -0.7631
  90   0.0000       0.003992         0.1086
  91   0.0000       0.035688         0.9711

MULLIKEN ATOMIC CHARGES
-----------------------
   0 C :   -0.304266
   1 C :   -0.031587
   2 O :   -0.224070
   3 C :    0.096346
   4 O :   -0.184964
   5 C :   -0.021673
   6 C :   -0.312938
   7 H :    0.156082
   8 C :    0.203123
   9 O :   -0.178184
  10 O :   -0.219897
  11 C :   -0.012035
  12 C :   -0.325024
  13 S :   -0.099112
  14 P :    0.638512
  15 S :   -0.331886
  16 O :   -0.361842
  17 C :   -0.099572
  18 O :   -0.403906
  19 C :   -0.118762
  20 H :    0.113837
  21 H :    0.126189
  22 H :    0.108575
  23 H :    0.100547
  24 H :    0.134067
  25 H :    0.119359
  26 H :    0.114322
  27 H :    0.104458
  28 H :    0.119343
  29 H :    0.117053
  30 H :    0.111165
  31 H :    0.150810
  32 H :    0.116818
  33 H :    0.109903
  34 H :    0.123240
  35 H :    0.146911
  36 H :    0.105730
  37 H :    0.113328
Sum of atomic charges:    0.0000000

LOEWDIN ATOMIC CHARGES
----------------------
   0 C :   -0.357025
   1 C :   -0.115310
   2 O :   -0.047098
   3 C :    0.026330
   4 O :   -0.165238
   5 C :   -0.248151
   6 C :   -0.260859
   7 H :    0.152445
   8 C :    0.013892
   9 O :   -0.146625
  10 O :   -0.037252
  11 C :   -0.104198
  12 C :   -0.361533
  13 S :    0.099107
  14 P :    0.591600
  15 S :   -0.313889
  16 O :   -0.238786
  17 C :   -0.212738
  18 O :   -0.270285
  19 C :   -0.219130
  20 H :    0.131577
  21 H :    0.129446
  22 H :    0.122013
  23 H :    0.115803
  24 H :    0.120762
  25 H :    0.144145
  26 H :    0.138630
  27 H :    0.118588
  28 H :    0.125069
  29 H :    0.123569
  30 H :    0.130546
  31 H :    0.130055
  32 H :    0.111848
  33 H :    0.103998
  34 H :    0.122193
  35 H :    0.119334
  36 H :    0.111812
  37 H :    0.115357

  Mayer bond orders larger than 0.100000
B(  0-C ,  1-C ) :   1.1682 B(  0-C , 20-H ) :   0.9446 B(  0-C , 21-H ) :   0.9451
B(  0-C , 22-H ) :   0.9478 B(  1-C ,  2-O ) :   0.9078 B(  1-C , 23-H ) :   0.9353
B(  1-C , 24-H ) :   0.9043 B(  2-O ,  3-C ) :   1.2454 B(  3-C ,  4-O ) :   1.9590
B(  3-C ,  5-C ) :   1.0070 B(  5-C ,  6-C ) :   1.0312 B(  5-C , 25-H ) :   0.8916
B(  5-C , 26-H ) :   0.8832 B(  6-C ,  7-H ) :   0.8718 B(  6-C ,  8-C ) :   0.8972
B(  6-C , 13-S ) :   1.0392 B(  8-C ,  9-O ) :   1.9757 B(  8-C , 10-O ) :   1.2725
B(  9-O , 14-P ) :   0.1092 B( 10-O , 11-C ) :   0.8949 B( 11-C , 12-C ) :   1.1807
B( 11-C , 27-H ) :   0.9365 B( 11-C , 28-H ) :   0.9117 B( 12-C , 29-H ) :   0.9431
B( 12-C , 30-H ) :   0.9394 B( 12-C , 31-H ) :   0.9250 B( 13-S , 14-P ) :   0.9256
B( 13-S , 15-S ) :   0.1195 B( 14-P , 15-S ) :   1.5719 B( 14-P , 16-O ) :   1.1165
B( 14-P , 18-O ) :   1.0544 B( 16-O , 17-C ) :   0.9321 B( 17-C , 32-H ) :   0.9461
B( 17-C , 33-H ) :   0.9376 B( 17-C , 34-H ) :   0.9601 B( 18-O , 19-C ) :   0.9227
B( 19-C , 35-H ) :   0.9202 B( 19-C , 36-H ) :   0.9591 B( 19-C , 37-H ) :   0.9567

Dispersion correction           -0.056147404
FINAL SINGLE POINT ENERGY     -1979.002533828855

DIPOLE MOMENT
-------------

Method             : SCF
Type of density    : Electron Density
Multiplicity       :   1
Irrep              :   0
Energy             : -1979.1311766700150656 Eh
Relativity type    :
Basis              : AO
                                X                 Y                 Z
Electronic contribution:    -13.453661972       3.712434979      -2.977506634
Nuclear contribution   :     14.444891530      -3.229061231       1.914434466
                        -----------------------------------------
Total Dipole Moment    :      0.991229558       0.483373747      -1.063072168
                        -----------------------------------------
Magnitude (a.u.)       :      1.531766513
Magnitude (Debye)      :      3.893441059

Rotational constants in cm-1:             0.012939             0.009087             0.007326
Rotational constants in MHz :           387.900297           272.426059           219.622612

                             ****ORCA TERMINATED NORMALLY****
TOTAL RUN TIME: 0 days 0 hours 1 minutes 32 seconds 354 msec
