                         Program Version 6.0.0  -   RELEASE  -
|  1> ! r2scan-3c def2/J RI DEFGRID2 scfconv6 printgap
|  2> %output
|  3>     printlevel normal
|  4> end
|  5> * xyz 0 1
|  6> C 3.8487453169 -0.2678989757 -2.8033522904
|  7> C 4.3701069385 -0.8591809571 -1.5083313469
|  8> O 3.3164854467 -1.0608625146 -0.5504246989
|  9> P 2.6588811109 0.1581515696 0.2193445374
| 10> S 3.8288071168 1.6753584082 0.6178402242
| 11> O 2.1040982925 -0.7019824937 1.4308345421
| 12> C 1.4307169536 -0.0719394533 2.5381549062
| 13> C 2.3946520537 0.1750969335 3.681589221
| 14> S 0.9112180026 0.6774191074 -0.8927456674
| 15> C 0.1925025929 -0.9934304506 -0.9942913474
| 16> S -1.0397689771 -1.3129494625 0.2878917686
| 17> P -2.4992818484 0.0616892222 -0.4499335059
| 18> S -2.5781848212 0.2747897225 -2.3904119022
| 19> O -2.1801528545 1.4237621957 0.2807110578
| 20> C -2.1216301801 1.5751175987 1.7195482629
| 21> C -3.4468028025 2.0589921253 2.2715950055
| 22> O -3.845804626 -0.4068149988 0.2540680194
| 23> C -4.7226701791 -1.3870670807 -0.331877312
| 24> C -4.0791391194 -2.754686977 -0.4302807872
| 25> H 3.057377368 -0.888419248 -3.2164769527
| 26> H 3.4543360668 0.7320227841 -2.6232503739
| 27> H 4.6609605767 -0.2002343801 -3.519979514
| 28> H 5.1260596449 -0.2036150755 -1.0641581744
| 29> H 4.7858898128 -1.856557925 -1.6580582945
| 30> H 0.9787731505 0.8676653202 2.2013843808
| 31> H 0.6451212519 -0.7759661607 2.8215112153
| 32> H 2.8642152218 -0.7580791267 3.9784072589
| 33> H 3.169055235 0.874876504 3.3744996763
| 34> H 1.8528037717 0.5917352311 4.5244164911
| 35> H 0.97817205 -1.7362430022 -0.8778958923
| 36> H -0.2894343046 -1.0612226515 -1.9696450609
| 37> H -1.8348776052 0.6182003794 2.1654857674
| 38> H -1.3327027185 2.3129420813 1.8813308975
| 39> H -4.2190200512 1.3122375716 2.1093497652
| 40> H -3.3402375769 2.2404588686 3.3365676939
| 41> H -3.7405186903 2.981402214 1.7781805508
| 42> H -5.5854293064 -1.3953711033 0.335629541
| 43> H -5.0214614057 -1.0310602916 -1.3223662369
| 44> H -3.677028686 -3.056316857 0.5336212908
| 45> H -4.8228371338 -3.4761965594 -0.7530406199
| 46> H -3.2709681956 -2.734070815 -1.1597561791
| 47> *
| 48>
| 49>                          ****END OF INPUT****

CARTESIAN COORDINATES (ANGSTROEM)
---------------------------------
  C      3.848745   -0.267899   -2.803352
  C      4.370107   -0.859181   -1.508331
  O      3.316485   -1.060863   -0.550425
  P      2.658881    0.158152    0.219345
  S      3.828807    1.675358    0.617840
  O      2.104098   -0.701982    1.430835
  C      1.430717   -0.071939    2.538155
  C      2.394652    0.175097    3.681589
  S      0.911218    0.677419   -0.892746
  C      0.192503   -0.993430   -0.994291
  S     -1.039769   -1.312949    0.287892
  P     -2.499282    0.061689   -0.449934
  S     -2.578185    0.274790   -2.390412
  O     -2.180153    1.423762    0.280711
  C     -2.121630    1.575118    1.719548
  C     -3.446803    2.058992    2.271595
  O     -3.845805   -0.406815    0.254068
  C     -4.722670   -1.387067   -0.331877
  C     -4.079139   -2.754687   -0.430281
  H      3.057377   -0.888419   -3.216477
  H      3.454336    0.732023   -2.623250
  H      4.660961   -0.200234   -3.519980
  H      5.126060   -0.203615   -1.064158
  H      4.785890   -1.856558   -1.658058
  H      0.978773    0.867665    2.201384
  H      0.645121   -0.775966    2.821511
  H      2.864215   -0.758079    3.978407
  H      3.169055    0.874877    3.374500
  H      1.852804    0.591735    4.524416
  H      0.978172   -1.736243   -0.877896
  H     -0.289434   -1.061223   -1.969645
  H     -1.834878    0.618200    2.165486
  H     -1.332703    2.312942    1.881331
  H     -4.219020    1.312238    2.109350
  H     -3.340238    2.240459    3.336568
  H     -3.740519    2.981402    1.778181
  H     -5.585429   -1.395371    0.335630
  H     -5.021461   -1.031060   -1.322366
  H     -3.677029   -3.056317    0.533621
  H     -4.822837   -3.476197   -0.753041
  H     -3.270968   -2.734071   -1.159756

 Total Charge           Charge          ....    0
 Multiplicity           Mult            ....    1
 Number of Electrons    NEL             ....  202
 Basis Dimension        Dim             ....  539

ORBITAL ENERGIES
----------------

  NO   OCC          E(Eh)            E(eV)
   0   2.0000     -88.578704     -2410.3491
   1   2.0000     -88.573724     -2410.2136
   2   2.0000     -88.525948     -2408.9135
   3   2.0000     -88.522542     -2408.8208
   4   2.0000     -76.919283     -2093.0801
   5   2.0000     -76.914470     -2092.9491
   6   2.0000     -19.000743      -517.0365
   7   2.0000     -18.994512      -516.8669
   8   2.0000     -18.993864      -516.8493
   9   2.0000     -18.992242      -516.8052
  10   2.0000     -10.107195      -275.0308
  11   2.0000     -10.106749      -275.0186
  12   2.0000     -10.105714      -274.9905
  13   2.0000     -10.100983      -274.8617
  14   2.0000     -10.099163      -274.8122
  15   2.0000     -10.034657      -273.0569
  16   2.0000     -10.033950      -273.0377
  17   2.0000     -10.028290      -272.8836
  18   2.0000     -10.026345      -272.8307
  19   2.0000      -7.873176      -214.2400
  20   2.0000      -7.867305      -214.0802
  21   2.0000      -7.820657      -212.8109
  22   2.0000      -7.817171      -212.7160
  23   2.0000      -6.597741      -179.5337
  24   2.0000      -6.592924      -179.4026
  25   2.0000      -5.819922      -158.3681
  26   2.0000      -5.817061      -158.2903
  27   2.0000      -5.814528      -158.2214
  28   2.0000      -5.810902      -158.1227
  29   2.0000      -5.810379      -158.1084
  30   2.0000      -5.804474      -157.9478
  31   2.0000      -5.768381      -156.9656
  32   2.0000      -5.764806      -156.8683
  33   2.0000      -5.760826      -156.7600
  34   2.0000      -5.760699      -156.7566
  35   2.0000      -5.757533      -156.6704
  36   2.0000      -5.757138      -156.6597
  37   2.0000      -4.743586      -129.0795
  38   2.0000      -4.742619      -129.0532
  39   2.0000      -4.741216      -129.0150
  40   2.0000      -4.738288      -128.9354
  41   2.0000      -4.738216      -128.9334
  42   2.0000      -4.736433      -128.8849
  43   2.0000      -1.056637       -28.7526
  44   2.0000      -1.054982       -28.7075
  45   2.0000      -1.016076       -27.6488
  46   2.0000      -1.013062       -27.5668
  47   2.0000      -0.801441       -21.8083
  48   2.0000      -0.761118       -20.7111
  49   2.0000      -0.753309       -20.4986
  50   2.0000      -0.740034       -20.1373
  51   2.0000      -0.728321       -19.8186
  52   2.0000      -0.714305       -19.4372
  53   2.0000      -0.692251       -18.8371
  54   2.0000      -0.671591       -18.2749
  55   2.0000      -0.632027       -17.1983
  56   2.0000      -0.628033       -17.0896
  57   2.0000      -0.613594       -16.6968
  58   2.0000      -0.601631       -16.3712
  59   2.0000      -0.593780       -16.1576
  60   2.0000      -0.531107       -14.4522
  61   2.0000      -0.526449       -14.3254
  62   2.0000      -0.499896       -13.6029
  63   2.0000      -0.493646       -13.4328
  64   2.0000      -0.478013       -13.0074
  65   2.0000      -0.470923       -12.8145
  66   2.0000      -0.466036       -12.6815
  67   2.0000      -0.453250       -12.3336
  68   2.0000      -0.447800       -12.1853
  69   2.0000      -0.441567       -12.0156
  70   2.0000      -0.427858       -11.6426
  71   2.0000      -0.417242       -11.3537
  72   2.0000      -0.412929       -11.2364
  73   2.0000      -0.406467       -11.0605
  74   2.0000      -0.399273       -10.8648
  75   2.0000      -0.392104       -10.6697
  76   2.0000      -0.385099       -10.4791
  77   2.0000      -0.378074       -10.2879
  78   2.0000      -0.373286       -10.1576
  79   2.0000      -0.371253       -10.1023
  80   2.0000      -0.366560        -9.9746
  81   2.0000      -0.363301        -9.8859
  82   2.0000      -0.359870        -9.7926
  83   2.0000      -0.351277        -9.5587
  84   2.0000      -0.344579        -9.3765
  85   2.0000      -0.341114        -9.2822
  86   2.0000      -0.332493        -9.0476
  87   2.0000      -0.317648        -8.6436
  88   2.0000      -0.314937        -8.5699
  89   2.0000      -0.312116        -8.4931
  90   2.0000      -0.306860        -8.3501
  91   2.0000      -0.291103        -7.9213
  92   2.0000      -0.287388        -7.8202
  93   2.0000      -0.282567        -7.6890
  94   2.0000      -0.272149        -7.4056
  95   2.0000      -0.248883        -6.7725
  96   2.0000      -0.233994        -6.3673
  97   2.0000      -0.226044        -6.1510
  98   2.0000      -0.222462        -6.0535
  99   2.0000      -0.220187        -5.9916
 100   2.0000      -0.214108        -5.8262
 101   0.0000      -0.045383        -1.2349
 102   0.0000      -0.027462        -0.7473
 103   0.0000      -0.013289        -0.3616
 104   0.0000       0.002393         0.0651
 105   0.0000       0.006760         0.1840

MULLIKEN ATOMIC CHARGES
-----------------------
   0 C :   -0.430532
   1 C :   -0.151682
   2 O :   -0.310220
   3 P :    0.678219
   4 S :   -0.449843
   5 O :   -0.309790
   6 C :   -0.120153
   7 C :   -0.462955
   8 S :   -0.136744
   9 C :   -0.226121
  10 S :   -0.160507
  11 P :    0.644989
  12 S :   -0.431432
  13 O :   -0.258582
  14 C :   -0.110097
  15 C :   -0.467194
  16 O :   -0.291074
  17 C :   -0.166307
  18 C :   -0.441962
  19 H :    0.149371
  20 H :    0.176163
  21 H :    0.147699
  22 H :    0.173196
  23 H :    0.149163
  24 H :    0.154192
  25 H :    0.159213
  26 H :    0.153454
  27 H :    0.180131
  28 H :    0.142283
  29 H :    0.203624
  30 H :    0.221318
  31 H :    0.153848
  32 H :    0.161295
  33 H :    0.165139
  34 H :    0.145987
  35 H :    0.160472
  36 H :    0.148686
  37 H :    0.175751
  38 H :    0.153353
  39 H :    0.149098
  40 H :    0.178549
Sum of atomic charges:    0.0000000

LOEWDIN ATOMIC CHARGES
----------------------
   0 C :   -0.401737
   1 C :    0.022055
   2 O :   -0.669235
   3 P :    0.366460
   4 S :   -0.108859
   5 O :   -0.663927
   6 C :    0.008610
   7 C :   -0.398859
   8 S :    0.159364
   9 C :   -0.417834
  10 S :    0.133614
  11 P :    0.381230
  12 S :   -0.092252
  13 O :   -0.651433
  14 C :    0.016781
  15 C :   -0.392530
  16 O :   -0.672944
  17 C :    0.022516
  18 C :   -0.408374
  19 H :    0.157837
  20 H :    0.167261
  21 H :    0.159716
  22 H :    0.181193
  23 H :    0.179481
  24 H :    0.176488
  25 H :    0.179805
  26 H :    0.159803
  27 H :    0.169491
  28 H :    0.157024
  29 H :    0.195560
  30 H :    0.192414
  31 H :    0.173682
  32 H :    0.182467
  33 H :    0.166248
  34 H :    0.158761
  35 H :    0.163258
  36 H :    0.179571
  37 H :    0.181145
  38 H :    0.160070
  39 H :    0.159976
  40 H :    0.166103

  Mayer bond orders larger than 0.100000
B(  0-C ,  1-C ) :   0.9293 B(  0-C , 19-H ) :   0.9689 B(  0-C , 20-H ) :   0.9605
B(  0-C , 21-H ) :   0.9612 B(  1-C ,  2-O ) :   0.8086 B(  1-C , 22-H ) :   0.9645
B(  1-C , 23-H ) :   0.9599 B(  2-O ,  3-P ) :   1.0952 B(  3-P ,  4-S ) :   1.8157
B(  3-P ,  5-O ) :   1.0882 B(  3-P ,  8-S ) :   1.0679 B(  5-O ,  6-C ) :   0.7519
B(  6-C ,  7-C ) :   0.9539 B(  6-C , 24-H ) :   0.9569 B(  6-C , 25-H ) :   0.9584
B(  7-C , 26-H ) :   0.9780 B(  7-C , 27-H ) :   0.9572 B(  7-C , 28-H ) :   0.9654
B(  8-S ,  9-C ) :   0.8930 B(  9-C , 10-S ) :   0.9104 B(  9-C , 29-H ) :   0.9142
B(  9-C , 30-H ) :   0.9109 B( 10-S , 11-P ) :   1.0068 B( 11-P , 12-S ) :   1.8425
B( 11-P , 13-O ) :   1.1411 B( 11-P , 16-O ) :   1.0361 B( 13-O , 14-C ) :   0.7434
B( 14-C , 15-C ) :   0.9433 B( 14-C , 31-H ) :   0.9661 B( 14-C , 32-H ) :   0.9587
B( 15-C , 33-H ) :   0.9682 B( 15-C , 34-H ) :   0.9646 B( 15-C , 35-H ) :   0.9712
B( 16-O , 17-C ) :   0.8174 B( 17-C , 18-C ) :   0.9161 B( 17-C , 36-H ) :   0.9610
B( 17-C , 37-H ) :   0.9685 B( 18-C , 38-H ) :   0.9667 B( 18-C , 39-H ) :   0.9559
B( 18-C , 40-H ) :   0.9640

Dispersion correction           -0.021164338
FINAL SINGLE POINT ENERGY     -2932.462861980864

DIPOLE MOMENT
-------------

Method             : SCF
Type of density    : Electron Density
Multiplicity       :   1
Irrep              :   0
Energy             : -2932.4881603605299460 Eh
Relativity type    :
Basis              : AO
                                X                 Y                 Z
Electronic contribution:      4.561095539       5.215331250      -9.510167932
Nuclear contribution   :     -5.401927785      -6.476691220      10.499140350
                        -----------------------------------------
Total Dipole Moment    :     -0.840832247      -1.261359970       0.988972418
                        -----------------------------------------
Magnitude (a.u.)       :      1.809998421
Magnitude (Debye)      :      4.600650367

Rotational constants in cm-1:             0.012345             0.004676             0.004110
Rotational constants in MHz :           370.105861           140.173765           123.211046

                             ****ORCA TERMINATED NORMALLY****
TOTAL RUN TIME: 0 days 0 hours 1 minutes 17 seconds 396 msec
