                         Program Version 6.0.0  -   RELEASE  -
|  1> ! r2scan-3c def2/J RI DEFGRID2 scfconv6 printgap
|  2> %output
|  3>     printlevel normal
|  4> end
|  5> %cpcm
|  6>     smd true
|  7>     smdsolvent "water"
|  8> end
|  9> * xyz 0 1
| 10> C 3.8487453169 -0.2678989757 -2.8033522904
| 11> C 4.3701069385 -0.8591809571 -1.5083313469
| 12> O 3.3164854467 -1.0608625146 -0.5504246989
| 13> P 2.6588811109 0.1581515696 0.2193445374
| 14> S 3.8288071168 1.6753584082 0.6178402242
| 15> O 2.1040982925 -0.7019824937 1.4308345421
| 16> C 1.4307169536 -0.0719394533 2.5381549062
| 17> C 2.3946520537 0.1750969335 3.681589221
| 18> S 0.9112180026 0.6774191074 -0.8927456674
| 19> C 0.1925025929 -0.9934304506 -0.9942913474
| 20> S -1.0397689771 -1.3129494625 0.2878917686
| 21> P -2.4992818484 0.0616892222 -0.4499335059
| 22> S -2.5781848212 0.2747897225 -2.3904119022
| 23> O -2.1801528545 1.4237621957 0.2807110578
| 24> C -2.1216301801 1.5751175987 1.7195482629
| 25> C -3.4468028025 2.0589921253 2.2715950055
| 26> O -3.845804626 -0.4068149988 0.2540680194
| 27> C -4.7226701791 -1.3870670807 -0.331877312
| 28> C -4.0791391194 -2.754686977 -0.4302807872
| 29> H 3.057377368 -0.888419248 -3.2164769527
| 30> H 3.4543360668 0.7320227841 -2.6232503739
| 31> H 4.6609605767 -0.2002343801 -3.519979514
| 32> H 5.1260596449 -0.2036150755 -1.0641581744
| 33> H 4.7858898128 -1.856557925 -1.6580582945
| 34> H 0.9787731505 0.8676653202 2.2013843808
| 35> H 0.6451212519 -0.7759661607 2.8215112153
| 36> H 2.8642152218 -0.7580791267 3.9784072589
| 37> H 3.169055235 0.874876504 3.3744996763
| 38> H 1.8528037717 0.5917352311 4.5244164911
| 39> H 0.97817205 -1.7362430022 -0.8778958923
| 40> H -0.2894343046 -1.0612226515 -1.9696450609
| 41> H -1.8348776052 0.6182003794 2.1654857674
| 42> H -1.3327027185 2.3129420813 1.8813308975
| 43> H -4.2190200512 1.3122375716 2.1093497652
| 44> H -3.3402375769 2.2404588686 3.3365676939
| 45> H -3.7405186903 2.981402214 1.7781805508
| 46> H -5.5854293064 -1.3953711033 0.335629541
| 47> H -5.0214614057 -1.0310602916 -1.3223662369
| 48> H -3.677028686 -3.056316857 0.5336212908
| 49> H -4.8228371338 -3.4761965594 -0.7530406199
| 50> H -3.2709681956 -2.734070815 -1.1597561791
| 51> *
| 52>
| 53>                          ****END OF INPUT****

CARTESIAN COORDINATES (ANGSTROEM)
---------------------------------
  C      3.848745   -0.267899   -2.803352
  C      4.370107   -0.859181   -1.508331
  O      3.316485   -1.060863   -0.550425
  P      2.658881    0.158152    0.219345
  S      3.828807    1.675358    0.617840
  O      2.104098   -0.701982    1.430835
  C      1.430717   -0.071939    2.538155
  C      2.394652    0.175097    3.681589
  S      0.911218    0.677419   -0.892746
  C      0.192503   -0.993430   -0.994291
  S     -1.039769   -1.312949    0.287892
  P     -2.499282    0.061689   -0.449934
  S     -2.578185    0.274790   -2.390412
  O     -2.180153    1.423762    0.280711
  C     -2.121630    1.575118    1.719548
  C     -3.446803    2.058992    2.271595
  O     -3.845805   -0.406815    0.254068
  C     -4.722670   -1.387067   -0.331877
  C     -4.079139   -2.754687   -0.430281
  H      3.057377   -0.888419   -3.216477
  H      3.454336    0.732023   -2.623250
  H      4.660961   -0.200234   -3.519980
  H      5.126060   -0.203615   -1.064158
  H      4.785890   -1.856558   -1.658058
  H      0.978773    0.867665    2.201384
  H      0.645121   -0.775966    2.821511
  H      2.864215   -0.758079    3.978407
  H      3.169055    0.874877    3.374500
  H      1.852804    0.591735    4.524416
  H      0.978172   -1.736243   -0.877896
  H     -0.289434   -1.061223   -1.969645
  H     -1.834878    0.618200    2.165486
  H     -1.332703    2.312942    1.881331
  H     -4.219020    1.312238    2.109350
  H     -3.340238    2.240459    3.336568
  H     -3.740519    2.981402    1.778181
  H     -5.585429   -1.395371    0.335630
  H     -5.021461   -1.031060   -1.322366
  H     -3.677029   -3.056317    0.533621
  H     -4.822837   -3.476197   -0.753041
  H     -3.270968   -2.734071   -1.159756

 Total Charge           Charge          ....    0
 Multiplicity           Mult            ....    1
 Number of Electrons    NEL             ....  202
 Basis Dimension        Dim             ....  539

ORBITAL ENERGIES
----------------

  NO   OCC          E(Eh)            E(eV)
   0   2.0000     -88.577614     -2410.3194
   1   2.0000     -88.577323     -2410.3115
   2   2.0000     -88.532473     -2409.0911
   3   2.0000     -88.531621     -2409.0679
   4   2.0000     -76.921232     -2093.1331
   5   2.0000     -76.920267     -2093.1069
   6   2.0000     -18.997204      -516.9402
   7   2.0000     -18.996087      -516.9098
   8   2.0000     -18.995142      -516.8841
   9   2.0000     -18.994890      -516.8772
  10   2.0000     -10.104096      -274.9464
  11   2.0000     -10.092376      -274.6275
  12   2.0000     -10.091197      -274.5954
  13   2.0000     -10.090999      -274.5900
  14   2.0000     -10.090343      -274.5722
  15   2.0000     -10.018760      -272.6243
  16   2.0000     -10.018529      -272.6180
  17   2.0000     -10.018336      -272.6128
  18   2.0000     -10.016738      -272.5693
  19   2.0000      -7.871701      -214.1999
  20   2.0000      -7.871368      -214.1908
  21   2.0000      -7.827561      -212.9988
  22   2.0000      -7.826602      -212.9727
  23   2.0000      -6.599750      -179.5883
  24   2.0000      -6.598774      -179.5618
  25   2.0000      -5.818547      -158.3307
  26   2.0000      -5.818499      -158.3294
  27   2.0000      -5.815630      -158.2513
  28   2.0000      -5.814950      -158.2328
  29   2.0000      -5.808821      -158.0661
  30   2.0000      -5.808591      -158.0598
  31   2.0000      -5.775157      -157.1500
  32   2.0000      -5.774145      -157.1225
  33   2.0000      -5.767719      -156.9476
  34   2.0000      -5.767669      -156.9462
  35   2.0000      -5.766890      -156.9251
  36   2.0000      -5.766669      -156.9190
  37   2.0000      -4.745539      -129.1327
  38   2.0000      -4.744581      -129.1066
  39   2.0000      -4.744095      -129.0934
  40   2.0000      -4.744036      -129.0918
  41   2.0000      -4.743363      -129.0735
  42   2.0000      -4.742389      -129.0470
  43   2.0000      -1.057248       -28.7692
  44   2.0000      -1.054579       -28.6966
  45   2.0000      -1.014383       -27.6028
  46   2.0000      -1.013682       -27.5837
  47   2.0000      -0.800615       -21.7859
  48   2.0000      -0.755842       -20.5675
  49   2.0000      -0.745980       -20.2991
  50   2.0000      -0.726632       -19.7727
  51   2.0000      -0.719880       -19.5889
  52   2.0000      -0.712678       -19.3930
  53   2.0000      -0.694282       -18.8924
  54   2.0000      -0.675855       -18.3910
  55   2.0000      -0.627811       -17.0836
  56   2.0000      -0.622974       -16.9520
  57   2.0000      -0.603572       -16.4240
  58   2.0000      -0.595071       -16.1927
  59   2.0000      -0.589546       -16.0424
  60   2.0000      -0.525541       -14.3007
  61   2.0000      -0.519807       -14.1447
  62   2.0000      -0.491583       -13.3767
  63   2.0000      -0.490673       -13.3519
  64   2.0000      -0.475072       -12.9274
  65   2.0000      -0.463979       -12.6255
  66   2.0000      -0.462870       -12.5953
  67   2.0000      -0.446992       -12.1633
  68   2.0000      -0.436860       -11.8876
  69   2.0000      -0.435166       -11.8415
  70   2.0000      -0.423080       -11.5126
  71   2.0000      -0.412621       -11.2280
  72   2.0000      -0.406276       -11.0553
  73   2.0000      -0.402178       -10.9438
  74   2.0000      -0.393996       -10.7212
  75   2.0000      -0.389663       -10.6033
  76   2.0000      -0.378338       -10.2951
  77   2.0000      -0.371973       -10.1219
  78   2.0000      -0.366048        -9.9607
  79   2.0000      -0.363191        -9.8829
  80   2.0000      -0.354693        -9.6517
  81   2.0000      -0.353146        -9.6096
  82   2.0000      -0.348830        -9.4921
  83   2.0000      -0.344265        -9.3679
  84   2.0000      -0.343281        -9.3412
  85   2.0000      -0.337832        -9.1929
  86   2.0000      -0.326982        -8.8976
  87   2.0000      -0.308642        -8.3986
  88   2.0000      -0.308121        -8.3844
  89   2.0000      -0.304296        -8.2803
  90   2.0000      -0.302922        -8.2429
  91   2.0000      -0.287402        -7.8206
  92   2.0000      -0.285099        -7.7579
  93   2.0000      -0.279337        -7.6011
  94   2.0000      -0.273754        -7.4492
  95   2.0000      -0.250302        -6.8111
  96   2.0000      -0.240010        -6.5310
  97   2.0000      -0.233530        -6.3547
  98   2.0000      -0.230756        -6.2792
  99   2.0000      -0.229443        -6.2435
 100   2.0000      -0.218923        -5.9572
 101   0.0000      -0.047218        -1.2849
 102   0.0000      -0.032930        -0.8961
 103   0.0000      -0.015210        -0.4139
 104   0.0000      -0.002388        -0.0650
 105   0.0000       0.007829         0.2130

MULLIKEN ATOMIC CHARGES
-----------------------
   0 C :   -0.471967
   1 C :   -0.144395
   2 O :   -0.328861
   3 P :    0.705557
   4 S :   -0.503315
   5 O :   -0.334074
   6 C :   -0.105177
   7 C :   -0.509486
   8 S :   -0.174925
   9 C :   -0.228330
  10 S :   -0.147963
  11 P :    0.660694
  12 S :   -0.492726
  13 O :   -0.296307
  14 C :   -0.094844
  15 C :   -0.510667
  16 O :   -0.307769
  17 C :   -0.159710
  18 C :   -0.480289
  19 H :    0.169173
  20 H :    0.167790
  21 H :    0.171447
  22 H :    0.175942
  23 H :    0.175904
  24 H :    0.170852
  25 H :    0.181041
  26 H :    0.167372
  27 H :    0.170351
  28 H :    0.170602
  29 H :    0.234634
  30 H :    0.235727
  31 H :    0.172092
  32 H :    0.180736
  33 H :    0.170108
  34 H :    0.171096
  35 H :    0.167727
  36 H :    0.176664
  37 H :    0.180088
  38 H :    0.168211
  39 H :    0.172908
  40 H :    0.174091
Sum of atomic charges:    0.0000000

LOEWDIN ATOMIC CHARGES
----------------------
   0 C :   -0.405664
   1 C :    0.027524
   2 O :   -0.676149
   3 P :    0.372132
   4 S :   -0.147104
   5 O :   -0.676304
   6 C :    0.015800
   7 C :   -0.403198
   8 S :    0.138176
   9 C :   -0.409162
  10 S :    0.147714
  11 P :    0.384194
  12 S :   -0.138014
  13 O :   -0.675703
  14 C :    0.024874
  15 C :   -0.395943
  16 O :   -0.675780
  17 C :    0.028209
  18 C :   -0.411165
  19 H :    0.163347
  20 H :    0.161559
  21 H :    0.168141
  22 H :    0.181800
  23 H :    0.191058
  24 H :    0.182570
  25 H :    0.189810
  26 H :    0.163012
  27 H :    0.163100
  28 H :    0.167828
  29 H :    0.206427
  30 H :    0.197296
  31 H :    0.182350
  32 H :    0.190717
  33 H :    0.166046
  34 H :    0.168889
  35 H :    0.163875
  36 H :    0.191576
  37 H :    0.181976
  38 H :    0.163861
  39 H :    0.168555
  40 H :    0.161768

  Mayer bond orders larger than 0.100000
B(  0-C ,  1-C ) :   0.9191 B(  0-C , 19-H ) :   0.9661 B(  0-C , 20-H ) :   0.9631
B(  0-C , 21-H ) :   0.9560 B(  1-C ,  2-O ) :   0.7972 B(  1-C , 22-H ) :   0.9624
B(  1-C , 23-H ) :   0.9495 B(  2-O ,  3-P ) :   1.1056 B(  3-P ,  4-S ) :   1.7839
B(  3-P ,  5-O ) :   1.0982 B(  3-P ,  8-S ) :   1.0708 B(  5-O ,  6-C ) :   0.7385
B(  6-C ,  7-C ) :   0.9437 B(  6-C , 24-H ) :   0.9476 B(  6-C , 25-H ) :   0.9483
B(  7-C , 26-H ) :   0.9759 B(  7-C , 27-H ) :   0.9625 B(  7-C , 28-H ) :   0.9596
B(  8-S ,  9-C ) :   0.8845 B(  9-C , 10-S ) :   0.9068 B(  9-C , 29-H ) :   0.9053
B(  9-C , 30-H ) :   0.9055 B( 10-S , 11-P ) :   1.0217 B( 11-P , 12-S ) :   1.8125
B( 11-P , 13-O ) :   1.1464 B( 11-P , 16-O ) :   1.0486 B( 13-O , 14-C ) :   0.7360
B( 14-C , 15-C ) :   0.9320 B( 14-C , 31-H ) :   0.9558 B( 14-C , 32-H ) :   0.9494
B( 15-C , 33-H ) :   0.9676 B( 15-C , 34-H ) :   0.9584 B( 15-C , 35-H ) :   0.9702
B( 16-O , 17-C ) :   0.8056 B( 17-C , 18-C ) :   0.9040 B( 17-C , 36-H ) :   0.9502
B( 17-C , 37-H ) :   0.9676 B( 18-C , 38-H ) :   0.9640 B( 18-C , 39-H ) :   0.9510
B( 18-C , 40-H ) :   0.9655

Dispersion correction           -0.021164338
FINAL SINGLE POINT ENERGY     -2932.473498793488

DIPOLE MOMENT
-------------

Method             : SCF
Type of density    : Electron Density
Multiplicity       :   1
Irrep              :   0
Energy             : -2932.4987971731538892 Eh
Relativity type    :
Basis              : AO
                                X                 Y                 Z
Electronic contribution:      4.297515771       4.545775055      -9.007328507
Nuclear contribution   :     -5.401927785      -6.476691220      10.499140350
                        -----------------------------------------
Total Dipole Moment    :     -1.104412014      -1.930916165       1.491811843
                        -----------------------------------------
Magnitude (a.u.)       :      2.678369972
Magnitude (Debye)      :      6.807875439

Rotational constants in cm-1:             0.012345             0.004676             0.004110
Rotational constants in MHz :           370.105861           140.173765           123.211046

                             ****ORCA TERMINATED NORMALLY****
TOTAL RUN TIME: 0 days 0 hours 1 minutes 54 seconds 195 msec
