                         Program Version 6.0.1  -  RELEASE   -
|  1> ! r2scan-3c def2/J RI DEFGRID2 scfconv6 printgap
|  2> %output
|  3>     printlevel normal
|  4> end
|  5> * xyz 0 1
|  6> C 4.0394921365 -0.1728036532 -2.8871520952
|  7> C 4.1524677666 -1.5424255654 -2.2374924204
|  8> O 2.8797622705 -1.9291463717 -1.6837399488
|  9> C 2.6911022567 -1.8365102432 -0.3851817309
| 10> O 3.5358893189 -1.5280214964 0.4260445329
| 11> C 1.2564963186 -2.175653255 -0.0131325471
| 12> C 0.3546955064 -0.9968687593 -0.403060808
| 13> H 0.3134467029 -0.8944570921 -1.4902418007
| 14> C 0.9636622658 0.2673477649 0.1724416297
| 15> O 1.8784108348 0.837554819 -0.3788375603
| 16> O 0.4775879281 0.5946579075 1.3501341427
| 17> C 1.0931544541 1.7179228697 2.0133217992
| 18> C 0.4860834236 1.8571495616 3.3935288612
| 19> S -1.3221196688 -1.3158337438 0.233041025
| 20> P -2.1279786107 0.6434112499 0.0878584309
| 21> S -1.2134165227 1.8801033476 -1.1280325752
| 22> O -3.653217922 0.3498038479 -0.2945234603
| 23> C -4.0129650243 -0.1607129655 -1.5833689864
| 24> O -2.3085889528 1.2147457197 1.5467294964
| 25> C -3.0156787228 0.4716605092 2.5637653878
| 26> H 5.0111370773 0.1319827352 -3.2609721446
| 27> H 3.3299747174 -0.2029338448 -3.7090819835
| 28> H 3.6913211871 0.5549476319 -2.1563471155
| 29> H 4.8925105542 -1.5360050781 -1.4325403587
| 30> H 4.3934033335 -2.3137555566 -2.9704439772
| 31> H 1.203411589 -2.3436474339 1.0629846447
| 32> H 0.935457512 -3.066747978 -0.5511222837
| 33> H 2.1705504951 1.527112911 2.050830699
| 34> H 0.9204058636 2.6065552655 1.3969340627
| 35> H -0.5695591749 2.0949845521 3.3093134902
| 36> H 0.6043589391 0.9309675553 3.9477894269
| 37> H 0.992511469 2.658673074 3.9207119442
| 38> H -3.7170263902 -1.2065861462 -1.6623599882
| 39> H -3.5312884711 0.4254678989 -2.3674818341
| 40> H -5.093586657 -0.0616074475 -1.6457088931
| 41> H -2.9774582879 1.094488044 3.4534993237
| 42> H -2.517241717 -0.4817237361 2.7368700585
| 43> H -4.0450252891 0.3063827426 2.2533553688
| 44> *
| 45>
| 46>                          ****END OF INPUT****

CARTESIAN COORDINATES (ANGSTROEM)
---------------------------------
  C      4.039492   -0.172804   -2.887152
  C      4.152468   -1.542426   -2.237492
  O      2.879762   -1.929146   -1.683740
  C      2.691102   -1.836510   -0.385182
  O      3.535889   -1.528021    0.426045
  C      1.256496   -2.175653   -0.013133
  C      0.354696   -0.996869   -0.403061
  H      0.313447   -0.894457   -1.490242
  C      0.963662    0.267348    0.172442
  O      1.878411    0.837555   -0.378838
  O      0.477588    0.594658    1.350134
  C      1.093154    1.717923    2.013322
  C      0.486083    1.857150    3.393529
  S     -1.322120   -1.315834    0.233041
  P     -2.127979    0.643411    0.087858
  S     -1.213417    1.880103   -1.128033
  O     -3.653218    0.349804   -0.294523
  C     -4.012965   -0.160713   -1.583369
  O     -2.308589    1.214746    1.546729
  C     -3.015679    0.471661    2.563765
  H      5.011137    0.131983   -3.260972
  H      3.329975   -0.202934   -3.709082
  H      3.691321    0.554948   -2.156347
  H      4.892511   -1.536005   -1.432540
  H      4.393403   -2.313756   -2.970444
  H      1.203412   -2.343647    1.062985
  H      0.935458   -3.066748   -0.551122
  H      2.170550    1.527113    2.050831
  H      0.920406    2.606555    1.396934
  H     -0.569559    2.094985    3.309313
  H      0.604359    0.930968    3.947789
  H      0.992511    2.658673    3.920712
  H     -3.717026   -1.206586   -1.662360
  H     -3.531288    0.425468   -2.367482
  H     -5.093587   -0.061607   -1.645709
  H     -2.977458    1.094488    3.453499
  H     -2.517242   -0.481724    2.736870
  H     -4.045025    0.306383    2.253355

 Total Charge           Charge          ....    0
 Multiplicity           Mult            ....    1
 Number of Electrons    NEL             ....  174
 Basis Dimension        Dim             ....  510

ORBITAL ENERGIES
----------------

  NO   OCC          E(Eh)            E(eV)
   0   2.0000     -88.579229     -2410.3634
   1   2.0000     -88.522447     -2408.8183
   2   2.0000     -76.918387     -2093.0557
   3   2.0000     -19.002143      -517.0746
   4   2.0000     -19.000236      -517.0227
   5   2.0000     -18.998684      -516.9805
   6   2.0000     -18.996406      -516.9185
   7   2.0000     -18.932353      -515.1755
   8   2.0000     -18.929405      -515.0953
   9   2.0000     -10.161235      -276.5013
  10   2.0000     -10.158374      -276.4234
  11   2.0000     -10.102869      -274.9131
  12   2.0000     -10.100103      -274.8378
  13   2.0000     -10.095978      -274.7255
  14   2.0000     -10.088916      -274.5334
  15   2.0000     -10.086520      -274.4682
  16   2.0000     -10.065027      -273.8833
  17   2.0000     -10.029394      -272.9137
  18   2.0000     -10.017526      -272.5907
  19   2.0000      -7.873669      -214.2534
  20   2.0000      -7.816975      -212.7107
  21   2.0000      -6.596712      -179.5056
  22   2.0000      -5.820471      -158.3831
  23   2.0000      -5.817473      -158.3015
  24   2.0000      -5.810892      -158.1224
  25   2.0000      -5.764874      -156.8702
  26   2.0000      -5.757094      -156.6585
  27   2.0000      -5.756938      -156.6542
  28   2.0000      -4.742440      -129.0484
  29   2.0000      -4.741779      -129.0304
  30   2.0000      -4.740147      -128.9859
  31   2.0000      -1.081354       -29.4251
  32   2.0000      -1.074492       -29.2384
  33   2.0000      -1.056800       -28.7570
  34   2.0000      -1.014401       -27.6032
  35   2.0000      -0.983347       -26.7582
  36   2.0000      -0.978354       -26.6224
  37   2.0000      -0.815702       -22.1964
  38   2.0000      -0.753122       -20.4935
  39   2.0000      -0.742937       -20.2163
  40   2.0000      -0.732753       -19.9392
  41   2.0000      -0.699429       -19.0324
  42   2.0000      -0.681817       -18.5532
  43   2.0000      -0.660663       -17.9776
  44   2.0000      -0.646914       -17.6034
  45   2.0000      -0.619861       -16.8673
  46   2.0000      -0.597467       -16.2579
  47   2.0000      -0.547666       -14.9027
  48   2.0000      -0.535203       -14.5636
  49   2.0000      -0.526211       -14.3189
  50   2.0000      -0.500277       -13.6132
  51   2.0000      -0.499089       -13.5809
  52   2.0000      -0.479867       -13.0578
  53   2.0000      -0.465194       -12.6586
  54   2.0000      -0.458834       -12.4855
  55   2.0000      -0.456379       -12.4187
  56   2.0000      -0.449102       -12.2207
  57   2.0000      -0.439834       -11.9685
  58   2.0000      -0.436127       -11.8676
  59   2.0000      -0.432670       -11.7735
  60   2.0000      -0.426505       -11.6058
  61   2.0000      -0.423555       -11.5255
  62   2.0000      -0.402802       -10.9608
  63   2.0000      -0.396372       -10.7858
  64   2.0000      -0.392354       -10.6765
  65   2.0000      -0.374652       -10.1948
  66   2.0000      -0.371716       -10.1149
  67   2.0000      -0.368282       -10.0215
  68   2.0000      -0.361640        -9.8407
  69   2.0000      -0.353533        -9.6201
  70   2.0000      -0.349306        -9.5051
  71   2.0000      -0.340189        -9.2570
  72   2.0000      -0.333487        -9.0747
  73   2.0000      -0.329711        -8.9719
  74   2.0000      -0.326321        -8.8796
  75   2.0000      -0.321571        -8.7504
  76   2.0000      -0.319822        -8.7028
  77   2.0000      -0.303369        -8.2551
  78   2.0000      -0.294047        -8.0014
  79   2.0000      -0.283849        -7.7239
  80   2.0000      -0.274580        -7.4717
  81   2.0000      -0.267870        -7.2891
  82   2.0000      -0.252852        -6.8805
  83   2.0000      -0.239195        -6.5088
  84   2.0000      -0.230995        -6.2857
  85   2.0000      -0.220698        -6.0055
  86   2.0000      -0.218196        -5.9374
  87   0.0000      -0.047222        -1.2850
  88   0.0000      -0.026001        -0.7075
  89   0.0000      -0.022485        -0.6118
  90   0.0000       0.006299         0.1714
  91   0.0000       0.015256         0.4151

MULLIKEN ATOMIC CHARGES
-----------------------
   0 C :   -0.464334
   1 C :   -0.151461
   2 O :   -0.139442
   3 C :    0.339038
   4 O :   -0.398878
   5 C :   -0.411561
   6 C :   -0.032024
   7 H :    0.240626
   8 C :    0.297320
   9 O :   -0.379046
  10 O :   -0.138970
  11 C :   -0.131278
  12 C :   -0.473110
  13 S :   -0.213041
  14 P :    0.761260
  15 S :   -0.413822
  16 O :   -0.354685
  17 C :   -0.296883
  18 O :   -0.306086
  19 C :   -0.292104
  20 H :    0.142235
  21 H :    0.147204
  22 H :    0.192421
  23 H :    0.179696
  24 H :    0.143240
  25 H :    0.191697
  26 H :    0.172771
  27 H :    0.167096
  28 H :    0.170617
  29 H :    0.158854
  30 H :    0.155042
  31 H :    0.148719
  32 H :    0.158990
  33 H :    0.175445
  34 H :    0.153008
  35 H :    0.157446
  36 H :    0.173228
  37 H :    0.170771
Sum of atomic charges:   -0.0000000

LOEWDIN ATOMIC CHARGES
----------------------
   0 C :   -0.388239
   1 C :    0.032765
   2 O :   -0.581279
   3 C :    0.354471
   4 O :   -0.417036
   5 C :   -0.202462
   6 C :   -0.195365
   7 H :    0.204272
   8 C :    0.317894
   9 O :   -0.413316
  10 O :   -0.614158
  11 C :    0.040448
  12 C :   -0.385427
  13 S :    0.187502
  14 P :    0.396611
  15 S :   -0.038145
  16 O :   -0.685175
  17 C :   -0.058685
  18 O :   -0.653118
  19 C :   -0.054791
  20 H :    0.156559
  21 H :    0.156313
  22 H :    0.179390
  23 H :    0.193478
  24 H :    0.175684
  25 H :    0.189927
  26 H :    0.185692
  27 H :    0.188004
  28 H :    0.187715
  29 H :    0.164508
  30 H :    0.160423
  31 H :    0.160529
  32 H :    0.169364
  33 H :    0.177067
  34 H :    0.177716
  35 H :    0.179837
  36 H :    0.174812
  37 H :    0.176218

  Mayer bond orders larger than 0.100000
B(  0-C ,  1-C ) :   0.9415 B(  0-C , 20-H ) :   0.9679 B(  0-C , 21-H ) :   0.9725
B(  0-C , 22-H ) :   0.9599 B(  1-C ,  2-O ) :   0.7940 B(  1-C , 23-H ) :   0.9718
B(  1-C , 24-H ) :   0.9598 B(  2-O ,  3-C ) :   1.0533 B(  3-C ,  4-O ) :   1.8525
B(  3-C ,  5-C ) :   0.9056 B(  5-C ,  6-C ) :   0.8977 B(  5-C , 25-H ) :   1.0005
B(  5-C , 26-H ) :   0.9443 B(  6-C ,  7-H ) :   0.9601 B(  6-C ,  8-C ) :   0.9040
B(  6-C , 13-S ) :   0.8696 B(  8-C ,  9-O ) :   1.7561 B(  8-C , 10-O ) :   1.1068
B( 10-O , 11-C ) :   0.7944 B( 11-C , 12-C ) :   0.9305 B( 11-C , 27-H ) :   0.9537
B( 11-C , 28-H ) :   0.9482 B( 12-C , 29-H ) :   0.9676 B( 12-C , 30-H ) :   0.9764
B( 12-C , 31-H ) :   0.9671 B( 13-S , 14-P ) :   0.9971 B( 14-P , 15-S ) :   1.7959
B( 14-P , 16-O ) :   1.0284 B( 14-P , 18-O ) :   1.1480 B( 16-O , 17-C ) :   0.8308
B( 17-C , 32-H ) :   0.9563 B( 17-C , 33-H ) :   0.9593 B( 17-C , 34-H ) :   0.9670
B( 18-O , 19-C ) :   0.7904 B( 19-C , 35-H ) :   0.9635 B( 19-C , 36-H ) :   0.9555
B( 19-C , 37-H ) :   0.9590

Dispersion correction           -0.017809404
FINAL SINGLE POINT ENERGY     -1981.451709414618

DIPOLE MOMENT
-------------

Method             : SCF
Type of density    : Electron Density
Multiplicity       :   1
Irrep              :   0
Energy             : -1981.4709971094589491 Eh
Relativity type    :
Basis              : AO
                                X                 Y                 Z
Electronic contribution:     -8.788377162      -0.516969049      -2.266594770
Nuclear contribution   :      7.652256849      -0.387803250       2.669262403
                        -----------------------------------------
Total Dipole Moment    :     -1.136120313      -0.904772299       0.402667633
                        -----------------------------------------
Magnitude (a.u.)       :      1.507157424
Magnitude (Debye)      :      3.830889727

Rotational constants in cm-1:             0.015346             0.006484             0.005793
Rotational constants in MHz :           460.071007           194.381850           173.672386

                             ****ORCA TERMINATED NORMALLY****
TOTAL RUN TIME: 0 days 0 hours 1 minutes 22 seconds 768 msec
