                         Program Version 6.0.1  -  RELEASE   -
|  1> ! r2scan-3c def2/J RI DEFGRID2 scfconv6 printgap
|  2> %output
|  3>     printlevel normal
|  4> end
|  5> %cpcm
|  6>     smd true
|  7>     smdsolvent "water"
|  8> end
|  9> * xyz 0 1
| 10> C 4.0394921365 -0.1728036532 -2.8871520952
| 11> C 4.1524677666 -1.5424255654 -2.2374924204
| 12> O 2.8797622705 -1.9291463717 -1.6837399488
| 13> C 2.6911022567 -1.8365102432 -0.3851817309
| 14> O 3.5358893189 -1.5280214964 0.4260445329
| 15> C 1.2564963186 -2.175653255 -0.0131325471
| 16> C 0.3546955064 -0.9968687593 -0.403060808
| 17> H 0.3134467029 -0.8944570921 -1.4902418007
| 18> C 0.9636622658 0.2673477649 0.1724416297
| 19> O 1.8784108348 0.837554819 -0.3788375603
| 20> O 0.4775879281 0.5946579075 1.3501341427
| 21> C 1.0931544541 1.7179228697 2.0133217992
| 22> C 0.4860834236 1.8571495616 3.3935288612
| 23> S -1.3221196688 -1.3158337438 0.233041025
| 24> P -2.1279786107 0.6434112499 0.0878584309
| 25> S -1.2134165227 1.8801033476 -1.1280325752
| 26> O -3.653217922 0.3498038479 -0.2945234603
| 27> C -4.0129650243 -0.1607129655 -1.5833689864
| 28> O -2.3085889528 1.2147457197 1.5467294964
| 29> C -3.0156787228 0.4716605092 2.5637653878
| 30> H 5.0111370773 0.1319827352 -3.2609721446
| 31> H 3.3299747174 -0.2029338448 -3.7090819835
| 32> H 3.6913211871 0.5549476319 -2.1563471155
| 33> H 4.8925105542 -1.5360050781 -1.4325403587
| 34> H 4.3934033335 -2.3137555566 -2.9704439772
| 35> H 1.203411589 -2.3436474339 1.0629846447
| 36> H 0.935457512 -3.066747978 -0.5511222837
| 37> H 2.1705504951 1.527112911 2.050830699
| 38> H 0.9204058636 2.6065552655 1.3969340627
| 39> H -0.5695591749 2.0949845521 3.3093134902
| 40> H 0.6043589391 0.9309675553 3.9477894269
| 41> H 0.992511469 2.658673074 3.9207119442
| 42> H -3.7170263902 -1.2065861462 -1.6623599882
| 43> H -3.5312884711 0.4254678989 -2.3674818341
| 44> H -5.093586657 -0.0616074475 -1.6457088931
| 45> H -2.9774582879 1.094488044 3.4534993237
| 46> H -2.517241717 -0.4817237361 2.7368700585
| 47> H -4.0450252891 0.3063827426 2.2533553688
| 48> *
| 49>
| 50>                          ****END OF INPUT****

CARTESIAN COORDINATES (ANGSTROEM)
---------------------------------
  C      4.039492   -0.172804   -2.887152
  C      4.152468   -1.542426   -2.237492
  O      2.879762   -1.929146   -1.683740
  C      2.691102   -1.836510   -0.385182
  O      3.535889   -1.528021    0.426045
  C      1.256496   -2.175653   -0.013133
  C      0.354696   -0.996869   -0.403061
  H      0.313447   -0.894457   -1.490242
  C      0.963662    0.267348    0.172442
  O      1.878411    0.837555   -0.378838
  O      0.477588    0.594658    1.350134
  C      1.093154    1.717923    2.013322
  C      0.486083    1.857150    3.393529
  S     -1.322120   -1.315834    0.233041
  P     -2.127979    0.643411    0.087858
  S     -1.213417    1.880103   -1.128033
  O     -3.653218    0.349804   -0.294523
  C     -4.012965   -0.160713   -1.583369
  O     -2.308589    1.214746    1.546729
  C     -3.015679    0.471661    2.563765
  H      5.011137    0.131983   -3.260972
  H      3.329975   -0.202934   -3.709082
  H      3.691321    0.554948   -2.156347
  H      4.892511   -1.536005   -1.432540
  H      4.393403   -2.313756   -2.970444
  H      1.203412   -2.343647    1.062985
  H      0.935458   -3.066748   -0.551122
  H      2.170550    1.527113    2.050831
  H      0.920406    2.606555    1.396934
  H     -0.569559    2.094985    3.309313
  H      0.604359    0.930968    3.947789
  H      0.992511    2.658673    3.920712
  H     -3.717026   -1.206586   -1.662360
  H     -3.531288    0.425468   -2.367482
  H     -5.093587   -0.061607   -1.645709
  H     -2.977458    1.094488    3.453499
  H     -2.517242   -0.481724    2.736870
  H     -4.045025    0.306383    2.253355

 Total Charge           Charge          ....    0
 Multiplicity           Mult            ....    1
 Number of Electrons    NEL             ....  174
 Basis Dimension        Dim             ....  510

ORBITAL ENERGIES
----------------

  NO   OCC          E(Eh)            E(eV)
   0   2.0000     -88.581611     -2410.4282
   1   2.0000     -88.532562     -2409.0935
   2   2.0000     -76.923183     -2093.1862
   3   2.0000     -19.012200      -517.3483
   4   2.0000     -19.009134      -517.2648
   5   2.0000     -19.000247      -517.0230
   6   2.0000     -18.996324      -516.9163
   7   2.0000     -18.951774      -515.7040
   8   2.0000     -18.949259      -515.6355
   9   2.0000     -10.176584      -276.9189
  10   2.0000     -10.173410      -276.8325
  11   2.0000     -10.102510      -274.9033
  12   2.0000     -10.087894      -274.5056
  13   2.0000     -10.085850      -274.4499
  14   2.0000     -10.085226      -274.4329
  15   2.0000     -10.082606      -274.3617
  16   2.0000     -10.062299      -273.8091
  17   2.0000     -10.019576      -272.6465
  18   2.0000     -10.018016      -272.6041
  19   2.0000      -7.875948      -214.3154
  20   2.0000      -7.827504      -212.9972
  21   2.0000      -6.601572      -179.6379
  22   2.0000      -5.822826      -158.4471
  23   2.0000      -5.819815      -158.3652
  24   2.0000      -5.813041      -158.1809
  25   2.0000      -5.775255      -157.1527
  26   2.0000      -5.767684      -156.9467
  27   2.0000      -5.767475      -156.9410
  28   2.0000      -4.747226      -129.1786
  29   2.0000      -4.746592      -129.1613
  30   2.0000      -4.745176      -129.1228
  31   2.0000      -1.093509       -29.7559
  32   2.0000      -1.086552       -29.5666
  33   2.0000      -1.056525       -28.7495
  34   2.0000      -1.013261       -27.5722
  35   2.0000      -1.001023       -27.2392
  36   2.0000      -0.996656       -27.1204
  37   2.0000      -0.818335       -22.2680
  38   2.0000      -0.754850       -20.5405
  39   2.0000      -0.741513       -20.1776
  40   2.0000      -0.732476       -19.9317
  41   2.0000      -0.697803       -18.9882
  42   2.0000      -0.672409       -18.2972
  43   2.0000      -0.661722       -18.0064
  44   2.0000      -0.648952       -17.6589
  45   2.0000      -0.621570       -16.9138
  46   2.0000      -0.597263       -16.2524
  47   2.0000      -0.546286       -14.8652
  48   2.0000      -0.537161       -14.6169
  49   2.0000      -0.529383       -14.4052
  50   2.0000      -0.502857       -13.6834
  51   2.0000      -0.494894       -13.4667
  52   2.0000      -0.485744       -13.2178
  53   2.0000      -0.468039       -12.7360
  54   2.0000      -0.460898       -12.5417
  55   2.0000      -0.457525       -12.4499
  56   2.0000      -0.456428       -12.4200
  57   2.0000      -0.451202       -12.2778
  58   2.0000      -0.443175       -12.0594
  59   2.0000      -0.429183       -11.6787
  60   2.0000      -0.425214       -11.5707
  61   2.0000      -0.412180       -11.2160
  62   2.0000      -0.403101       -10.9689
  63   2.0000      -0.400702       -10.9037
  64   2.0000      -0.394162       -10.7257
  65   2.0000      -0.375060       -10.2059
  66   2.0000      -0.372424       -10.1342
  67   2.0000      -0.363896        -9.9021
  68   2.0000      -0.363255        -9.8847
  69   2.0000      -0.355208        -9.6657
  70   2.0000      -0.351442        -9.5632
  71   2.0000      -0.343478        -9.3465
  72   2.0000      -0.336204        -9.1486
  73   2.0000      -0.329296        -8.9606
  74   2.0000      -0.326802        -8.8927
  75   2.0000      -0.322068        -8.7639
  76   2.0000      -0.318775        -8.6743
  77   2.0000      -0.306821        -8.3490
  78   2.0000      -0.293268        -7.9802
  79   2.0000      -0.284940        -7.7536
  80   2.0000      -0.283148        -7.7048
  81   2.0000      -0.279733        -7.6119
  82   2.0000      -0.264458        -7.1963
  83   2.0000      -0.258149        -7.0246
  84   2.0000      -0.241907        -6.5826
  85   2.0000      -0.231030        -6.2866
  86   2.0000      -0.229448        -6.2436
  87   0.0000      -0.052256        -1.4219
  88   0.0000      -0.039387        -1.0718
  89   0.0000      -0.032007        -0.8710
  90   0.0000       0.003320         0.0903
  91   0.0000       0.012136         0.3302

MULLIKEN ATOMIC CHARGES
-----------------------
   0 C :   -0.502752
   1 C :   -0.140099
   2 O :   -0.155499
   3 C :    0.364403
   4 O :   -0.478095
   5 C :   -0.424253
   6 C :   -0.035032
   7 H :    0.268584
   8 C :    0.308183
   9 O :   -0.449921
  10 O :   -0.142462
  11 C :   -0.139506
  12 C :   -0.509415
  13 S :   -0.198570
  14 P :    0.787761
  15 S :   -0.479572
  16 O :   -0.379526
  17 C :   -0.306247
  18 O :   -0.341353
  19 C :   -0.298994
  20 H :    0.169801
  21 H :    0.169178
  22 H :    0.171332
  23 H :    0.181923
  24 H :    0.174230
  25 H :    0.214684
  26 H :    0.211325
  27 H :    0.175826
  28 H :    0.179771
  29 H :    0.170848
  30 H :    0.170536
  31 H :    0.171626
  32 H :    0.176132
  33 H :    0.177452
  34 H :    0.180835
  35 H :    0.186939
  36 H :    0.183372
  37 H :    0.186555
Sum of atomic charges:   -0.0000000

LOEWDIN ATOMIC CHARGES
----------------------
   0 C :   -0.392394
   1 C :    0.039273
   2 O :   -0.580061
   3 C :    0.362720
   4 O :   -0.473721
   5 C :   -0.193062
   6 C :   -0.193200
   7 H :    0.211434
   8 C :    0.319737
   9 O :   -0.467973
  10 O :   -0.614599
  11 C :    0.041271
  12 C :   -0.385912
  13 S :    0.207757
  14 P :    0.400308
  15 S :   -0.086165
  16 O :   -0.692458
  17 C :   -0.053202
  18 O :   -0.670225
  19 C :   -0.045384
  20 H :    0.167232
  21 H :    0.162027
  22 H :    0.168594
  23 H :    0.194217
  24 H :    0.189532
  25 H :    0.197945
  26 H :    0.202787
  27 H :    0.191082
  28 H :    0.188715
  29 H :    0.168047
  30 H :    0.165784
  31 H :    0.169348
  32 H :    0.176787
  33 H :    0.177915
  34 H :    0.189532
  35 H :    0.192317
  36 H :    0.180409
  37 H :    0.183588

  Mayer bond orders larger than 0.100000
B(  0-C ,  1-C ) :   0.9268 B(  0-C , 20-H ) :   0.9615 B(  0-C , 21-H ) :   0.9707
B(  0-C , 22-H ) :   0.9659 B(  1-C ,  2-O ) :   0.7811 B(  1-C , 23-H ) :   0.9675
B(  1-C , 24-H ) :   0.9498 B(  2-O ,  3-C ) :   1.0690 B(  3-C ,  4-O ) :   1.7832
B(  3-C ,  5-C ) :   0.9039 B(  5-C ,  6-C ) :   0.8800 B(  5-C , 25-H ) :   1.0006
B(  5-C , 26-H ) :   0.9311 B(  6-C ,  7-H ) :   0.9530 B(  6-C ,  8-C ) :   0.8978
B(  6-C , 13-S ) :   0.8680 B(  8-C ,  9-O ) :   1.7047 B(  8-C , 10-O ) :   1.1236
B( 10-O , 11-C ) :   0.7774 B( 11-C , 12-C ) :   0.9335 B( 11-C , 27-H ) :   0.9466
B( 11-C , 28-H ) :   0.9426 B( 12-C , 29-H ) :   0.9631 B( 12-C , 30-H ) :   0.9726
B( 12-C , 31-H ) :   0.9608 B( 13-S , 14-P ) :   1.0133 B( 14-P , 15-S ) :   1.7585
B( 14-P , 16-O ) :   1.0398 B( 14-P , 18-O ) :   1.1545 B( 16-O , 17-C ) :   0.8225
B( 17-C , 32-H ) :   0.9498 B( 17-C , 33-H ) :   0.9552 B( 17-C , 34-H ) :   0.9569
B( 18-O , 19-C ) :   0.7809 B( 19-C , 35-H ) :   0.9526 B( 19-C , 36-H ) :   0.9470
B( 19-C , 37-H ) :   0.9506

Dispersion correction           -0.017809404
FINAL SINGLE POINT ENERGY     -1981.467706588460

DIPOLE MOMENT
-------------

Method             : SCF
Type of density    : Electron Density
Multiplicity       :   1
Irrep              :   0
Energy             : -1981.4869942833008736 Eh
Relativity type    :
Basis              : AO
                                X                 Y                 Z
Electronic contribution:     -9.344979190      -1.288593088      -2.133091576
Nuclear contribution   :      7.652256849      -0.387803250       2.669262403
                        -----------------------------------------
Total Dipole Moment    :     -1.692722341      -1.676396338       0.536170827
                        -----------------------------------------
Magnitude (a.u.)       :      2.441944463
Magnitude (Debye)      :      6.206929553

Rotational constants in cm-1:             0.015346             0.006484             0.005793
Rotational constants in MHz :           460.071007           194.381850           173.672386

                             ****ORCA TERMINATED NORMALLY****
TOTAL RUN TIME: 0 days 0 hours 1 minutes 47 seconds 783 msec
