                         Program Version 6.0.0  -   RELEASE  -
|  1> ! pbe def2-sv(p) def2/J RI DEFGRID1 loosescf d4 GCP(DFT/SV(P)) printgap
|  2> %output
|  3>     printlevel normal
|  4> end
|  5> * xyz 0 1
|  6> C 3.3366413021 -1.6198745274 -2.5688781242
|  7> C 2.0736867289 -1.0500240795 -1.9568914117
|  8> O 2.3823893987 0.0483815499 -1.066108722
|  9> P 2.5332560992 -0.0948220696 0.497570451
| 10> S 3.0097137498 1.6053321249 1.3339189847
| 11> O 3.5905661305 -1.2719349928 0.6457069645
| 12> C 4.3183397404 -1.5104395341 1.8650961451
| 13> C 3.4173773502 -1.9595066444 2.9969449023
| 14> S 0.7011007214 -0.9709656571 1.1550736545
| 15> C -0.2187105882 0.581046368 1.2493297618
| 16> S -0.6140861361 1.2722970185 -0.3884445723
| 17> P -2.5713384188 0.4338998448 -0.5649604656
| 18> S -3.4520799218 0.8080968276 -2.2714129413
| 19> O -3.3424303862 0.8746461525 0.7479689683
| 20> C -4.1735761639 2.0483656411 0.7665699769
| 21> C -3.3537268255 3.3232003977 0.7315975865
| 22> O -2.381989386 -1.081080154 -0.1385772944
| 23> C -1.8426345331 -2.0509264893 -1.0592178014
| 24> C -2.9608362595 -2.8426547444 -1.7074500608
| 25> H 3.8944969891 -0.8327089987 -3.0686678193
| 26> H 3.9634385019 -2.0599876537 -1.7980973839
| 27> H 3.0666214628 -2.3826469303 -3.2925372218
| 28> H 1.5250709913 -1.8156841192 -1.4004002181
| 29> H 1.4264680568 -0.6076976348 -2.7176721988
| 30> H 5.0363321776 -2.2847461991 1.5910962096
| 31> H 4.8470065508 -0.5913187517 2.1351448763
| 32> H 4.0287553247 -2.2564485058 3.8430292469
| 33> H 2.7669900365 -1.141946398 3.303612284
| 34> H 2.8029010917 -2.7994855384 2.6826969427
| 35> H 0.3972199195 1.3217802932 1.7605451442
| 36> H -1.1403103773 0.3799449508 1.7904323551
| 37> H -4.8546798115 2.007450911 -0.0894710638
| 38> H -4.7388578464 1.9569244984 1.6951076589
| 39> H -4.0154916679 4.1785104075 0.8231412496
| 40> H -2.633964274 3.3384408794 1.5463645145
| 41> H -2.8163557884 3.3937530011 -0.2140487148
| 42> H -1.2401779809 -1.5387646598 -1.8172023268
| 43> H -1.2005932466 -2.689366106 -0.4483059202
| 44> H -2.5346032291 -3.6083353317 -2.3474058715
| 45> H -3.5751533475 -3.3098012903 -0.9433870373
| 46> H -3.5859148791 -2.1841451087 -2.3068937082
| 47> *
| 48>
| 49>                          ****END OF INPUT****

CARTESIAN COORDINATES (ANGSTROEM)
---------------------------------
  C      3.336641   -1.619875   -2.568878
  C      2.073687   -1.050024   -1.956891
  O      2.382389    0.048382   -1.066109
  P      2.533256   -0.094822    0.497570
  S      3.009714    1.605332    1.333919
  O      3.590566   -1.271935    0.645707
  C      4.318340   -1.510440    1.865096
  C      3.417377   -1.959507    2.996945
  S      0.701101   -0.970966    1.155074
  C     -0.218711    0.581046    1.249330
  S     -0.614086    1.272297   -0.388445
  P     -2.571338    0.433900   -0.564960
  S     -3.452080    0.808097   -2.271413
  O     -3.342430    0.874646    0.747969
  C     -4.173576    2.048366    0.766570
  C     -3.353727    3.323200    0.731598
  O     -2.381989   -1.081080   -0.138577
  C     -1.842635   -2.050926   -1.059218
  C     -2.960836   -2.842655   -1.707450
  H      3.894497   -0.832709   -3.068668
  H      3.963439   -2.059988   -1.798097
  H      3.066621   -2.382647   -3.292537
  H      1.525071   -1.815684   -1.400400
  H      1.426468   -0.607698   -2.717672
  H      5.036332   -2.284746    1.591096
  H      4.847007   -0.591319    2.135145
  H      4.028755   -2.256449    3.843029
  H      2.766990   -1.141946    3.303612
  H      2.802901   -2.799486    2.682697
  H      0.397220    1.321780    1.760545
  H     -1.140310    0.379945    1.790432
  H     -4.854680    2.007451   -0.089471
  H     -4.738858    1.956924    1.695108
  H     -4.015492    4.178510    0.823141
  H     -2.633964    3.338441    1.546365
  H     -2.816356    3.393753   -0.214049
  H     -1.240178   -1.538765   -1.817202
  H     -1.200593   -2.689366   -0.448306
  H     -2.534603   -3.608335   -2.347406
  H     -3.575153   -3.309801   -0.943387
  H     -3.585915   -2.184145   -2.306894

 Total Charge           Charge          ....    0
 Multiplicity           Mult            ....    1
 Number of Electrons    NEL             ....  202
 Basis Dimension        Dim             ....  334

ORBITAL ENERGIES
----------------

  NO   OCC          E(Eh)            E(eV)
   0   2.0000     -88.047301     -2395.8889
   1   2.0000     -88.042108     -2395.7476
   2   2.0000     -87.991049     -2394.3582
   3   2.0000     -87.990641     -2394.3471
   4   2.0000     -76.431239     -2079.7997
   5   2.0000     -76.428289     -2079.7195
   6   2.0000     -18.802282      -511.6361
   7   2.0000     -18.795769      -511.4589
   8   2.0000     -18.794782      -511.4320
   9   2.0000     -18.792959      -511.3824
  10   2.0000      -9.959921      -271.0232
  11   2.0000      -9.958499      -270.9845
  12   2.0000      -9.955874      -270.9131
  13   2.0000      -9.955561      -270.9046
  14   2.0000      -9.954113      -270.8652
  15   2.0000      -9.889857      -269.1167
  16   2.0000      -9.888859      -269.0895
  17   2.0000      -9.884241      -268.9639
  18   2.0000      -9.882518      -268.9170
  19   2.0000      -7.692022      -209.3105
  20   2.0000      -7.686783      -209.1680
  21   2.0000      -7.636329      -207.7951
  22   2.0000      -7.635786      -207.7803
  23   2.0000      -6.428863      -174.9383
  24   2.0000      -6.425785      -174.8545
  25   2.0000      -5.719643      -155.6394
  26   2.0000      -5.716631      -155.5574
  27   2.0000      -5.714834      -155.5085
  28   2.0000      -5.711169      -155.4088
  29   2.0000      -5.709191      -155.3550
  30   2.0000      -5.703815      -155.2087
  31   2.0000      -5.665282      -154.1602
  32   2.0000      -5.664731      -154.1452
  33   2.0000      -5.656853      -153.9308
  34   2.0000      -5.656515      -153.9216
  35   2.0000      -5.656437      -153.9195
  36   2.0000      -5.655910      -153.9051
  37   2.0000      -4.651802      -126.5820
  38   2.0000      -4.650513      -126.5469
  39   2.0000      -4.649082      -126.5080
  40   2.0000      -4.648121      -126.4818
  41   2.0000      -4.648041      -126.4796
  42   2.0000      -4.646006      -126.4243
  43   2.0000      -0.994173       -27.0528
  44   2.0000      -0.992514       -27.0077
  45   2.0000      -0.951448       -25.8902
  46   2.0000      -0.948673       -25.8147
  47   2.0000      -0.764775       -20.8106
  48   2.0000      -0.724143       -19.7049
  49   2.0000      -0.713664       -19.4198
  50   2.0000      -0.695633       -18.9291
  51   2.0000      -0.684528       -18.6270
  52   2.0000      -0.679324       -18.4853
  53   2.0000      -0.657470       -17.8907
  54   2.0000      -0.641195       -17.4478
  55   2.0000      -0.601237       -16.3605
  56   2.0000      -0.597342       -16.2545
  57   2.0000      -0.579603       -15.7718
  58   2.0000      -0.568793       -15.4777
  59   2.0000      -0.562912       -15.3176
  60   2.0000      -0.506195       -13.7743
  61   2.0000      -0.502397       -13.6709
  62   2.0000      -0.480919       -13.0865
  63   2.0000      -0.474323       -12.9070
  64   2.0000      -0.460704       -12.5364
  65   2.0000      -0.452134       -12.3032
  66   2.0000      -0.447347       -12.1729
  67   2.0000      -0.435654       -11.8547
  68   2.0000      -0.430561       -11.7162
  69   2.0000      -0.425290       -11.5727
  70   2.0000      -0.412024       -11.2117
  71   2.0000      -0.399262       -10.8645
  72   2.0000      -0.394955       -10.7473
  73   2.0000      -0.390599       -10.6287
  74   2.0000      -0.384647       -10.4668
  75   2.0000      -0.375917       -10.2292
  76   2.0000      -0.368700       -10.0328
  77   2.0000      -0.362941        -9.8761
  78   2.0000      -0.358286        -9.7495
  79   2.0000      -0.356200        -9.6927
  80   2.0000      -0.351223        -9.5573
  81   2.0000      -0.349252        -9.5036
  82   2.0000      -0.345521        -9.4021
  83   2.0000      -0.337552        -9.1852
  84   2.0000      -0.331108        -9.0099
  85   2.0000      -0.328176        -8.9301
  86   2.0000      -0.319544        -8.6952
  87   2.0000      -0.301981        -8.2173
  88   2.0000      -0.301633        -8.2078
  89   2.0000      -0.297392        -8.0925
  90   2.0000      -0.292905        -7.9704
  91   2.0000      -0.276443        -7.5224
  92   2.0000      -0.272443        -7.4136
  93   2.0000      -0.268188        -7.2978
  94   2.0000      -0.258516        -7.0346
  95   2.0000      -0.238752        -6.4968
  96   2.0000      -0.222988        -6.0678
  97   2.0000      -0.212164        -5.7733
  98   2.0000      -0.208885        -5.6840
  99   2.0000      -0.207107        -5.6357
 100   2.0000      -0.202939        -5.5222
 101   0.0000      -0.042824        -1.1653
 102   0.0000      -0.029425        -0.8007
 103   0.0000      -0.014698        -0.3999
 104   0.0000       0.003452         0.0939
 105   0.0000       0.004815         0.1310

MULLIKEN ATOMIC CHARGES
-----------------------
   0 C :   -0.284277
   1 C :   -0.026555
   2 O :   -0.347265
   3 P :    0.599457
   4 S :   -0.307505
   5 O :   -0.381751
   6 C :   -0.002025
   7 C :   -0.319115
   8 S :   -0.095344
   9 C :   -0.367307
  10 S :   -0.057674
  11 P :    0.560340
  12 S :   -0.314590
  13 O :   -0.363942
  14 C :   -0.005487
  15 C :   -0.312161
  16 O :   -0.363826
  17 C :   -0.030470
  18 C :   -0.276308
  19 H :    0.122165
  20 H :    0.119811
  21 H :    0.109370
  22 H :    0.102373
  23 H :    0.120742
  24 H :    0.106762
  25 H :    0.115938
  26 H :    0.116530
  27 H :    0.130222
  28 H :    0.117245
  29 H :    0.194775
  30 H :    0.194010
  31 H :    0.114641
  32 H :    0.107442
  33 H :    0.113770
  34 H :    0.115198
  35 H :    0.130179
  36 H :    0.106604
  37 H :    0.113110
  38 H :    0.104961
  39 H :    0.113987
  40 H :    0.125973
Sum of atomic charges:    0.0000000

LOEWDIN ATOMIC CHARGES
----------------------
   0 C :   -0.358702
   1 C :   -0.117379
   2 O :   -0.231415
   3 P :    0.570462
   4 S :   -0.304544
   5 O :   -0.246840
   6 C :   -0.115800
   7 C :   -0.371313
   8 S :    0.084114
   9 C :   -0.486693
  10 S :    0.084791
  11 P :    0.564861
  12 S :   -0.317391
  13 O :   -0.237672
  14 C :   -0.118795
  15 C :   -0.366846
  16 O :   -0.240509
  17 C :   -0.123354
  18 C :   -0.360187
  19 H :    0.130119
  20 H :    0.125478
  21 H :    0.129515
  22 H :    0.101556
  23 H :    0.122270
  24 H :    0.119280
  25 H :    0.114716
  26 H :    0.132866
  27 H :    0.122397
  28 H :    0.123240
  29 H :    0.128522
  30 H :    0.135066
  31 H :    0.111646
  32 H :    0.119383
  33 H :    0.131380
  34 H :    0.124474
  35 H :    0.123250
  36 H :    0.106467
  37 H :    0.111788
  38 H :    0.127729
  39 H :    0.126365
  40 H :    0.125706

  Mayer bond orders larger than 0.100000
B(  0-C ,  1-C ) :   1.1605 B(  0-C , 19-H ) :   0.9465 B(  0-C , 20-H ) :   0.9419
B(  0-C , 21-H ) :   0.9401 B(  1-C ,  2-O ) :   0.8928 B(  1-C , 22-H ) :   0.9097
B(  1-C , 23-H ) :   0.9312 B(  2-O ,  3-P ) :   1.1448 B(  3-P ,  4-S ) :   1.6406
B(  3-P ,  5-O ) :   1.0863 B(  3-P ,  8-S ) :   0.9462 B(  4-S ,  8-S ) :   0.1086
B(  5-O ,  6-C ) :   0.9028 B(  6-C ,  7-C ) :   1.1668 B(  6-C , 24-H ) :   0.9339
B(  6-C , 25-H ) :   0.9189 B(  7-C , 26-H ) :   0.9367 B(  7-C , 27-H ) :   0.9344
B(  7-C , 28-H ) :   0.9436 B(  8-S ,  9-C ) :   1.0010 B(  9-C , 10-S ) :   0.9760
B(  9-C , 29-H ) :   0.8681 B(  9-C , 30-H ) :   0.8874 B( 10-S , 11-P ) :   0.9836
B( 11-P , 12-S ) :   1.6409 B( 11-P , 13-O ) :   1.0953 B( 11-P , 16-O ) :   1.1020
B( 13-O , 14-C ) :   0.9068 B( 14-C , 15-C ) :   1.1630 B( 14-C , 31-H ) :   0.9145
B( 14-C , 32-H ) :   0.9342 B( 15-C , 33-H ) :   0.9386 B( 15-C , 34-H ) :   0.9469
B( 15-C , 35-H ) :   0.9361 B( 16-O , 17-C ) :   0.9027 B( 17-C , 18-C ) :   1.1617
B( 17-C , 36-H ) :   0.9083 B( 17-C , 37-H ) :   0.9269 B( 18-C , 38-H ) :   0.9401
B( 18-C , 39-H ) :   0.9471 B( 18-C , 40-H ) :   0.9346

Dispersion correction           -0.064071041
FINAL SINGLE POINT ENERGY     -2929.522730152741

DIPOLE MOMENT
-------------

Method             : SCF
Type of density    : Electron Density
Multiplicity       :   1
Irrep              :   0
Energy             : -2929.6437942614375061 Eh
Relativity type    :
Basis              : AO
                                X                 Y                 Z
Electronic contribution:     -1.093440359      11.674378161      -0.173072671
Nuclear contribution   :      1.379446231     -13.092703833       0.750085181
                        -----------------------------------------
Total Dipole Moment    :      0.286005871      -1.418325672       0.577012510
                        -----------------------------------------
Magnitude (a.u.)       :      1.557687551
Magnitude (Debye)      :      3.959327101

Rotational constants in cm-1:             0.012328             0.004601             0.004133
Rotational constants in MHz :           369.571934           137.943083           123.895526

                             ****ORCA TERMINATED NORMALLY****
TOTAL RUN TIME: 0 days 0 hours 0 minutes 20 seconds 730 msec
