                         Program Version 6.0.0  -   RELEASE  -
|  1> ! pbe def2-sv(p) def2/J RI DEFGRID1 loosescf d4 GCP(DFT/SV(P)) printgap
|  2> %output
|  3>     printlevel normal
|  4> end
|  5> * xyz 0 1
|  6> C 4.8302878023 -1.0134658226 -1.1120647012
|  7> C 4.490417996 -0.7708691136 0.3437060616
|  8> O 3.485432174 0.2426353867 0.5311897331
|  9> P 2.0691811949 0.3102962305 -0.1894363947
| 10> S 2.0514837807 0.892030347 -2.0661454736
| 11> O 1.2902805913 1.2483120675 0.8242857775
| 12> C 1.2317490047 2.6756763165 0.6613182543
| 13> C 2.5732652383 3.3202844457 0.9338642286
| 14> S 1.264370968 -1.5855499152 0.239544235
| 15> C 0.0560401014 -1.7710607334 -1.117338872
| 16> S -1.6177657876 -2.0523059488 -0.5078515623
| 17> P -2.0240611297 -0.0760885651 0.1689182406
| 18> S -1.4323464915 1.3379186594 -1.0521663426
| 19> O -1.3885815838 0.1060494369 1.5948776745
| 20> C -1.3256786673 -0.8718378517 2.6659241309
| 21> C -2.6693907597 -1.4754259601 3.0090529026
| 22> O -3.5794251097 -0.1251730446 0.4776018933
| 23> C -4.5777844993 -0.2642188939 -0.5530221
| 24> C -5.094018854 1.0908594386 -0.9960998158
| 25> H 5.1193290787 -0.0836709181 -1.5962988891
| 26> H 5.6498200689 -1.7220173816 -1.1756900474
| 27> H 3.9678391929 -1.41886209 -1.639219716
| 28> H 5.3493570019 -0.3809305166 0.892994139
| 29> H 4.1353369211 -1.6907664894 0.8165710502
| 30> H 0.8874214417 2.8977662972 -0.3549622656
| 31> H 0.4679338908 2.9900429123 1.3744876452
| 32> H 2.9306384711 3.0389190904 1.9208230596
| 33> H 3.2954302486 2.9876567717 0.1889139056
| 34> H 2.4724760557 4.3994089514 0.8745385543
| 35> H 0.3249369135 -2.6549456084 -1.6896783951
| 36> H 0.0860427242 -0.8708325238 -1.738673582
| 37> H -0.6108718654 -1.6467479692 2.3740199302
| 38> H -0.9176487081 -0.2940825897 3.4967569902
| 39> H -2.5577856916 -2.0914421371 3.8962106776
| 40> H -3.3968022706 -0.6917681974 3.2037740593
| 41> H -3.0278160675 -2.0966306921 2.1910810266
| 42> H -4.1538733827 -0.8172954468 -1.3953209861
| 43> H -5.3687733461 -0.8565878096 -0.0892530303
| 44> H -5.4838265701 1.6396484122 -0.1433930058
| 45> H -4.2912527309 1.6708633355 -1.4465831633
| 46> H -5.8839301083 0.9520048524 -1.7271066554
| 47> *
| 48>
| 49>                          ****END OF INPUT****

CARTESIAN COORDINATES (ANGSTROEM)
---------------------------------
  C      4.830288   -1.013466   -1.112065
  C      4.490418   -0.770869    0.343706
  O      3.485432    0.242635    0.531190
  P      2.069181    0.310296   -0.189436
  S      2.051484    0.892030   -2.066145
  O      1.290281    1.248312    0.824286
  C      1.231749    2.675676    0.661318
  C      2.573265    3.320284    0.933864
  S      1.264371   -1.585550    0.239544
  C      0.056040   -1.771061   -1.117339
  S     -1.617766   -2.052306   -0.507852
  P     -2.024061   -0.076089    0.168918
  S     -1.432346    1.337919   -1.052166
  O     -1.388582    0.106049    1.594878
  C     -1.325679   -0.871838    2.665924
  C     -2.669391   -1.475426    3.009053
  O     -3.579425   -0.125173    0.477602
  C     -4.577784   -0.264219   -0.553022
  C     -5.094019    1.090859   -0.996100
  H      5.119329   -0.083671   -1.596299
  H      5.649820   -1.722017   -1.175690
  H      3.967839   -1.418862   -1.639220
  H      5.349357   -0.380931    0.892994
  H      4.135337   -1.690766    0.816571
  H      0.887421    2.897766   -0.354962
  H      0.467934    2.990043    1.374488
  H      2.930638    3.038919    1.920823
  H      3.295430    2.987657    0.188914
  H      2.472476    4.399409    0.874539
  H      0.324937   -2.654946   -1.689678
  H      0.086043   -0.870833   -1.738674
  H     -0.610872   -1.646748    2.374020
  H     -0.917649   -0.294083    3.496757
  H     -2.557786   -2.091442    3.896211
  H     -3.396802   -0.691768    3.203774
  H     -3.027816   -2.096631    2.191081
  H     -4.153873   -0.817295   -1.395321
  H     -5.368773   -0.856588   -0.089253
  H     -5.483827    1.639648   -0.143393
  H     -4.291253    1.670863   -1.446583
  H     -5.883930    0.952005   -1.727107

 Total Charge           Charge          ....    0
 Multiplicity           Mult            ....    1
 Number of Electrons    NEL             ....  202
 Basis Dimension        Dim             ....  334

ORBITAL ENERGIES
----------------

  NO   OCC          E(Eh)            E(eV)
   0   2.0000     -88.046839     -2395.8763
   1   2.0000     -88.044805     -2395.8209
   2   2.0000     -87.979144     -2394.0342
   3   2.0000     -87.978117     -2394.0063
   4   2.0000     -76.424772     -2079.6238
   5   2.0000     -76.421191     -2079.5263
   6   2.0000     -18.793971      -511.4099
   7   2.0000     -18.789441      -511.2867
   8   2.0000     -18.788392      -511.2581
   9   2.0000     -18.775758      -510.9144
  10   2.0000      -9.956871      -270.9402
  11   2.0000      -9.956038      -270.9176
  12   2.0000      -9.954709      -270.8814
  13   2.0000      -9.952721      -270.8273
  14   2.0000      -9.934501      -270.3315
  15   2.0000      -9.886827      -269.0342
  16   2.0000      -9.880677      -268.8669
  17   2.0000      -9.879891      -268.8455
  18   2.0000      -9.872453      -268.6431
  19   2.0000      -7.691859      -209.3061
  20   2.0000      -7.689789      -209.2498
  21   2.0000      -7.624081      -207.4618
  22   2.0000      -7.623038      -207.4334
  23   2.0000      -6.422036      -174.7525
  24   2.0000      -6.418418      -174.6540
  25   2.0000      -5.719622      -155.6388
  26   2.0000      -5.717575      -155.5831
  27   2.0000      -5.716139      -155.5440
  28   2.0000      -5.714176      -155.4906
  29   2.0000      -5.709203      -155.3553
  30   2.0000      -5.706932      -155.2935
  31   2.0000      -5.653053      -153.8274
  32   2.0000      -5.652049      -153.8001
  33   2.0000      -5.644965      -153.6073
  34   2.0000      -5.643944      -153.5795
  35   2.0000      -5.643527      -153.5682
  36   2.0000      -5.643183      -153.5588
  37   2.0000      -4.644780      -126.3909
  38   2.0000      -4.644092      -126.3722
  39   2.0000      -4.642099      -126.3179
  40   2.0000      -4.640811      -126.2829
  41   2.0000      -4.640273      -126.2682
  42   2.0000      -4.639024      -126.2343
  43   2.0000      -0.986676       -26.8488
  44   2.0000      -0.978768       -26.6336
  45   2.0000      -0.944580       -25.7033
  46   2.0000      -0.935312       -25.4511
  47   2.0000      -0.764073       -20.7915
  48   2.0000      -0.719143       -19.5689
  49   2.0000      -0.707204       -19.2440
  50   2.0000      -0.690303       -18.7841
  51   2.0000      -0.683086       -18.5877
  52   2.0000      -0.671355       -18.2685
  53   2.0000      -0.648334       -17.6421
  54   2.0000      -0.633226       -17.2310
  55   2.0000      -0.594036       -16.1646
  56   2.0000      -0.588719       -16.0199
  57   2.0000      -0.573072       -15.5941
  58   2.0000      -0.571547       -15.5526
  59   2.0000      -0.560875       -15.2622
  60   2.0000      -0.500587       -13.6217
  61   2.0000      -0.487695       -13.2708
  62   2.0000      -0.474129       -12.9017
  63   2.0000      -0.460925       -12.5424
  64   2.0000      -0.451370       -12.2824
  65   2.0000      -0.446582       -12.1521
  66   2.0000      -0.441687       -12.0189
  67   2.0000      -0.433619       -11.7994
  68   2.0000      -0.424522       -11.5518
  69   2.0000      -0.413950       -11.2642
  70   2.0000      -0.404241       -11.0000
  71   2.0000      -0.399311       -10.8658
  72   2.0000      -0.398516       -10.8442
  73   2.0000      -0.389405       -10.5962
  74   2.0000      -0.380183       -10.3453
  75   2.0000      -0.366778        -9.9805
  76   2.0000      -0.359856        -9.7922
  77   2.0000      -0.355725        -9.6798
  78   2.0000      -0.350766        -9.5448
  79   2.0000      -0.346737        -9.4352
  80   2.0000      -0.344472        -9.3736
  81   2.0000      -0.340945        -9.2776
  82   2.0000      -0.336218        -9.1490
  83   2.0000      -0.332558        -9.0494
  84   2.0000      -0.330782        -9.0010
  85   2.0000      -0.316238        -8.6053
  86   2.0000      -0.309219        -8.4143
  87   2.0000      -0.295907        -8.0520
  88   2.0000      -0.293111        -7.9760
  89   2.0000      -0.288898        -7.8613
  90   2.0000      -0.277969        -7.5639
  91   2.0000      -0.269932        -7.3452
  92   2.0000      -0.264451        -7.1961
  93   2.0000      -0.259809        -7.0698
  94   2.0000      -0.256376        -6.9764
  95   2.0000      -0.239611        -6.5202
  96   2.0000      -0.224001        -6.0954
  97   2.0000      -0.208033        -5.6609
  98   2.0000      -0.199916        -5.4400
  99   2.0000      -0.191844        -5.2203
 100   2.0000      -0.180830        -4.9206
 101   0.0000      -0.041069        -1.1176
 102   0.0000      -0.031212        -0.8493
 103   0.0000      -0.011555        -0.3144
 104   0.0000       0.013164         0.3582
 105   0.0000       0.021979         0.5981

MULLIKEN ATOMIC CHARGES
-----------------------
   0 C :   -0.307970
   1 C :   -0.006370
   2 O :   -0.377212
   3 P :    0.614750
   4 S :   -0.315647
   5 O :   -0.352887
   6 C :   -0.006417
   7 C :   -0.295606
   8 S :   -0.113773
   9 C :   -0.350080
  10 S :   -0.114059
  11 P :    0.592307
  12 S :   -0.298264
  13 O :   -0.348382
  14 C :    0.000110
  15 C :   -0.307399
  16 O :   -0.372601
  17 C :   -0.013819
  18 C :   -0.288936
  19 H :    0.126052
  20 H :    0.108611
  21 H :    0.120948
  22 H :    0.107115
  23 H :    0.108943
  24 H :    0.122318
  25 H :    0.100902
  26 H :    0.109057
  27 H :    0.118896
  28 H :    0.107234
  29 H :    0.183071
  30 H :    0.215501
  31 H :    0.114776
  32 H :    0.108499
  33 H :    0.112529
  34 H :    0.121919
  35 H :    0.115377
  36 H :    0.104881
  37 H :    0.104890
  38 H :    0.112575
  39 H :    0.131346
  40 H :    0.106817
Sum of atomic charges:   -0.0000000

LOEWDIN ATOMIC CHARGES
----------------------
   0 C :   -0.370062
   1 C :   -0.114792
   2 O :   -0.246165
   3 P :    0.570572
   4 S :   -0.307366
   5 O :   -0.232962
   6 C :   -0.121996
   7 C :   -0.364658
   8 S :    0.079634
   9 C :   -0.476873
  10 S :    0.064464
  11 P :    0.562245
  12 S :   -0.288335
  13 O :   -0.226503
  14 C :   -0.112664
  15 C :   -0.367269
  16 O :   -0.243135
  17 C :   -0.116285
  18 C :   -0.362683
  19 H :    0.129316
  20 H :    0.128464
  21 H :    0.119641
  22 H :    0.120412
  23 H :    0.107342
  24 H :    0.107611
  25 H :    0.117442
  26 H :    0.122723
  27 H :    0.120998
  28 H :    0.128139
  29 H :    0.137040
  30 H :    0.128182
  31 H :    0.103314
  32 H :    0.122653
  33 H :    0.130915
  34 H :    0.127919
  35 H :    0.117318
  36 H :    0.107525
  37 H :    0.117454
  38 H :    0.125771
  39 H :    0.126071
  40 H :    0.128582

  Mayer bond orders larger than 0.100000
B(  0-C ,  1-C ) :   1.1645 B(  0-C , 19-H ) :   0.9428 B(  0-C , 20-H ) :   0.9346
B(  0-C , 21-H ) :   0.9341 B(  1-C ,  2-O ) :   0.9176 B(  1-C , 22-H ) :   0.9344
B(  1-C , 23-H ) :   0.9277 B(  2-O ,  3-P ) :   1.0962 B(  3-P ,  4-S ) :   1.6081
B(  3-P ,  5-O ) :   1.1463 B(  3-P ,  8-S ) :   0.9469 B(  4-S ,  8-S ) :   0.1142
B(  5-O ,  6-C ) :   0.9028 B(  6-C ,  7-C ) :   1.1570 B(  6-C , 24-H ) :   0.9102
B(  6-C , 25-H ) :   0.9350 B(  7-C , 26-H ) :   0.9458 B(  7-C , 27-H ) :   0.9367
B(  7-C , 28-H ) :   0.9401 B(  8-S ,  9-C ) :   0.9902 B(  9-C , 10-S ) :   1.0105
B(  9-C , 29-H ) :   0.9109 B(  9-C , 30-H ) :   0.8424 B( 10-S , 11-P ) :   0.9310
B( 10-S , 12-S ) :   0.1067 B( 11-P , 12-S ) :   1.6484 B( 11-P , 13-O ) :   1.1559
B( 11-P , 16-O ) :   1.0893 B( 13-O , 14-C ) :   0.8962 B( 14-C , 15-C ) :   1.1691
B( 14-C , 31-H ) :   0.9112 B( 14-C , 32-H ) :   0.9357 B( 15-C , 33-H ) :   0.9357
B( 15-C , 34-H ) :   0.9426 B( 15-C , 35-H ) :   0.9398 B( 16-O , 17-C ) :   0.9039
B( 17-C , 18-C ) :   1.1691 B( 17-C , 36-H ) :   0.9150 B( 17-C , 37-H ) :   0.9355
B( 18-C , 38-H ) :   0.9475 B( 18-C , 39-H ) :   0.9300 B( 18-C , 40-H ) :   0.9390

Dispersion correction           -0.067910605
FINAL SINGLE POINT ENERGY     -2929.516328314347

DIPOLE MOMENT
-------------

Method             : SCF
Type of density    : Electron Density
Multiplicity       :   1
Irrep              :   0
Energy             : -2929.6342976895639367 Eh
Relativity type    :
Basis              : AO
                                X                 Y                 Z
Electronic contribution:      0.758444530      -3.919528319      -6.790294151
Nuclear contribution   :     -0.994673863       2.911474143       7.892033498
                        -----------------------------------------
Total Dipole Moment    :     -0.236229333      -1.008054176       1.101739347
                        -----------------------------------------
Magnitude (a.u.)       :      1.511888589
Magnitude (Debye)      :      3.842915393

Rotational constants in cm-1:             0.013020             0.005226             0.004927
Rotational constants in MHz :           390.342613           156.660955           147.702707

                             ****ORCA TERMINATED NORMALLY****
TOTAL RUN TIME: 0 days 0 hours 0 minutes 21 seconds 724 msec
