                         Program Version 6.0.0  -   RELEASE  -
|  1> ! pbe def2-sv(p) def2/J RI DEFGRID1 loosescf d4 GCP(DFT/SV(P)) printgap
|  2> %output
|  3>     printlevel normal
|  4> end
|  5> * xyz 0 1
|  6> C 4.0328337489 -1.3394545152 -2.5783640383
|  7> C 4.0606211651 0.0605935147 -2.0013818635
|  8> O 3.4194393166 0.1374125338 -0.7133997945
|  9> P 1.8608111992 -0.0850357917 -0.5153799418
| 10> S 0.7166281919 0.705395453 -1.8857192478
| 11> O 1.6015082162 0.508019358 0.9231192296
| 12> C 2.3444719988 0.114551779 2.1040156046
| 13> C 3.4695206007 1.0892573534 2.3799640216
| 14> S 1.647701057 -2.1859948571 -0.2856080393
| 15> C -0.1594521695 -2.1874738164 -0.2788370689
| 16> S -0.8754720028 -1.5252994112 1.2685384206
| 17> P -1.8579832176 0.2455605311 0.7098637873
| 18> S -1.1165191771 2.062413859 0.8017982263
| 19> O -3.0198758341 0.0243907468 1.7838237428
| 20> C -3.7775866265 1.0945151643 2.3687584978
| 21> C -4.8077094804 1.6393493897 1.3994424383
| 22> O -2.4550907734 -0.2017463078 -0.6955676587
| 23> C -2.8291692006 0.6886983683 -1.7668741416
| 24> C -2.6386799817 -0.037642062 -3.0823232936
| 25> H 4.4099378566 -2.0558817121 -1.8530319259
| 26> H 3.0143595361 -1.6140006144 -2.846773051
| 27> H 4.6511751478 -1.3682946363 -3.4697947522
| 28> H 3.5646092759 0.7662498988 -2.6748048157
| 29> H 5.0799117961 0.3941603872 -1.8014754034
| 30> H 1.6013165016 0.1228179273 2.9046821642
| 31> H 2.7211172219 -0.9025768107 1.9621159909
| 32> H 3.0733439273 2.0985674368 2.4575382539
| 33> H 3.9493275319 0.8183627011 3.3152124507
| 34> H 4.2008628365 1.059410819 1.5767464856
| 35> H -0.4678860647 -3.2267369102 -0.3507086075
| 36> H -0.5267871925 -1.6016784596 -1.1216776094
| 37> H -4.2439091855 0.6412361263 3.2444735676
| 38> H -3.0869559285 1.8856172673 2.6786712817
| 39> H -5.4296362887 0.8324865203 1.0200931273
| 40> H -5.4314355552 2.3682994351 1.9069317176
| 41> H -4.302797436 2.1269609338 0.5656268568
| 42> H -3.8762486092 0.9616936687 -1.6151303613
| 43> H -2.2065270788 1.5881509456 -1.71210321
| 44> H -3.1737986954 -0.9827414886 -3.0643375754
| 45> H -3.0248329643 0.5823430475 -3.8844417518
| 46> H -1.5821224614 -0.2221535525 -3.2599934354
| 47> *
| 48>
| 49>                          ****END OF INPUT****

CARTESIAN COORDINATES (ANGSTROEM)
---------------------------------
  C      4.032834   -1.339455   -2.578364
  C      4.060621    0.060594   -2.001382
  O      3.419439    0.137413   -0.713400
  P      1.860811   -0.085036   -0.515380
  S      0.716628    0.705395   -1.885719
  O      1.601508    0.508019    0.923119
  C      2.344472    0.114552    2.104016
  C      3.469521    1.089257    2.379964
  S      1.647701   -2.185995   -0.285608
  C     -0.159452   -2.187474   -0.278837
  S     -0.875472   -1.525299    1.268538
  P     -1.857983    0.245561    0.709864
  S     -1.116519    2.062414    0.801798
  O     -3.019876    0.024391    1.783824
  C     -3.777587    1.094515    2.368758
  C     -4.807709    1.639349    1.399442
  O     -2.455091   -0.201746   -0.695568
  C     -2.829169    0.688698   -1.766874
  C     -2.638680   -0.037642   -3.082323
  H      4.409938   -2.055882   -1.853032
  H      3.014360   -1.614001   -2.846773
  H      4.651175   -1.368295   -3.469795
  H      3.564609    0.766250   -2.674805
  H      5.079912    0.394160   -1.801475
  H      1.601317    0.122818    2.904682
  H      2.721117   -0.902577    1.962116
  H      3.073344    2.098567    2.457538
  H      3.949328    0.818363    3.315212
  H      4.200863    1.059411    1.576746
  H     -0.467886   -3.226737   -0.350709
  H     -0.526787   -1.601678   -1.121678
  H     -4.243909    0.641236    3.244474
  H     -3.086956    1.885617    2.678671
  H     -5.429636    0.832487    1.020093
  H     -5.431436    2.368299    1.906932
  H     -4.302797    2.126961    0.565627
  H     -3.876249    0.961694   -1.615130
  H     -2.206527    1.588151   -1.712103
  H     -3.173799   -0.982741   -3.064338
  H     -3.024833    0.582343   -3.884442
  H     -1.582122   -0.222154   -3.259993

 Total Charge           Charge          ....    0
 Multiplicity           Mult            ....    1
 Number of Electrons    NEL             ....  202
 Basis Dimension        Dim             ....  334

ORBITAL ENERGIES
----------------

  NO   OCC          E(Eh)            E(eV)
   0   2.0000     -88.042877     -2395.7685
   1   2.0000     -88.035983     -2395.5809
   2   2.0000     -87.986159     -2394.2251
   3   2.0000     -87.973655     -2393.8849
   4   2.0000     -76.426282     -2079.6649
   5   2.0000     -76.416096     -2079.3877
   6   2.0000     -18.797493      -511.5058
   7   2.0000     -18.786898      -511.2175
   8   2.0000     -18.784544      -511.1534
   9   2.0000     -18.777841      -510.9710
  10   2.0000      -9.956342      -270.9258
  11   2.0000      -9.955991      -270.9163
  12   2.0000      -9.948727      -270.7186
  13   2.0000      -9.944121      -270.5933
  14   2.0000      -9.941957      -270.5344
  15   2.0000      -9.887331      -269.0479
  16   2.0000      -9.880807      -268.8704
  17   2.0000      -9.880305      -268.8568
  18   2.0000      -9.878015      -268.7944
  19   2.0000      -7.688098      -209.2038
  20   2.0000      -7.681530      -209.0251
  21   2.0000      -7.631151      -207.6542
  22   2.0000      -7.618568      -207.3118
  23   2.0000      -6.423783      -174.8000
  24   2.0000      -6.413505      -174.5203
  25   2.0000      -5.715798      -155.5348
  26   2.0000      -5.712587      -155.4474
  27   2.0000      -5.709849      -155.3729
  28   2.0000      -5.705855      -155.2642
  29   2.0000      -5.705229      -155.2472
  30   2.0000      -5.698107      -155.0534
  31   2.0000      -5.659929      -154.0145
  32   2.0000      -5.651779      -153.7927
  33   2.0000      -5.651362      -153.7814
  34   2.0000      -5.647582      -153.6785
  35   2.0000      -5.639285      -153.4527
  36   2.0000      -5.638545      -153.4326
  37   2.0000      -4.646701      -126.4431
  38   2.0000      -4.645501      -126.4105
  39   2.0000      -4.643978      -126.3691
  40   2.0000      -4.636137      -126.1557
  41   2.0000      -4.635116      -126.1279
  42   2.0000      -4.634102      -126.1003
  43   2.0000      -0.988337       -26.8940
  44   2.0000      -0.972644       -26.4670
  45   2.0000      -0.944527       -25.7019
  46   2.0000      -0.935660       -25.4606
  47   2.0000      -0.760701       -20.6997
  48   2.0000      -0.719422       -19.5765
  49   2.0000      -0.707365       -19.2484
  50   2.0000      -0.690213       -18.7817
  51   2.0000      -0.681197       -18.5363
  52   2.0000      -0.669220       -18.2104
  53   2.0000      -0.648875       -17.6568
  54   2.0000      -0.630213       -17.1490
  55   2.0000      -0.598857       -16.2957
  56   2.0000      -0.586253       -15.9528
  57   2.0000      -0.571527       -15.5520
  58   2.0000      -0.564782       -15.3685
  59   2.0000      -0.558800       -15.2057
  60   2.0000      -0.498885       -13.5753
  61   2.0000      -0.492014       -13.3884
  62   2.0000      -0.475045       -12.9266
  63   2.0000      -0.470351       -12.7989
  64   2.0000      -0.451034       -12.2733
  65   2.0000      -0.445798       -12.1308
  66   2.0000      -0.437575       -11.9070
  67   2.0000      -0.429881       -11.6977
  68   2.0000      -0.426583       -11.6079
  69   2.0000      -0.418405       -11.3854
  70   2.0000      -0.400978       -10.9112
  71   2.0000      -0.390668       -10.6306
  72   2.0000      -0.388753       -10.5785
  73   2.0000      -0.385008       -10.4766
  74   2.0000      -0.380498       -10.3539
  75   2.0000      -0.369568       -10.0565
  76   2.0000      -0.364527        -9.9193
  77   2.0000      -0.356277        -9.6948
  78   2.0000      -0.351358        -9.5609
  79   2.0000      -0.350329        -9.5329
  80   2.0000      -0.346298        -9.4233
  81   2.0000      -0.342570        -9.3218
  82   2.0000      -0.337840        -9.1931
  83   2.0000      -0.331572        -9.0225
  84   2.0000      -0.326395        -8.8817
  85   2.0000      -0.316308        -8.6072
  86   2.0000      -0.308803        -8.4030
  87   2.0000      -0.297021        -8.0823
  88   2.0000      -0.291059        -7.9201
  89   2.0000      -0.286561        -7.7977
  90   2.0000      -0.276991        -7.5373
  91   2.0000      -0.267927        -7.2907
  92   2.0000      -0.264934        -7.2092
  93   2.0000      -0.263775        -7.1777
  94   2.0000      -0.253034        -6.8854
  95   2.0000      -0.236020        -6.4224
  96   2.0000      -0.218033        -5.9330
  97   2.0000      -0.213815        -5.8182
  98   2.0000      -0.202841        -5.5196
  99   2.0000      -0.189708        -5.1622
 100   2.0000      -0.176609        -4.8058
 101   0.0000      -0.036779        -1.0008
 102   0.0000      -0.028679        -0.7804
 103   0.0000      -0.013169        -0.3583
 104   0.0000       0.005273         0.1435
 105   0.0000       0.021714         0.5909

MULLIKEN ATOMIC CHARGES
-----------------------
   0 C :   -0.321196
   1 C :   -0.001000
   2 O :   -0.377555
   3 P :    0.602114
   4 S :   -0.308941
   5 O :   -0.335407
   6 C :   -0.006200
   7 C :   -0.288018
   8 S :   -0.096737
   9 C :   -0.371908
  10 S :   -0.081335
  11 P :    0.624542
  12 S :   -0.307306
  13 O :   -0.384235
  14 C :   -0.003397
  15 C :   -0.313963
  16 O :   -0.384849
  17 C :   -0.018839
  18 C :   -0.295720
  19 H :    0.118150
  20 H :    0.129089
  21 H :    0.115733
  22 H :    0.115020
  23 H :    0.106312
  24 H :    0.109519
  25 H :    0.097478
  26 H :    0.124394
  27 H :    0.107482
  28 H :    0.116887
  29 H :    0.184159
  30 H :    0.212733
  31 H :    0.100160
  32 H :    0.108618
  33 H :    0.114556
  34 H :    0.110662
  35 H :    0.120787
  36 H :    0.102626
  37 H :    0.122261
  38 H :    0.109357
  39 H :    0.107591
  40 H :    0.136377
Sum of atomic charges:   -0.0000000

LOEWDIN ATOMIC CHARGES
----------------------
   0 C :   -0.372070
   1 C :   -0.116054
   2 O :   -0.244019
   3 P :    0.572084
   4 S :   -0.291074
   5 O :   -0.223002
   6 C :   -0.115924
   7 C :   -0.359301
   8 S :    0.072178
   9 C :   -0.479163
  10 S :    0.092250
  11 P :    0.558593
  12 S :   -0.298233
  13 O :   -0.255185
  14 C :   -0.124117
  15 C :   -0.365725
  16 O :   -0.248918
  17 C :   -0.119237
  18 C :   -0.358470
  19 H :    0.123693
  20 H :    0.121668
  21 H :    0.132574
  22 H :    0.114038
  23 H :    0.119113
  24 H :    0.119691
  25 H :    0.101035
  26 H :    0.130926
  27 H :    0.128597
  28 H :    0.123881
  29 H :    0.138910
  30 H :    0.129958
  31 H :    0.116324
  32 H :    0.106843
  33 H :    0.123939
  34 H :    0.130151
  35 H :    0.120053
  36 H :    0.109305
  37 H :    0.110085
  38 H :    0.123603
  39 H :    0.129400
  40 H :    0.121599

  Mayer bond orders larger than 0.100000
B(  0-C ,  1-C ) :   1.1661 B(  0-C , 19-H ) :   0.9437 B(  0-C , 20-H ) :   0.9338
B(  0-C , 21-H ) :   0.9369 B(  1-C ,  2-O ) :   0.9034 B(  1-C , 22-H ) :   0.9182
B(  1-C , 23-H ) :   0.9338 B(  2-O ,  3-P ) :   1.0902 B(  3-P ,  4-S ) :   1.6242
B(  3-P ,  5-O ) :   1.1569 B(  3-P ,  8-S ) :   0.9470 B(  4-S ,  8-S ) :   0.1040
B(  5-O ,  6-C ) :   0.8878 B(  6-C ,  7-C ) :   1.1636 B(  6-C , 24-H ) :   0.9305
B(  6-C , 25-H ) :   0.9116 B(  7-C , 26-H ) :   0.9464 B(  7-C , 27-H ) :   0.9400
B(  7-C , 28-H ) :   0.9428 B(  8-S ,  9-C ) :   0.9980 B(  9-C , 10-S ) :   0.9922
B(  9-C , 29-H ) :   0.9112 B(  9-C , 30-H ) :   0.8605 B( 10-S , 11-P ) :   0.9670
B( 10-S , 12-S ) :   0.1070 B( 11-P , 12-S ) :   1.6255 B( 11-P , 13-O ) :   1.0880
B( 11-P , 16-O ) :   1.1030 B( 13-O , 14-C ) :   0.9205 B( 14-C , 15-C ) :   1.1617
B( 14-C , 31-H ) :   0.9330 B( 14-C , 32-H ) :   0.9065 B( 15-C , 33-H ) :   0.9469
B( 15-C , 34-H ) :   0.9390 B( 15-C , 35-H ) :   0.9299 B( 16-O , 17-C ) :   0.8982
B( 17-C , 18-C ) :   1.1650 B( 17-C , 36-H ) :   0.9277 B( 17-C , 37-H ) :   0.9043
B( 18-C , 38-H ) :   0.9483 B( 18-C , 39-H ) :   0.9408 B( 18-C , 40-H ) :   0.9353

Dispersion correction           -0.067954361
FINAL SINGLE POINT ENERGY     -2929.514284780155

DIPOLE MOMENT
-------------

Method             : SCF
Type of density    : Electron Density
Multiplicity       :   1
Irrep              :   0
Energy             : -2929.6318285285178717 Eh
Relativity type    :
Basis              : AO
                                X                 Y                 Z
Electronic contribution:      1.387149878      -4.487687370       5.643987069
Nuclear contribution   :     -1.039799006       3.898958701      -5.801465643
                        -----------------------------------------
Total Dipole Moment    :      0.347350872      -0.588728669      -0.157478574
                        -----------------------------------------
Magnitude (a.u.)       :      0.701465306
Magnitude (Debye)      :      1.782983112

Rotational constants in cm-1:             0.012587             0.005543             0.004999
Rotational constants in MHz :           377.343877           166.168101           149.871037

                             ****ORCA TERMINATED NORMALLY****
TOTAL RUN TIME: 0 days 0 hours 0 minutes 21 seconds 671 msec
