                         Program Version 6.0.0  -   RELEASE  -
|  1> ! pbe def2-sv(p) def2/J RI DEFGRID1 loosescf d4 GCP(DFT/SV(P)) printgap
|  2> %output
|  3>     printlevel normal
|  4> end
|  5> * xyz 0 1
|  6> C 4.0600647496 -0.2929272052 -2.4308365483
|  7> C 4.4208463399 -0.6417901557 -1.000844673
|  8> O 3.2531427168 -0.8186994487 -0.185320734
|  9> P 2.3448213148 0.4215034113 0.2606631377
| 10> S 3.3516183094 2.0710248853 0.5890016306
| 11> O 1.5210922101 -0.2235655061 1.4477084413
| 12> C 2.1257227925 -0.7956146373 2.6302029013
| 13> C 2.4097097675 0.2646394369 3.6749654396
| 14> S 0.7901424052 0.5822828556 -1.1591888161
| 15> C 0.1643085159 -1.1256285433 -1.0684387476
| 16> S -1.0392592764 -1.3732064541 0.2525827884
| 17> P -2.5264224655 -0.0648687327 -0.535767267
| 18> S -2.6568439912 -0.0762392355 -2.4895687308
| 19> O -2.2516962721 1.4146664793 -0.0569180771
| 20> C -2.4054133719 1.9423237138 1.2812848555
| 21> C -1.1908984118 1.6676774905 2.1453537997
| 22> O -3.8150410355 -0.4333163298 0.3174413665
| 23> C -4.3030532222 -1.7692070473 0.5495529583
| 24> C -4.5539249759 -2.5327215498 -0.7334216926
| 25> H 3.4013032548 -1.0462250381 -2.8555401599
| 26> H 3.5541554045 0.672164614 -2.4596495168
| 27> H 4.9653591833 -0.2316634449 -3.0260942452
| 28> H 5.0359483054 0.1486337622 -0.5586800909
| 29> H 4.9398247315 -1.5991906945 -0.9366133252
| 30> H 1.380564827 -1.512873732 2.9799201341
| 31> H 3.0380602807 -1.3228626407 2.3429854991
| 32> H 3.1341749543 0.9838153408 3.2981400032
| 33> H 1.4962881932 0.7948315424 3.93009672
| 34> H 2.8110075423 -0.2093658947 4.5651428134
| 35> H 0.9875003864 -1.8121130843 -0.8887075193
| 36> H -0.3199927492 -1.3130611117 -2.0271533815
| 37> H -2.5376607656 3.0130875308 1.1161441837
| 38> H -3.3096241898 1.5204424601 1.7232762604
| 39> H -1.0858478633 0.6026164781 2.3391997902
| 40> H -0.2878077508 2.023776426 1.6513280903
| 41> H -1.3049481664 2.1919296604 3.089351349
| 42> H -3.57620305 -2.2931896745 1.1760473245
| 43> H -5.2283919028 -1.6093796871 1.1059518701
| 44> H -3.6175206033 -2.691983426 -1.265667966
| 45> H -4.9975494045 -3.4949212722 -0.4989466732
| 46> H -5.2243414732 -1.9745398194 -1.3825610864
| 47> *
| 48>
| 49>                          ****END OF INPUT****

CARTESIAN COORDINATES (ANGSTROEM)
---------------------------------
  C      4.060065   -0.292927   -2.430837
  C      4.420846   -0.641790   -1.000845
  O      3.253143   -0.818699   -0.185321
  P      2.344821    0.421503    0.260663
  S      3.351618    2.071025    0.589002
  O      1.521092   -0.223566    1.447708
  C      2.125723   -0.795615    2.630203
  C      2.409710    0.264639    3.674965
  S      0.790142    0.582283   -1.159189
  C      0.164309   -1.125629   -1.068439
  S     -1.039259   -1.373206    0.252583
  P     -2.526422   -0.064869   -0.535767
  S     -2.656844   -0.076239   -2.489569
  O     -2.251696    1.414666   -0.056918
  C     -2.405413    1.942324    1.281285
  C     -1.190898    1.667677    2.145354
  O     -3.815041   -0.433316    0.317441
  C     -4.303053   -1.769207    0.549553
  C     -4.553925   -2.532722   -0.733422
  H      3.401303   -1.046225   -2.855540
  H      3.554155    0.672165   -2.459650
  H      4.965359   -0.231663   -3.026094
  H      5.035948    0.148634   -0.558680
  H      4.939825   -1.599191   -0.936613
  H      1.380565   -1.512874    2.979920
  H      3.038060   -1.322863    2.342985
  H      3.134175    0.983815    3.298140
  H      1.496288    0.794832    3.930097
  H      2.811008   -0.209366    4.565143
  H      0.987500   -1.812113   -0.888708
  H     -0.319993   -1.313061   -2.027153
  H     -2.537661    3.013088    1.116144
  H     -3.309624    1.520442    1.723276
  H     -1.085848    0.602616    2.339200
  H     -0.287808    2.023776    1.651328
  H     -1.304948    2.191930    3.089351
  H     -3.576203   -2.293190    1.176047
  H     -5.228392   -1.609380    1.105952
  H     -3.617521   -2.691983   -1.265668
  H     -4.997549   -3.494921   -0.498947
  H     -5.224341   -1.974540   -1.382561

 Total Charge           Charge          ....    0
 Multiplicity           Mult            ....    1
 Number of Electrons    NEL             ....  202
 Basis Dimension        Dim             ....  334

ORBITAL ENERGIES
----------------

  NO   OCC          E(Eh)            E(eV)
   0   2.0000     -88.043886     -2395.7959
   1   2.0000     -88.042630     -2395.7618
   2   2.0000     -87.988849     -2394.2983
   3   2.0000     -87.981247     -2394.0914
   4   2.0000     -76.428191     -2079.7168
   5   2.0000     -76.427062     -2079.6861
   6   2.0000     -18.798615      -511.5363
   7   2.0000     -18.797065      -511.4941
   8   2.0000     -18.794349      -511.4202
   9   2.0000     -18.786344      -511.2024
  10   2.0000      -9.962298      -271.0879
  11   2.0000      -9.959159      -271.0025
  12   2.0000      -9.956708      -270.9358
  13   2.0000      -9.953744      -270.8551
  14   2.0000      -9.950269      -270.7606
  15   2.0000      -9.885280      -268.9921
  16   2.0000      -9.885074      -268.9865
  17   2.0000      -9.884891      -268.9815
  18   2.0000      -9.878741      -268.8142
  19   2.0000      -7.688703      -209.2202
  20   2.0000      -7.687507      -209.1877
  21   2.0000      -7.633884      -207.7285
  22   2.0000      -7.626600      -207.5303
  23   2.0000      -6.425643      -174.8506
  24   2.0000      -6.423929      -174.8040
  25   2.0000      -5.716380      -155.5506
  26   2.0000      -5.715721      -155.5327
  27   2.0000      -5.713284      -155.4664
  28   2.0000      -5.711891      -155.4285
  29   2.0000      -5.705839      -155.2638
  30   2.0000      -5.704294      -155.2217
  31   2.0000      -5.662853      -154.0941
  32   2.0000      -5.655653      -153.8982
  33   2.0000      -5.654499      -153.8667
  34   2.0000      -5.654031      -153.8540
  35   2.0000      -5.647216      -153.6686
  36   2.0000      -5.646592      -153.6516
  37   2.0000      -4.648394      -126.4892
  38   2.0000      -4.647496      -126.4648
  39   2.0000      -4.646967      -126.4504
  40   2.0000      -4.645877      -126.4207
  41   2.0000      -4.645833      -126.4195
  42   2.0000      -4.643938      -126.3680
  43   2.0000      -0.991256       -26.9734
  44   2.0000      -0.988424       -26.8964
  45   2.0000      -0.948173       -25.8011
  46   2.0000      -0.942721       -25.6527
  47   2.0000      -0.765292       -20.8246
  48   2.0000      -0.723437       -19.6857
  49   2.0000      -0.710960       -19.3462
  50   2.0000      -0.690371       -18.7859
  51   2.0000      -0.689255       -18.7556
  52   2.0000      -0.676922       -18.4200
  53   2.0000      -0.654232       -17.8026
  54   2.0000      -0.637071       -17.3356
  55   2.0000      -0.595089       -16.1932
  56   2.0000      -0.590191       -16.0599
  57   2.0000      -0.580934       -15.8080
  58   2.0000      -0.577406       -15.7120
  59   2.0000      -0.563318       -15.3287
  60   2.0000      -0.504249       -13.7213
  61   2.0000      -0.500727       -13.6255
  62   2.0000      -0.473619       -12.8878
  63   2.0000      -0.471495       -12.8300
  64   2.0000      -0.466024       -12.6811
  65   2.0000      -0.445561       -12.1243
  66   2.0000      -0.440801       -11.9948
  67   2.0000      -0.435548       -11.8519
  68   2.0000      -0.431238       -11.7346
  69   2.0000      -0.420431       -11.4405
  70   2.0000      -0.414381       -11.2759
  71   2.0000      -0.406986       -11.0746
  72   2.0000      -0.398192       -10.8353
  73   2.0000      -0.388078       -10.5601
  74   2.0000      -0.382790       -10.4162
  75   2.0000      -0.368365       -10.0237
  76   2.0000      -0.360652        -9.8139
  77   2.0000      -0.357446        -9.7266
  78   2.0000      -0.353831        -9.6282
  79   2.0000      -0.350169        -9.5286
  80   2.0000      -0.347857        -9.4657
  81   2.0000      -0.345040        -9.3890
  82   2.0000      -0.341618        -9.2959
  83   2.0000      -0.340330        -9.2609
  84   2.0000      -0.332516        -9.0482
  85   2.0000      -0.323702        -8.8084
  86   2.0000      -0.316641        -8.6162
  87   2.0000      -0.300458        -8.1759
  88   2.0000      -0.297949        -8.1076
  89   2.0000      -0.295038        -8.0284
  90   2.0000      -0.288080        -7.8391
  91   2.0000      -0.279530        -7.6064
  92   2.0000      -0.275008        -7.4834
  93   2.0000      -0.267218        -7.2714
  94   2.0000      -0.257300        -7.0015
  95   2.0000      -0.233022        -6.3408
  96   2.0000      -0.217940        -5.9304
  97   2.0000      -0.207979        -5.6594
  98   2.0000      -0.203064        -5.5256
  99   2.0000      -0.201500        -5.4831
 100   2.0000      -0.194913        -5.3039
 101   0.0000      -0.043591        -1.1862
 102   0.0000      -0.024229        -0.6593
 103   0.0000      -0.011598        -0.3156
 104   0.0000       0.000724         0.0197
 105   0.0000       0.004558         0.1240

MULLIKEN ATOMIC CHARGES
-----------------------
   0 C :   -0.310095
   1 C :   -0.009303
   2 O :   -0.387075
   3 P :    0.607549
   4 S :   -0.319593
   5 O :   -0.371118
   6 C :   -0.005532
   7 C :   -0.306998
   8 S :   -0.038485
   9 C :   -0.363662
  10 S :   -0.107579
  11 P :    0.617382
  12 S :   -0.314431
  13 O :   -0.348278
  14 C :    0.001320
  15 C :   -0.330522
  16 O :   -0.384036
  17 C :   -0.012565
  18 C :   -0.306400
  19 H :    0.113414
  20 H :    0.129690
  21 H :    0.113851
  22 H :    0.112797
  23 H :    0.102540
  24 H :    0.104784
  25 H :    0.104849
  26 H :    0.131121
  27 H :    0.123103
  28 H :    0.107898
  29 H :    0.181340
  30 H :    0.196982
  31 H :    0.110115
  32 H :    0.103441
  33 H :    0.126004
  34 H :    0.135875
  35 H :    0.105862
  36 H :    0.112310
  37 H :    0.109504
  38 H :    0.124979
  39 H :    0.110969
  40 H :    0.127995
Sum of atomic charges:    0.0000000

LOEWDIN ATOMIC CHARGES
----------------------
   0 C :   -0.366314
   1 C :   -0.124127
   2 O :   -0.251372
   3 P :    0.561936
   4 S :   -0.318722
   5 O :   -0.238343
   6 C :   -0.111197
   7 C :   -0.364151
   8 S :    0.114602
   9 C :   -0.482611
  10 S :    0.072601
  11 P :    0.567684
  12 S :   -0.309356
  13 O :   -0.231117
  14 C :   -0.110197
  15 C :   -0.369996
  16 O :   -0.244805
  17 C :   -0.114603
  18 C :   -0.368691
  19 H :    0.123519
  20 H :    0.123304
  21 H :    0.131498
  22 H :    0.109635
  23 H :    0.116646
  24 H :    0.117195
  25 H :    0.111143
  26 H :    0.125119
  27 H :    0.128152
  28 H :    0.128811
  29 H :    0.130509
  30 H :    0.131034
  31 H :    0.122686
  32 H :    0.109405
  33 H :    0.115065
  34 H :    0.127318
  35 H :    0.126737
  36 H :    0.107133
  37 H :    0.121211
  38 H :    0.121197
  39 H :    0.130030
  40 H :    0.131432

  Mayer bond orders larger than 0.100000
B(  0-C ,  1-C ) :   1.1637 B(  0-C , 19-H ) :   0.9473 B(  0-C , 20-H ) :   0.9350
B(  0-C , 21-H ) :   0.9389 B(  1-C ,  2-O ) :   0.9097 B(  1-C , 22-H ) :   0.9110
B(  1-C , 23-H ) :   0.9330 B(  2-O ,  3-P ) :   1.0489 B(  3-P ,  4-S ) :   1.6441
B(  3-P ,  5-O ) :   1.1040 B(  3-P ,  8-S ) :   0.9878 B(  5-O ,  6-C ) :   0.8982
B(  6-C ,  7-C ) :   1.1702 B(  6-C , 24-H ) :   0.9332 B(  6-C , 25-H ) :   0.9219
B(  7-C , 26-H ) :   0.9323 B(  7-C , 27-H ) :   0.9466 B(  7-C , 28-H ) :   0.9385
B(  8-S ,  9-C ) :   0.9842 B(  9-C , 10-S ) :   1.0068 B(  9-C , 29-H ) :   0.8917
B(  9-C , 30-H ) :   0.8727 B( 10-S , 11-P ) :   0.9356 B( 10-S , 12-S ) :   0.1120
B( 11-P , 12-S ) :   1.6392 B( 11-P , 13-O ) :   1.1407 B( 11-P , 16-O ) :   1.0838
B( 13-O , 14-C ) :   0.9022 B( 14-C , 15-C ) :   1.1655 B( 14-C , 31-H ) :   0.9334
B( 14-C , 32-H ) :   0.9233 B( 15-C , 33-H ) :   0.9376 B( 15-C , 34-H ) :   0.9362
B( 15-C , 35-H ) :   0.9364 B( 16-O , 17-C ) :   0.9114 B( 17-C , 18-C ) :   1.1671
B( 17-C , 36-H ) :   0.9258 B( 17-C , 37-H ) :   0.9331 B( 18-C , 38-H ) :   0.9314
B( 18-C , 39-H ) :   0.9349 B( 18-C , 40-H ) :   0.9433

Dispersion correction           -0.065784134
FINAL SINGLE POINT ENERGY     -2929.517242390088

DIPOLE MOMENT
-------------

Method             : SCF
Type of density    : Electron Density
Multiplicity       :   1
Irrep              :   0
Energy             : -2929.6375007899409866 Eh
Relativity type    :
Basis              : AO
                                X                 Y                 Z
Electronic contribution:     -3.105013616       7.321641266     -11.468507530
Nuclear contribution   :      3.183310508      -8.948126540      12.937982717
                        -----------------------------------------
Total Dipole Moment    :      0.078296892      -1.626485274       1.469475187
                        -----------------------------------------
Magnitude (a.u.)       :      2.193385984
Magnitude (Debye)      :      5.575144108

Rotational constants in cm-1:             0.012821             0.004877             0.004395
Rotational constants in MHz :           384.363178           146.204597           131.749326

                             ****ORCA TERMINATED NORMALLY****
TOTAL RUN TIME: 0 days 0 hours 0 minutes 21 seconds 305 msec
