                         Program Version 6.0.0  -   RELEASE  -
|  1> ! r2scan-3c def2/J RI DEFGRID2 scfconv6 printgap
|  2> %output
|  3>     printlevel normal
|  4> end
|  5> * xyz 0 1
|  6> C -0.6930920641 -0.5954126306 -0.3110794099
|  7> C 0.7077997233 -0.5882970948 0.3078170909
|  8> O 1.4781865348 0.505326964 -0.1386045147
|  9> O -1.4468891691 0.5311729537 0.0843133602
| 10> H -1.207115992 -1.5267033936 -0.0488842252
| 11> H -0.6108422484 -0.5282503545 -1.3980490767
| 12> H 1.2494026891 -1.4879789367 0.0112886814
| 13> H 0.6299073511 -0.5661973913 1.4047681767
| 14> H 0.9247924437 1.3001029202 -0.0944985516
| 15> H -1.65819668 0.461511205 1.0260321178
| 16> *
| 17>
| 18>                          ****END OF INPUT****

CARTESIAN COORDINATES (ANGSTROEM)
---------------------------------
  C     -0.693092   -0.595413   -0.311079
  C      0.707800   -0.588297    0.307817
  O      1.478187    0.505327   -0.138605
  O     -1.446889    0.531173    0.084313
  H     -1.207116   -1.526703   -0.048884
  H     -0.610842   -0.528250   -1.398049
  H      1.249403   -1.487979    0.011289
  H      0.629907   -0.566197    1.404768
  H      0.924792    1.300103   -0.094499
  H     -1.658197    0.461511    1.026032

 Total Charge           Charge          ....    0
 Multiplicity           Mult            ....    1
 Number of Electrons    NEL             ....   34
 Basis Dimension        Dim             ....  116

ORBITAL ENERGIES
----------------

  NO   OCC          E(Eh)            E(eV)
   0   2.0000     -18.963095      -516.0121
   1   2.0000     -18.946311      -515.5553
   2   2.0000     -10.083363      -274.3823
   3   2.0000     -10.079449      -274.2757
   4   2.0000      -1.004135       -27.3239
   5   2.0000      -0.978789       -26.6342
   6   2.0000      -0.703863       -19.1531
   7   2.0000      -0.600477       -16.3398
   8   2.0000      -0.493219       -13.4212
   9   2.0000      -0.466739       -12.7006
  10   2.0000      -0.432232       -11.7616
  11   2.0000      -0.408636       -11.1196
  12   2.0000      -0.374832       -10.1997
  13   2.0000      -0.317008        -8.6262
  14   2.0000      -0.304339        -8.2815
  15   2.0000      -0.261778        -7.1233
  16   2.0000      -0.231447        -6.2980
  17   0.0000       0.047745         1.2992
  18   0.0000       0.084929         2.3110
  19   0.0000       0.111368         3.0305
  20   0.0000       0.127190         3.4610
  21   0.0000       0.142574         3.8796

MULLIKEN ATOMIC CHARGES
-----------------------
   0 C :   -0.155042
   1 C :   -0.122313
   2 O :   -0.424211
   3 O :   -0.436106
   4 H :    0.125440
   5 H :    0.146683
   6 H :    0.133908
   7 H :    0.119650
   8 H :    0.312781
   9 H :    0.299210
Sum of atomic charges:   -0.0000000

LOEWDIN ATOMIC CHARGES
----------------------
   0 C :    0.005976
   1 C :    0.003378
   2 O :   -0.607632
   3 O :   -0.615061
   4 H :    0.159534
   5 H :    0.182588
   6 H :    0.177757
   7 H :    0.154272
   8 H :    0.272747
   9 H :    0.266440

  Mayer bond orders larger than 0.100000
B(  0-C ,  1-C ) :   0.9461 B(  0-C ,  3-O ) :   0.9518 B(  0-C ,  4-H ) :   0.9671
B(  0-C ,  5-H ) :   0.9673 B(  1-C ,  2-O ) :   0.9349 B(  1-C ,  6-H ) :   0.9651
B(  1-C ,  7-H ) :   0.9678 B(  2-O ,  8-H ) :   0.8765 B(  3-O ,  9-H ) :   0.8955

Dispersion correction           -0.001584430
FINAL SINGLE POINT ENERGY      -230.210456533186

DIPOLE MOMENT
-------------

Method             : SCF
Type of density    : Electron Density
Multiplicity       :   1
Irrep              :   0
Energy             :  -230.2163715909121038 Eh
Relativity type    :
Basis              : AO
                                X                 Y                 Z
Electronic contribution:      0.151424064       1.766320696      -0.300770401
Nuclear contribution   :     -0.630036449      -2.186975551       0.844165553
                        -----------------------------------------
Total Dipole Moment    :     -0.478612385      -0.420654856       0.543395152
                        -----------------------------------------
Magnitude (a.u.)       :      0.837435737
Magnitude (Debye)      :      2.128592482

Rotational constants in cm-1:             0.528914             0.176622             0.150771
Rotational constants in MHz :         15856.454021          5294.996173          4519.989082

                             ****ORCA TERMINATED NORMALLY****
TOTAL RUN TIME: 0 days 0 hours 0 minutes 10 seconds 396 msec
