                         Program Version 6.0.0  -   RELEASE  -
|  1> ! r2scan-3c def2/J RI DEFGRID2 scfconv6 printgap
|  2> %output
|  3>     printlevel normal
|  4> end
|  5> %cpcm
|  6>     smd true
|  7>     smdsolvent "water"
|  8> end
|  9> * xyz 0 1
| 10> C -0.6930920641 -0.5954126306 -0.3110794099
| 11> C 0.7077997233 -0.5882970948 0.3078170909
| 12> O 1.4781865348 0.505326964 -0.1386045147
| 13> O -1.4468891691 0.5311729537 0.0843133602
| 14> H -1.207115992 -1.5267033936 -0.0488842252
| 15> H -0.6108422484 -0.5282503545 -1.3980490767
| 16> H 1.2494026891 -1.4879789367 0.0112886814
| 17> H 0.6299073511 -0.5661973913 1.4047681767
| 18> H 0.9247924437 1.3001029202 -0.0944985516
| 19> H -1.65819668 0.461511205 1.0260321178
| 20> *
| 21>
| 22>                          ****END OF INPUT****

CARTESIAN COORDINATES (ANGSTROEM)
---------------------------------
  C     -0.693092   -0.595413   -0.311079
  C      0.707800   -0.588297    0.307817
  O      1.478187    0.505327   -0.138605
  O     -1.446889    0.531173    0.084313
  H     -1.207116   -1.526703   -0.048884
  H     -0.610842   -0.528250   -1.398049
  H      1.249403   -1.487979    0.011289
  H      0.629907   -0.566197    1.404768
  H      0.924792    1.300103   -0.094499
  H     -1.658197    0.461511    1.026032

 Total Charge           Charge          ....    0
 Multiplicity           Mult            ....    1
 Number of Electrons    NEL             ....   34
 Basis Dimension        Dim             ....  116

ORBITAL ENERGIES
----------------

  NO   OCC          E(Eh)            E(eV)
   0   2.0000     -18.955226      -515.7979
   1   2.0000     -18.951748      -515.7033
   2   2.0000     -10.071475      -274.0588
   3   2.0000     -10.069819      -274.0137
   4   2.0000      -0.999161       -27.1885
   5   2.0000      -0.979107       -26.6429
   6   2.0000      -0.694133       -18.8883
   7   2.0000      -0.592283       -16.1169
   8   2.0000      -0.486165       -13.2292
   9   2.0000      -0.458412       -12.4740
  10   2.0000      -0.425218       -11.5708
  11   2.0000      -0.403370       -10.9763
  12   2.0000      -0.370094       -10.0708
  13   2.0000      -0.318646        -8.6708
  14   2.0000      -0.300090        -8.1659
  15   2.0000      -0.260574        -7.0906
  16   2.0000      -0.232190        -6.3182
  17   0.0000       0.065857         1.7921
  18   0.0000       0.102345         2.7849
  19   0.0000       0.125997         3.4285
  20   0.0000       0.140350         3.8191
  21   0.0000       0.153752         4.1838

MULLIKEN ATOMIC CHARGES
-----------------------
   0 C :   -0.154165
   1 C :   -0.127686
   2 O :   -0.508885
   3 O :   -0.505515
   4 H :    0.146709
   5 H :    0.154206
   6 H :    0.150949
   7 H :    0.141436
   8 H :    0.350833
   9 H :    0.352118
Sum of atomic charges:    0.0000000

LOEWDIN ATOMIC CHARGES
----------------------
   0 C :    0.009706
   1 C :    0.005735
   2 O :   -0.648884
   3 O :   -0.642152
   4 H :    0.171526
   5 H :    0.183249
   6 H :    0.184192
   7 H :    0.165967
   8 H :    0.285030
   9 H :    0.285631

  Mayer bond orders larger than 0.100000
B(  0-C ,  1-C ) :   0.9596 B(  0-C ,  3-O ) :   0.9433 B(  0-C ,  4-H ) :   0.9578
B(  0-C ,  5-H ) :   0.9681 B(  1-C ,  2-O ) :   0.9189 B(  1-C ,  6-H ) :   0.9585
B(  1-C ,  7-H ) :   0.9609 B(  2-O ,  8-H ) :   0.8576 B(  3-O ,  9-H ) :   0.8687

Dispersion correction           -0.001584430
FINAL SINGLE POINT ENERGY      -230.224722677445

DIPOLE MOMENT
-------------

Method             : SCF
Type of density    : Electron Density
Multiplicity       :   1
Irrep              :   0
Energy             :  -230.2306377351716833 Eh
Relativity type    :
Basis              : AO
                                X                 Y                 Z
Electronic contribution:     -0.009197787       1.593177454      -0.059558868
Nuclear contribution   :     -0.630036449      -2.186975551       0.844165553
                        -----------------------------------------
Total Dipole Moment    :     -0.639234236      -0.593798098       0.784606685
                        -----------------------------------------
Magnitude (a.u.)       :      1.173381540
Magnitude (Debye)      :      2.982498852

Rotational constants in cm-1:             0.528914             0.176622             0.150771
Rotational constants in MHz :         15856.454021          5294.996173          4519.989082

                             ****ORCA TERMINATED NORMALLY****
TOTAL RUN TIME: 0 days 0 hours 0 minutes 11 seconds 666 msec
