                         Program Version 6.0.0  -   RELEASE  -
|  1> ! pbe def2-sv(p) def2/J RI DEFGRID1 loosescf d4 GCP(DFT/SV(P)) printgap
|  2> %output
|  3>     printlevel normal
|  4> end
|  5> * xyz 0 1
|  6> C 5.8855922815 -1.5836421403 -1.07692692
|  7> C 4.5588464385 -0.9060648612 -1.3530629301
|  8> O 3.8040196915 -0.8911626263 -0.1234475224
|  9> P 2.5753570191 0.0960361753 0.0685171642
| 10> S 2.9372613492 1.9860430237 -0.2786237058
| 11> O 2.1338866762 -0.1543184631 1.555457093
| 12> C 1.803794768 -1.4579979574 2.0991714601
| 13> C 3.0155497195 -2.1035565159 2.7384272036
| 14> S 1.0782223425 -0.7830739537 -1.1777758154
| 15> C 0.010551268 0.6717438066 -1.2515949206
| 16> S -0.9015884035 0.948106781 0.287606403
| 17> P -2.8750302672 0.4086536316 -0.375611311
| 18> S -3.0365989627 -0.2379815258 -2.2124821004
| 19> O -3.7169997164 1.7215033737 -0.1510177324
| 20> C -3.7316165192 2.5105781525 1.062421377
| 21> C -4.7613534512 1.9979564166 2.0481249275
| 22> O -3.4423021646 -0.5708497481 0.7427091134
| 23> C -3.2648113752 -1.9972904645 0.6776786236
| 24> C -1.8186526777 -2.4034334697 0.8746016766
| 25> H 6.4692974116 -1.6069867588 -1.991229951
| 26> H 6.4336109337 -1.0343841872 -0.3164774401
| 27> H 5.7208261735 -2.5996300336 -0.7304115191
| 28> H 3.9777402773 -1.4510036365 -2.1017294617
| 29> H 4.6985276665 0.1267984613 -1.6890597291
| 30> H 1.0286476149 -1.2467345246 2.8378897711
| 31> H 1.3981598328 -2.0828545611 1.2986043253
| 32> H 2.7158333826 -3.0404594444 3.1975475109
| 33> H 3.7785017878 -2.2980695014 1.9898929083
| 34> H 3.430183864 -1.447309835 3.4986108268
| 35> H -0.6994890783 0.5077270132 -2.0652002255
| 36> H 0.633437255 1.5490103255 -1.4296796193
| 37> H -2.7278847158 2.5057250509 1.4973512719
| 38> H -3.9777305539 3.5163840527 0.7170530858
| 39> H -4.8087328403 2.6777015782 2.8933015166
| 40> H -5.7373271388 1.9483411231 1.5729749189
| 41> H -4.4906855617 1.0065440991 2.39988405
| 42> H -3.9015754759 -2.3754812132 1.4787273879
| 43> H -3.6360530311 -2.3480312636 -0.2900723627
| 44> H -1.2218740967 -2.0884885327 0.0190274438
| 45> H -1.4200526175 -1.9454231028 1.7764477327
| 46> H -1.7580132288 -3.4833853446 0.9613512928
| 47> *
| 48>
| 49>                          ****END OF INPUT****

CARTESIAN COORDINATES (ANGSTROEM)
---------------------------------
  C      5.885592   -1.583642   -1.076927
  C      4.558846   -0.906065   -1.353063
  O      3.804020   -0.891163   -0.123448
  P      2.575357    0.096036    0.068517
  S      2.937261    1.986043   -0.278624
  O      2.133887   -0.154318    1.555457
  C      1.803795   -1.457998    2.099171
  C      3.015550   -2.103557    2.738427
  S      1.078222   -0.783074   -1.177776
  C      0.010551    0.671744   -1.251595
  S     -0.901588    0.948107    0.287606
  P     -2.875030    0.408654   -0.375611
  S     -3.036599   -0.237982   -2.212482
  O     -3.717000    1.721503   -0.151018
  C     -3.731617    2.510578    1.062421
  C     -4.761353    1.997956    2.048125
  O     -3.442302   -0.570850    0.742709
  C     -3.264811   -1.997290    0.677679
  C     -1.818653   -2.403433    0.874602
  H      6.469297   -1.606987   -1.991230
  H      6.433611   -1.034384   -0.316477
  H      5.720826   -2.599630   -0.730412
  H      3.977740   -1.451004   -2.101729
  H      4.698528    0.126798   -1.689060
  H      1.028648   -1.246735    2.837890
  H      1.398160   -2.082855    1.298604
  H      2.715833   -3.040459    3.197548
  H      3.778502   -2.298070    1.989893
  H      3.430184   -1.447310    3.498611
  H     -0.699489    0.507727   -2.065200
  H      0.633437    1.549010   -1.429680
  H     -2.727885    2.505725    1.497351
  H     -3.977731    3.516384    0.717053
  H     -4.808733    2.677702    2.893302
  H     -5.737327    1.948341    1.572975
  H     -4.490686    1.006544    2.399884
  H     -3.901575   -2.375481    1.478727
  H     -3.636053   -2.348031   -0.290072
  H     -1.221874   -2.088489    0.019027
  H     -1.420053   -1.945423    1.776448
  H     -1.758013   -3.483385    0.961351

 Total Charge           Charge          ....    0
 Multiplicity           Mult            ....    1
 Number of Electrons    NEL             ....  202
 Basis Dimension        Dim             ....  334

ORBITAL ENERGIES
----------------

  NO   OCC          E(Eh)            E(eV)
   0   2.0000     -88.043914     -2395.7967
   1   2.0000     -88.041001     -2395.7174
   2   2.0000     -87.990506     -2394.3434
   3   2.0000     -87.986068     -2394.2226
   4   2.0000     -76.428175     -2079.7164
   5   2.0000     -76.427319     -2079.6931
   6   2.0000     -18.798857      -511.5429
   7   2.0000     -18.796280      -511.4728
   8   2.0000     -18.795510      -511.4518
   9   2.0000     -18.792751      -511.3767
  10   2.0000      -9.959672      -271.0165
  11   2.0000      -9.958324      -270.9798
  12   2.0000      -9.957306      -270.9521
  13   2.0000      -9.955657      -270.9072
  14   2.0000      -9.947925      -270.6968
  15   2.0000      -9.892579      -269.1908
  16   2.0000      -9.889697      -269.1123
  17   2.0000      -9.887525      -269.0532
  18   2.0000      -9.886424      -269.0233
  19   2.0000      -7.688500      -209.2147
  20   2.0000      -7.685649      -209.1371
  21   2.0000      -7.635707      -207.7782
  22   2.0000      -7.631361      -207.6599
  23   2.0000      -6.425860      -174.8565
  24   2.0000      -6.425206      -174.8388
  25   2.0000      -5.716037      -155.5413
  26   2.0000      -5.713422      -155.4701
  27   2.0000      -5.713059      -155.4602
  28   2.0000      -5.710280      -155.3846
  29   2.0000      -5.705872      -155.2647
  30   2.0000      -5.702682      -155.1779
  31   2.0000      -5.664620      -154.1422
  32   2.0000      -5.660373      -154.0266
  33   2.0000      -5.656309      -153.9160
  34   2.0000      -5.655841      -153.9033
  35   2.0000      -5.651811      -153.7936
  36   2.0000      -5.651559      -153.7867
  37   2.0000      -4.648591      -126.4946
  38   2.0000      -4.648101      -126.4812
  39   2.0000      -4.647432      -126.4631
  40   2.0000      -4.646956      -126.4501
  41   2.0000      -4.646333      -126.4331
  42   2.0000      -4.645301      -126.4051
  43   2.0000      -0.993252       -27.0278
  44   2.0000      -0.989647       -26.9297
  45   2.0000      -0.950983       -25.8776
  46   2.0000      -0.947843       -25.7921
  47   2.0000      -0.761441       -20.7199
  48   2.0000      -0.724642       -19.7185
  49   2.0000      -0.714952       -19.4548
  50   2.0000      -0.696854       -18.9623
  51   2.0000      -0.692423       -18.8418
  52   2.0000      -0.676875       -18.4187
  53   2.0000      -0.650835       -17.7101
  54   2.0000      -0.639317       -17.3967
  55   2.0000      -0.599415       -16.3109
  56   2.0000      -0.592847       -16.1322
  57   2.0000      -0.578341       -15.7375
  58   2.0000      -0.573044       -15.5933
  59   2.0000      -0.562550       -15.3078
  60   2.0000      -0.512093       -13.9347
  61   2.0000      -0.499892       -13.6027
  62   2.0000      -0.485957       -13.2236
  63   2.0000      -0.477156       -12.9841
  64   2.0000      -0.455455       -12.3936
  65   2.0000      -0.450282       -12.2528
  66   2.0000      -0.449458       -12.2304
  67   2.0000      -0.439955       -11.9718
  68   2.0000      -0.432539       -11.7700
  69   2.0000      -0.426148       -11.5961
  70   2.0000      -0.408669       -11.1204
  71   2.0000      -0.397549       -10.8179
  72   2.0000      -0.393557       -10.7092
  73   2.0000      -0.387601       -10.5472
  74   2.0000      -0.381147       -10.3715
  75   2.0000      -0.372735       -10.1426
  76   2.0000      -0.368279       -10.0214
  77   2.0000      -0.361024        -9.8240
  78   2.0000      -0.357107        -9.7174
  79   2.0000      -0.355953        -9.6860
  80   2.0000      -0.351398        -9.5620
  81   2.0000      -0.349714        -9.5162
  82   2.0000      -0.347675        -9.4607
  83   2.0000      -0.345296        -9.3960
  84   2.0000      -0.339843        -9.2476
  85   2.0000      -0.321915        -8.7597
  86   2.0000      -0.315353        -8.5812
  87   2.0000      -0.304445        -8.2844
  88   2.0000      -0.299607        -8.1527
  89   2.0000      -0.295538        -8.0420
  90   2.0000      -0.292720        -7.9653
  91   2.0000      -0.279678        -7.6104
  92   2.0000      -0.273585        -7.4446
  93   2.0000      -0.266070        -7.2401
  94   2.0000      -0.259095        -7.0503
  95   2.0000      -0.232863        -6.3365
  96   2.0000      -0.220153        -5.9907
  97   2.0000      -0.213409        -5.8071
  98   2.0000      -0.207382        -5.6432
  99   2.0000      -0.203923        -5.5490
 100   2.0000      -0.200412        -5.4535
 101   0.0000      -0.043293        -1.1781
 102   0.0000      -0.030599        -0.8326
 103   0.0000      -0.014629        -0.3981
 104   0.0000       0.005987         0.1629
 105   0.0000       0.013989         0.3807

MULLIKEN ATOMIC CHARGES
-----------------------
   0 C :   -0.283857
   1 C :   -0.012201
   2 O :   -0.384875
   3 P :    0.598178
   4 S :   -0.309241
   5 O :   -0.347588
   6 C :   -0.029754
   7 C :   -0.289434
   8 S :   -0.105801
   9 C :   -0.361715
  10 S :   -0.108531
  11 P :    0.607854
  12 S :   -0.307315
  13 O :   -0.353719
  14 C :   -0.019522
  15 C :   -0.295209
  16 O :   -0.380091
  17 C :    0.008095
  18 C :   -0.341535
  19 H :    0.115136
  20 H :    0.123234
  21 H :    0.116554
  22 H :    0.106457
  23 H :    0.109127
  24 H :    0.117594
  25 H :    0.114332
  26 H :    0.109435
  27 H :    0.124066
  28 H :    0.120480
  29 H :    0.194049
  30 H :    0.199186
  31 H :    0.112920
  32 H :    0.114326
  33 H :    0.111250
  34 H :    0.120679
  35 H :    0.123024
  36 H :    0.103402
  37 H :    0.113924
  38 H :    0.137503
  39 H :    0.118869
  40 H :    0.110713
Sum of atomic charges:   -0.0000000

LOEWDIN ATOMIC CHARGES
----------------------
   0 C :   -0.350524
   1 C :   -0.119869
   2 O :   -0.248980
   3 P :    0.564494
   4 S :   -0.305687
   5 O :   -0.229794
   6 C :   -0.114486
   7 C :   -0.360507
   8 S :    0.073505
   9 C :   -0.490317
  10 S :    0.068366
  11 P :    0.572519
  12 S :   -0.297010
  13 O :   -0.235427
  14 C :   -0.113430
  15 C :   -0.361787
  16 O :   -0.246838
  17 C :   -0.115957
  18 C :   -0.374504
  19 H :    0.132548
  20 H :    0.130108
  21 H :    0.125633
  22 H :    0.110353
  23 H :    0.111292
  24 H :    0.121205
  25 H :    0.106633
  26 H :    0.129608
  27 H :    0.125933
  28 H :    0.129359
  29 H :    0.125244
  30 H :    0.127208
  31 H :    0.105216
  32 H :    0.123882
  33 H :    0.130078
  34 H :    0.129499
  35 H :    0.125099
  36 H :    0.117815
  37 H :    0.112742
  38 H :    0.115131
  39 H :    0.121804
  40 H :    0.129840

  Mayer bond orders larger than 0.100000
B(  0-C ,  1-C ) :   1.1602 B(  0-C , 19-H ) :   0.9415 B(  0-C , 20-H ) :   0.9506
B(  0-C , 21-H ) :   0.9509 B(  1-C ,  2-O ) :   0.9009 B(  1-C , 22-H ) :   0.9286
B(  1-C , 23-H ) :   0.9095 B(  2-O ,  3-P ) :   1.0820 B(  3-P ,  4-S ) :   1.6532
B(  3-P ,  5-O ) :   1.1509 B(  3-P ,  8-S ) :   0.9486 B(  4-S ,  8-S ) :   0.1100
B(  5-O ,  6-C ) :   0.8913 B(  6-C ,  7-C ) :   1.1608 B(  6-C , 24-H ) :   0.9319
B(  6-C , 25-H ) :   0.9100 B(  7-C , 26-H ) :   0.9396 B(  7-C , 27-H ) :   0.9392
B(  7-C , 28-H ) :   0.9461 B(  8-S ,  9-C ) :   1.0082 B(  9-C , 10-S ) :   1.0079
B(  9-C , 29-H ) :   0.8502 B(  9-C , 30-H ) :   0.8649 B( 10-S , 11-P ) :   0.9441
B( 10-S , 12-S ) :   0.1148 B( 11-P , 12-S ) :   1.6262 B( 11-P , 13-O ) :   1.1482
B( 11-P , 16-O ) :   1.0833 B( 12-S , 29-H ) :   0.1146 B( 13-O , 14-C ) :   0.8998
B( 14-C , 15-C ) :   1.1616 B( 14-C , 31-H ) :   0.9132 B( 14-C , 32-H ) :   0.9361
B( 15-C , 33-H ) :   0.9388 B( 15-C , 34-H ) :   0.9469 B( 15-C , 35-H ) :   0.9400
B( 16-O , 17-C ) :   0.9104 B( 17-C , 18-C ) :   1.1622 B( 17-C , 36-H ) :   0.9333
B( 17-C , 37-H ) :   0.9171 B( 18-C , 38-H ) :   0.9260 B( 18-C , 39-H ) :   0.9396
B( 18-C , 40-H ) :   0.9370

Dispersion correction           -0.062105731
FINAL SINGLE POINT ENERGY     -2929.519335950318

DIPOLE MOMENT
-------------

Method             : SCF
Type of density    : Electron Density
Multiplicity       :   1
Irrep              :   0
Energy             : -2929.6418784633679024 Eh
Relativity type    :
Basis              : AO
                                X                 Y                 Z
Electronic contribution:     -5.569747465      13.454160054     -13.711133785
Nuclear contribution   :      5.787663805     -14.774366885      14.967173288
                        -----------------------------------------
Total Dipole Moment    :      0.217916341      -1.320206831       1.256039503
                        -----------------------------------------
Magnitude (a.u.)       :      1.835229915
Magnitude (Debye)      :      4.664783728

Rotational constants in cm-1:             0.013399             0.003998             0.003913
Rotational constants in MHz :           401.682627           119.852040           117.313476

                             ****ORCA TERMINATED NORMALLY****
TOTAL RUN TIME: 0 days 0 hours 0 minutes 20 seconds 514 msec
