                         Program Version 6.0.0  -   RELEASE  -
|  1> ! r2scan-3c def2/J RI DEFGRID2 scfconv6 printgap
|  2> %output
|  3>     printlevel normal
|  4> end
|  5> * xyz 0 1
|  6> C 1.4420915598 -0.1837048309 -3.0436566597
|  7> C 2.4936348889 0.3720577602 -2.1038176924
|  8> O 2.8113335385 -0.5825386269 -1.0773151679
|  9> P 2.232947351 -0.5368140232 0.4059983872
| 10> S 2.3745638576 1.2176921316 1.2816943854
| 11> O 3.0646983252 -1.7097753583 1.0682702802
| 12> C 4.4468589516 -1.5404990686 1.4587892324
| 13> C 4.5436681642 -1.2893737527 2.9505428689
| 14> S 0.3670841948 -1.4946908469 0.3594784565
| 15> C -0.4981460221 -0.5119918902 1.6410976559
| 16> S -2.2465341959 -0.3088567357 1.2614189149
| 17> P -2.0370560445 0.7203700005 -0.5957391517
| 18> S -0.5416816658 1.9702953618 -0.7636403681
| 19> O -3.4838770637 1.343171723 -0.8237752397
| 20> C -3.8730442529 2.6351330159 -0.3251934233
| 21> C -3.8892912967 2.6925380603 1.1885967353
| 22> O -1.9963683099 -0.3956435058 -1.7079050504
| 23> C -3.0172416783 -1.4228467116 -1.8328180814
| 24> C -2.4255133982 -2.7821603263 -1.5208696388
| 25> H 1.3063987656 0.5064643613 -3.8701939879
| 26> H 1.7583441269 -1.1510394382 -3.4236468227
| 27> H 0.4901826237 -0.2992426465 -2.5282408463
| 28> H 2.1575873853 1.3060978326 -1.6405514078
| 29> H 3.4366691267 0.5460530219 -2.6258240991
| 30> H 4.9314604199 -2.4767108681 1.1771049371
| 31> H 4.8848511053 -0.7154054103 0.8907679325
| 32> H 4.0546572243 -0.350946807 3.2036661071
| 33> H 4.0611422059 -2.0959785906 3.4949723253
| 34> H 5.5887195512 -1.2336790397 3.2379037223
| 35> H -0.0128373452 0.466379764 1.7033532547
| 36> H -0.450907665 -1.0372545277 2.5916469267
| 37> H -3.1841050235 3.3823265597 -0.7310907993
| 38> H -4.8692546112 2.7828402163 -0.7447131024
| 39> H -4.3170202999 3.6384356166 1.5052423058
| 40> H -4.4791731939 1.8742185737 1.5936793866
| 41> H -2.8739791618 2.6203944104 1.5760138094
| 42> H -3.8461028674 -1.1854296881 -1.1627873103
| 43> H -3.3531283312 -1.3615608987 -2.8688932042
| 44> H -3.1797686905 -3.5433058749 -1.692242149
| 45> H -1.5684313666 -2.9733994319 -2.1600967664
| 46> H -2.0974915922 -2.8289174763 -0.4850041875
| 47> *
| 48>
| 49>                          ****END OF INPUT****

CARTESIAN COORDINATES (ANGSTROEM)
---------------------------------
  C      1.442092   -0.183705   -3.043657
  C      2.493635    0.372058   -2.103818
  O      2.811334   -0.582539   -1.077315
  P      2.232947   -0.536814    0.405998
  S      2.374564    1.217692    1.281694
  O      3.064698   -1.709775    1.068270
  C      4.446859   -1.540499    1.458789
  C      4.543668   -1.289374    2.950543
  S      0.367084   -1.494691    0.359478
  C     -0.498146   -0.511992    1.641098
  S     -2.246534   -0.308857    1.261419
  P     -2.037056    0.720370   -0.595739
  S     -0.541682    1.970295   -0.763640
  O     -3.483877    1.343172   -0.823775
  C     -3.873044    2.635133   -0.325193
  C     -3.889291    2.692538    1.188597
  O     -1.996368   -0.395644   -1.707905
  C     -3.017242   -1.422847   -1.832818
  C     -2.425513   -2.782160   -1.520870
  H      1.306399    0.506464   -3.870194
  H      1.758344   -1.151039   -3.423647
  H      0.490183   -0.299243   -2.528241
  H      2.157587    1.306098   -1.640551
  H      3.436669    0.546053   -2.625824
  H      4.931460   -2.476711    1.177105
  H      4.884851   -0.715405    0.890768
  H      4.054657   -0.350947    3.203666
  H      4.061142   -2.095979    3.494972
  H      5.588720   -1.233679    3.237904
  H     -0.012837    0.466380    1.703353
  H     -0.450908   -1.037255    2.591647
  H     -3.184105    3.382327   -0.731091
  H     -4.869255    2.782840   -0.744713
  H     -4.317020    3.638436    1.505242
  H     -4.479173    1.874219    1.593679
  H     -2.873979    2.620394    1.576014
  H     -3.846103   -1.185430   -1.162787
  H     -3.353128   -1.361561   -2.868893
  H     -3.179769   -3.543306   -1.692242
  H     -1.568431   -2.973399   -2.160097
  H     -2.097492   -2.828917   -0.485004

 Total Charge           Charge          ....    0
 Multiplicity           Mult            ....    1
 Number of Electrons    NEL             ....  202
 Basis Dimension        Dim             ....  539

ORBITAL ENERGIES
----------------

  NO   OCC          E(Eh)            E(eV)
   0   2.0000     -88.579488     -2410.3704
   1   2.0000     -88.572260     -2410.1737
   2   2.0000     -88.518147     -2408.7012
   3   2.0000     -88.513693     -2408.5800
   4   2.0000     -76.914913     -2092.9612
   5   2.0000     -76.907666     -2092.7640
   6   2.0000     -18.994000      -516.8530
   7   2.0000     -18.991288      -516.7792
   8   2.0000     -18.983835      -516.5764
   9   2.0000     -18.980424      -516.4836
  10   2.0000     -10.104635      -274.9611
  11   2.0000     -10.104541      -274.9585
  12   2.0000     -10.100740      -274.8551
  13   2.0000     -10.093267      -274.6518
  14   2.0000     -10.085630      -274.4439
  15   2.0000     -10.031518      -272.9715
  16   2.0000     -10.029878      -272.9268
  17   2.0000     -10.021118      -272.6885
  18   2.0000     -10.013670      -272.4858
  19   2.0000      -7.873886      -214.2593
  20   2.0000      -7.866747      -214.0651
  21   2.0000      -7.812836      -212.5981
  22   2.0000      -7.808438      -212.4784
  23   2.0000      -6.593226      -179.4108
  24   2.0000      -6.586031      -179.2150
  25   2.0000      -5.820810      -158.3923
  26   2.0000      -5.817580      -158.3044
  27   2.0000      -5.813534      -158.1943
  28   2.0000      -5.811103      -158.1281
  29   2.0000      -5.810746      -158.1184
  30   2.0000      -5.803737      -157.9277
  31   2.0000      -5.760635      -156.7549
  32   2.0000      -5.756092      -156.6312
  33   2.0000      -5.752927      -156.5451
  34   2.0000      -5.752887      -156.5440
  35   2.0000      -5.748899      -156.4355
  36   2.0000      -5.748258      -156.4180
  37   2.0000      -4.739010      -128.9550
  38   2.0000      -4.738172      -128.9322
  39   2.0000      -4.736696      -128.8921
  40   2.0000      -4.731463      -128.7497
  41   2.0000      -4.730945      -128.7356
  42   2.0000      -4.729857      -128.7059
  43   2.0000      -1.052288       -28.6342
  44   2.0000      -1.041406       -28.3381
  45   2.0000      -1.010899       -27.5080
  46   2.0000      -1.000519       -27.2255
  47   2.0000      -0.800059       -21.7707
  48   2.0000      -0.757867       -20.6226
  49   2.0000      -0.747080       -20.3291
  50   2.0000      -0.734900       -19.9976
  51   2.0000      -0.720990       -19.6191
  52   2.0000      -0.709456       -19.3053
  53   2.0000      -0.684924       -18.6377
  54   2.0000      -0.662548       -18.0288
  55   2.0000      -0.628244       -17.0954
  56   2.0000      -0.616355       -16.7719
  57   2.0000      -0.610008       -16.5992
  58   2.0000      -0.597001       -16.2452
  59   2.0000      -0.588256       -16.0073
  60   2.0000      -0.529572       -14.4104
  61   2.0000      -0.520262       -14.1571
  62   2.0000      -0.493163       -13.4197
  63   2.0000      -0.485526       -13.2118
  64   2.0000      -0.467003       -12.7078
  65   2.0000      -0.465542       -12.6680
  66   2.0000      -0.461268       -12.5518
  67   2.0000      -0.450276       -12.2526
  68   2.0000      -0.446169       -12.1409
  69   2.0000      -0.430755       -11.7214
  70   2.0000      -0.425333       -11.5739
  71   2.0000      -0.411008       -11.1841
  72   2.0000      -0.406863       -11.0713
  73   2.0000      -0.392184       -10.6719
  74   2.0000      -0.389819       -10.6075
  75   2.0000      -0.386932       -10.5289
  76   2.0000      -0.384061       -10.4508
  77   2.0000      -0.374646       -10.1946
  78   2.0000      -0.368614       -10.0305
  79   2.0000      -0.365038        -9.9332
  80   2.0000      -0.360077        -9.7982
  81   2.0000      -0.356220        -9.6932
  82   2.0000      -0.351335        -9.5603
  83   2.0000      -0.348728        -9.4894
  84   2.0000      -0.338484        -9.2106
  85   2.0000      -0.328117        -8.9285
  86   2.0000      -0.318744        -8.6735
  87   2.0000      -0.315976        -8.5981
  88   2.0000      -0.309677        -8.4267
  89   2.0000      -0.301190        -8.1958
  90   2.0000      -0.295723        -8.0470
  91   2.0000      -0.288641        -7.8543
  92   2.0000      -0.283505        -7.7146
  93   2.0000      -0.278381        -7.5751
  94   2.0000      -0.271091        -7.3768
  95   2.0000      -0.244145        -6.6435
  96   2.0000      -0.235740        -6.4148
  97   2.0000      -0.224203        -6.1009
  98   2.0000      -0.214871        -5.8469
  99   2.0000      -0.208239        -5.6665
 100   2.0000      -0.199880        -5.4390
 101   0.0000      -0.046915        -1.2766
 102   0.0000      -0.033878        -0.9219
 103   0.0000      -0.009822        -0.2673
 104   0.0000       0.010738         0.2922
 105   0.0000       0.015712         0.4275

MULLIKEN ATOMIC CHARGES
-----------------------
   0 C :   -0.442064
   1 C :   -0.154205
   2 O :   -0.277546
   3 P :    0.671468
   4 S :   -0.460201
   5 O :   -0.296989
   6 C :   -0.129473
   7 C :   -0.449057
   8 S :   -0.123452
   9 C :   -0.234705
  10 S :   -0.154125
  11 P :    0.646610
  12 S :   -0.407947
  13 O :   -0.293619
  14 C :   -0.164610
  15 C :   -0.448084
  16 O :   -0.275153
  17 C :   -0.113734
  18 C :   -0.449498
  19 H :    0.143834
  20 H :    0.144641
  21 H :    0.182248
  22 H :    0.172650
  23 H :    0.143993
  24 H :    0.147959
  25 H :    0.152101
  26 H :    0.178823
  27 H :    0.150262
  28 H :    0.143153
  29 H :    0.222210
  30 H :    0.190724
  31 H :    0.174707
  32 H :    0.147822
  33 H :    0.149008
  34 H :    0.152899
  35 H :    0.181326
  36 H :    0.155341
  37 H :    0.154540
  38 H :    0.145745
  39 H :    0.160619
  40 H :    0.161780
Sum of atomic charges:    0.0000000

LOEWDIN ATOMIC CHARGES
----------------------
   0 C :   -0.406144
   1 C :    0.019179
   2 O :   -0.659604
   3 P :    0.374517
   4 S :   -0.126977
   5 O :   -0.672056
   6 C :    0.024533
   7 C :   -0.400168
   8 S :    0.174418
   9 C :   -0.410886
  10 S :    0.134261
  11 P :    0.377875
  12 S :   -0.077725
  13 O :   -0.672792
  14 C :    0.022436
  15 C :   -0.408700
  16 O :   -0.667309
  17 C :    0.024503
  18 C :   -0.399923
  19 H :    0.160847
  20 H :    0.155143
  21 H :    0.174121
  22 H :    0.183417
  23 H :    0.174901
  24 H :    0.177372
  25 H :    0.175588
  26 H :    0.167788
  27 H :    0.157932
  28 H :    0.157350
  29 H :    0.199901
  30 H :    0.178738
  31 H :    0.180563
  32 H :    0.179650
  33 H :    0.159820
  34 H :    0.159346
  35 H :    0.166678
  36 H :    0.176738
  37 H :    0.180596
  38 H :    0.158572
  39 H :    0.162780
  40 H :    0.162720

  Mayer bond orders larger than 0.100000
B(  0-C ,  1-C ) :   0.9486 B(  0-C , 19-H ) :   0.9641 B(  0-C , 20-H ) :   0.9750
B(  0-C , 21-H ) :   0.9505 B(  1-C ,  2-O ) :   0.7714 B(  1-C , 22-H ) :   0.9549
B(  1-C , 23-H ) :   0.9659 B(  2-O ,  3-P ) :   1.0875 B(  3-P ,  4-S ) :   1.7530
B(  3-P ,  5-O ) :   1.1835 B(  3-P ,  8-S ) :   1.0871 B(  5-O ,  6-C ) :   0.7671
B(  6-C ,  7-C ) :   0.9555 B(  6-C , 24-H ) :   0.9629 B(  6-C , 25-H ) :   0.9646
B(  7-C , 26-H ) :   0.9599 B(  7-C , 27-H ) :   0.9737 B(  7-C , 28-H ) :   0.9662
B(  8-S ,  9-C ) :   0.8965 B(  9-C , 10-S ) :   0.9237 B(  9-C , 29-H ) :   0.9028
B(  9-C , 30-H ) :   0.9139 B( 10-S , 11-P ) :   0.9953 B( 11-P , 12-S ) :   1.8467
B( 11-P , 13-O ) :   1.0544 B( 11-P , 16-O ) :   1.1276 B( 13-O , 14-C ) :   0.8251
B( 14-C , 15-C ) :   0.9166 B( 14-C , 31-H ) :   0.9692 B( 14-C , 32-H ) :   0.9612
B( 15-C , 33-H ) :   0.9566 B( 15-C , 34-H ) :   0.9669 B( 15-C , 35-H ) :   0.9629
B( 16-O , 17-C ) :   0.7424 B( 17-C , 18-C ) :   0.9492 B( 17-C , 36-H ) :   0.9718
B( 17-C , 37-H ) :   0.9561 B( 18-C , 38-H ) :   0.9638 B( 18-C , 39-H ) :   0.9667
B( 18-C , 40-H ) :   0.9643

Dispersion correction           -0.021881603
FINAL SINGLE POINT ENERGY     -2932.458014708114

DIPOLE MOMENT
-------------

Method             : SCF
Type of density    : Electron Density
Multiplicity       :   1
Irrep              :   0
Energy             : -2932.4826883515511327 Eh
Relativity type    :
Basis              : AO
                                X                 Y                 Z
Electronic contribution:      0.697567194       3.336577641       2.501304507
Nuclear contribution   :     -1.633420669      -4.098331294      -2.705999469
                        -----------------------------------------
Total Dipole Moment    :     -0.935853475      -0.761753654      -0.204694962
                        -----------------------------------------
Magnitude (a.u.)       :      1.223924174
Magnitude (Debye)      :      3.110968018

Rotational constants in cm-1:             0.012616             0.004982             0.004792
Rotational constants in MHz :           378.230144           149.364398           143.665525

                             ****ORCA TERMINATED NORMALLY****
TOTAL RUN TIME: 0 days 0 hours 1 minutes 19 seconds 657 msec
