                         Program Version 6.0.0  -   RELEASE  -
|  1> ! r2scan-3c def2/J RI DEFGRID2 scfconv6 printgap
|  2> %output
|  3>     printlevel normal
|  4> end
|  5> %cpcm
|  6>     smd true
|  7>     smdsolvent "water"
|  8> end
|  9> * xyz 0 1
| 10> C 1.4420915598 -0.1837048309 -3.0436566597
| 11> C 2.4936348889 0.3720577602 -2.1038176924
| 12> O 2.8113335385 -0.5825386269 -1.0773151679
| 13> P 2.232947351 -0.5368140232 0.4059983872
| 14> S 2.3745638576 1.2176921316 1.2816943854
| 15> O 3.0646983252 -1.7097753583 1.0682702802
| 16> C 4.4468589516 -1.5404990686 1.4587892324
| 17> C 4.5436681642 -1.2893737527 2.9505428689
| 18> S 0.3670841948 -1.4946908469 0.3594784565
| 19> C -0.4981460221 -0.5119918902 1.6410976559
| 20> S -2.2465341959 -0.3088567357 1.2614189149
| 21> P -2.0370560445 0.7203700005 -0.5957391517
| 22> S -0.5416816658 1.9702953618 -0.7636403681
| 23> O -3.4838770637 1.343171723 -0.8237752397
| 24> C -3.8730442529 2.6351330159 -0.3251934233
| 25> C -3.8892912967 2.6925380603 1.1885967353
| 26> O -1.9963683099 -0.3956435058 -1.7079050504
| 27> C -3.0172416783 -1.4228467116 -1.8328180814
| 28> C -2.4255133982 -2.7821603263 -1.5208696388
| 29> H 1.3063987656 0.5064643613 -3.8701939879
| 30> H 1.7583441269 -1.1510394382 -3.4236468227
| 31> H 0.4901826237 -0.2992426465 -2.5282408463
| 32> H 2.1575873853 1.3060978326 -1.6405514078
| 33> H 3.4366691267 0.5460530219 -2.6258240991
| 34> H 4.9314604199 -2.4767108681 1.1771049371
| 35> H 4.8848511053 -0.7154054103 0.8907679325
| 36> H 4.0546572243 -0.350946807 3.2036661071
| 37> H 4.0611422059 -2.0959785906 3.4949723253
| 38> H 5.5887195512 -1.2336790397 3.2379037223
| 39> H -0.0128373452 0.466379764 1.7033532547
| 40> H -0.450907665 -1.0372545277 2.5916469267
| 41> H -3.1841050235 3.3823265597 -0.7310907993
| 42> H -4.8692546112 2.7828402163 -0.7447131024
| 43> H -4.3170202999 3.6384356166 1.5052423058
| 44> H -4.4791731939 1.8742185737 1.5936793866
| 45> H -2.8739791618 2.6203944104 1.5760138094
| 46> H -3.8461028674 -1.1854296881 -1.1627873103
| 47> H -3.3531283312 -1.3615608987 -2.8688932042
| 48> H -3.1797686905 -3.5433058749 -1.692242149
| 49> H -1.5684313666 -2.9733994319 -2.1600967664
| 50> H -2.0974915922 -2.8289174763 -0.4850041875
| 51> *
| 52>
| 53>                          ****END OF INPUT****

CARTESIAN COORDINATES (ANGSTROEM)
---------------------------------
  C      1.442092   -0.183705   -3.043657
  C      2.493635    0.372058   -2.103818
  O      2.811334   -0.582539   -1.077315
  P      2.232947   -0.536814    0.405998
  S      2.374564    1.217692    1.281694
  O      3.064698   -1.709775    1.068270
  C      4.446859   -1.540499    1.458789
  C      4.543668   -1.289374    2.950543
  S      0.367084   -1.494691    0.359478
  C     -0.498146   -0.511992    1.641098
  S     -2.246534   -0.308857    1.261419
  P     -2.037056    0.720370   -0.595739
  S     -0.541682    1.970295   -0.763640
  O     -3.483877    1.343172   -0.823775
  C     -3.873044    2.635133   -0.325193
  C     -3.889291    2.692538    1.188597
  O     -1.996368   -0.395644   -1.707905
  C     -3.017242   -1.422847   -1.832818
  C     -2.425513   -2.782160   -1.520870
  H      1.306399    0.506464   -3.870194
  H      1.758344   -1.151039   -3.423647
  H      0.490183   -0.299243   -2.528241
  H      2.157587    1.306098   -1.640551
  H      3.436669    0.546053   -2.625824
  H      4.931460   -2.476711    1.177105
  H      4.884851   -0.715405    0.890768
  H      4.054657   -0.350947    3.203666
  H      4.061142   -2.095979    3.494972
  H      5.588720   -1.233679    3.237904
  H     -0.012837    0.466380    1.703353
  H     -0.450908   -1.037255    2.591647
  H     -3.184105    3.382327   -0.731091
  H     -4.869255    2.782840   -0.744713
  H     -4.317020    3.638436    1.505242
  H     -4.479173    1.874219    1.593679
  H     -2.873979    2.620394    1.576014
  H     -3.846103   -1.185430   -1.162787
  H     -3.353128   -1.361561   -2.868893
  H     -3.179769   -3.543306   -1.692242
  H     -1.568431   -2.973399   -2.160097
  H     -2.097492   -2.828917   -0.485004

 Total Charge           Charge          ....    0
 Multiplicity           Mult            ....    1
 Number of Electrons    NEL             ....  202
 Basis Dimension        Dim             ....  539

ORBITAL ENERGIES
----------------

  NO   OCC          E(Eh)            E(eV)
   0   2.0000     -88.580682     -2410.4029
   1   2.0000     -88.578520     -2410.3441
   2   2.0000     -88.525745     -2408.9080
   3   2.0000     -88.525371     -2408.8978
   4   2.0000     -76.918701     -2093.0643
   5   2.0000     -76.917428     -2093.0296
   6   2.0000     -18.994015      -516.8534
   7   2.0000     -18.993042      -516.8270
   8   2.0000     -18.992575      -516.8142
   9   2.0000     -18.989039      -516.7180
  10   2.0000     -10.104118      -274.9470
  11   2.0000     -10.092681      -274.6358
  12   2.0000     -10.090154      -274.5670
  13   2.0000     -10.088908      -274.5332
  14   2.0000     -10.086839      -274.4769
  15   2.0000     -10.018898      -272.6281
  16   2.0000     -10.018513      -272.6176
  17   2.0000     -10.016269      -272.5565
  18   2.0000     -10.014283      -272.5025
  19   2.0000      -7.874989      -214.2893
  20   2.0000      -7.872971      -214.2344
  21   2.0000      -7.820768      -212.8139
  22   2.0000      -7.820417      -212.8044
  23   2.0000      -6.597066      -179.5153
  24   2.0000      -6.595866      -179.4826
  25   2.0000      -5.821953      -158.4234
  26   2.0000      -5.819750      -158.3635
  27   2.0000      -5.818723      -158.3355
  28   2.0000      -5.816928      -158.2867
  29   2.0000      -5.812139      -158.1563
  30   2.0000      -5.810027      -158.0989
  31   2.0000      -5.768457      -156.9677
  32   2.0000      -5.768005      -156.9554
  33   2.0000      -5.760925      -156.7627
  34   2.0000      -5.760858      -156.7609
  35   2.0000      -5.760798      -156.7593
  36   2.0000      -5.760267      -156.7448
  37   2.0000      -4.742800      -129.0581
  38   2.0000      -4.741992      -129.0362
  39   2.0000      -4.741292      -129.0171
  40   2.0000      -4.740752      -129.0024
  41   2.0000      -4.740643      -128.9994
  42   2.0000      -4.739744      -128.9750
  43   2.0000      -1.052704       -28.6455
  44   2.0000      -1.050078       -28.5741
  45   2.0000      -1.010653       -27.5013
  46   2.0000      -1.008712       -27.4485
  47   2.0000      -0.802018       -21.8240
  48   2.0000      -0.756000       -20.5718
  49   2.0000      -0.744787       -20.2667
  50   2.0000      -0.724928       -19.7263
  51   2.0000      -0.721038       -19.6204
  52   2.0000      -0.710423       -19.3316
  53   2.0000      -0.688881       -18.7454
  54   2.0000      -0.670709       -18.2509
  55   2.0000      -0.628551       -17.1037
  56   2.0000      -0.615966       -16.7613
  57   2.0000      -0.602443       -16.3933
  58   2.0000      -0.597987       -16.2721
  59   2.0000      -0.587185       -15.9781
  60   2.0000      -0.525395       -14.2967
  61   2.0000      -0.521490       -14.1905
  62   2.0000      -0.489844       -13.3293
  63   2.0000      -0.487204       -13.2575
  64   2.0000      -0.468765       -12.7557
  65   2.0000      -0.466110       -12.6835
  66   2.0000      -0.455771       -12.4022
  67   2.0000      -0.449477       -12.2309
  68   2.0000      -0.442556       -12.0426
  69   2.0000      -0.429371       -11.6838
  70   2.0000      -0.423902       -11.5350
  71   2.0000      -0.413052       -11.2397
  72   2.0000      -0.404459       -11.0059
  73   2.0000      -0.390892       -10.6367
  74   2.0000      -0.390011       -10.6127
  75   2.0000      -0.386883       -10.5276
  76   2.0000      -0.382409       -10.4059
  77   2.0000      -0.370497       -10.0817
  78   2.0000      -0.364563        -9.9203
  79   2.0000      -0.359526        -9.7832
  80   2.0000      -0.355088        -9.6624
  81   2.0000      -0.354007        -9.6330
  82   2.0000      -0.347030        -9.4432
  83   2.0000      -0.346218        -9.4211
  84   2.0000      -0.341144        -9.2830
  85   2.0000      -0.325323        -8.8525
  86   2.0000      -0.318925        -8.6784
  87   2.0000      -0.312205        -8.4955
  88   2.0000      -0.304829        -8.2948
  89   2.0000      -0.303628        -8.2621
  90   2.0000      -0.299696        -8.1552
  91   2.0000      -0.288798        -7.8586
  92   2.0000      -0.286396        -7.7932
  93   2.0000      -0.279085        -7.5943
  94   2.0000      -0.275876        -7.5070
  95   2.0000      -0.247883        -6.7452
  96   2.0000      -0.242351        -6.5947
  97   2.0000      -0.233960        -6.3664
  98   2.0000      -0.222992        -6.0679
  99   2.0000      -0.218510        -5.9460
 100   2.0000      -0.210204        -5.7199
 101   0.0000      -0.050523        -1.3748
 102   0.0000      -0.040916        -1.1134
 103   0.0000      -0.013781        -0.3750
 104   0.0000       0.009865         0.2684
 105   0.0000       0.011845         0.3223

MULLIKEN ATOMIC CHARGES
-----------------------
   0 C :   -0.487503
   1 C :   -0.140720
   2 O :   -0.302394
   3 P :    0.702138
   4 S :   -0.509205
   5 O :   -0.330777
   6 C :   -0.128725
   7 C :   -0.485618
   8 S :   -0.137139
   9 C :   -0.234088
  10 S :   -0.146317
  11 P :    0.663588
  12 S :   -0.461112
  13 O :   -0.314134
  14 C :   -0.160022
  15 C :   -0.485308
  16 O :   -0.303151
  17 C :   -0.109059
  18 C :   -0.490376
  19 H :    0.168202
  20 H :    0.163130
  21 H :    0.170875
  22 H :    0.166997
  23 H :    0.171899
  24 H :    0.173397
  25 H :    0.166949
  26 H :    0.170086
  27 H :    0.165051
  28 H :    0.169122
  29 H :    0.217145
  30 H :    0.231729
  31 H :    0.178774
  32 H :    0.174916
  33 H :    0.172980
  34 H :    0.168438
  35 H :    0.175021
  36 H :    0.173380
  37 H :    0.178946
  38 H :    0.171307
  39 H :    0.171265
  40 H :    0.160311
Sum of atomic charges:    0.0000000

LOEWDIN ATOMIC CHARGES
----------------------
   0 C :   -0.410960
   1 C :    0.022110
   2 O :   -0.671816
   3 P :    0.378134
   4 S :   -0.159496
   5 O :   -0.689942
   6 C :    0.028619
   7 C :   -0.404122
   8 S :    0.170977
   9 C :   -0.404931
  10 S :    0.146942
  11 P :    0.380550
  12 S :   -0.116130
  13 O :   -0.680606
  14 C :    0.027005
  15 C :   -0.411622
  16 O :   -0.684310
  17 C :    0.030709
  18 C :   -0.402300
  19 H :    0.168238
  20 H :    0.161471
  21 H :    0.167839
  22 H :    0.181753
  23 H :    0.186151
  24 H :    0.188277
  25 H :    0.180488
  26 H :    0.162220
  27 H :    0.162147
  28 H :    0.167233
  29 H :    0.197709
  30 H :    0.194373
  31 H :    0.181215
  32 H :    0.191136
  33 H :    0.168379
  34 H :    0.163531
  35 H :    0.161714
  36 H :    0.183671
  37 H :    0.190865
  38 H :    0.168479
  39 H :    0.164140
  40 H :    0.160162

  Mayer bond orders larger than 0.100000
B(  0-C ,  1-C ) :   0.9358 B(  0-C , 19-H ) :   0.9618 B(  0-C , 20-H ) :   0.9708
B(  0-C , 21-H ) :   0.9565 B(  1-C ,  2-O ) :   0.7632 B(  1-C , 22-H ) :   0.9534
B(  1-C , 23-H ) :   0.9564 B(  2-O ,  3-P ) :   1.0875 B(  3-P ,  4-S ) :   1.7162
B(  3-P ,  5-O ) :   1.1807 B(  3-P ,  8-S ) :   1.1040 B(  5-O ,  6-C ) :   0.7545
B(  6-C ,  7-C ) :   0.9442 B(  6-C , 24-H ) :   0.9519 B(  6-C , 25-H ) :   0.9583
B(  7-C , 26-H ) :   0.9642 B(  7-C , 27-H ) :   0.9703 B(  7-C , 28-H ) :   0.9608
B(  8-S ,  9-C ) :   0.8868 B(  9-C , 10-S ) :   0.9197 B(  9-C , 29-H ) :   0.9064
B(  9-C , 30-H ) :   0.8997 B( 10-S , 11-P ) :   1.0096 B( 11-P , 12-S ) :   1.8184
B( 11-P , 13-O ) :   1.0614 B( 11-P , 16-O ) :   1.1343 B( 13-O , 14-C ) :   0.8142
B( 14-C , 15-C ) :   0.9047 B( 14-C , 31-H ) :   0.9678 B( 14-C , 32-H ) :   0.9509
B( 15-C , 33-H ) :   0.9515 B( 15-C , 34-H ) :   0.9640 B( 15-C , 35-H ) :   0.9652
B( 16-O , 17-C ) :   0.7296 B( 17-C , 18-C ) :   0.9378 B( 17-C , 36-H ) :   0.9629
B( 17-C , 37-H ) :   0.9454 B( 18-C , 38-H ) :   0.9581 B( 18-C , 39-H ) :   0.9661
B( 18-C , 40-H ) :   0.9642

Dispersion correction           -0.021881603
FINAL SINGLE POINT ENERGY     -2932.465929731579

DIPOLE MOMENT
-------------

Method             : SCF
Type of density    : Electron Density
Multiplicity       :   1
Irrep              :   0
Energy             : -2932.4906033750162351 Eh
Relativity type    :
Basis              : AO
                                X                 Y                 Z
Electronic contribution:      0.313997936       2.966951458       2.538410516
Nuclear contribution   :     -1.633420669      -4.098331294      -2.705999469
                        -----------------------------------------
Total Dipole Moment    :     -1.319422733      -1.131379836      -0.167588953
                        -----------------------------------------
Magnitude (a.u.)       :      1.746133655
Magnitude (Debye)      :      4.438319031

Rotational constants in cm-1:             0.012616             0.004982             0.004792
Rotational constants in MHz :           378.230144           149.364398           143.665525

                             ****ORCA TERMINATED NORMALLY****
TOTAL RUN TIME: 0 days 0 hours 1 minutes 42 seconds 389 msec
