                         Program Version 6.0.1  -  RELEASE   -
|  1> ! pbe def2-sv(p) def2/J RI DEFGRID1 loosescf d4 GCP(DFT/SV(P)) printgap
|  2> %output
|  3>     printlevel normal
|  4> end
|  5> * xyz 0 1
|  6> C 1.4861746434 -3.6908709082 0.4881963799
|  7> C 2.3865654962 -2.4704509402 0.4780151031
|  8> O 2.0490426994 -1.667235483 -0.6676022835
|  9> C 2.1710031945 -0.3582483513 -0.6072161781
| 10> O 2.5472696977 0.26660837 0.3614006181
| 11> C 1.7672558537 0.2908974016 -1.9203267729
| 12> C 0.3615968559 0.8898315563 -1.8083148409
| 13> H 0.1314763261 1.4463734135 -2.7212011712
| 14> C 0.2419867272 1.8208165279 -0.6192084255
| 15> O -0.6270699242 1.6804881453 0.2256000828
| 16> O 1.1358134278 2.759311698 -0.6360982639
| 17> C 1.2464502268 3.670007878 0.4811304588
| 18> C 2.69295914 3.687365159 0.939725131
| 19> S -0.9287651504 -0.391290297 -1.6938002083
| 20> P -1.4590689007 -0.5917885165 0.3704628078
| 21> S -0.277931484 -0.6050009901 1.9367679576
| 22> O -2.8686886849 0.1570434806 0.5332649712
| 23> C -3.1242199372 1.3148049296 1.3237956185
| 24> O -1.9890352251 -2.1001308961 0.2621273693
| 25> C -3.0084353068 -2.5417445368 -0.6492536737
| 26> H 0.4514309083 -3.3879276503 0.6360297006
| 27> H 1.5689335669 -4.2221045267 -0.4551269202
| 28> H 1.7788066756 -4.3441458132 1.3030755175
| 29> H 3.4388685241 -2.7503580507 0.3763371354
| 30> H 2.2573108061 -1.866627095 1.3817405948
| 31> H 1.7757751275 -0.459642493 -2.7088233518
| 32> H 2.4707470395 1.0954914113 -2.1369834327
| 33> H 0.9281423802 4.6479031065 0.1131225834
| 34> H 0.5783323721 3.3324713113 1.2773310606
| 35> H 2.7887418156 4.3421685396 1.7991656761
| 36> H 2.9994424482 2.6816579017 1.2190521148
| 37> H 3.3359132098 4.0426590805 0.1405019637
| 38> H -2.4075807745 1.3783961093 2.1437296881
| 39> H -4.1341012066 1.1940876728 1.7103570325
| 40> H -3.0502615489 2.2054228671 0.7020179695
| 41> H -3.2678655859 -3.5446799912 -0.3191922715
| 42> H -2.6137197391 -2.5618885603 -1.6647441871
| 43> H -3.8732307489 -1.8832252109 -0.5946736635
| 44> *
| 45>
| 46>                          ****END OF INPUT****

CARTESIAN COORDINATES (ANGSTROEM)
---------------------------------
  C      1.486175   -3.690871    0.488196
  C      2.386565   -2.470451    0.478015
  O      2.049043   -1.667235   -0.667602
  C      2.171003   -0.358248   -0.607216
  O      2.547270    0.266608    0.361401
  C      1.767256    0.290897   -1.920327
  C      0.361597    0.889832   -1.808315
  H      0.131476    1.446373   -2.721201
  C      0.241987    1.820817   -0.619208
  O     -0.627070    1.680488    0.225600
  O      1.135813    2.759312   -0.636098
  C      1.246450    3.670008    0.481130
  C      2.692959    3.687365    0.939725
  S     -0.928765   -0.391290   -1.693800
  P     -1.459069   -0.591789    0.370463
  S     -0.277931   -0.605001    1.936768
  O     -2.868689    0.157043    0.533265
  C     -3.124220    1.314805    1.323796
  O     -1.989035   -2.100131    0.262127
  C     -3.008435   -2.541745   -0.649254
  H      0.451431   -3.387928    0.636030
  H      1.568934   -4.222105   -0.455127
  H      1.778807   -4.344146    1.303076
  H      3.438869   -2.750358    0.376337
  H      2.257311   -1.866627    1.381741
  H      1.775775   -0.459642   -2.708823
  H      2.470747    1.095491   -2.136983
  H      0.928142    4.647903    0.113123
  H      0.578332    3.332471    1.277331
  H      2.788742    4.342169    1.799166
  H      2.999442    2.681658    1.219052
  H      3.335913    4.042659    0.140502
  H     -2.407581    1.378396    2.143730
  H     -4.134101    1.194088    1.710357
  H     -3.050262    2.205423    0.702018
  H     -3.267866   -3.544680   -0.319192
  H     -2.613720   -2.561889   -1.664744
  H     -3.873231   -1.883225   -0.594674

 Total Charge           Charge          ....    0
 Multiplicity           Mult            ....    1
 Number of Electrons    NEL             ....  174
 Basis Dimension        Dim             ....  316

ORBITAL ENERGIES
----------------

  NO   OCC          E(Eh)            E(eV)
   0   2.0000     -88.033005     -2395.4999
   1   2.0000     -87.962964     -2393.5939
   2   2.0000     -76.418158     -2079.4438
   3   2.0000     -18.823722      -512.2195
   4   2.0000     -18.797513      -511.5063
   5   2.0000     -18.776144      -510.9249
   6   2.0000     -18.772109      -510.8151
   7   2.0000     -18.766559      -510.6640
   8   2.0000     -18.732262      -509.7308
   9   2.0000     -10.034025      -273.0397
  10   2.0000     -10.007243      -272.3109
  11   2.0000      -9.959606      -271.0147
  12   2.0000      -9.955632      -270.9065
  13   2.0000      -9.935916      -270.3700
  14   2.0000      -9.931164      -270.2407
  15   2.0000      -9.931014      -270.2366
  16   2.0000      -9.914273      -269.7811
  17   2.0000      -9.884608      -268.9739
  18   2.0000      -9.867896      -268.5191
  19   2.0000      -7.678203      -208.9345
  20   2.0000      -7.608259      -207.0312
  21   2.0000      -6.412845      -174.5024
  22   2.0000      -5.706481      -155.2812
  23   2.0000      -5.702521      -155.1735
  24   2.0000      -5.694897      -154.9660
  25   2.0000      -5.637752      -153.4110
  26   2.0000      -5.629022      -153.1735
  27   2.0000      -5.627596      -153.1347
  28   2.0000      -4.635918      -126.1498
  29   2.0000      -4.634748      -126.1179
  30   2.0000      -4.633348      -126.0798
  31   2.0000      -1.035584       -28.1797
  32   2.0000      -1.003104       -27.2959
  33   2.0000      -0.967321       -26.3221
  34   2.0000      -0.942770       -25.6541
  35   2.0000      -0.922470       -25.1017
  36   2.0000      -0.910469       -24.7751
  37   2.0000      -0.769850       -20.9487
  38   2.0000      -0.714664       -19.4470
  39   2.0000      -0.701144       -19.0791
  40   2.0000      -0.684492       -18.6260
  41   2.0000      -0.652649       -17.7595
  42   2.0000      -0.625503       -17.0208
  43   2.0000      -0.621868       -16.9219
  44   2.0000      -0.602597       -16.3975
  45   2.0000      -0.583347       -15.8737
  46   2.0000      -0.560296       -15.2464
  47   2.0000      -0.516830       -14.0637
  48   2.0000      -0.504579       -13.7303
  49   2.0000      -0.498166       -13.5558
  50   2.0000      -0.488849       -13.3023
  51   2.0000      -0.469062       -12.7638
  52   2.0000      -0.463667       -12.6170
  53   2.0000      -0.448768       -12.2116
  54   2.0000      -0.437530       -11.9058
  55   2.0000      -0.431007       -11.7283
  56   2.0000      -0.416600       -11.3363
  57   2.0000      -0.414166       -11.2700
  58   2.0000      -0.411459       -11.1964
  59   2.0000      -0.405882       -11.0446
  60   2.0000      -0.399664       -10.8754
  61   2.0000      -0.388617       -10.5748
  62   2.0000      -0.386873       -10.5274
  63   2.0000      -0.379005       -10.3133
  64   2.0000      -0.370692       -10.0871
  65   2.0000      -0.365973        -9.9586
  66   2.0000      -0.359380        -9.7792
  67   2.0000      -0.348062        -9.4713
  68   2.0000      -0.340763        -9.2726
  69   2.0000      -0.333246        -9.0681
  70   2.0000      -0.331561        -9.0222
  71   2.0000      -0.330262        -8.9869
  72   2.0000      -0.310186        -8.4406
  73   2.0000      -0.306569        -8.3422
  74   2.0000      -0.301492        -8.2040
  75   2.0000      -0.290645        -7.9088
  76   2.0000      -0.285276        -7.7627
  77   2.0000      -0.284876        -7.7519
  78   2.0000      -0.279044        -7.5932
  79   2.0000      -0.260632        -7.0922
  80   2.0000      -0.252820        -6.8796
  81   2.0000      -0.249894        -6.8000
  82   2.0000      -0.244258        -6.6466
  83   2.0000      -0.218468        -5.9448
  84   2.0000      -0.211914        -5.7665
  85   2.0000      -0.183959        -5.0058
  86   2.0000      -0.172870        -4.7040
  87   0.0000      -0.045419        -1.2359
  88   0.0000      -0.038932        -1.0594
  89   0.0000      -0.026668        -0.7257
  90   0.0000      -0.004222        -0.1149
  91   0.0000       0.036427         0.9912

MULLIKEN ATOMIC CHARGES
-----------------------
   0 C :   -0.293620
   1 C :   -0.029732
   2 O :   -0.220988
   3 C :    0.097986
   4 O :   -0.196494
   5 C :   -0.026808
   6 C :   -0.306029
   7 H :    0.156048
   8 C :    0.227471
   9 O :   -0.199590
  10 O :   -0.213044
  11 C :   -0.027973
  12 C :   -0.301557
  13 S :   -0.127165
  14 P :    0.646760
  15 S :   -0.319111
  16 O :   -0.400709
  17 C :   -0.081193
  18 O :   -0.377877
  19 C :   -0.117697
  20 H :    0.135738
  21 H :    0.100731
  22 H :    0.102827
  23 H :    0.093827
  24 H :    0.130703
  25 H :    0.114380
  26 H :    0.120030
  27 H :    0.107502
  28 H :    0.129043
  29 H :    0.111325
  30 H :    0.150992
  31 H :    0.109008
  32 H :    0.117518
  33 H :    0.113881
  34 H :    0.105337
  35 H :    0.126020
  36 H :    0.122623
  37 H :    0.119838
Sum of atomic charges:   -0.0000000

LOEWDIN ATOMIC CHARGES
----------------------
   0 C :   -0.356668
   1 C :   -0.113208
   2 O :   -0.047415
   3 C :    0.023026
   4 O :   -0.161259
   5 C :   -0.245977
   6 C :   -0.257067
   7 H :    0.150327
   8 C :    0.030958
   9 O :   -0.147286
  10 O :   -0.027669
  11 C :   -0.102492
  12 C :   -0.355560
  13 S :    0.086394
  14 P :    0.582097
  15 S :   -0.308666
  16 O :   -0.261189
  17 C :   -0.209540
  18 O :   -0.259113
  19 C :   -0.218006
  20 H :    0.127852
  21 H :    0.119636
  22 H :    0.127486
  23 H :    0.110981
  24 H :    0.119395
  25 H :    0.136362
  26 H :    0.143138
  27 H :    0.118201
  28 H :    0.127328
  29 H :    0.130381
  30 H :    0.140203
  31 H :    0.123530
  32 H :    0.110190
  33 H :    0.114838
  34 H :    0.107988
  35 H :    0.122941
  36 H :    0.105789
  37 H :    0.112072

  Mayer bond orders larger than 0.100000
B(  0-C ,  1-C ) :   1.1680 B(  0-C , 20-H ) :   0.9325 B(  0-C , 21-H ) :   0.9479
B(  0-C , 22-H ) :   0.9433 B(  1-C ,  2-O ) :   0.8962 B(  1-C , 23-H ) :   0.9340
B(  1-C , 24-H ) :   0.9044 B(  2-O ,  3-C ) :   1.2546 B(  2-O ,  4-O ) :   0.1072
B(  3-C ,  4-O ) :   1.9973 B(  3-C ,  5-C ) :   0.9946 B(  5-C ,  6-C ) :   1.0370
B(  5-C , 25-H ) :   0.9005 B(  5-C , 26-H ) :   0.8810 B(  6-C ,  7-H ) :   0.8742
B(  6-C ,  8-C ) :   0.9085 B(  6-C , 13-S ) :   1.0563 B(  8-C ,  9-O ) :   1.8939
B(  8-C , 10-O ) :   1.2890 B(  9-O , 14-P ) :   0.1486 B( 10-O , 11-C ) :   0.8830
B( 11-C , 12-C ) :   1.1739 B( 11-C , 27-H ) :   0.9357 B( 11-C , 28-H ) :   0.9102
B( 12-C , 29-H ) :   0.9416 B( 12-C , 30-H ) :   0.9326 B( 12-C , 31-H ) :   0.9497
B( 13-S , 14-P ) :   0.9171 B( 13-S , 15-S ) :   0.1131 B( 14-P , 15-S ) :   1.5758
B( 14-P , 16-O ) :   1.0695 B( 14-P , 18-O ) :   1.0618 B( 16-O , 17-C ) :   0.9354
B( 17-C , 32-H ) :   0.9359 B( 17-C , 33-H ) :   0.9548 B( 17-C , 34-H ) :   0.9537
B( 18-O , 19-C ) :   0.9351 B( 19-C , 35-H ) :   0.9602 B( 19-C , 36-H ) :   0.9404
B( 19-C , 37-H ) :   0.9431

Dispersion correction           -0.055251065
FINAL SINGLE POINT ENERGY     -1979.005457303776

DIPOLE MOMENT
-------------

Method             : SCF
Type of density    : Electron Density
Multiplicity       :   1
Irrep              :   0
Energy             : -1979.1349901928015242 Eh
Relativity type    :
Basis              : AO
                                X                 Y                 Z
Electronic contribution:     -6.277508323      -0.896414746      -2.881421269
Nuclear contribution   :      6.180583910       1.836650028       1.728707635
                        -----------------------------------------
Total Dipole Moment    :     -0.096924413       0.940235283      -1.152713634
                        -----------------------------------------
Magnitude (a.u.)       :      1.490699651
Magnitude (Debye)      :      3.789057392

Rotational constants in cm-1:             0.012227             0.009464             0.007203
Rotational constants in MHz :           366.563789           283.733172           215.932971

                             ****ORCA TERMINATED NORMALLY****
TOTAL RUN TIME: 0 days 0 hours 0 minutes 39 seconds 783 msec
