                         Program Version 6.0.0  -   RELEASE  -
|  1> ! pbe def2-sv(p) def2/J RI DEFGRID1 loosescf d4 GCP(DFT/SV(P)) printgap
|  2> %output
|  3>     printlevel normal
|  4> end
|  5> * xyz 0 1
|  6> C 4.5900145985 -1.5409640049 -1.0577532139
|  7> C 4.6539431356 -0.106397337 -0.5749489351
|  8> O 3.536705143 0.2336727932 0.2644258789
|  9> P 2.047772928 0.3465018067 -0.2934140008
| 10> S 1.9520957431 1.1419295678 -2.0886960066
| 11> O 1.3634796356 1.1323801079 0.8989954052
| 12> C 1.5564456533 2.5551899344 1.0532244312
| 13> C 0.7273823122 3.0065897834 2.2362188384
| 14> S 1.2418447353 -1.5669874636 -0.0247890972
| 15> C 0.0027146108 -1.585056332 -1.370142767
| 16> S -1.6825669453 -1.8244260374 -0.7780799478
| 17> P -1.9148149494 0.0199977221 0.2600693305
| 18> S -1.3881403977 1.6040906224 -0.7673314934
| 19> O -1.122819553 -0.0925323025 1.6183974745
| 20> C -1.5401799722 -0.8174482967 2.8022329645
| 21> C -1.6393744526 -2.3111878072 2.5753804578
| 22> O -3.4255970195 -0.0029649238 0.7506524902
| 23> C -4.5184980963 0.4600221431 -0.0626712225
| 24> C -4.7465450456 -0.4150136914 -1.2777347311
| 25> H 4.4552361685 -2.2173269658 -0.2175384451
| 26> H 3.7550941927 -1.6627851577 -1.7464349522
| 27> H 5.5116822785 -1.7853184717 -1.5759016987
| 28> H 4.668465573 0.5844666884 -1.4241217786
| 29> H 5.5214536784 0.0678515062 0.0629664116
| 30> H 2.6221383689 2.7448711032 1.208040193
| 31> H 1.2333866026 3.0459223907 0.1281725909
| 32> H -0.3210755657 2.7856892483 2.05137028
| 33> H 1.0458475679 2.4851649796 3.1339907491
| 34> H 0.8505677382 4.0762392183 2.3704429839
| 35> H 0.2166184096 -2.4358205568 -2.0118401901
| 36> H 0.0794974324 -0.6449755108 -1.9237900091
| 37> H -0.7577910958 -0.5743788318 3.5231448378
| 38> H -2.4954244599 -0.4055835233 3.1328016129
| 39> H -2.4584627949 -2.5412442568 1.8977330004
| 40> H -0.7124657111 -2.6928930584 2.1525074458
| 41> H -1.8224116631 -2.7974047349 3.5286768301
| 42> H -5.371943186 0.436551932 0.6166275198
| 43> H -4.3104575147 1.4910824961 -0.3649690006
| 44> H -3.9179961517 -0.3083264153 -1.9759031122
| 45> H -4.8261172934 -1.4587970759 -0.9852527041
| 46> H -5.6624602291 -0.1070668961 -1.7718319831
| 47> *
| 48>
| 49>                          ****END OF INPUT****

CARTESIAN COORDINATES (ANGSTROEM)
---------------------------------
  C      4.590015   -1.540964   -1.057753
  C      4.653943   -0.106397   -0.574949
  O      3.536705    0.233673    0.264426
  P      2.047773    0.346502   -0.293414
  S      1.952096    1.141930   -2.088696
  O      1.363480    1.132380    0.898995
  C      1.556446    2.555190    1.053224
  C      0.727382    3.006590    2.236219
  S      1.241845   -1.566987   -0.024789
  C      0.002715   -1.585056   -1.370143
  S     -1.682567   -1.824426   -0.778080
  P     -1.914815    0.019998    0.260069
  S     -1.388140    1.604091   -0.767331
  O     -1.122820   -0.092532    1.618397
  C     -1.540180   -0.817448    2.802233
  C     -1.639374   -2.311188    2.575380
  O     -3.425597   -0.002965    0.750652
  C     -4.518498    0.460022   -0.062671
  C     -4.746545   -0.415014   -1.277735
  H      4.455236   -2.217327   -0.217538
  H      3.755094   -1.662785   -1.746435
  H      5.511682   -1.785318   -1.575902
  H      4.668466    0.584467   -1.424122
  H      5.521454    0.067852    0.062966
  H      2.622138    2.744871    1.208040
  H      1.233387    3.045922    0.128173
  H     -0.321076    2.785689    2.051370
  H      1.045848    2.485165    3.133991
  H      0.850568    4.076239    2.370443
  H      0.216618   -2.435821   -2.011840
  H      0.079497   -0.644976   -1.923790
  H     -0.757791   -0.574379    3.523145
  H     -2.495424   -0.405584    3.132802
  H     -2.458463   -2.541244    1.897733
  H     -0.712466   -2.692893    2.152507
  H     -1.822412   -2.797405    3.528677
  H     -5.371943    0.436552    0.616628
  H     -4.310458    1.491082   -0.364969
  H     -3.917996   -0.308326   -1.975903
  H     -4.826117   -1.458797   -0.985253
  H     -5.662460   -0.107067   -1.771832

 Total Charge           Charge          ....    0
 Multiplicity           Mult            ....    1
 Number of Electrons    NEL             ....  202
 Basis Dimension        Dim             ....  334

ORBITAL ENERGIES
----------------

  NO   OCC          E(Eh)            E(eV)
   0   2.0000     -88.041989     -2395.7443
   1   2.0000     -88.041001     -2395.7174
   2   2.0000     -87.980375     -2394.0677
   3   2.0000     -87.978813     -2394.0252
   4   2.0000     -76.425262     -2079.6371
   5   2.0000     -76.417959     -2079.4384
   6   2.0000     -18.797717      -511.5119
   7   2.0000     -18.787102      -511.2230
   8   2.0000     -18.785714      -511.1853
   9   2.0000     -18.776513      -510.9349
  10   2.0000      -9.955595      -270.9055
  11   2.0000      -9.954719      -270.8817
  12   2.0000      -9.953751      -270.8553
  13   2.0000      -9.946018      -270.6449
  14   2.0000      -9.938301      -270.4349
  15   2.0000      -9.885818      -269.0068
  16   2.0000      -9.884771      -268.9783
  17   2.0000      -9.879798      -268.8430
  18   2.0000      -9.873017      -268.6585
  19   2.0000      -7.686988      -209.1736
  20   2.0000      -7.686217      -209.1526
  21   2.0000      -7.625242      -207.4934
  22   2.0000      -7.623768      -207.4533
  23   2.0000      -6.422389      -174.7621
  24   2.0000      -6.415723      -174.5807
  25   2.0000      -5.714879      -155.5098
  26   2.0000      -5.714069      -155.4877
  27   2.0000      -5.711452      -155.4165
  28   2.0000      -5.710785      -155.3984
  29   2.0000      -5.703981      -155.2132
  30   2.0000      -5.703045      -155.1878
  31   2.0000      -5.654194      -153.8585
  32   2.0000      -5.652631      -153.8159
  33   2.0000      -5.645928      -153.6335
  34   2.0000      -5.645299      -153.6164
  35   2.0000      -5.644550      -153.5960
  36   2.0000      -5.643829      -153.5764
  37   2.0000      -4.645533      -126.4114
  38   2.0000      -4.643983      -126.3692
  39   2.0000      -4.642530      -126.3297
  40   2.0000      -4.638068      -126.2083
  41   2.0000      -4.637281      -126.1868
  42   2.0000      -4.636543      -126.1668
  43   2.0000      -0.988597       -26.9011
  44   2.0000      -0.977568       -26.6010
  45   2.0000      -0.943908       -25.6850
  46   2.0000      -0.933781       -25.4095
  47   2.0000      -0.761631       -20.7250
  48   2.0000      -0.718465       -19.5504
  49   2.0000      -0.706052       -19.2126
  50   2.0000      -0.691309       -18.8115
  51   2.0000      -0.680793       -18.5253
  52   2.0000      -0.672692       -18.3049
  53   2.0000      -0.647808       -17.6277
  54   2.0000      -0.628697       -17.1077
  55   2.0000      -0.598498       -16.2860
  56   2.0000      -0.587372       -15.9832
  57   2.0000      -0.579378       -15.7657
  58   2.0000      -0.563107       -15.3229
  59   2.0000      -0.552212       -15.0264
  60   2.0000      -0.496140       -13.5006
  61   2.0000      -0.494564       -13.4578
  62   2.0000      -0.470461       -12.8019
  63   2.0000      -0.464795       -12.6477
  64   2.0000      -0.451410       -12.2835
  65   2.0000      -0.443809       -12.0766
  66   2.0000      -0.440834       -11.9957
  67   2.0000      -0.429941       -11.6993
  68   2.0000      -0.426776       -11.6132
  69   2.0000      -0.417927       -11.3724
  70   2.0000      -0.413148       -11.2423
  71   2.0000      -0.399491       -10.8707
  72   2.0000      -0.386772       -10.5246
  73   2.0000      -0.382319       -10.4034
  74   2.0000      -0.378300       -10.2941
  75   2.0000      -0.367499       -10.0002
  76   2.0000      -0.363644        -9.8953
  77   2.0000      -0.354857        -9.6561
  78   2.0000      -0.350545        -9.5388
  79   2.0000      -0.348109        -9.4725
  80   2.0000      -0.343596        -9.3497
  81   2.0000      -0.341814        -9.3012
  82   2.0000      -0.336995        -9.1701
  83   2.0000      -0.332725        -9.0539
  84   2.0000      -0.324082        -8.8187
  85   2.0000      -0.318988        -8.6801
  86   2.0000      -0.306956        -8.3527
  87   2.0000      -0.298177        -8.1138
  88   2.0000      -0.294936        -8.0256
  89   2.0000      -0.289844        -7.8871
  90   2.0000      -0.276855        -7.5336
  91   2.0000      -0.270511        -7.3610
  92   2.0000      -0.263527        -7.1709
  93   2.0000      -0.259417        -7.0591
  94   2.0000      -0.255927        -6.9641
  95   2.0000      -0.232131        -6.3166
  96   2.0000      -0.217524        -5.9191
  97   2.0000      -0.212501        -5.7824
  98   2.0000      -0.200642        -5.4597
  99   2.0000      -0.190127        -5.1736
 100   2.0000      -0.182969        -4.9788
 101   0.0000      -0.041521        -1.1298
 102   0.0000      -0.030614        -0.8330
 103   0.0000      -0.008979        -0.2443
 104   0.0000       0.010299         0.2802
 105   0.0000       0.021924         0.5966

MULLIKEN ATOMIC CHARGES
-----------------------
   0 C :   -0.310261
   1 C :   -0.001570
   2 O :   -0.381112
   3 P :    0.612498
   4 S :   -0.322055
   5 O :   -0.354481
   6 C :   -0.002571
   7 C :   -0.277140
   8 S :   -0.089685
   9 C :   -0.356313
  10 S :   -0.106771
  11 P :    0.610326
  12 S :   -0.297934
  13 O :   -0.347389
  14 C :    0.008559
  15 C :   -0.319535
  16 O :   -0.386545
  17 C :    0.000810
  18 C :   -0.322399
  19 H :    0.115162
  20 H :    0.119734
  21 H :    0.110418
  22 H :    0.109250
  23 H :    0.101229
  24 H :    0.094737
  25 H :    0.111667
  26 H :    0.122933
  27 H :    0.104765
  28 H :    0.103313
  29 H :    0.181943
  30 H :    0.209861
  31 H :    0.109396
  32 H :    0.106923
  33 H :    0.120809
  34 H :    0.127846
  35 H :    0.110572
  36 H :    0.103855
  37 H :    0.112775
  38 H :    0.134020
  39 H :    0.116649
  40 H :    0.115710
Sum of atomic charges:    0.0000000

LOEWDIN ATOMIC CHARGES
----------------------
   0 C :   -0.369193
   1 C :   -0.120945
   2 O :   -0.250269
   3 P :    0.569023
   4 S :   -0.312900
   5 O :   -0.234398
   6 C :   -0.117194
   7 C :   -0.352360
   8 S :    0.089185
   9 C :   -0.480032
  10 S :    0.081221
  11 P :    0.567647
  12 S :   -0.294890
  13 O :   -0.227907
  14 C :   -0.106495
  15 C :   -0.371049
  16 O :   -0.249005
  17 C :   -0.116808
  18 C :   -0.371958
  19 H :    0.123002
  20 H :    0.119170
  21 H :    0.129435
  22 H :    0.109095
  23 H :    0.116643
  24 H :    0.106483
  25 H :    0.110510
  26 H :    0.125723
  27 H :    0.121282
  28 H :    0.127071
  29 H :    0.137291
  30 H :    0.126669
  31 H :    0.122141
  32 H :    0.113189
  33 H :    0.116706
  34 H :    0.123537
  35 H :    0.129699
  36 H :    0.118057
  37 H :    0.113220
  38 H :    0.123905
  39 H :    0.122823
  40 H :    0.132679

  Mayer bond orders larger than 0.100000
B(  0-C ,  1-C ) :   1.1655 B(  0-C , 19-H ) :   0.9449 B(  0-C , 20-H ) :   0.9367
B(  0-C , 21-H ) :   0.9384 B(  1-C ,  2-O ) :   0.9150 B(  1-C , 22-H ) :   0.9130
B(  1-C , 23-H ) :   0.9340 B(  2-O ,  3-P ) :   1.0923 B(  3-P ,  4-S ) :   1.6021
B(  3-P ,  5-O ) :   1.1464 B(  3-P ,  8-S ) :   0.9721 B(  4-S ,  8-S ) :   0.1168
B(  5-O ,  6-C ) :   0.8970 B(  6-C ,  7-C ) :   1.1650 B(  6-C , 24-H ) :   0.9271
B(  6-C , 25-H ) :   0.9148 B(  7-C , 26-H ) :   0.9423 B(  7-C , 27-H ) :   0.9500
B(  7-C , 28-H ) :   0.9414 B(  8-S ,  9-C ) :   0.9934 B(  9-C , 10-S ) :   1.0073
B(  9-C , 29-H ) :   0.9115 B(  9-C , 30-H ) :   0.8460 B( 10-S , 11-P ) :   0.9356
B( 10-S , 12-S ) :   0.1050 B( 11-P , 12-S ) :   1.6425 B( 11-P , 13-O ) :   1.1378
B( 11-P , 16-O ) :   1.0742 B( 13-O , 14-C ) :   0.8989 B( 14-C , 15-C ) :   1.1719
B( 14-C , 31-H ) :   0.9331 B( 14-C , 32-H ) :   0.9280 B( 15-C , 33-H ) :   0.9397
B( 15-C , 34-H ) :   0.9383 B( 15-C , 35-H ) :   0.9352 B( 16-O , 17-C ) :   0.9045
B( 17-C , 18-C ) :   1.1677 B( 17-C , 36-H ) :   0.9341 B( 17-C , 37-H ) :   0.9162
B( 18-C , 38-H ) :   0.9332 B( 18-C , 39-H ) :   0.9440 B( 18-C , 40-H ) :   0.9367

Dispersion correction           -0.068710588
FINAL SINGLE POINT ENERGY     -2929.517581453284

DIPOLE MOMENT
-------------

Method             : SCF
Type of density    : Electron Density
Multiplicity       :   1
Irrep              :   0
Energy             : -2929.6348203877992091 Eh
Relativity type    :
Basis              : AO
                                X                 Y                 Z
Electronic contribution:      2.229308653       1.308731609      -8.342596747
Nuclear contribution   :     -2.647046825      -2.085707376       9.390449720
                        -----------------------------------------
Total Dipole Moment    :     -0.417738172      -0.776975767       1.047852972
                        -----------------------------------------
Magnitude (a.u.)       :      1.369741718
Magnitude (Debye)      :      3.481606759

Rotational constants in cm-1:             0.012449             0.005552             0.005292
Rotational constants in MHz :           373.219504           166.457269           158.635525

                             ****ORCA TERMINATED NORMALLY****
TOTAL RUN TIME: 0 days 0 hours 0 minutes 23 seconds 281 msec
