                         Program Version 6.0.0  -   RELEASE  -
|  1> ! pbe def2-sv(p) def2/J RI DEFGRID1 loosescf d4 GCP(DFT/SV(P)) printgap
|  2> %output
|  3>     printlevel normal
|  4> end
|  5> * xyz 0 1
|  6> C 1.2327479976 0.5155559845 2.8543706753
|  7> C 2.7182451648 0.3010102968 2.6479122582
|  8> O 3.1242746179 0.605008165 1.3024840299
|  9> P 2.726173768 -0.3108882586 0.0645520862
| 10> S 2.755783492 -2.2418528131 0.4249097142
| 11> O 3.718428165 0.2078993672 -1.0537853298
| 12> C 5.040610583 -0.3439573713 -1.2293076873
| 13> C 5.950244099 -0.039030987 -0.0574478495
| 14> S 0.946853728 0.5162709069 -0.7430767685
| 15> C -0.0870006956 -0.9814489249 -0.7904563887
| 16> S -1.4029890132 -0.9662712254 0.4450932645
| 17> P -2.6677380383 0.3885119342 -0.6136036659
| 18> S -2.823356822 0.0763571831 -2.5370810398
| 19> O -2.0803807281 1.8185690526 -0.3104344739
| 20> C -1.8472231052 2.3407122795 1.0205009233
| 21> C -3.0226854129 3.1734405304 1.4889418319
| 22> O -4.0255649228 0.3716083941 0.2112319102
| 23> C -5.0776998017 -0.5772199512 -0.0447688133
| 24> C -4.665213022 -1.9979995651 0.280322863
| 25> H 0.6648943453 -0.213423427 2.2760266807
| 26> H 0.9931654758 0.3881063568 3.9050655282
| 27> H 0.9516534464 1.5170300705 2.5383454307
| 28> H 2.9912989178 -0.736370287 2.8670348578
| 29> H 3.3120651223 0.9800410692 3.2612814993
| 30> H 4.9461862061 -1.424899193 -1.3746987002
| 31> H 5.3948640514 0.1235031246 -2.14905972
| 32> H 5.6046839184 -0.5670875961 0.8300691261
| 33> H 6.9583160267 -0.3666126335 -0.2920286288
| 34> H 5.9538942352 1.0284469742 0.1466162842
| 35> H 0.5368389164 -1.8545037347 -0.5869701446
| 36> H -0.5422322955 -1.0396368453 -1.7797343131
| 37> H -1.6592627246 1.5054454369 1.7009875751
| 38> H -0.9443289528 2.9453444373 0.9139686597
| 39> H -3.2272587926 3.9646751201 0.7729236686
| 40> H -3.9084279756 2.5520652654 1.5881247855
| 41> H -2.7833069553 3.6138691098 2.4517820851
| 42> H -5.8933390248 -0.2387195197 0.5957428306
| 43> H -5.3694585948 -0.4918697276 -1.0959075908
| 44> H -5.5310929391 -2.6478683588 0.2044731129
| 45> H -3.9083186267 -2.3381830996 -0.4247016908
| 46> H -4.2575914824 -2.0541536014 1.2865577743
| 47> *
| 48>
| 49>                          ****END OF INPUT****

CARTESIAN COORDINATES (ANGSTROEM)
---------------------------------
  C      1.232748    0.515556    2.854371
  C      2.718245    0.301010    2.647912
  O      3.124275    0.605008    1.302484
  P      2.726174   -0.310888    0.064552
  S      2.755783   -2.241853    0.424910
  O      3.718428    0.207899   -1.053785
  C      5.040611   -0.343957   -1.229308
  C      5.950244   -0.039031   -0.057448
  S      0.946854    0.516271   -0.743077
  C     -0.087001   -0.981449   -0.790456
  S     -1.402989   -0.966271    0.445093
  P     -2.667738    0.388512   -0.613604
  S     -2.823357    0.076357   -2.537081
  O     -2.080381    1.818569   -0.310434
  C     -1.847223    2.340712    1.020501
  C     -3.022685    3.173441    1.488942
  O     -4.025565    0.371608    0.211232
  C     -5.077700   -0.577220   -0.044769
  C     -4.665213   -1.998000    0.280323
  H      0.664894   -0.213423    2.276027
  H      0.993165    0.388106    3.905066
  H      0.951653    1.517030    2.538345
  H      2.991299   -0.736370    2.867035
  H      3.312065    0.980041    3.261281
  H      4.946186   -1.424899   -1.374699
  H      5.394864    0.123503   -2.149060
  H      5.604684   -0.567088    0.830069
  H      6.958316   -0.366613   -0.292029
  H      5.953894    1.028447    0.146616
  H      0.536839   -1.854504   -0.586970
  H     -0.542232   -1.039637   -1.779734
  H     -1.659263    1.505445    1.700988
  H     -0.944329    2.945344    0.913969
  H     -3.227259    3.964675    0.772924
  H     -3.908428    2.552065    1.588125
  H     -2.783307    3.613869    2.451782
  H     -5.893339   -0.238720    0.595743
  H     -5.369459   -0.491870   -1.095908
  H     -5.531093   -2.647868    0.204473
  H     -3.908319   -2.338183   -0.424702
  H     -4.257591   -2.054154    1.286558

 Total Charge           Charge          ....    0
 Multiplicity           Mult            ....    1
 Number of Electrons    NEL             ....  202
 Basis Dimension        Dim             ....  334

ORBITAL ENERGIES
----------------

  NO   OCC          E(Eh)            E(eV)
   0   2.0000     -88.044073     -2395.8010
   1   2.0000     -88.040808     -2395.7122
   2   2.0000     -87.996178     -2394.4977
   3   2.0000     -87.986424     -2394.2323
   4   2.0000     -76.428632     -2079.7288
   5   2.0000     -76.427424     -2079.6959
   6   2.0000     -18.798812      -511.5417
   7   2.0000     -18.794707      -511.4300
   8   2.0000     -18.793537      -511.3981
   9   2.0000     -18.791087      -511.3315
  10   2.0000      -9.956978      -270.9432
  11   2.0000      -9.955756      -270.9099
  12   2.0000      -9.955501      -270.9029
  13   2.0000      -9.953900      -270.8594
  14   2.0000      -9.949207      -270.7317
  15   2.0000      -9.887168      -269.0435
  16   2.0000      -9.886926      -269.0369
  17   2.0000      -9.886718      -269.0313
  18   2.0000      -9.886110      -269.0147
  19   2.0000      -7.688559      -209.2163
  20   2.0000      -7.685956      -209.1455
  21   2.0000      -7.640950      -207.9208
  22   2.0000      -7.631695      -207.6690
  23   2.0000      -6.426573      -174.8760
  24   2.0000      -6.425152      -174.8373
  25   2.0000      -5.716172      -155.5449
  26   2.0000      -5.713805      -155.4805
  27   2.0000      -5.713165      -155.4631
  28   2.0000      -5.710623      -155.3940
  29   2.0000      -5.705778      -155.2621
  30   2.0000      -5.702757      -155.1799
  31   2.0000      -5.669602      -154.2777
  32   2.0000      -5.661858      -154.0670
  33   2.0000      -5.661114      -154.0468
  34   2.0000      -5.660692      -154.0353
  35   2.0000      -5.652233      -153.8051
  36   2.0000      -5.651827      -153.7940
  37   2.0000      -4.648860      -126.5019
  38   2.0000      -4.648183      -126.4835
  39   2.0000      -4.648094      -126.4811
  40   2.0000      -4.647368      -126.4613
  41   2.0000      -4.646824      -126.4465
  42   2.0000      -4.645319      -126.4055
  43   2.0000      -0.991367       -26.9765
  44   2.0000      -0.988895       -26.9092
  45   2.0000      -0.949143       -25.8275
  46   2.0000      -0.947644       -25.7867
  47   2.0000      -0.761982       -20.7346
  48   2.0000      -0.723813       -19.6960
  49   2.0000      -0.711652       -19.3650
  50   2.0000      -0.693002       -18.8575
  51   2.0000      -0.690065       -18.7776
  52   2.0000      -0.677150       -18.4262
  53   2.0000      -0.653864       -17.7925
  54   2.0000      -0.639690       -17.4069
  55   2.0000      -0.606292       -16.4980
  56   2.0000      -0.595769       -16.2117
  57   2.0000      -0.577102       -15.7037
  58   2.0000      -0.574961       -15.6455
  59   2.0000      -0.557557       -15.1719
  60   2.0000      -0.503090       -13.6898
  61   2.0000      -0.494103       -13.4452
  62   2.0000      -0.477871       -13.0035
  63   2.0000      -0.475558       -12.9406
  64   2.0000      -0.458096       -12.4654
  65   2.0000      -0.450042       -12.2463
  66   2.0000      -0.443030       -12.0555
  67   2.0000      -0.439939       -11.9713
  68   2.0000      -0.431449       -11.7403
  69   2.0000      -0.422317       -11.4918
  70   2.0000      -0.409129       -11.1330
  71   2.0000      -0.396259       -10.7828
  72   2.0000      -0.394810       -10.7433
  73   2.0000      -0.392318       -10.6755
  74   2.0000      -0.384121       -10.4525
  75   2.0000      -0.376417       -10.2428
  76   2.0000      -0.367723       -10.0063
  77   2.0000      -0.360036        -9.7971
  78   2.0000      -0.357597        -9.7307
  79   2.0000      -0.354087        -9.6352
  80   2.0000      -0.350412        -9.5352
  81   2.0000      -0.348962        -9.4957
  82   2.0000      -0.343352        -9.3431
  83   2.0000      -0.341936        -9.3046
  84   2.0000      -0.337911        -9.1950
  85   2.0000      -0.320509        -8.7215
  86   2.0000      -0.313683        -8.5357
  87   2.0000      -0.300203        -8.1689
  88   2.0000      -0.297385        -8.0923
  89   2.0000      -0.294072        -8.0021
  90   2.0000      -0.287897        -7.8341
  91   2.0000      -0.276581        -7.5261
  92   2.0000      -0.272358        -7.4112
  93   2.0000      -0.267309        -7.2738
  94   2.0000      -0.262307        -7.1377
  95   2.0000      -0.232355        -6.3227
  96   2.0000      -0.220978        -6.0131
  97   2.0000      -0.217528        -5.9192
  98   2.0000      -0.209717        -5.7067
  99   2.0000      -0.206472        -5.6184
 100   2.0000      -0.199767        -5.4359
 101   0.0000      -0.042802        -1.1647
 102   0.0000      -0.032085        -0.8731
 103   0.0000      -0.011752        -0.3198
 104   0.0000       0.003285         0.0894
 105   0.0000       0.017921         0.4877

MULLIKEN ATOMIC CHARGES
-----------------------
   0 C :   -0.333320
   1 C :    0.000645
   2 O :   -0.371018
   3 P :    0.614197
   4 S :   -0.334026
   5 O :   -0.366311
   6 C :   -0.001778
   7 C :   -0.309589
   8 S :   -0.069206
   9 C :   -0.371675
  10 S :   -0.098467
  11 P :    0.599043
  12 S :   -0.307924
  13 O :   -0.350092
  14 C :   -0.029082
  15 C :   -0.286378
  16 O :   -0.381595
  17 C :   -0.000846
  18 C :   -0.321376
  19 H :    0.134453
  20 H :    0.111194
  21 H :    0.119396
  22 H :    0.110938
  23 H :    0.104645
  24 H :    0.113122
  25 H :    0.109197
  26 H :    0.122511
  27 H :    0.113089
  28 H :    0.119286
  29 H :    0.196326
  30 H :    0.196978
  31 H :    0.113105
  32 H :    0.117100
  33 H :    0.120584
  34 H :    0.120764
  35 H :    0.108510
  36 H :    0.105786
  37 H :    0.115216
  38 H :    0.116087
  39 H :    0.132620
  40 H :    0.117890
Sum of atomic charges:   -0.0000000

LOEWDIN ATOMIC CHARGES
----------------------
   0 C :   -0.371149
   1 C :   -0.118806
   2 O :   -0.243912
   3 P :    0.572173
   4 S :   -0.312269
   5 O :   -0.242646
   6 C :   -0.113734
   7 C :   -0.365126
   8 S :    0.093844
   9 C :   -0.490040
  10 S :    0.086231
  11 P :    0.569713
  12 S :   -0.306595
  13 O :   -0.232308
  14 C :   -0.118346
  15 C :   -0.359422
  16 O :   -0.246626
  17 C :   -0.115746
  18 C :   -0.371532
  19 H :    0.113966
  20 H :    0.130469
  21 H :    0.123486
  22 H :    0.109574
  23 H :    0.118535
  24 H :    0.112368
  25 H :    0.121156
  26 H :    0.122519
  27 H :    0.130904
  28 H :    0.127583
  29 H :    0.125654
  30 H :    0.127963
  31 H :    0.104791
  32 H :    0.120412
  33 H :    0.129198
  34 H :    0.125711
  35 H :    0.129098
  36 H :    0.118782
  37 H :    0.114547
  38 H :    0.132722
  39 H :    0.123427
  40 H :    0.123427

  Mayer bond orders larger than 0.100000
B(  0-C ,  1-C ) :   1.1626 B(  0-C , 19-H ) :   0.9275 B(  0-C , 20-H ) :   0.9375
B(  0-C , 21-H ) :   0.9407 B(  1-C ,  2-O ) :   0.9138 B(  1-C , 22-H ) :   0.9148
B(  1-C , 23-H ) :   0.9329 B(  2-O ,  3-P ) :   1.1007 B(  3-P ,  4-S ) :   1.5819
B(  3-P ,  5-O ) :   1.1402 B(  3-P ,  8-S ) :   0.9646 B(  4-S ,  8-S ) :   0.1167
B(  4-S , 29-H ) :   0.1089 B(  5-O ,  6-C ) :   0.9093 B(  6-C ,  7-C ) :   1.1629
B(  6-C , 24-H ) :   0.9202 B(  6-C , 25-H ) :   0.9353 B(  7-C , 26-H ) :   0.9384
B(  7-C , 27-H ) :   0.9380 B(  7-C , 28-H ) :   0.9456 B(  8-S ,  9-C ) :   1.0069
B(  9-C , 10-S ) :   1.0047 B(  9-C , 29-H ) :   0.8532 B(  9-C , 30-H ) :   0.8659
B( 10-S , 11-P ) :   0.9492 B( 10-S , 12-S ) :   0.1073 B( 11-P , 12-S ) :   1.6403
B( 11-P , 13-O ) :   1.1445 B( 11-P , 16-O ) :   1.0872 B( 13-O , 14-C ) :   0.8914
B( 14-C , 15-C ) :   1.1600 B( 14-C , 31-H ) :   0.9076 B( 14-C , 32-H ) :   0.9316
B( 15-C , 33-H ) :   0.9468 B( 15-C , 34-H ) :   0.9413 B( 15-C , 35-H ) :   0.9400
B( 16-O , 17-C ) :   0.9031 B( 17-C , 18-C ) :   1.1662 B( 17-C , 36-H ) :   0.9340
B( 17-C , 37-H ) :   0.9188 B( 18-C , 38-H ) :   0.9368 B( 18-C , 39-H ) :   0.9341
B( 18-C , 40-H ) :   0.9436

Dispersion correction           -0.063615146
FINAL SINGLE POINT ENERGY     -2929.522077096977

DIPOLE MOMENT
-------------

Method             : SCF
Type of density    : Electron Density
Multiplicity       :   1
Irrep              :   0
Energy             : -2929.6434357399771216 Eh
Relativity type    :
Basis              : AO
                                X                 Y                 Z
Electronic contribution:     -0.116527398      -3.961030973     -15.524394724
Nuclear contribution   :      0.239588715       4.408825126      17.108065134
                        -----------------------------------------
Total Dipole Moment    :      0.123061317       0.447794153       1.583670411
                        -----------------------------------------
Magnitude (a.u.)       :      1.650356223
Magnitude (Debye)      :      4.194872146

Rotational constants in cm-1:             0.014329             0.004020             0.003834
Rotational constants in MHz :           429.562551           120.525898           114.931318

                             ****ORCA TERMINATED NORMALLY****
TOTAL RUN TIME: 0 days 0 hours 0 minutes 20 seconds 757 msec
