                         Program Version 6.0.0  -   RELEASE  -
|  1> ! pbe def2-sv(p) def2/J RI DEFGRID1 loosescf d4 GCP(DFT/SV(P)) printgap
|  2> %output
|  3>     printlevel normal
|  4> end
|  5> * xyz 0 1
|  6> C 3.4198950504 -2.0709902192 -2.1669341061
|  7> C 4.0481187152 -0.699780371 -2.0170563481
|  8> O 3.6909424647 -0.0617196886 -0.7813448571
|  9> P 2.2042759022 0.3969769125 -0.4243435772
| 10> S 1.2473608478 1.1274151096 -1.9680774066
| 11> O 2.4934515635 1.4717987336 0.6873741206
| 12> C 2.7550129041 1.2209486918 2.0857651281
| 13> C 3.9227483565 0.2829025619 2.3003767966
| 14> S 1.3302633898 -1.2938379231 0.5316874578
| 15> C -0.0833719628 -1.591394244 -0.5790525437
| 16> S -1.678755845 -1.729874845 0.2670856498
| 17> P -2.1517968559 0.2968788035 0.7076669224
| 18> S -0.6600966304 1.4940535893 1.1423092684
| 19> O -3.1558249849 0.1960511095 1.907601761
| 20> C -4.1614717121 -0.8294932922 2.1152940316
| 21> C -5.1122383325 -0.9677864117 0.9469959705
| 22> O -3.0816014217 0.8438057442 -0.4665236809
| 23> C -2.5914771399 1.2880603354 -1.7408072874
| 24> C -2.7740091527 0.2116749761 -2.7940833763
| 25> H 2.3445460155 -1.9706582374 -2.3046230255
| 26> H 3.8403137292 -2.561910366 -3.0387093042
| 27> H 3.6126743016 -2.6750951849 -1.2841013334
| 28> H 3.7459656234 -0.0474066208 -2.842678131
| 29> H 5.1365605243 -0.7582427791 -1.9713724496
| 30> H 2.9538335602 2.2178063629 2.4822136175
| 31> H 1.8376819311 0.8311941599 2.5364883979
| 32> H 4.1225811323 0.2048055218 3.3645192278
| 33> H 3.6877832596 -0.7064898157 1.910699575
| 34> H 4.8052928269 0.6621287293 1.7917144542
| 35> H 0.0590667551 -2.5607915739 -1.050907672
| 36> H -0.1055719554 -0.7844826935 -1.3176920596
| 37> H -3.6470867608 -1.7724520659 2.3152310609
| 38> H -4.674799471 -0.4882251461 3.015594087
| 39> H -5.5495540191 -0.0035379564 0.7015160395
| 40> H -4.5854909201 -1.3502595242 0.0756518564
| 41> H -5.9014036557 -1.6633417559 1.2154187288
| 42> H -3.1852674564 2.1729232361 -1.9782751673
| 43> H -1.5408508706 1.5856036834 -1.6490219272
| 44> H -2.4054670242 0.5857593886 -3.7438714236
| 45> H -2.2173326985 -0.6848556672 -2.5325121009
| 46> H -3.8258310472 -0.0428396557 -2.8871392905
| 47> *
| 48>
| 49>                          ****END OF INPUT****

CARTESIAN COORDINATES (ANGSTROEM)
---------------------------------
  C      3.419895   -2.070990   -2.166934
  C      4.048119   -0.699780   -2.017056
  O      3.690942   -0.061720   -0.781345
  P      2.204276    0.396977   -0.424344
  S      1.247361    1.127415   -1.968077
  O      2.493452    1.471799    0.687374
  C      2.755013    1.220949    2.085765
  C      3.922748    0.282903    2.300377
  S      1.330263   -1.293838    0.531687
  C     -0.083372   -1.591394   -0.579053
  S     -1.678756   -1.729875    0.267086
  P     -2.151797    0.296879    0.707667
  S     -0.660097    1.494054    1.142309
  O     -3.155825    0.196051    1.907602
  C     -4.161472   -0.829493    2.115294
  C     -5.112238   -0.967786    0.946996
  O     -3.081601    0.843806   -0.466524
  C     -2.591477    1.288060   -1.740807
  C     -2.774009    0.211675   -2.794083
  H      2.344546   -1.970658   -2.304623
  H      3.840314   -2.561910   -3.038709
  H      3.612674   -2.675095   -1.284101
  H      3.745966   -0.047407   -2.842678
  H      5.136561   -0.758243   -1.971372
  H      2.953834    2.217806    2.482214
  H      1.837682    0.831194    2.536488
  H      4.122581    0.204806    3.364519
  H      3.687783   -0.706490    1.910700
  H      4.805293    0.662129    1.791714
  H      0.059067   -2.560792   -1.050908
  H     -0.105572   -0.784483   -1.317692
  H     -3.647087   -1.772452    2.315231
  H     -4.674799   -0.488225    3.015594
  H     -5.549554   -0.003538    0.701516
  H     -4.585491   -1.350260    0.075652
  H     -5.901404   -1.663342    1.215419
  H     -3.185267    2.172923   -1.978275
  H     -1.540851    1.585604   -1.649022
  H     -2.405467    0.585759   -3.743871
  H     -2.217333   -0.684856   -2.532512
  H     -3.825831   -0.042840   -2.887139

 Total Charge           Charge          ....    0
 Multiplicity           Mult            ....    1
 Number of Electrons    NEL             ....  202
 Basis Dimension        Dim             ....  334

ORBITAL ENERGIES
----------------

  NO   OCC          E(Eh)            E(eV)
   0   2.0000     -88.046093     -2395.8560
   1   2.0000     -88.041864     -2395.7409
   2   2.0000     -87.984733     -2394.1863
   3   2.0000     -87.975143     -2393.9253
   4   2.0000     -76.425020     -2079.6305
   5   2.0000     -76.421599     -2079.5374
   6   2.0000     -18.790351      -511.3114
   7   2.0000     -18.786811      -511.2151
   8   2.0000     -18.783612      -511.1281
   9   2.0000     -18.782246      -511.0909
  10   2.0000      -9.959789      -271.0196
  11   2.0000      -9.959701      -271.0172
  12   2.0000      -9.949662      -270.7441
  13   2.0000      -9.949636      -270.7434
  14   2.0000      -9.943382      -270.5732
  15   2.0000      -9.889344      -269.1027
  16   2.0000      -9.885476      -268.9975
  17   2.0000      -9.885345      -268.9939
  18   2.0000      -9.882135      -268.9066
  19   2.0000      -7.690977      -209.2821
  20   2.0000      -7.686443      -209.1588
  21   2.0000      -7.629645      -207.6132
  22   2.0000      -7.619925      -207.3487
  23   2.0000      -6.421932      -174.7497
  24   2.0000      -6.418963      -174.6689
  25   2.0000      -5.718824      -155.6171
  26   2.0000      -5.715276      -155.5206
  27   2.0000      -5.714351      -155.4954
  28   2.0000      -5.711091      -155.4067
  29   2.0000      -5.708214      -155.3284
  30   2.0000      -5.703321      -155.1952
  31   2.0000      -5.658494      -153.9754
  32   2.0000      -5.650578      -153.7601
  33   2.0000      -5.649477      -153.7301
  34   2.0000      -5.649044      -153.7183
  35   2.0000      -5.640682      -153.4908
  36   2.0000      -5.639770      -153.4659
  37   2.0000      -4.644551      -126.3847
  38   2.0000      -4.643667      -126.3606
  39   2.0000      -4.642506      -126.3290
  40   2.0000      -4.641691      -126.3068
  41   2.0000      -4.640904      -126.2854
  42   2.0000      -4.639128      -126.2371
  43   2.0000      -0.983195       -26.7541
  44   2.0000      -0.981720       -26.7139
  45   2.0000      -0.940471       -25.5915
  46   2.0000      -0.939071       -25.5534
  47   2.0000      -0.761297       -20.7160
  48   2.0000      -0.718764       -19.5586
  49   2.0000      -0.711370       -19.3574
  50   2.0000      -0.688835       -18.7441
  51   2.0000      -0.687219       -18.7002
  52   2.0000      -0.678793       -18.4709
  53   2.0000      -0.648555       -17.6481
  54   2.0000      -0.632779       -17.2188
  55   2.0000      -0.599225       -16.3058
  56   2.0000      -0.591272       -16.0893
  57   2.0000      -0.573334       -15.6012
  58   2.0000      -0.570871       -15.5342
  59   2.0000      -0.565113       -15.3775
  60   2.0000      -0.497550       -13.5390
  61   2.0000      -0.487834       -13.2746
  62   2.0000      -0.474087       -12.9006
  63   2.0000      -0.466625       -12.6975
  64   2.0000      -0.456137       -12.4121
  65   2.0000      -0.450013       -12.2455
  66   2.0000      -0.440401       -11.9839
  67   2.0000      -0.437884       -11.9154
  68   2.0000      -0.428977       -11.6731
  69   2.0000      -0.420609       -11.4453
  70   2.0000      -0.406056       -11.0494
  71   2.0000      -0.399512       -10.8713
  72   2.0000      -0.394638       -10.7387
  73   2.0000      -0.388449       -10.5702
  74   2.0000      -0.381800       -10.3893
  75   2.0000      -0.369725       -10.0607
  76   2.0000      -0.364176        -9.9097
  77   2.0000      -0.357662        -9.7325
  78   2.0000      -0.354299        -9.6410
  79   2.0000      -0.350207        -9.5296
  80   2.0000      -0.348219        -9.4755
  81   2.0000      -0.345053        -9.3894
  82   2.0000      -0.344707        -9.3800
  83   2.0000      -0.338728        -9.2173
  84   2.0000      -0.331852        -9.0301
  85   2.0000      -0.315705        -8.5908
  86   2.0000      -0.308601        -8.3975
  87   2.0000      -0.291761        -7.9392
  88   2.0000      -0.290853        -7.9145
  89   2.0000      -0.287001        -7.8097
  90   2.0000      -0.285462        -7.7678
  91   2.0000      -0.275649        -7.5008
  92   2.0000      -0.269610        -7.3364
  93   2.0000      -0.258779        -7.0417
  94   2.0000      -0.255562        -6.9542
  95   2.0000      -0.237823        -6.4715
  96   2.0000      -0.217966        -5.9311
  97   2.0000      -0.210601        -5.7307
  98   2.0000      -0.203292        -5.5318
  99   2.0000      -0.185255        -5.0410
 100   2.0000      -0.182353        -4.9621
 101   0.0000      -0.043157        -1.1744
 102   0.0000      -0.033516        -0.9120
 103   0.0000      -0.020227        -0.5504
 104   0.0000       0.005272         0.1435
 105   0.0000       0.019784         0.5383

MULLIKEN ATOMIC CHARGES
-----------------------
   0 C :   -0.320656
   1 C :    0.004140
   2 O :   -0.373343
   3 P :    0.611317
   4 S :   -0.307555
   5 O :   -0.354186
   6 C :   -0.008941
   7 C :   -0.315305
   8 S :   -0.098115
   9 C :   -0.350350
  10 S :   -0.132752
  11 P :    0.599467
  12 S :   -0.299192
  13 O :   -0.356324
  14 C :   -0.014980
  15 C :   -0.312389
  16 O :   -0.373612
  17 C :   -0.028074
  18 C :   -0.298082
  19 H :    0.117973
  20 H :    0.111727
  21 H :    0.119116
  22 H :    0.110906
  23 H :    0.103191
  24 H :    0.111546
  25 H :    0.127356
  26 H :    0.115224
  27 H :    0.124547
  28 H :    0.122811
  29 H :    0.184386
  30 H :    0.199056
  31 H :    0.119049
  32 H :    0.115074
  33 H :    0.127006
  34 H :    0.125464
  35 H :    0.114236
  36 H :    0.104628
  37 H :    0.134118
  38 H :    0.113245
  39 H :    0.116795
  40 H :    0.111475
Sum of atomic charges:    0.0000000

LOEWDIN ATOMIC CHARGES
----------------------
   0 C :   -0.370631
   1 C :   -0.117943
   2 O :   -0.248872
   3 P :    0.581398
   4 S :   -0.297407
   5 O :   -0.224909
   6 C :   -0.116365
   7 C :   -0.366913
   8 S :    0.076848
   9 C :   -0.482022
  10 S :    0.062914
  11 P :    0.558892
  12 S :   -0.299100
  13 O :   -0.231697
  14 C :   -0.112654
  15 C :   -0.368622
  16 O :   -0.245268
  17 C :   -0.123959
  18 C :   -0.359334
  19 H :    0.117707
  20 H :    0.129997
  21 H :    0.123968
  22 H :    0.110576
  23 H :    0.118107
  24 H :    0.124311
  25 H :    0.111490
  26 H :    0.132511
  27 H :    0.115720
  28 H :    0.129199
  29 H :    0.135535
  30 H :    0.118344
  31 H :    0.111427
  32 H :    0.124958
  33 H :    0.131382
  34 H :    0.119309
  35 H :    0.131761
  36 H :    0.118970
  37 H :    0.107542
  38 H :    0.131688
  39 H :    0.117514
  40 H :    0.123628

  Mayer bond orders larger than 0.100000
B(  0-C ,  1-C ) :   1.1626 B(  0-C , 19-H ) :   0.9366 B(  0-C , 20-H ) :   0.9373
B(  0-C , 21-H ) :   0.9425 B(  1-C ,  2-O ) :   0.9215 B(  1-C , 22-H ) :   0.9161
B(  1-C , 23-H ) :   0.9344 B(  2-O ,  3-P ) :   1.0801 B(  3-P ,  4-S ) :   1.5864
B(  3-P ,  5-O ) :   1.1561 B(  3-P ,  8-S ) :   0.9465 B(  4-S ,  8-S ) :   0.1136
B(  4-S , 30-H ) :   0.1315 B(  5-O ,  6-C ) :   0.8966 B(  6-C ,  7-C ) :   1.1652
B(  6-C , 24-H ) :   0.9340 B(  6-C , 25-H ) :   0.9126 B(  7-C , 26-H ) :   0.9360
B(  7-C , 27-H ) :   0.9372 B(  7-C , 28-H ) :   0.9421 B(  8-S ,  9-C ) :   1.0059
B(  9-C , 10-S ) :   0.9973 B(  9-C , 29-H ) :   0.9040 B(  9-C , 30-H ) :   0.8358
B( 10-S , 11-P ) :   0.9314 B( 10-S , 12-S ) :   0.1129 B( 11-P , 12-S ) :   1.6689
B( 11-P , 13-O ) :   1.1529 B( 11-P , 16-O ) :   1.0825 B( 13-O , 14-C ) :   0.9002
B( 14-C , 15-C ) :   1.1687 B( 14-C , 31-H ) :   0.9235 B( 14-C , 32-H ) :   0.9344
B( 15-C , 33-H ) :   0.9423 B( 15-C , 34-H ) :   0.9366 B( 15-C , 35-H ) :   0.9344
B( 16-O , 17-C ) :   0.9079 B( 17-C , 18-C ) :   1.1647 B( 17-C , 36-H ) :   0.9341
B( 17-C , 37-H ) :   0.8949 B( 18-C , 38-H ) :   0.9412 B( 18-C , 39-H ) :   0.9381
B( 18-C , 40-H ) :   0.9464

Dispersion correction           -0.067800628
FINAL SINGLE POINT ENERGY     -2929.509062659590

DIPOLE MOMENT
-------------

Method             : SCF
Type of density    : Electron Density
Multiplicity       :   1
Irrep              :   0
Energy             : -2929.6270031143562846 Eh
Relativity type    :
Basis              : AO
                                X                 Y                 Z
Electronic contribution:      1.258423759       8.361914165       6.867657449
Nuclear contribution   :     -1.454674051      -9.775846442      -6.979615707
                        -----------------------------------------
Total Dipole Moment    :     -0.196250292      -1.413932277      -0.111958258
                        -----------------------------------------
Magnitude (a.u.)       :      1.431870564
Magnitude (Debye)      :      3.639525736

Rotational constants in cm-1:             0.013171             0.005122             0.004732
Rotational constants in MHz :           394.842029           153.565579           141.874172

                             ****ORCA TERMINATED NORMALLY****
TOTAL RUN TIME: 0 days 0 hours 0 minutes 21 seconds 293 msec
