                         Program Version 6.0.0  -   RELEASE  -
|  1> ! pbe def2-sv(p) def2/J RI DEFGRID1 loosescf d4 GCP(DFT/SV(P)) printgap
|  2> %output
|  3>     printlevel normal
|  4> end
|  5> * xyz 0 1
|  6> C 3.6904438105 -1.7021428044 -2.2993509532
|  7> C 4.0999448317 -0.3416296807 -1.7714011306
|  8> O 3.6239550188 -0.108360585 -0.4374363412
|  9> P 2.0807244546 0.0760284888 -0.078637837
| 10> S 1.0986716727 1.1021480578 -1.4332455494
| 11> O 2.2027535277 0.6417160982 1.3893683997
| 12> C 2.2694225047 2.0480211449 1.6955010186
| 13> C 3.4910482214 2.7114712244 1.0958038693
| 14> S 1.3931065405 -1.8725763583 0.3711326608
| 15> C 0.0509970089 -2.0414152313 -0.8557164865
| 16> S -1.6008322528 -2.2455245273 -0.1278894287
| 17> P -2.1044479047 -0.2491994186 0.2888589008
| 18> S -0.991507161 0.7982038807 1.5287591428
| 19> O -3.6177745282 -0.3735551839 0.7593563607
| 20> C -4.0002555421 -0.5517865695 2.1384827787
| 21> C -4.6118484707 0.7286262377 2.6733234566
| 22> O -2.2531231491 0.3094650053 -1.1794777199
| 23> C -2.4941062797 1.7114041749 -1.440817186
| 24> C -2.1968739383 1.9678445667 -2.9025491971
| 25> H 3.9617825447 -2.4792698375 -1.5893233964
| 26> H 2.6133980039 -1.7305319381 -2.4592287493
| 27> H 4.1910600456 -1.8851925493 -3.244707478
| 28> H 3.7162668704 0.4531560121 -2.4196993884
| 29> H 5.1835653617 -0.2554439879 -1.6806611207
| 30> H 1.3471281668 2.5196831735 1.3406812426
| 31> H 2.2853190734 2.0704393828 2.7860634416
| 32> H 4.3903689686 2.1798742191 1.3961035266
| 33> H 3.4228885611 2.7047568693 0.0082678035
| 34> H 3.5440156988 3.7397827933 1.4394392342
| 35> H 0.229638932 -2.9563687989 -1.413775952
| 36> H 0.0482924961 -1.1639160918 -1.5077748651
| 37> H -4.7195232493 -1.3722976663 2.1356226735
| 38> H -3.1220165552 -0.834772407 2.7252835239
| 39> H -4.9546320222 0.5641501067 3.6896464617
| 40> H -3.8676715795 1.5225719082 2.6729430766
| 41> H -5.4511670456 1.0296122779 2.0529630359
| 42> H -3.5372876906 1.9230994016 -1.1956026696
| 43> H -1.8418372766 2.3035407085 -0.7899942498
| 44> H -1.1438061687 1.784652161 -3.1025976688
| 45> H -2.7973421603 1.3093725032 -3.5229554064
| 46> H -2.4296406307 3.0013894793 -3.1362628526
| 47> *
| 48>
| 49>                          ****END OF INPUT****

CARTESIAN COORDINATES (ANGSTROEM)
---------------------------------
  C      3.690444   -1.702143   -2.299351
  C      4.099945   -0.341630   -1.771401
  O      3.623955   -0.108361   -0.437436
  P      2.080724    0.076028   -0.078638
  S      1.098672    1.102148   -1.433246
  O      2.202754    0.641716    1.389368
  C      2.269423    2.048021    1.695501
  C      3.491048    2.711471    1.095804
  S      1.393107   -1.872576    0.371133
  C      0.050997   -2.041415   -0.855716
  S     -1.600832   -2.245525   -0.127889
  P     -2.104448   -0.249199    0.288859
  S     -0.991507    0.798204    1.528759
  O     -3.617775   -0.373555    0.759356
  C     -4.000256   -0.551787    2.138483
  C     -4.611848    0.728626    2.673323
  O     -2.253123    0.309465   -1.179478
  C     -2.494106    1.711404   -1.440817
  C     -2.196874    1.967845   -2.902549
  H      3.961783   -2.479270   -1.589323
  H      2.613398   -1.730532   -2.459229
  H      4.191060   -1.885193   -3.244707
  H      3.716267    0.453156   -2.419699
  H      5.183565   -0.255444   -1.680661
  H      1.347128    2.519683    1.340681
  H      2.285319    2.070439    2.786063
  H      4.390369    2.179874    1.396104
  H      3.422889    2.704757    0.008268
  H      3.544016    3.739783    1.439439
  H      0.229639   -2.956369   -1.413776
  H      0.048292   -1.163916   -1.507775
  H     -4.719523   -1.372298    2.135623
  H     -3.122017   -0.834772    2.725284
  H     -4.954632    0.564150    3.689646
  H     -3.867672    1.522572    2.672943
  H     -5.451167    1.029612    2.052963
  H     -3.537288    1.923099   -1.195603
  H     -1.841837    2.303541   -0.789994
  H     -1.143806    1.784652   -3.102598
  H     -2.797342    1.309373   -3.522955
  H     -2.429641    3.001389   -3.136263

 Total Charge           Charge          ....    0
 Multiplicity           Mult            ....    1
 Number of Electrons    NEL             ....  202
 Basis Dimension        Dim             ....  334

ORBITAL ENERGIES
----------------

  NO   OCC          E(Eh)            E(eV)
   0   2.0000     -88.038870     -2395.6595
   1   2.0000     -88.037338     -2395.6178
   2   2.0000     -87.989448     -2394.3146
   3   2.0000     -87.978735     -2394.0231
   4   2.0000     -76.424318     -2079.6114
   5   2.0000     -76.420805     -2079.5158
   6   2.0000     -18.787329      -511.2292
   7   2.0000     -18.785889      -511.1900
   8   2.0000     -18.784736      -511.1586
   9   2.0000     -18.784658      -511.1565
  10   2.0000      -9.955415      -270.9006
  11   2.0000      -9.949997      -270.7532
  12   2.0000      -9.949688      -270.7448
  13   2.0000      -9.946772      -270.6654
  14   2.0000      -9.945275      -270.6247
  15   2.0000      -9.884716      -268.9768
  16   2.0000      -9.880871      -268.8722
  17   2.0000      -9.879903      -268.8458
  18   2.0000      -9.879517      -268.8353
  19   2.0000      -7.684807      -209.1142
  20   2.0000      -7.682731      -209.0577
  21   2.0000      -7.634127      -207.7352
  22   2.0000      -7.623471      -207.4452
  23   2.0000      -6.421616      -174.7411
  24   2.0000      -6.418637      -174.6600
  25   2.0000      -5.712746      -155.4517
  26   2.0000      -5.710676      -155.3954
  27   2.0000      -5.709244      -155.3564
  28   2.0000      -5.707401      -155.3063
  29   2.0000      -5.701643      -155.1496
  30   2.0000      -5.699407      -155.0888
  31   2.0000      -5.662778      -154.0920
  32   2.0000      -5.655323      -153.8892
  33   2.0000      -5.653951      -153.8518
  34   2.0000      -5.652266      -153.8060
  35   2.0000      -5.644010      -153.5813
  36   2.0000      -5.643857      -153.5772
  37   2.0000      -4.643813      -126.3646
  38   2.0000      -4.643280      -126.3501
  39   2.0000      -4.642563      -126.3306
  40   2.0000      -4.641259      -126.2951
  41   2.0000      -4.640388      -126.2714
  42   2.0000      -4.639018      -126.2341
  43   2.0000      -0.981982       -26.7211
  44   2.0000      -0.981781       -26.7156
  45   2.0000      -0.940512       -25.5926
  46   2.0000      -0.939360       -25.5613
  47   2.0000      -0.758579       -20.6420
  48   2.0000      -0.719563       -19.5803
  49   2.0000      -0.705714       -19.2034
  50   2.0000      -0.684515       -18.6266
  51   2.0000      -0.683509       -18.5992
  52   2.0000      -0.670878       -18.2555
  53   2.0000      -0.649932       -17.6856
  54   2.0000      -0.632515       -17.2116
  55   2.0000      -0.601320       -16.3628
  56   2.0000      -0.584625       -15.9084
  57   2.0000      -0.569964       -15.5095
  58   2.0000      -0.566527       -15.4160
  59   2.0000      -0.556199       -15.1349
  60   2.0000      -0.502386       -13.6706
  61   2.0000      -0.488547       -13.2940
  62   2.0000      -0.477613       -12.9965
  63   2.0000      -0.467855       -12.7310
  64   2.0000      -0.449360       -12.2277
  65   2.0000      -0.438889       -11.9428
  66   2.0000      -0.436693       -11.8830
  67   2.0000      -0.434385       -11.8202
  68   2.0000      -0.426951       -11.6179
  69   2.0000      -0.413958       -11.2644
  70   2.0000      -0.404905       -11.0180
  71   2.0000      -0.395423       -10.7600
  72   2.0000      -0.387750       -10.5512
  73   2.0000      -0.384527       -10.4635
  74   2.0000      -0.380715       -10.3598
  75   2.0000      -0.376644       -10.2490
  76   2.0000      -0.363162        -9.8821
  77   2.0000      -0.352666        -9.5965
  78   2.0000      -0.351276        -9.5587
  79   2.0000      -0.347266        -9.4496
  80   2.0000      -0.345759        -9.4086
  81   2.0000      -0.339826        -9.2471
  82   2.0000      -0.334888        -9.1128
  83   2.0000      -0.331921        -9.0320
  84   2.0000      -0.327992        -8.9251
  85   2.0000      -0.312799        -8.5117
  86   2.0000      -0.309419        -8.4197
  87   2.0000      -0.294577        -8.0159
  88   2.0000      -0.292032        -7.9466
  89   2.0000      -0.286443        -7.7945
  90   2.0000      -0.279974        -7.6185
  91   2.0000      -0.270591        -7.3632
  92   2.0000      -0.267703        -7.2846
  93   2.0000      -0.261554        -7.1172
  94   2.0000      -0.256955        -6.9921
  95   2.0000      -0.234656        -6.3853
  96   2.0000      -0.221259        -6.0208
  97   2.0000      -0.211190        -5.7468
  98   2.0000      -0.204196        -5.5564
  99   2.0000      -0.191551        -5.2124
 100   2.0000      -0.184993        -5.0339
 101   0.0000      -0.037312        -1.0153
 102   0.0000      -0.029993        -0.8162
 103   0.0000      -0.012030        -0.3273
 104   0.0000       0.003834         0.1043
 105   0.0000       0.022966         0.6249

MULLIKEN ATOMIC CHARGES
-----------------------
   0 C :   -0.316360
   1 C :   -0.000027
   2 O :   -0.371546
   3 P :    0.629338
   4 S :   -0.339083
   5 O :   -0.362341
   6 C :   -0.000878
   7 C :   -0.307711
   8 S :   -0.066531
   9 C :   -0.378355
  10 S :   -0.077502
  11 P :    0.620528
  12 S :   -0.330577
  13 O :   -0.383008
  14 C :   -0.005558
  15 C :   -0.287674
  16 O :   -0.369221
  17 C :   -0.002827
  18 C :   -0.288482
  19 H :    0.121310
  20 H :    0.119356
  21 H :    0.111448
  22 H :    0.106458
  23 H :    0.103681
  24 H :    0.119029
  25 H :    0.106717
  26 H :    0.117142
  27 H :    0.122469
  28 H :    0.110227
  29 H :    0.184892
  30 H :    0.204355
  31 H :    0.104783
  32 H :    0.106278
  33 H :    0.108080
  34 H :    0.119442
  35 H :    0.111145
  36 H :    0.099457
  37 H :    0.109639
  38 H :    0.131697
  39 H :    0.113295
  40 H :    0.106917
Sum of atomic charges:   -0.0000000

LOEWDIN ATOMIC CHARGES
----------------------
   0 C :   -0.368218
   1 C :   -0.120202
   2 O :   -0.247884
   3 P :    0.578084
   4 S :   -0.306134
   5 O :   -0.231719
   6 C :   -0.113493
   7 C :   -0.366841
   8 S :    0.090710
   9 C :   -0.481391
  10 S :    0.083087
  11 P :    0.565067
  12 S :   -0.315158
  13 O :   -0.250914
  14 C :   -0.117812
  15 C :   -0.358365
  16 O :   -0.240282
  17 C :   -0.116677
  18 C :   -0.352906
  19 H :    0.126015
  20 H :    0.118376
  21 H :    0.129873
  22 H :    0.107152
  23 H :    0.118230
  24 H :    0.110403
  25 H :    0.120963
  26 H :    0.126397
  27 H :    0.121321
  28 H :    0.129763
  29 H :    0.136426
  30 H :    0.123458
  31 H :    0.116575
  32 H :    0.109490
  33 H :    0.129016
  34 H :    0.125279
  35 H :    0.123948
  36 H :    0.110479
  37 H :    0.108812
  38 H :    0.124189
  39 H :    0.125797
  40 H :    0.129086

  Mayer bond orders larger than 0.100000
B(  0-C ,  1-C ) :   1.1639 B(  0-C , 19-H ) :   0.9425 B(  0-C , 20-H ) :   0.9391
B(  0-C , 21-H ) :   0.9380 B(  1-C ,  2-O ) :   0.9233 B(  1-C , 22-H ) :   0.9143
B(  1-C , 23-H ) :   0.9339 B(  2-O ,  3-P ) :   1.0899 B(  3-P ,  4-S ) :   1.5633
B(  3-P ,  5-O ) :   1.1498 B(  3-P ,  8-S ) :   0.9611 B(  4-S ,  8-S ) :   0.1160
B(  5-O ,  6-C ) :   0.9020 B(  6-C ,  7-C ) :   1.1633 B(  6-C , 24-H ) :   0.9171
B(  6-C , 25-H ) :   0.9360 B(  7-C , 26-H ) :   0.9446 B(  7-C , 27-H ) :   0.9356
B(  7-C , 28-H ) :   0.9380 B(  8-S ,  9-C ) :   1.0046 B(  9-C , 10-S ) :   0.9972
B(  9-C , 29-H ) :   0.9090 B(  9-C , 30-H ) :   0.8499 B( 10-S , 11-P ) :   0.9798
B( 10-S , 12-S ) :   0.1145 B( 11-P , 12-S ) :   1.6198 B( 11-P , 13-O ) :   1.1031
B( 11-P , 16-O ) :   1.1310 B( 13-O , 14-C ) :   0.9007 B( 14-C , 15-C ) :   1.1669
B( 14-C , 31-H ) :   0.9339 B( 14-C , 32-H ) :   0.9095 B( 15-C , 33-H ) :   0.9407
B( 15-C , 34-H ) :   0.9408 B( 15-C , 35-H ) :   0.9488 B( 16-O , 17-C ) :   0.8909
B( 17-C , 18-C ) :   1.1654 B( 17-C , 36-H ) :   0.9309 B( 17-C , 37-H ) :   0.9090
B( 18-C , 38-H ) :   0.9443 B( 18-C , 39-H ) :   0.9489 B( 18-C , 40-H ) :   0.9410

Dispersion correction           -0.066639746
FINAL SINGLE POINT ENERGY     -2929.520427996755

DIPOLE MOMENT
-------------

Method             : SCF
Type of density    : Electron Density
Multiplicity       :   1
Irrep              :   0
Energy             : -2929.6377977397878567 Eh
Relativity type    :
Basis              : AO
                                X                 Y                 Z
Electronic contribution:     -0.974222492     -13.537964731       5.285296706
Nuclear contribution   :      1.026171869      13.762089402      -5.645766930
                        -----------------------------------------
Total Dipole Moment    :      0.051949377       0.224124670      -0.360470224
                        -----------------------------------------
Magnitude (a.u.)       :      0.427632305
Magnitude (Debye)      :      1.086954937

Rotational constants in cm-1:             0.011741             0.005264             0.005034
Rotational constants in MHz :           351.977628           157.804549           150.907531

                             ****ORCA TERMINATED NORMALLY****
TOTAL RUN TIME: 0 days 0 hours 0 minutes 21 seconds 38 msec
