                         Program Version 6.0.0  -   RELEASE  -
|  1> ! pbe def2-sv(p) def2/J RI DEFGRID1 loosescf d4 GCP(DFT/SV(P)) printgap
|  2> %output
|  3>     printlevel normal
|  4> end
|  5> * xyz 0 1
|  6> C 3.779003108 -0.4342825874 2.051823245
|  7> C 4.2276435637 -0.7693924891 0.6448677825
|  8> O 3.6096167108 0.0694945017 -0.3566611623
|  9> P 2.052406201 0.2725164638 -0.5967602041
| 10> S 1.7524391997 0.9211519476 -2.4159942515
| 11> O 1.5221775498 1.2252904737 0.5751348568
| 12> C 1.4578998279 2.6500608966 0.3923719985
| 13> C 2.8385008486 3.271646044 0.3612150385
| 14> S 1.2165271124 -1.5940998281 -0.0703055497
| 15> C -0.0213895543 -1.7745661732 -1.395429522
| 16> S -1.6613013248 -2.1853173727 -0.7590247824
| 17> P -2.0348776643 -0.3871565548 0.2814981227
| 18> S -1.5089989258 1.2590194036 -0.6626893388
| 19> O -1.3284238857 -0.7336147489 1.6544766757
| 20> C -1.6367425922 -0.1248554505 2.9276271204
| 21> C -1.1062790196 1.2910001525 3.0171949109
| 22> O -3.5692149269 -0.4366753347 0.687383472
| 23> C -4.606368051 0.0864835338 -0.1603454247
| 24> C -4.8052283088 -0.761796401 -1.3992763033
| 25> H 3.990435102 0.6068661451 2.2811231989
| 26> H 2.7089715136 -0.6097999575 2.153160415
| 27> H 4.3086467763 -1.0706494316 2.7538581729
| 28> H 4.0002722074 -1.8109510649 0.4043619777
| 29> H 5.2932081638 -0.5806984282 0.5044680034
| 30> H 0.9149564466 2.8588730215 -0.5356737332
| 31> H 0.868324836 3.0056857774 1.2385738024
| 32> H 3.4025967411 2.8673794031 -0.4793803773
| 33> H 2.7449951975 4.3462471933 0.2405120136
| 34> H 3.3728236293 3.0566019352 1.2828175186
| 35> H 0.2721162866 -2.6082074911 -2.028517606
| 36> H -0.0572471541 -0.8427541369 -1.967740794
| 37> H -2.7185184045 -0.1536643491 3.0740331269
| 38> H -1.1458631861 -0.7825990081 3.6469158526
| 39> H -0.0373138196 1.2984659313 2.8175045857
| 40> H -1.6013655662 1.9248354176 2.2826005134
| 41> H -1.2912866568 1.6852178823 4.0114179257
| 42> H -5.4916593433 0.0844842345 0.4768942672
| 43> H -4.3442391087 1.1135061361 -0.4345918245
| 44> H -4.9475496634 -1.8038761616 -1.124934974
| 45> H -5.6756583901 -0.4074772946 -1.9420147346
| 46> H -3.9320395994 -0.6867967439 -2.0460546202
| 47> *
| 48>
| 49>                          ****END OF INPUT****

CARTESIAN COORDINATES (ANGSTROEM)
---------------------------------
  C      3.779003   -0.434283    2.051823
  C      4.227644   -0.769392    0.644868
  O      3.609617    0.069495   -0.356661
  P      2.052406    0.272516   -0.596760
  S      1.752439    0.921152   -2.415994
  O      1.522178    1.225290    0.575135
  C      1.457900    2.650061    0.392372
  C      2.838501    3.271646    0.361215
  S      1.216527   -1.594100   -0.070306
  C     -0.021390   -1.774566   -1.395430
  S     -1.661301   -2.185317   -0.759025
  P     -2.034878   -0.387157    0.281498
  S     -1.508999    1.259019   -0.662689
  O     -1.328424   -0.733615    1.654477
  C     -1.636743   -0.124855    2.927627
  C     -1.106279    1.291000    3.017195
  O     -3.569215   -0.436675    0.687383
  C     -4.606368    0.086484   -0.160345
  C     -4.805228   -0.761796   -1.399276
  H      3.990435    0.606866    2.281123
  H      2.708972   -0.609800    2.153160
  H      4.308647   -1.070649    2.753858
  H      4.000272   -1.810951    0.404362
  H      5.293208   -0.580698    0.504468
  H      0.914956    2.858873   -0.535674
  H      0.868325    3.005686    1.238574
  H      3.402597    2.867379   -0.479380
  H      2.744995    4.346247    0.240512
  H      3.372824    3.056602    1.282818
  H      0.272116   -2.608207   -2.028518
  H     -0.057247   -0.842754   -1.967741
  H     -2.718518   -0.153664    3.074033
  H     -1.145863   -0.782599    3.646916
  H     -0.037314    1.298466    2.817505
  H     -1.601366    1.924835    2.282601
  H     -1.291287    1.685218    4.011418
  H     -5.491659    0.084484    0.476894
  H     -4.344239    1.113506   -0.434592
  H     -4.947550   -1.803876   -1.124935
  H     -5.675658   -0.407477   -1.942015
  H     -3.932040   -0.686797   -2.046055

 Total Charge           Charge          ....    0
 Multiplicity           Mult            ....    1
 Number of Electrons    NEL             ....  202
 Basis Dimension        Dim             ....  334

ORBITAL ENERGIES
----------------

  NO   OCC          E(Eh)            E(eV)
   0   2.0000     -88.041938     -2395.7429
   1   2.0000     -88.039718     -2395.6825
   2   2.0000     -87.983756     -2394.1597
   3   2.0000     -87.976432     -2393.9604
   4   2.0000     -76.426080     -2079.6594
   5   2.0000     -76.419584     -2079.4826
   6   2.0000     -18.797039      -511.4934
   7   2.0000     -18.787285      -511.2280
   8   2.0000     -18.785723      -511.1855
   9   2.0000     -18.782166      -511.0887
  10   2.0000      -9.956054      -270.9180
  11   2.0000      -9.954206      -270.8677
  12   2.0000      -9.953956      -270.8609
  13   2.0000      -9.952913      -270.8325
  14   2.0000      -9.940090      -270.4836
  15   2.0000      -9.890478      -269.1336
  16   2.0000      -9.884809      -268.9793
  17   2.0000      -9.881837      -268.8985
  18   2.0000      -9.877646      -268.7844
  19   2.0000      -7.687525      -209.1882
  20   2.0000      -7.684698      -209.1113
  21   2.0000      -7.628266      -207.5757
  22   2.0000      -7.621733      -207.3979
  23   2.0000      -6.423403      -174.7897
  24   2.0000      -6.417293      -174.6234
  25   2.0000      -5.715530      -155.5275
  26   2.0000      -5.712591      -155.4475
  27   2.0000      -5.712016      -155.4319
  28   2.0000      -5.709277      -155.3573
  29   2.0000      -5.704304      -155.2220
  30   2.0000      -5.701541      -155.1468
  31   2.0000      -5.657054      -153.9363
  32   2.0000      -5.650836      -153.7671
  33   2.0000      -5.649014      -153.7175
  34   2.0000      -5.648482      -153.7030
  35   2.0000      -5.642673      -153.5449
  36   2.0000      -5.641289      -153.5073
  37   2.0000      -4.646386      -126.4346
  38   2.0000      -4.644960      -126.3958
  39   2.0000      -4.643700      -126.3615
  40   2.0000      -4.640040      -126.2619
  41   2.0000      -4.638839      -126.2292
  42   2.0000      -4.637825      -126.2016
  43   2.0000      -0.988404       -26.8958
  44   2.0000      -0.976717       -26.5778
  45   2.0000      -0.944103       -25.6904
  46   2.0000      -0.937569       -25.5125
  47   2.0000      -0.762090       -20.7375
  48   2.0000      -0.719422       -19.5765
  49   2.0000      -0.707683       -19.2570
  50   2.0000      -0.689521       -18.7628
  51   2.0000      -0.687441       -18.7062
  52   2.0000      -0.672062       -18.2877
  53   2.0000      -0.649849       -17.6833
  54   2.0000      -0.632477       -17.2106
  55   2.0000      -0.598164       -16.2769
  56   2.0000      -0.589584       -16.0434
  57   2.0000      -0.578203       -15.7337
  58   2.0000      -0.571572       -15.5533
  59   2.0000      -0.557029       -15.1575
  60   2.0000      -0.499032       -13.5793
  61   2.0000      -0.489338       -13.3156
  62   2.0000      -0.471110       -12.8196
  63   2.0000      -0.468696       -12.7539
  64   2.0000      -0.453056       -12.3283
  65   2.0000      -0.451102       -12.2751
  66   2.0000      -0.435320       -11.8457
  67   2.0000      -0.431279       -11.7357
  68   2.0000      -0.424574       -11.5532
  69   2.0000      -0.412206       -11.2167
  70   2.0000      -0.410113       -11.1598
  71   2.0000      -0.406842       -11.0707
  72   2.0000      -0.401239       -10.9183
  73   2.0000      -0.384022       -10.4498
  74   2.0000      -0.376767       -10.2523
  75   2.0000      -0.368337       -10.0230
  76   2.0000      -0.364941        -9.9306
  77   2.0000      -0.355545        -9.6749
  78   2.0000      -0.354136        -9.6365
  79   2.0000      -0.350439        -9.5359
  80   2.0000      -0.348224        -9.4757
  81   2.0000      -0.342598        -9.3226
  82   2.0000      -0.340041        -9.2530
  83   2.0000      -0.335870        -9.1395
  84   2.0000      -0.331323        -9.0157
  85   2.0000      -0.316200        -8.6043
  86   2.0000      -0.307132        -8.3575
  87   2.0000      -0.302708        -8.2371
  88   2.0000      -0.296570        -8.0701
  89   2.0000      -0.288719        -7.8564
  90   2.0000      -0.275957        -7.5092
  91   2.0000      -0.272017        -7.4019
  92   2.0000      -0.267909        -7.2902
  93   2.0000      -0.260629        -7.0921
  94   2.0000      -0.257004        -6.9934
  95   2.0000      -0.232687        -6.3317
  96   2.0000      -0.215737        -5.8705
  97   2.0000      -0.211831        -5.7642
  98   2.0000      -0.198918        -5.4128
  99   2.0000      -0.191386        -5.2079
 100   2.0000      -0.184098        -5.0096
 101   0.0000      -0.043482        -1.1832
 102   0.0000      -0.029271        -0.7965
 103   0.0000      -0.009300        -0.2531
 104   0.0000       0.011706         0.3185
 105   0.0000       0.022278         0.6062

MULLIKEN ATOMIC CHARGES
-----------------------
   0 C :   -0.330031
   1 C :   -0.009665
   2 O :   -0.375398
   3 P :    0.620360
   4 S :   -0.305919
   5 O :   -0.376532
   6 C :   -0.017208
   7 C :   -0.308413
   8 S :   -0.110745
   9 C :   -0.351154
  10 S :   -0.086931
  11 P :    0.625728
  12 S :   -0.316884
  13 O :   -0.360407
  14 C :    0.000213
  15 C :   -0.331645
  16 O :   -0.380335
  17 C :   -0.003919
  18 C :   -0.319245
  19 H :    0.124394
  20 H :    0.137127
  21 H :    0.114116
  22 H :    0.115373
  23 H :    0.111857
  24 H :    0.125587
  25 H :    0.101965
  26 H :    0.129492
  27 H :    0.109268
  28 H :    0.110614
  29 H :    0.183425
  30 H :    0.212703
  31 H :    0.106912
  32 H :    0.105545
  33 H :    0.139004
  34 H :    0.126060
  35 H :    0.105415
  36 H :    0.103521
  37 H :    0.111530
  38 H :    0.117671
  39 H :    0.114909
  40 H :    0.131645
Sum of atomic charges:    0.0000000

LOEWDIN ATOMIC CHARGES
----------------------
   0 C :   -0.368813
   1 C :   -0.118046
   2 O :   -0.246961
   3 P :    0.575135
   4 S :   -0.299869
   5 O :   -0.247109
   6 C :   -0.125659
   7 C :   -0.366115
   8 S :    0.079727
   9 C :   -0.477197
  10 S :    0.087862
  11 P :    0.568512
  12 S :   -0.297923
  13 O :   -0.240974
  14 C :   -0.107618
  15 C :   -0.369127
  16 O :   -0.244571
  17 C :   -0.120659
  18 C :   -0.369550
  19 H :    0.126534
  20 H :    0.120889
  21 H :    0.131810
  22 H :    0.109753
  23 H :    0.123039
  24 H :    0.108786
  25 H :    0.113974
  26 H :    0.124891
  27 H :    0.129883
  28 H :    0.118933
  29 H :    0.137396
  30 H :    0.125922
  31 H :    0.111353
  32 H :    0.119801
  33 H :    0.129712
  34 H :    0.121455
  35 H :    0.126715
  36 H :    0.117637
  37 H :    0.110355
  38 H :    0.124642
  39 H :    0.132227
  40 H :    0.123248

  Mayer bond orders larger than 0.100000
B(  0-C ,  1-C ) :   1.1637 B(  0-C , 19-H ) :   0.9417 B(  0-C , 20-H ) :   0.9343
B(  0-C , 21-H ) :   0.9350 B(  1-C ,  2-O ) :   0.9134 B(  1-C , 22-H ) :   0.9197
B(  1-C , 23-H ) :   0.9342 B(  2-O ,  3-P ) :   1.1029 B(  3-P ,  4-S ) :   1.6253
B(  3-P ,  5-O ) :   1.0794 B(  3-P ,  8-S ) :   0.9654 B(  4-S ,  8-S ) :   0.1091
B(  5-O ,  6-C ) :   0.9045 B(  6-C ,  7-C ) :   1.1590 B(  6-C , 24-H ) :   0.9092
B(  6-C , 25-H ) :   0.9290 B(  7-C , 26-H ) :   0.9331 B(  7-C , 27-H ) :   0.9392
B(  7-C , 28-H ) :   0.9427 B(  8-S ,  9-C ) :   0.9985 B(  9-C , 10-S ) :   1.0090
B(  9-C , 29-H ) :   0.9110 B(  9-C , 30-H ) :   0.8441 B( 10-S , 11-P ) :   0.9475
B( 10-S , 12-S ) :   0.1154 B( 11-P , 12-S ) :   1.6233 B( 11-P , 13-O ) :   1.1261
B( 11-P , 16-O ) :   1.0891 B( 13-O , 14-C ) :   0.9108 B( 14-C , 15-C ) :   1.1646
B( 14-C , 31-H ) :   0.9274 B( 14-C , 32-H ) :   0.9354 B( 15-C , 33-H ) :   0.9334
B( 15-C , 34-H ) :   0.9347 B( 15-C , 35-H ) :   0.9357 B( 16-O , 17-C ) :   0.9058
B( 17-C , 18-C ) :   1.1666 B( 17-C , 36-H ) :   0.9328 B( 17-C , 37-H ) :   0.9120
B( 18-C , 38-H ) :   0.9454 B( 18-C , 39-H ) :   0.9379 B( 18-C , 40-H ) :   0.9343

Dispersion correction           -0.068184734
FINAL SINGLE POINT ENERGY     -2929.514069723182

DIPOLE MOMENT
-------------

Method             : SCF
Type of density    : Electron Density
Multiplicity       :   1
Irrep              :   0
Energy             : -2929.6325613961121235 Eh
Relativity type    :
Basis              : AO
                                X                 Y                 Z
Electronic contribution:     -0.950019438     -11.153915086     -14.364387414
Nuclear contribution   :      0.589003486      10.930809437      16.015141205
                        -----------------------------------------
Total Dipole Moment    :     -0.361015952      -0.223105649       1.650753791
                        -----------------------------------------
Magnitude (a.u.)       :      1.704434430
Magnitude (Debye)      :      4.332328026

Rotational constants in cm-1:             0.012310             0.005501             0.005285
Rotational constants in MHz :           369.048080           164.912305           158.438459

                             ****ORCA TERMINATED NORMALLY****
TOTAL RUN TIME: 0 days 0 hours 0 minutes 21 seconds 887 msec
