                         Program Version 6.0.0  -   RELEASE  -
|  1> ! pbe def2-sv(p) def2/J RI DEFGRID1 loosescf d4 GCP(DFT/SV(P)) printgap
|  2> %output
|  3>     printlevel normal
|  4> end
|  5> * xyz 0 1
|  6> C 2.1349047294 -2.118790682 2.6745712869
|  7> C 1.2254402714 -1.7054308382 1.5342853542
|  8> O 1.4172627918 -0.3108193982 1.2429168598
|  9> P 2.1670510923 0.2603697891 -0.0430860428
| 10> S 3.1598259402 -1.0867336332 -1.0683315996
| 11> O 2.9327083427 1.5172640095 0.542184557
| 12> C 3.8771430779 1.4347580082 1.6323626029
| 13> C 5.2378316202 0.9569885761 1.1649279354
| 14> S 0.7617087915 1.4190421977 -1.1175053597
| 15> C 0.2157749721 0.112834197 -2.2513479154
| 16> S -0.5228712436 -1.2941806218 -1.3767447772
| 17> P -2.1141865136 -0.2326208454 -0.4753526028
| 18> S -2.9062256263 1.2231003884 -1.5263005774
| 19> O -1.6252712198 0.1967880759 0.9804077823
| 20> C -1.5034032413 1.5524048741 1.4432087127
| 21> C -2.6269294256 1.86584376 2.4114810783
| 22> O -2.9674383252 -1.5329242323 -0.1755919889
| 23> C -4.1139684752 -1.5427451792 0.7035695458
| 24> C -5.3622444921 -1.0397658327 0.0056598089
| 25> H 1.9350163682 -3.1544424599 2.9293360419
| 26> H 3.1758049395 -2.0248127494 2.3712745654
| 27> H 1.9574988298 -1.4941070945 3.5458576925
| 28> H 0.1704383471 -1.810376804 1.7960633962
| 29> H 1.4365907221 -2.293837739 0.635562327
| 30> H 3.924961652 2.4576201299 2.0104050642
| 31> H 3.4706057516 0.7753971945 2.4037236932
| 32> H 5.9304330432 0.9735893987 2.0005959434
| 33> H 5.1734972984 -0.0570843039 0.7750448442
| 34> H 5.6107670969 1.6045313092 0.3758864594
| 35> H 1.0682225547 -0.2777712376 -2.806175269
| 36> H -0.5196314631 0.5645949646 -2.9162820534
| 37> H -0.5239799426 1.6130822163 1.9222574767
| 38> H -1.5302560558 2.2307527085 0.5844231501
| 39> H -3.5839107819 1.8214903911 1.8952527322
| 40> H -2.6288915193 1.1539549313 3.2324015209
| 41> H -2.4861815646 2.8669788293 2.8055379116
| 42> H -4.214340499 -2.5922136794 0.9863750309
| 43> H -3.8871969971 -0.9428151358 1.5888383929
| 44> H -5.2435880386 0.0018945099 -0.286002696
| 45> H -5.5526024932 -1.6268432126 -0.8886814257
| 46> H -6.209125071 -1.1263439247 0.6790562035
| 47> *
| 48>
| 49>                          ****END OF INPUT****

CARTESIAN COORDINATES (ANGSTROEM)
---------------------------------
  C      2.134905   -2.118791    2.674571
  C      1.225440   -1.705431    1.534285
  O      1.417263   -0.310819    1.242917
  P      2.167051    0.260370   -0.043086
  S      3.159826   -1.086734   -1.068332
  O      2.932708    1.517264    0.542185
  C      3.877143    1.434758    1.632363
  C      5.237832    0.956989    1.164928
  S      0.761709    1.419042   -1.117505
  C      0.215775    0.112834   -2.251348
  S     -0.522871   -1.294181   -1.376745
  P     -2.114187   -0.232621   -0.475353
  S     -2.906226    1.223100   -1.526301
  O     -1.625271    0.196788    0.980408
  C     -1.503403    1.552405    1.443209
  C     -2.626929    1.865844    2.411481
  O     -2.967438   -1.532924   -0.175592
  C     -4.113968   -1.542745    0.703570
  C     -5.362244   -1.039766    0.005660
  H      1.935016   -3.154442    2.929336
  H      3.175805   -2.024813    2.371275
  H      1.957499   -1.494107    3.545858
  H      0.170438   -1.810377    1.796063
  H      1.436591   -2.293838    0.635562
  H      3.924962    2.457620    2.010405
  H      3.470606    0.775397    2.403724
  H      5.930433    0.973589    2.000596
  H      5.173497   -0.057084    0.775045
  H      5.610767    1.604531    0.375886
  H      1.068223   -0.277771   -2.806175
  H     -0.519631    0.564595   -2.916282
  H     -0.523980    1.613082    1.922257
  H     -1.530256    2.230753    0.584423
  H     -3.583911    1.821490    1.895253
  H     -2.628892    1.153955    3.232402
  H     -2.486182    2.866979    2.805538
  H     -4.214340   -2.592214    0.986375
  H     -3.887197   -0.942815    1.588838
  H     -5.243588    0.001895   -0.286003
  H     -5.552602   -1.626843   -0.888681
  H     -6.209125   -1.126344    0.679056

 Total Charge           Charge          ....    0
 Multiplicity           Mult            ....    1
 Number of Electrons    NEL             ....  202
 Basis Dimension        Dim             ....  334

ORBITAL ENERGIES
----------------

  NO   OCC          E(Eh)            E(eV)
   0   2.0000     -88.041008     -2395.7176
   1   2.0000     -88.040978     -2395.7168
   2   2.0000     -87.989631     -2394.3196
   3   2.0000     -87.989527     -2394.3167
   4   2.0000     -76.428160     -2079.7160
   5   2.0000     -76.428138     -2079.7154
   6   2.0000     -18.795630      -511.4551
   7   2.0000     -18.795611      -511.4546
   8   2.0000     -18.793475      -511.3965
   9   2.0000     -18.793381      -511.3939
  10   2.0000      -9.959782      -271.0194
  11   2.0000      -9.959709      -271.0175
  12   2.0000      -9.951859      -270.8038
  13   2.0000      -9.947240      -270.6781
  14   2.0000      -9.947236      -270.6781
  15   2.0000      -9.887434      -269.0507
  16   2.0000      -9.887266      -269.0462
  17   2.0000      -9.884879      -268.9812
  18   2.0000      -9.884607      -268.9738
  19   2.0000      -7.685804      -209.1414
  20   2.0000      -7.685779      -209.1407
  21   2.0000      -7.634546      -207.7466
  22   2.0000      -7.634443      -207.7438
  23   2.0000      -6.425542      -174.8479
  24   2.0000      -6.425524      -174.8474
  25   2.0000      -5.713749      -155.4790
  26   2.0000      -5.713727      -155.4784
  27   2.0000      -5.710430      -155.3887
  28   2.0000      -5.710388      -155.3876
  29   2.0000      -5.702604      -155.1757
  30   2.0000      -5.702599      -155.1756
  31   2.0000      -5.663371      -154.1082
  32   2.0000      -5.663265      -154.1053
  33   2.0000      -5.655435      -153.8922
  34   2.0000      -5.655303      -153.8886
  35   2.0000      -5.654535      -153.8677
  36   2.0000      -5.654463      -153.8658
  37   2.0000      -4.648319      -126.4872
  38   2.0000      -4.648292      -126.4864
  39   2.0000      -4.647040      -126.4524
  40   2.0000      -4.647010      -126.4516
  41   2.0000      -4.646109      -126.4270
  42   2.0000      -4.646092      -126.4266
  43   2.0000      -0.989130       -26.9156
  44   2.0000      -0.987968       -26.8840
  45   2.0000      -0.946115       -25.7451
  46   2.0000      -0.944722       -25.7072
  47   2.0000      -0.765416       -20.8280
  48   2.0000      -0.726070       -19.7574
  49   2.0000      -0.710064       -19.3218
  50   2.0000      -0.689503       -18.7623
  51   2.0000      -0.689222       -18.7547
  52   2.0000      -0.671431       -18.2706
  53   2.0000      -0.653155       -17.7732
  54   2.0000      -0.640171       -17.4199
  55   2.0000      -0.599956       -16.3256
  56   2.0000      -0.590958       -16.0808
  57   2.0000      -0.577782       -15.7223
  58   2.0000      -0.577644       -15.7185
  59   2.0000      -0.559261       -15.2183
  60   2.0000      -0.505341       -13.7510
  61   2.0000      -0.496507       -13.5107
  62   2.0000      -0.479487       -13.0475
  63   2.0000      -0.477508       -12.9936
  64   2.0000      -0.460545       -12.5321
  65   2.0000      -0.448485       -12.2039
  66   2.0000      -0.438950       -11.9444
  67   2.0000      -0.431736       -11.7481
  68   2.0000      -0.429977       -11.7003
  69   2.0000      -0.413256       -11.2453
  70   2.0000      -0.409571       -11.1450
  71   2.0000      -0.393841       -10.7170
  72   2.0000      -0.390113       -10.6155
  73   2.0000      -0.382502       -10.4084
  74   2.0000      -0.378099       -10.2886
  75   2.0000      -0.376479       -10.2445
  76   2.0000      -0.375996       -10.2314
  77   2.0000      -0.357083        -9.7167
  78   2.0000      -0.354805        -9.6547
  79   2.0000      -0.353000        -9.6056
  80   2.0000      -0.352357        -9.5881
  81   2.0000      -0.350860        -9.5474
  82   2.0000      -0.342188        -9.3114
  83   2.0000      -0.340133        -9.2555
  84   2.0000      -0.335261        -9.1229
  85   2.0000      -0.325690        -8.8625
  86   2.0000      -0.310610        -8.4521
  87   2.0000      -0.296278        -8.0621
  88   2.0000      -0.295514        -8.0414
  89   2.0000      -0.292694        -7.9646
  90   2.0000      -0.290085        -7.8936
  91   2.0000      -0.280853        -7.6424
  92   2.0000      -0.278847        -7.5878
  93   2.0000      -0.269537        -7.3345
  94   2.0000      -0.259725        -7.0675
  95   2.0000      -0.233704        -6.3594
  96   2.0000      -0.216535        -5.8922
  97   2.0000      -0.215858        -5.8738
  98   2.0000      -0.207230        -5.6390
  99   2.0000      -0.199807        -5.4370
 100   2.0000      -0.198040        -5.3889
 101   0.0000      -0.046522        -1.2659
 102   0.0000      -0.027436        -0.7466
 103   0.0000       0.003880         0.1056
 104   0.0000       0.004921         0.1339
 105   0.0000       0.010185         0.2771

MULLIKEN ATOMIC CHARGES
-----------------------
   0 C :   -0.288101
   1 C :   -0.018072
   2 O :   -0.381012
   3 P :    0.647483
   4 S :   -0.329369
   5 O :   -0.377224
   6 C :   -0.017664
   7 C :   -0.305527
   8 S :   -0.088234
   9 C :   -0.354979
  10 S :   -0.088287
  11 P :    0.647172
  12 S :   -0.329256
  13 O :   -0.380875
  14 C :   -0.018721
  15 C :   -0.287341
  16 O :   -0.377561
  17 C :   -0.017177
  18 C :   -0.304059
  19 H :    0.112586
  20 H :    0.113641
  21 H :    0.112619
  22 H :    0.103325
  23 H :    0.120056
  24 H :    0.109489
  25 H :    0.107629
  26 H :    0.108539
  27 H :    0.132707
  28 H :    0.121289
  29 H :    0.193468
  30 H :    0.193367
  31 H :    0.103317
  32 H :    0.120580
  33 H :    0.113311
  34 H :    0.112486
  35 H :    0.112446
  36 H :    0.109309
  37 H :    0.107170
  38 H :    0.132342
  39 H :    0.120783
  40 H :    0.108341
Sum of atomic charges:    0.0000000

LOEWDIN ATOMIC CHARGES
----------------------
   0 C :   -0.358342
   1 C :   -0.129070
   2 O :   -0.240263
   3 P :    0.567889
   4 S :   -0.313753
   5 O :   -0.246565
   6 C :   -0.112028
   7 C :   -0.365101
   8 S :    0.101123
   9 C :   -0.481190
  10 S :    0.100930
  11 P :    0.567936
  12 S :   -0.313876
  13 O :   -0.240417
  14 C :   -0.129008
  15 C :   -0.358489
  16 O :   -0.246703
  17 C :   -0.111789
  18 C :   -0.364816
  19 H :    0.131309
  20 H :    0.122329
  21 H :    0.121835
  22 H :    0.111550
  23 H :    0.104795
  24 H :    0.121095
  25 H :    0.109742
  26 H :    0.128914
  27 H :    0.122910
  28 H :    0.130126
  29 H :    0.132338
  30 H :    0.132348
  31 H :    0.111728
  32 H :    0.104834
  33 H :    0.122148
  34 H :    0.121749
  35 H :    0.131260
  36 H :    0.120992
  37 H :    0.109689
  38 H :    0.123103
  39 H :    0.129899
  40 H :    0.128838

  Mayer bond orders larger than 0.100000
B(  0-C ,  1-C ) :   1.1627 B(  0-C , 19-H ) :   0.9408 B(  0-C , 20-H ) :   0.9419
B(  0-C , 21-H ) :   0.9462 B(  1-C ,  2-O ) :   0.9002 B(  1-C , 22-H ) :   0.9266
B(  1-C , 23-H ) :   0.9001 B(  2-O ,  3-P ) :   1.0825 B(  3-P ,  4-S ) :   1.6125
B(  3-P ,  5-O ) :   1.1214 B(  3-P ,  8-S ) :   0.9469 B(  4-S ,  8-S ) :   0.1075
B(  5-O ,  6-C ) :   0.9086 B(  6-C ,  7-C ) :   1.1667 B(  6-C , 24-H ) :   0.9356
B(  6-C , 25-H ) :   0.9199 B(  7-C , 26-H ) :   0.9383 B(  7-C , 27-H ) :   0.9333
B(  7-C , 28-H ) :   0.9462 B(  8-S ,  9-C ) :   1.0003 B(  9-C , 10-S ) :   1.0003
B(  9-C , 29-H ) :   0.8863 B(  9-C , 30-H ) :   0.8865 B( 10-S , 11-P ) :   0.9464
B( 10-S , 12-S ) :   0.1075 B( 11-P , 12-S ) :   1.6120 B( 11-P , 13-O ) :   1.0831
B( 11-P , 16-O ) :   1.1213 B( 13-O , 14-C ) :   0.9001 B( 14-C , 15-C ) :   1.1630
B( 14-C , 31-H ) :   0.9269 B( 14-C , 32-H ) :   0.9004 B( 15-C , 33-H ) :   0.9415
B( 15-C , 34-H ) :   0.9460 B( 15-C , 35-H ) :   0.9407 B( 16-O , 17-C ) :   0.9081
B( 17-C , 18-C ) :   1.1667 B( 17-C , 36-H ) :   0.9357 B( 17-C , 37-H ) :   0.9194
B( 18-C , 38-H ) :   0.9334 B( 18-C , 39-H ) :   0.9464 B( 18-C , 40-H ) :   0.9385

Dispersion correction           -0.066964477
FINAL SINGLE POINT ENERGY     -2929.527332337283

DIPOLE MOMENT
-------------

Method             : SCF
Type of density    : Electron Density
Multiplicity       :   1
Irrep              :   0
Energy             : -2929.6458807510493898 Eh
Relativity type    :
Basis              : AO
                                X                 Y                 Z
Electronic contribution:      2.243205140       1.189212439     -22.734454883
Nuclear contribution   :     -2.434782461      -1.288388607      24.704323460
                        -----------------------------------------
Total Dipole Moment    :     -0.191577321      -0.099176168       1.969868577
                        -----------------------------------------
Magnitude (a.u.)       :      1.981645779
Magnitude (Debye)      :      5.036943278

Rotational constants in cm-1:             0.013559             0.004943             0.004833
Rotational constants in MHz :           406.489666           148.182985           144.902406

                             ****ORCA TERMINATED NORMALLY****
TOTAL RUN TIME: 0 days 0 hours 0 minutes 21 seconds 478 msec
