                         Program Version 6.0.0  -   RELEASE  -
|  1> ! pbe def2-sv(p) def2/J RI DEFGRID1 loosescf d4 GCP(DFT/SV(P)) printgap
|  2> %output
|  3>     printlevel normal
|  4> end
|  5> * xyz 0 1
|  6> C 2.7389978982 0.0347572732 -3.3597515782
|  7> C 3.1296760138 -0.2949428627 -1.9342118147
|  8> O 2.2448946484 0.445181324 -1.0533714224
|  9> P 2.0414682217 0.1043485753 0.4697581465
| 10> S 0.8409900193 1.4198344202 1.2787961097
| 11> O 3.5390689486 0.0783738054 1.0019271203
| 12> C 3.98367452 -0.5661317891 2.2115155853
| 13> C 3.1649786919 -0.1744847116 3.4231276248
| 14> S 1.5057318684 -1.9545308117 0.5732334551
| 15> C -0.0788252771 -1.910410083 -0.2996831456
| 16> S -1.4500009192 -1.2201006082 0.6796637761
| 17> P -2.0214509546 0.4026268782 -0.5819922029
| 18> S -0.9154572002 0.7152903486 -2.1612267248
| 19> O -2.1680941462 1.6580804212 0.3501627934
| 20> C -2.9209896563 1.6414464103 1.5900757745
| 21> C -2.4804376488 2.8346428174 2.4101109201
| 22> O -3.5596355607 0.1105626471 -0.9084648809
| 23> C -4.0006177069 -0.6841856025 -2.0217792156
| 24> C -3.5885770187 -2.1374455834 -1.9007159184
| 25> H 3.3520789712 -0.5441517673 -4.0424538798
| 26> H 1.6894019557 -0.1976474897 -3.5251176232
| 27> H 2.8828964494 1.094253675 -3.5508976086
| 28> H 4.1528394633 0.0143468506 -1.7129820521
| 29> H 3.0206631963 -1.3630921585 -1.7236792058
| 30> H 3.9449233283 -1.6470338283 2.0510386133
| 31> H 5.0210727525 -0.2408413889 2.3075098111
| 32> H 2.1358828415 -0.5123378966 3.3058742312
| 33> H 3.5899345727 -0.6341260687 4.3095392959
| 34> H 3.1578265244 0.9064275635 3.5435754288
| 35> H -0.3131199025 -2.9499202618 -0.5146141467
| 36> H 0.0200677225 -1.3188153871 -1.2151307417
| 37> H -3.9818596239 1.6870425575 1.3351869523
| 38> H -2.7099356796 0.7035782884 2.1124788592
| 39> H -2.6879183263 3.7552338892 1.8725072521
| 40> H -3.0128001208 2.8355722843 3.3554264616
| 41> H -1.4101383261 2.7740725681 2.594842774
| 42> H -5.0855373458 -0.5705861838 -2.0036748397
| 43> H -3.5958131112 -0.2444959064 -2.938662142
| 44> H -3.8769764988 -2.5335447279 -0.9303330711
| 45> H -4.0743962053 -2.7108257828 -2.6836292987
| 46> H -2.5098153402 -2.2273818344 -2.017086799
| 47> *
| 48>
| 49>                          ****END OF INPUT****

CARTESIAN COORDINATES (ANGSTROEM)
---------------------------------
  C      2.738998    0.034757   -3.359752
  C      3.129676   -0.294943   -1.934212
  O      2.244895    0.445181   -1.053371
  P      2.041468    0.104349    0.469758
  S      0.840990    1.419834    1.278796
  O      3.539069    0.078374    1.001927
  C      3.983675   -0.566132    2.211516
  C      3.164979   -0.174485    3.423128
  S      1.505732   -1.954531    0.573233
  C     -0.078825   -1.910410   -0.299683
  S     -1.450001   -1.220101    0.679664
  P     -2.021451    0.402627   -0.581992
  S     -0.915457    0.715290   -2.161227
  O     -2.168094    1.658080    0.350163
  C     -2.920990    1.641446    1.590076
  C     -2.480438    2.834643    2.410111
  O     -3.559636    0.110563   -0.908465
  C     -4.000618   -0.684186   -2.021779
  C     -3.588577   -2.137446   -1.900716
  H      3.352079   -0.544152   -4.042454
  H      1.689402   -0.197647   -3.525118
  H      2.882896    1.094254   -3.550898
  H      4.152839    0.014347   -1.712982
  H      3.020663   -1.363092   -1.723679
  H      3.944923   -1.647034    2.051039
  H      5.021073   -0.240841    2.307510
  H      2.135883   -0.512338    3.305874
  H      3.589935   -0.634126    4.309539
  H      3.157827    0.906428    3.543575
  H     -0.313120   -2.949920   -0.514614
  H      0.020068   -1.318815   -1.215131
  H     -3.981860    1.687043    1.335187
  H     -2.709936    0.703578    2.112479
  H     -2.687918    3.755234    1.872507
  H     -3.012800    2.835572    3.355426
  H     -1.410138    2.774073    2.594843
  H     -5.085537   -0.570586   -2.003675
  H     -3.595813   -0.244496   -2.938662
  H     -3.876976   -2.533545   -0.930333
  H     -4.074396   -2.710826   -2.683629
  H     -2.509815   -2.227382   -2.017087

 Total Charge           Charge          ....    0
 Multiplicity           Mult            ....    1
 Number of Electrons    NEL             ....  202
 Basis Dimension        Dim             ....  334

ORBITAL ENERGIES
----------------

  NO   OCC          E(Eh)            E(eV)
   0   2.0000     -88.043322     -2395.7806
   1   2.0000     -88.037329     -2395.6175
   2   2.0000     -87.983173     -2394.1439
   3   2.0000     -87.972579     -2393.8556
   4   2.0000     -76.420458     -2079.5064
   5   2.0000     -76.418992     -2079.4665
   6   2.0000     -18.787674      -511.2386
   7   2.0000     -18.783475      -511.1243
   8   2.0000     -18.782533      -511.0987
   9   2.0000     -18.781309      -511.0654
  10   2.0000      -9.957399      -270.9546
  11   2.0000      -9.957026      -270.9445
  12   2.0000      -9.951203      -270.7860
  13   2.0000      -9.949056      -270.7276
  14   2.0000      -9.948716      -270.7183
  15   2.0000      -9.884419      -268.9687
  16   2.0000      -9.881307      -268.8840
  17   2.0000      -9.880700      -268.8675
  18   2.0000      -9.879771      -268.8422
  19   2.0000      -7.688293      -209.2091
  20   2.0000      -7.682170      -209.0425
  21   2.0000      -7.628357      -207.5781
  22   2.0000      -7.617575      -207.2848
  23   2.0000      -6.417852      -174.6386
  24   2.0000      -6.416245      -174.5949
  25   2.0000      -5.715926      -155.5383
  26   2.0000      -5.712653      -155.4492
  27   2.0000      -5.710040      -155.3781
  28   2.0000      -5.706802      -155.2900
  29   2.0000      -5.705669      -155.2591
  30   2.0000      -5.699048      -155.0790
  31   2.0000      -5.657201      -153.9403
  32   2.0000      -5.649169      -153.7217
  33   2.0000      -5.648301      -153.6981
  34   2.0000      -5.646664      -153.6535
  35   2.0000      -5.638043      -153.4190
  36   2.0000      -5.637717      -153.4101
  37   2.0000      -4.640511      -126.2747
  38   2.0000      -4.639441      -126.2456
  39   2.0000      -4.639187      -126.2387
  40   2.0000      -4.638439      -126.2183
  41   2.0000      -4.638430      -126.2181
  42   2.0000      -4.636012      -126.1523
  43   2.0000      -0.982121       -26.7249
  44   2.0000      -0.980245       -26.6738
  45   2.0000      -0.938608       -25.5408
  46   2.0000      -0.935436       -25.4545
  47   2.0000      -0.759308       -20.6618
  48   2.0000      -0.716903       -19.5079
  49   2.0000      -0.709270       -19.3002
  50   2.0000      -0.686851       -18.6902
  51   2.0000      -0.684770       -18.6335
  52   2.0000      -0.675012       -18.3680
  53   2.0000      -0.646529       -17.5929
  54   2.0000      -0.632590       -17.2136
  55   2.0000      -0.590353       -16.0643
  56   2.0000      -0.582674       -15.8554
  57   2.0000      -0.566832       -15.4243
  58   2.0000      -0.565740       -15.3946
  59   2.0000      -0.563436       -15.3319
  60   2.0000      -0.504767       -13.7354
  61   2.0000      -0.499585       -13.5944
  62   2.0000      -0.470081       -12.7915
  63   2.0000      -0.467687       -12.7264
  64   2.0000      -0.456275       -12.4159
  65   2.0000      -0.448946       -12.2164
  66   2.0000      -0.435238       -11.8434
  67   2.0000      -0.430883       -11.7249
  68   2.0000      -0.427445       -11.6314
  69   2.0000      -0.417649       -11.3648
  70   2.0000      -0.412431       -11.2228
  71   2.0000      -0.395912       -10.7733
  72   2.0000      -0.389318       -10.5939
  73   2.0000      -0.386027       -10.5043
  74   2.0000      -0.379739       -10.3332
  75   2.0000      -0.359918        -9.7939
  76   2.0000      -0.355128        -9.6635
  77   2.0000      -0.351125        -9.5546
  78   2.0000      -0.349906        -9.5214
  79   2.0000      -0.347406        -9.4534
  80   2.0000      -0.343000        -9.3335
  81   2.0000      -0.341369        -9.2891
  82   2.0000      -0.336669        -9.1612
  83   2.0000      -0.334483        -9.1017
  84   2.0000      -0.328032        -8.9262
  85   2.0000      -0.316799        -8.6205
  86   2.0000      -0.310681        -8.4541
  87   2.0000      -0.294866        -8.0237
  88   2.0000      -0.292586        -7.9617
  89   2.0000      -0.290190        -7.8965
  90   2.0000      -0.288521        -7.8511
  91   2.0000      -0.269348        -7.3293
  92   2.0000      -0.264152        -7.1879
  93   2.0000      -0.258890        -7.0448
  94   2.0000      -0.253785        -6.9058
  95   2.0000      -0.239070        -6.5054
  96   2.0000      -0.215645        -5.8680
  97   2.0000      -0.203136        -5.5276
  98   2.0000      -0.199948        -5.4409
  99   2.0000      -0.184142        -5.0108
 100   2.0000      -0.182983        -4.9792
 101   0.0000      -0.038163        -1.0385
 102   0.0000      -0.029193        -0.7944
 103   0.0000      -0.014000        -0.3810
 104   0.0000       0.001650         0.0449
 105   0.0000       0.020400         0.5551

MULLIKEN ATOMIC CHARGES
-----------------------
   0 C :   -0.285294
   1 C :   -0.013706
   2 O :   -0.347031
   3 P :    0.599426
   4 S :   -0.300994
   5 O :   -0.383887
   6 C :   -0.013163
   7 C :   -0.311087
   8 S :   -0.123939
   9 C :   -0.349979
  10 S :   -0.103430
  11 P :    0.614300
  12 S :   -0.296076
  13 O :   -0.349095
  14 C :   -0.017193
  15 C :   -0.285965
  16 O :   -0.388453
  17 C :    0.007002
  18 C :   -0.320407
  19 H :    0.105491
  20 H :    0.131656
  21 H :    0.122041
  22 H :    0.105293
  23 H :    0.094173
  24 H :    0.112653
  25 H :    0.109762
  26 H :    0.127908
  27 H :    0.109642
  28 H :    0.128496
  29 H :    0.182918
  30 H :    0.195889
  31 H :    0.107294
  32 H :    0.110222
  33 H :    0.119969
  34 H :    0.106729
  35 H :    0.139031
  36 H :    0.102183
  37 H :    0.108154
  38 H :    0.119715
  39 H :    0.110798
  40 H :    0.118954
Sum of atomic charges:    0.0000000

LOEWDIN ATOMIC CHARGES
----------------------
   0 C :   -0.352514
   1 C :   -0.117230
   2 O :   -0.228192
   3 P :    0.560681
   4 S :   -0.299525
   5 O :   -0.249492
   6 C :   -0.114564
   7 C :   -0.371190
   8 S :    0.060485
   9 C :   -0.482876
  10 S :    0.068168
  11 P :    0.574514
  12 S :   -0.285931
  13 O :   -0.226148
  14 C :   -0.112055
  15 C :   -0.351021
  16 O :   -0.257880
  17 C :   -0.116193
  18 C :   -0.370701
  19 H :    0.127275
  20 H :    0.127060
  21 H :    0.130605
  22 H :    0.113916
  23 H :    0.099338
  24 H :    0.107408
  25 H :    0.121608
  26 H :    0.121986
  27 H :    0.129149
  28 H :    0.130904
  29 H :    0.135150
  30 H :    0.119123
  31 H :    0.113984
  32 H :    0.106189
  33 H :    0.129491
  34 H :    0.128643
  35 H :    0.130314
  36 H :    0.117654
  37 H :    0.110176
  38 H :    0.124246
  39 H :    0.129483
  40 H :    0.117962

  Mayer bond orders larger than 0.100000
B(  0-C ,  1-C ) :   1.1627 B(  0-C , 19-H ) :   0.9408 B(  0-C , 20-H ) :   0.9451
B(  0-C , 21-H ) :   0.9492 B(  1-C ,  2-O ) :   0.8929 B(  1-C , 22-H ) :   0.9302
B(  1-C , 23-H ) :   0.9119 B(  2-O ,  3-P ) :   1.1359 B(  3-P ,  4-S ) :   1.6819
B(  3-P ,  5-O ) :   1.0758 B(  3-P ,  8-S ) :   0.9363 B(  4-S ,  8-S ) :   0.1132
B(  5-O ,  6-C ) :   0.9181 B(  6-C ,  7-C ) :   1.1670 B(  6-C , 24-H ) :   0.9268
B(  6-C , 25-H ) :   0.9336 B(  7-C , 26-H ) :   0.9314 B(  7-C , 27-H ) :   0.9340
B(  7-C , 28-H ) :   0.9416 B(  8-S ,  9-C ) :   0.9965 B(  9-C , 10-S ) :   1.0099
B(  9-C , 29-H ) :   0.9077 B(  9-C , 30-H ) :   0.8421 B( 10-S , 11-P ) :   0.9447
B( 10-S , 12-S ) :   0.1147 B( 11-P , 12-S ) :   1.6207 B( 11-P , 13-O ) :   1.1515
B( 11-P , 16-O ) :   1.0650 B( 12-S , 30-H ) :   0.1216 B( 13-O , 14-C ) :   0.8912
B( 14-C , 15-C ) :   1.1656 B( 14-C , 31-H ) :   0.9288 B( 14-C , 32-H ) :   0.9140
B( 15-C , 33-H ) :   0.9494 B( 15-C , 34-H ) :   0.9400 B( 15-C , 35-H ) :   0.9431
B( 16-O , 17-C ) :   0.9244 B( 17-C , 18-C ) :   1.1631 B( 17-C , 36-H ) :   0.9349
B( 17-C , 37-H ) :   0.9182 B( 18-C , 38-H ) :   0.9414 B( 18-C , 39-H ) :   0.9370
B( 18-C , 40-H ) :   0.9380

Dispersion correction           -0.066807053
FINAL SINGLE POINT ENERGY     -2929.510201870261

DIPOLE MOMENT
-------------

Method             : SCF
Type of density    : Electron Density
Multiplicity       :   1
Irrep              :   0
Energy             : -2929.6280314695350171 Eh
Relativity type    :
Basis              : AO
                                X                 Y                 Z
Electronic contribution:      0.332461268       2.698758991       0.186620400
Nuclear contribution   :     -0.289258142      -4.070588821       0.014591059
                        -----------------------------------------
Total Dipole Moment    :      0.043203125      -1.371829830       0.201211459
                        -----------------------------------------
Magnitude (a.u.)       :      1.387180465
Magnitude (Debye)      :      3.525932532

Rotational constants in cm-1:             0.010946             0.005812             0.004963
Rotational constants in MHz :           328.138841           174.224878           148.783419

                             ****ORCA TERMINATED NORMALLY****
TOTAL RUN TIME: 0 days 0 hours 0 minutes 21 seconds 26 msec
