                         Program Version 6.0.1  -  RELEASE   -
|  1> ! pbe def2-sv(p) def2/J RI DEFGRID1 loosescf d4 GCP(DFT/SV(P)) printgap
|  2> %output
|  3>     printlevel normal
|  4> end
|  5> * xyz 0 1
|  6> C 2.5131477383 -3.7454991535 0.5795156666
|  7> C 3.1919785301 -2.4169655608 0.8706120861
|  8> O 3.0712307006 -1.5155529163 -0.2489464675
|  9> C 1.9812622474 -0.8038696205 -0.3780270271
| 10> O 1.0536473874 -0.8246847215 0.4164330658
| 11> C 1.9905158872 0.0577250172 -1.6131961869
| 12> C 0.77878888 0.9727623089 -1.6379460477
| 13> H 0.7539669491 1.5655443645 -2.5558475831
| 14> C 0.7185321317 1.9195929524 -0.4500129914
| 15> O 1.5717493193 1.9656861607 0.4085396542
| 16> O -0.3484932814 2.6837606608 -0.5085203433
| 17> C -0.5523359666 3.6691638695 0.5211209313
| 18> C 0.113312044 4.9827254881 0.143948731
| 19> S -0.7961303994 0.0369116423 -1.7468157417
| 20> P -1.3611401126 -0.5908544702 0.2120150413
| 21> S -1.2430112671 -2.4838852446 0.7366637837
| 22> O -1.0296087093 0.5454306872 1.2764873672
| 23> C -0.3492575831 0.3049557844 2.5084189299
| 24> O -2.9209168322 -0.1889085505 0.1001053308
| 25> C -3.8059943647 -0.8942423936 -0.7683657308
| 26> H 1.4368237536 -3.611653238 0.4828240592
| 27> H 2.9016357973 -4.1718049468 -0.3410374767
| 28> H 2.7021875235 -4.4302651154 1.399447963
| 29> H 4.2675843689 -2.5381350825 0.9981761167
| 30> H 2.7527105778 -1.9430890096 1.7527174292
| 31> H 1.9898043959 -0.5895069478 -2.4918977398
| 32> H 2.9120509636 0.642650705 -1.6130801178
| 33> H -1.6357834893 3.7706135444 0.5888070664
| 34> H -0.1515699549 3.2805487152 1.4611287077
| 35> H -0.2535776113 5.323804549 -0.8199747972
| 36> H -0.1161706308 5.7274065536 0.8987933098
| 37> H 1.1920205314 4.8545852652 0.0903897631
| 38> H 0.6519232904 0.7331237388 2.4432068105
| 39> H -0.2795963562 -0.7666951238 2.7032696984
| 40> H -0.93228192 0.7942425546 3.2860234317
| 41> H -3.5713153966 -0.6689815211 -1.809868338
| 42> H -4.8044104368 -0.5458999237 -0.5165127897
| 43> H -3.7223063126 -1.9694373735 -0.5954181521
| 44> *
| 45>
| 46>                          ****END OF INPUT****

CARTESIAN COORDINATES (ANGSTROEM)
---------------------------------
  C      2.513148   -3.745499    0.579516
  C      3.191979   -2.416966    0.870612
  O      3.071231   -1.515553   -0.248946
  C      1.981262   -0.803870   -0.378027
  O      1.053647   -0.824685    0.416433
  C      1.990516    0.057725   -1.613196
  C      0.778789    0.972762   -1.637946
  H      0.753967    1.565544   -2.555848
  C      0.718532    1.919593   -0.450013
  O      1.571749    1.965686    0.408540
  O     -0.348493    2.683761   -0.508520
  C     -0.552336    3.669164    0.521121
  C      0.113312    4.982725    0.143949
  S     -0.796130    0.036912   -1.746816
  P     -1.361140   -0.590854    0.212015
  S     -1.243011   -2.483885    0.736664
  O     -1.029609    0.545431    1.276487
  C     -0.349258    0.304956    2.508419
  O     -2.920917   -0.188909    0.100105
  C     -3.805994   -0.894242   -0.768366
  H      1.436824   -3.611653    0.482824
  H      2.901636   -4.171805   -0.341037
  H      2.702188   -4.430265    1.399448
  H      4.267584   -2.538135    0.998176
  H      2.752711   -1.943089    1.752717
  H      1.989804   -0.589507   -2.491898
  H      2.912051    0.642651   -1.613080
  H     -1.635783    3.770614    0.588807
  H     -0.151570    3.280549    1.461129
  H     -0.253578    5.323805   -0.819975
  H     -0.116171    5.727407    0.898793
  H      1.192021    4.854585    0.090390
  H      0.651923    0.733124    2.443207
  H     -0.279596   -0.766695    2.703270
  H     -0.932282    0.794243    3.286023
  H     -3.571315   -0.668982   -1.809868
  H     -4.804410   -0.545900   -0.516513
  H     -3.722306   -1.969437   -0.595418

 Total Charge           Charge          ....    0
 Multiplicity           Mult            ....    1
 Number of Electrons    NEL             ....  174
 Basis Dimension        Dim             ....  316

ORBITAL ENERGIES
----------------

  NO   OCC          E(Eh)            E(eV)
   0   2.0000     -88.031862     -2395.4687
   1   2.0000     -87.965863     -2393.6728
   2   2.0000     -76.416882     -2079.4091
   3   2.0000     -18.812682      -511.9191
   4   2.0000     -18.806818      -511.7595
   5   2.0000     -18.782877      -511.1081
   6   2.0000     -18.764806      -510.6163
   7   2.0000     -18.755499      -510.3631
   8   2.0000     -18.745736      -510.0974
   9   2.0000     -10.023021      -272.7403
  10   2.0000     -10.021685      -272.7039
  11   2.0000      -9.954548      -270.8770
  12   2.0000      -9.950786      -270.7746
  13   2.0000      -9.949146      -270.7300
  14   2.0000      -9.929335      -270.1909
  15   2.0000      -9.927055      -270.1289
  16   2.0000      -9.919252      -269.9166
  17   2.0000      -9.890186      -269.1257
  18   2.0000      -9.879630      -268.8384
  19   2.0000      -7.676788      -208.8960
  20   2.0000      -7.611033      -207.1067
  21   2.0000      -6.412335      -174.4885
  22   2.0000      -5.705384      -155.2514
  23   2.0000      -5.701185      -155.1371
  24   2.0000      -5.693130      -154.9180
  25   2.0000      -5.640146      -153.4762
  26   2.0000      -5.631950      -153.2532
  27   2.0000      -5.630635      -153.2174
  28   2.0000      -4.635038      -126.1258
  29   2.0000      -4.634600      -126.1139
  30   2.0000      -4.632638      -126.0605
  31   2.0000      -1.023390       -27.8479
  32   2.0000      -1.016660       -27.6647
  33   2.0000      -0.969714       -26.3873
  34   2.0000      -0.931997       -25.3609
  35   2.0000      -0.923334       -25.1252
  36   2.0000      -0.921994       -25.0887
  37   2.0000      -0.766016       -20.8444
  38   2.0000      -0.717092       -19.5131
  39   2.0000      -0.702402       -19.1133
  40   2.0000      -0.686341       -18.6763
  41   2.0000      -0.654274       -17.8037
  42   2.0000      -0.623148       -16.9567
  43   2.0000      -0.614719       -16.7274
  44   2.0000      -0.606572       -16.5057
  45   2.0000      -0.600854       -16.3501
  46   2.0000      -0.565883       -15.3984
  47   2.0000      -0.509987       -13.8775
  48   2.0000      -0.503755       -13.7079
  49   2.0000      -0.498042       -13.5524
  50   2.0000      -0.486444       -13.2368
  51   2.0000      -0.467145       -12.7117
  52   2.0000      -0.459310       -12.4985
  53   2.0000      -0.443953       -12.0806
  54   2.0000      -0.438509       -11.9324
  55   2.0000      -0.436468       -11.8769
  56   2.0000      -0.429171       -11.6783
  57   2.0000      -0.413420       -11.2497
  58   2.0000      -0.409562       -11.1448
  59   2.0000      -0.400821       -10.9069
  60   2.0000      -0.396802       -10.7975
  61   2.0000      -0.394964       -10.7475
  62   2.0000      -0.388188       -10.5631
  63   2.0000      -0.381844       -10.3905
  64   2.0000      -0.378068       -10.2878
  65   2.0000      -0.371297       -10.1035
  66   2.0000      -0.363759        -9.8984
  67   2.0000      -0.354772        -9.6538
  68   2.0000      -0.346520        -9.4293
  69   2.0000      -0.337488        -9.1835
  70   2.0000      -0.333539        -9.0760
  71   2.0000      -0.328935        -8.9508
  72   2.0000      -0.323428        -8.8009
  73   2.0000      -0.309706        -8.4275
  74   2.0000      -0.300215        -8.1693
  75   2.0000      -0.295844        -8.0503
  76   2.0000      -0.289543        -7.8789
  77   2.0000      -0.280980        -7.6458
  78   2.0000      -0.267584        -7.2813
  79   2.0000      -0.264042        -7.1850
  80   2.0000      -0.258024        -7.0212
  81   2.0000      -0.244898        -6.6640
  82   2.0000      -0.240833        -6.5534
  83   2.0000      -0.229802        -6.2532
  84   2.0000      -0.212424        -5.7803
  85   2.0000      -0.186291        -5.0692
  86   2.0000      -0.174684        -4.7534
  87   0.0000      -0.048423        -1.3177
  88   0.0000      -0.041800        -1.1374
  89   0.0000      -0.021406        -0.5825
  90   0.0000      -0.007354        -0.2001
  91   0.0000       0.037425         1.0184

MULLIKEN ATOMIC CHARGES
-----------------------
   0 C :   -0.323112
   1 C :   -0.011797
   2 O :   -0.220339
   3 C :    0.155937
   4 O :   -0.215437
   5 C :   -0.048627
   6 C :   -0.305534
   7 H :    0.149102
   8 C :    0.199125
   9 O :   -0.198059
  10 O :   -0.217185
  11 C :   -0.012286
  12 C :   -0.301706
  13 S :   -0.103537
  14 P :    0.628059
  15 S :   -0.326621
  16 O :   -0.379865
  17 C :   -0.105702
  18 O :   -0.378401
  19 C :   -0.107673
  20 H :    0.152655
  21 H :    0.108954
  22 H :    0.111005
  23 H :    0.103787
  24 H :    0.112935
  25 H :    0.126916
  26 H :    0.126310
  27 H :    0.111698
  28 H :    0.113019
  29 H :    0.114934
  30 H :    0.114288
  31 H :    0.121071
  32 H :    0.130409
  33 H :    0.122481
  34 H :    0.114295
  35 H :    0.109246
  36 H :    0.118603
  37 H :    0.111051
Sum of atomic charges:   -0.0000000

LOEWDIN ATOMIC CHARGES
----------------------
   0 C :   -0.363125
   1 C :   -0.105748
   2 O :   -0.042540
   3 C :    0.055295
   4 O :   -0.160175
   5 C :   -0.251181
   6 C :   -0.260160
   7 H :    0.151799
   8 C :    0.011563
   9 O :   -0.159367
  10 O :   -0.045261
  11 C :   -0.107130
  12 C :   -0.355703
  13 S :    0.094523
  14 P :    0.592183
  15 S :   -0.325176
  16 O :   -0.234823
  17 C :   -0.219403
  18 O :   -0.266603
  19 C :   -0.224775
  20 H :    0.129632
  21 H :    0.123291
  22 H :    0.131221
  23 H :    0.118544
  24 H :    0.121679
  25 H :    0.148957
  26 H :    0.150908
  27 H :    0.122898
  28 H :    0.120315
  29 H :    0.125181
  30 H :    0.131328
  31 H :    0.128083
  32 H :    0.113284
  33 H :    0.109438
  34 H :    0.114935
  35 H :    0.102045
  36 H :    0.119056
  37 H :    0.105016

  Mayer bond orders larger than 0.100000
B(  0-C ,  1-C ) :   1.1758 B(  0-C , 20-H ) :   0.9222 B(  0-C , 21-H ) :   0.9468
B(  0-C , 22-H ) :   0.9419 B(  1-C ,  2-O ) :   0.9019 B(  1-C , 23-H ) :   0.9372
B(  1-C , 24-H ) :   0.9168 B(  2-O ,  3-C ) :   1.2746 B(  3-C ,  4-O ) :   1.8672
B(  3-C ,  5-C ) :   1.0153 B(  4-O , 14-P ) :   0.1355 B(  5-C ,  6-C ) :   1.0252
B(  5-C , 25-H ) :   0.8838 B(  5-C , 26-H ) :   0.8756 B(  6-C ,  7-H ) :   0.8751
B(  6-C ,  8-C ) :   0.8968 B(  6-C , 13-S ) :   1.0296 B(  8-C ,  9-O ) :   2.0253
B(  8-C , 10-O ) :   1.2575 B( 10-O , 11-C ) :   0.9075 B( 11-C , 12-C ) :   1.1705
B( 11-C , 27-H ) :   0.9370 B( 11-C , 28-H ) :   0.9144 B( 12-C , 29-H ) :   0.9483
B( 12-C , 30-H ) :   0.9449 B( 12-C , 31-H ) :   0.9470 B( 13-S , 14-P ) :   0.9361
B( 14-P , 15-S ) :   1.5871 B( 14-P , 16-O ) :   1.0910 B( 14-P , 18-O ) :   1.0585
B( 16-O , 17-C ) :   0.9197 B( 17-C , 32-H ) :   0.9393 B( 17-C , 33-H ) :   0.9267
B( 17-C , 34-H ) :   0.9528 B( 18-O , 19-C ) :   0.9543 B( 19-C , 35-H ) :   0.9425
B( 19-C , 36-H ) :   0.9604 B( 19-C , 37-H ) :   0.9299

Dispersion correction           -0.055329649
FINAL SINGLE POINT ENERGY     -1979.005473272344

DIPOLE MOMENT
-------------

Method             : SCF
Type of density    : Electron Density
Multiplicity       :   1
Irrep              :   0
Energy             : -1979.1369009280133469 Eh
Relativity type    :
Basis              : AO
                                X                 Y                 Z
Electronic contribution:     -6.155441321      -4.797768001      -5.211866058
Nuclear contribution   :      7.012847734       5.757898446       4.890867762
                        -----------------------------------------
Total Dipole Moment    :      0.857406413       0.960130445      -0.320998296
                        -----------------------------------------
Magnitude (a.u.)       :      1.326663535
Magnitude (Debye)      :      3.372110720

Rotational constants in cm-1:             0.012034             0.009257             0.006769
Rotational constants in MHz :           360.784126           277.523944           202.920999

                             ****ORCA TERMINATED NORMALLY****
TOTAL RUN TIME: 0 days 0 hours 0 minutes 45 seconds 436 msec
