                         Program Version 6.0.0  -   RELEASE  -
|  1> ! pbe def2-sv(p) def2/J RI DEFGRID1 loosescf d4 GCP(DFT/SV(P)) printgap
|  2> %output
|  3>     printlevel normal
|  4> end
|  5> * xyz 0 1
|  6> C 1.08955332 0.8193039685 2.9408522734
|  7> C 2.2575859698 1.0539462566 2.0044006141
|  8> O 2.7859123132 -0.1802321502 1.485459052
|  9> P 2.1570816802 -1.0189906368 0.2887568896
| 10> S 0.4513841771 -1.927040832 0.5968410566
| 11> O 3.2820994705 -2.0781483301 0.0048112504
| 12> C 4.6577791353 -1.7243890554 -0.2920921733
| 13> C 5.5149924386 -1.8103523652 0.9537804928
| 14> S 2.2425847676 0.3294728113 -1.3764636369
| 15> C 0.4851332421 0.4611172557 -1.7347719113
| 16> S -0.3862548635 1.4004763223 -0.4363223771
| 17> P -2.3455117456 0.6020773661 -0.705317557
| 18> S -2.4653128834 -1.03805236 -1.7668314272
| 19> O -3.1708722487 1.7596006583 -1.3836401004
| 20> C -3.0453730245 3.1817485578 -1.132821638
| 21> C -3.1714658078 3.5377185089 0.3320310012
| 22> O -2.9588298303 0.5508401105 0.7582520798
| 23> C -2.8271699819 -0.5715079069 1.6501115674
| 24> C -4.0897733306 -1.4100347215 1.6206467554
| 25> H 0.2518353695 0.3870960259 2.3977493292
| 26> H 1.3755891954 0.1356032135 3.7354687613
| 27> H 0.7812976379 1.7666419461 3.3705556041
| 28> H 3.1035100632 1.4993060761 2.5311130523
| 29> H 1.9627949903 1.6976006428 1.1693094163
| 30> H 4.9693672904 -2.4547175752 -1.0408829149
| 31> H 4.6796557317 -0.7207456293 -0.725448826
| 32> H 6.5466990676 -1.6015568439 0.6887125142
| 33> H 5.1798114416 -1.0894585132 1.6940645467
| 34> H 5.4487034163 -2.8069234916 1.3816327635
| 35> H 0.0336143913 -0.5325795861 -1.7989330778
| 36> H 0.4072916094 0.990543825 -2.6813615938
| 37> H -2.0819443972 3.5121767097 -1.529426063
| 38> H -3.8562085741 3.6080071823 -1.7252494667
| 39> H -2.3344574716 3.1232201802 0.8910129603
| 40> H -3.1649181508 4.6184711777 0.4349221276
| 41> H -4.0978269183 3.1414952843 0.7388572915
| 42> H -1.9593872396 -1.1742168094 1.3683582767
| 43> H -2.6637199485 -0.1320379633 2.6360503559
| 44> H -4.000039186 -2.2159698704 2.3416637494
| 45> H -4.9529513552 -0.7972385419 1.864588955
| 46> H -4.2284932081 -1.8371088676 0.6293586835
| 47> *
| 48>
| 49>                          ****END OF INPUT****

CARTESIAN COORDINATES (ANGSTROEM)
---------------------------------
  C      1.089553    0.819304    2.940852
  C      2.257586    1.053946    2.004401
  O      2.785912   -0.180232    1.485459
  P      2.157082   -1.018991    0.288757
  S      0.451384   -1.927041    0.596841
  O      3.282099   -2.078148    0.004811
  C      4.657779   -1.724389   -0.292092
  C      5.514992   -1.810352    0.953780
  S      2.242585    0.329473   -1.376464
  C      0.485133    0.461117   -1.734772
  S     -0.386255    1.400476   -0.436322
  P     -2.345512    0.602077   -0.705318
  S     -2.465313   -1.038052   -1.766831
  O     -3.170872    1.759601   -1.383640
  C     -3.045373    3.181749   -1.132822
  C     -3.171466    3.537719    0.332031
  O     -2.958830    0.550840    0.758252
  C     -2.827170   -0.571508    1.650112
  C     -4.089773   -1.410035    1.620647
  H      0.251835    0.387096    2.397749
  H      1.375589    0.135603    3.735469
  H      0.781298    1.766642    3.370556
  H      3.103510    1.499306    2.531113
  H      1.962795    1.697601    1.169309
  H      4.969367   -2.454718   -1.040883
  H      4.679656   -0.720746   -0.725449
  H      6.546699   -1.601557    0.688713
  H      5.179811   -1.089459    1.694065
  H      5.448703   -2.806923    1.381633
  H      0.033614   -0.532580   -1.798933
  H      0.407292    0.990544   -2.681362
  H     -2.081944    3.512177   -1.529426
  H     -3.856209    3.608007   -1.725249
  H     -2.334457    3.123220    0.891013
  H     -3.164918    4.618471    0.434922
  H     -4.097827    3.141495    0.738857
  H     -1.959387   -1.174217    1.368358
  H     -2.663720   -0.132038    2.636050
  H     -4.000039   -2.215970    2.341664
  H     -4.952951   -0.797239    1.864589
  H     -4.228493   -1.837109    0.629359

 Total Charge           Charge          ....    0
 Multiplicity           Mult            ....    1
 Number of Electrons    NEL             ....  202
 Basis Dimension        Dim             ....  334

ORBITAL ENERGIES
----------------

  NO   OCC          E(Eh)            E(eV)
   0   2.0000     -88.047882     -2395.9047
   1   2.0000     -88.041972     -2395.7439
   2   2.0000     -87.983811     -2394.1612
   3   2.0000     -87.980291     -2394.0654
   4   2.0000     -76.427395     -2079.6951
   5   2.0000     -76.423617     -2079.5923
   6   2.0000     -18.794308      -511.4191
   7   2.0000     -18.793393      -511.3942
   8   2.0000     -18.788385      -511.2579
   9   2.0000     -18.787640      -511.2377
  10   2.0000      -9.961740      -271.0727
  11   2.0000      -9.956703      -270.9357
  12   2.0000      -9.956133      -270.9202
  13   2.0000      -9.953286      -270.8427
  14   2.0000      -9.945477      -270.6302
  15   2.0000      -9.889749      -269.1137
  16   2.0000      -9.889663      -269.1114
  17   2.0000      -9.881806      -268.8976
  18   2.0000      -9.875367      -268.7224
  19   2.0000      -7.692717      -209.3295
  20   2.0000      -7.686259      -209.1537
  21   2.0000      -7.628580      -207.5842
  22   2.0000      -7.625492      -207.5002
  23   2.0000      -6.424768      -174.8268
  24   2.0000      -6.420900      -174.7216
  25   2.0000      -5.720606      -155.6656
  26   2.0000      -5.717091      -155.5699
  27   2.0000      -5.714044      -155.4870
  28   2.0000      -5.710861      -155.4004
  29   2.0000      -5.709887      -155.3739
  30   2.0000      -5.703367      -155.1965
  31   2.0000      -5.657758      -153.9554
  32   2.0000      -5.654531      -153.8676
  33   2.0000      -5.649022      -153.7177
  34   2.0000      -5.648653      -153.7077
  35   2.0000      -5.646028      -153.6362
  36   2.0000      -5.645572      -153.6238
  37   2.0000      -4.647474      -126.4642
  38   2.0000      -4.646718      -126.4436
  39   2.0000      -4.644946      -126.3954
  40   2.0000      -4.643546      -126.3573
  41   2.0000      -4.642758      -126.3359
  42   2.0000      -4.641281      -126.2957
  43   2.0000      -0.990591       -26.9553
  44   2.0000      -0.983202       -26.7543
  45   2.0000      -0.947003       -25.7693
  46   2.0000      -0.941507       -25.6197
  47   2.0000      -0.762469       -20.7478
  48   2.0000      -0.721963       -19.6456
  49   2.0000      -0.712952       -19.4004
  50   2.0000      -0.692535       -18.8448
  51   2.0000      -0.688800       -18.7432
  52   2.0000      -0.673929       -18.3385
  53   2.0000      -0.649912       -17.6850
  54   2.0000      -0.635544       -17.2940
  55   2.0000      -0.593738       -16.1564
  56   2.0000      -0.588404       -16.0113
  57   2.0000      -0.577771       -15.7220
  58   2.0000      -0.571101       -15.5405
  59   2.0000      -0.565188       -15.3795
  60   2.0000      -0.507934       -13.8216
  61   2.0000      -0.494615       -13.4591
  62   2.0000      -0.480578       -13.0772
  63   2.0000      -0.474201       -12.9037
  64   2.0000      -0.451804       -12.2942
  65   2.0000      -0.449100       -12.2206
  66   2.0000      -0.442967       -12.0537
  67   2.0000      -0.433005       -11.7827
  68   2.0000      -0.431924       -11.7532
  69   2.0000      -0.419182       -11.4065
  70   2.0000      -0.407720       -11.0946
  71   2.0000      -0.401894       -10.9361
  72   2.0000      -0.399687       -10.8760
  73   2.0000      -0.387503       -10.5445
  74   2.0000      -0.380971       -10.3668
  75   2.0000      -0.367421        -9.9980
  76   2.0000      -0.361119        -9.8265
  77   2.0000      -0.359639        -9.7863
  78   2.0000      -0.356058        -9.6888
  79   2.0000      -0.352287        -9.5862
  80   2.0000      -0.350053        -9.5254
  81   2.0000      -0.345774        -9.4090
  82   2.0000      -0.341262        -9.2862
  83   2.0000      -0.337727        -9.1900
  84   2.0000      -0.329338        -8.9617
  85   2.0000      -0.321367        -8.7449
  86   2.0000      -0.311541        -8.4775
  87   2.0000      -0.297517        -8.0958
  88   2.0000      -0.293342        -7.9823
  89   2.0000      -0.290873        -7.9151
  90   2.0000      -0.287207        -7.8153
  91   2.0000      -0.279809        -7.6140
  92   2.0000      -0.271949        -7.4001
  93   2.0000      -0.264202        -7.1893
  94   2.0000      -0.258850        -7.0437
  95   2.0000      -0.237859        -6.4725
  96   2.0000      -0.222144        -6.0449
  97   2.0000      -0.208472        -5.6728
  98   2.0000      -0.197031        -5.3615
  99   2.0000      -0.194008        -5.2792
 100   2.0000      -0.190237        -5.1766
 101   0.0000      -0.049408        -1.3445
 102   0.0000      -0.034356        -0.9349
 103   0.0000      -0.013417        -0.3651
 104   0.0000       0.006488         0.1765
 105   0.0000       0.011553         0.3144

MULLIKEN ATOMIC CHARGES
-----------------------
   0 C :   -0.314356
   1 C :   -0.012038
   2 O :   -0.376472
   3 P :    0.603479
   4 S :   -0.298982
   5 O :   -0.351021
   6 C :   -0.020002
   7 C :   -0.288670
   8 S :   -0.134426
   9 C :   -0.319212
  10 S :   -0.152783
  11 P :    0.613318
  12 S :   -0.299514
  13 O :   -0.360432
  14 C :   -0.000049
  15 C :   -0.309567
  16 O :   -0.379244
  17 C :   -0.042006
  18 C :   -0.277157
  19 H :    0.146928
  20 H :    0.114620
  21 H :    0.104926
  22 H :    0.103079
  23 H :    0.109157
  24 H :    0.116206
  25 H :    0.107850
  26 H :    0.110331
  27 H :    0.123519
  28 H :    0.123205
  29 H :    0.216499
  30 H :    0.179571
  31 H :    0.106863
  32 H :    0.111192
  33 H :    0.119666
  34 H :    0.113445
  35 H :    0.124858
  36 H :    0.144429
  37 H :    0.102435
  38 H :    0.108088
  39 H :    0.106744
  40 H :    0.125524
Sum of atomic charges:    0.0000000

LOEWDIN ATOMIC CHARGES
----------------------
   0 C :   -0.368034
   1 C :   -0.118098
   2 O :   -0.245101
   3 P :    0.564052
   4 S :   -0.281004
   5 O :   -0.232868
   6 C :   -0.111832
   7 C :   -0.358768
   8 S :    0.063258
   9 C :   -0.477048
  10 S :    0.053549
  11 P :    0.569309
  12 S :   -0.292496
  13 O :   -0.239307
  14 C :   -0.114106
  15 C :   -0.366115
  16 O :   -0.242960
  17 C :   -0.120876
  18 C :   -0.358383
  19 H :    0.120957
  20 H :    0.126846
  21 H :    0.127807
  22 H :    0.117206
  23 H :    0.097690
  24 H :    0.124216
  25 H :    0.104660
  26 H :    0.129685
  27 H :    0.127142
  28 H :    0.130861
  29 H :    0.124969
  30 H :    0.134476
  31 H :    0.108101
  32 H :    0.122952
  33 H :    0.117086
  34 H :    0.131159
  35 H :    0.130015
  36 H :    0.107421
  37 H :    0.115044
  38 H :    0.129454
  39 H :    0.122148
  40 H :    0.126934

  Mayer bond orders larger than 0.100000
B(  0-C ,  1-C ) :   1.1666 B(  0-C , 19-H ) :   0.9269 B(  0-C , 20-H ) :   0.9447
B(  0-C , 21-H ) :   0.9385 B(  1-C ,  2-O ) :   0.9137 B(  1-C , 22-H ) :   0.9349
B(  1-C , 23-H ) :   0.9066 B(  2-O ,  3-P ) :   1.0766 B(  3-P ,  4-S ) :   1.6677
B(  3-P ,  5-O ) :   1.1483 B(  3-P ,  8-S ) :   0.9275 B(  4-S ,  8-S ) :   0.1136
B(  5-O ,  6-C ) :   0.8921 B(  6-C ,  7-C ) :   1.1652 B(  6-C , 24-H ) :   0.9354
B(  6-C , 25-H ) :   0.9163 B(  7-C , 26-H ) :   0.9393 B(  7-C , 27-H ) :   0.9416
B(  7-C , 28-H ) :   0.9464 B(  8-S ,  9-C ) :   1.0152 B(  9-C , 10-S ) :   0.9796
B(  9-C , 29-H ) :   0.8466 B(  9-C , 30-H ) :   0.9089 B( 10-S , 11-P ) :   0.9290
B( 10-S , 12-S ) :   0.1140 B( 11-P , 12-S ) :   1.6434 B( 11-P , 13-O ) :   1.1409
B( 11-P , 16-O ) :   1.1015 B( 13-O , 14-C ) :   0.9054 B( 14-C , 15-C ) :   1.1707
B( 14-C , 31-H ) :   0.9204 B( 14-C , 32-H ) :   0.9338 B( 15-C , 33-H ) :   0.9382
B( 15-C , 34-H ) :   0.9352 B( 15-C , 35-H ) :   0.9429 B( 16-O , 17-C ) :   0.8901
B( 17-C , 18-C ) :   1.1650 B( 17-C , 36-H ) :   0.8969 B( 17-C , 37-H ) :   0.9331
B( 18-C , 38-H ) :   0.9404 B( 18-C , 39-H ) :   0.9475 B( 18-C , 40-H ) :   0.9371

Dispersion correction           -0.065189369
FINAL SINGLE POINT ENERGY     -2929.513503168730

DIPOLE MOMENT
-------------

Method             : SCF
Type of density    : Electron Density
Multiplicity       :   1
Irrep              :   0
Energy             : -2929.6333666543741856 Eh
Relativity type    :
Basis              : AO
                                X                 Y                 Z
Electronic contribution:     -0.397192456      -7.300381192     -16.837259032
Nuclear contribution   :      1.485662182       8.962922562      17.707552927
                        -----------------------------------------
Total Dipole Moment    :      1.088469727       1.662541370       0.870293895
                        -----------------------------------------
Magnitude (a.u.)       :      2.169382773
Magnitude (Debye)      :      5.514132794

Rotational constants in cm-1:             0.013266             0.004628             0.004515
Rotational constants in MHz :           397.707718           138.730291           135.342058

                             ****ORCA TERMINATED NORMALLY****
TOTAL RUN TIME: 0 days 0 hours 0 minutes 20 seconds 977 msec
