                         Program Version 6.0.0  -   RELEASE  -
|  1> ! r2scan-3c def2/J RI DEFGRID2 scfconv6 printgap
|  2> %output
|  3>     printlevel normal
|  4> end
|  5> * xyz 0 1
|  6> C 5.7104526316 -0.1635290896 0.3642269823
|  7> C 4.3935075733 -0.6351740092 -0.2184283594
|  8> O 3.3398033845 0.1512405609 0.3712245653
|  9> P 1.8896761608 0.217147401 -0.2780621907
| 10> S 1.8867313196 0.571077353 -2.2109832618
| 11> O 1.1818769918 1.2598969836 0.6748601733
| 12> C 1.1897535593 2.6754524014 0.4079080463
| 13> C 2.5788197818 3.2640233548 0.5238669858
| 14> S 1.0702772712 -1.6174642764 0.339812694
| 15> C -0.1460459827 -1.924517628 -0.9859441214
| 16> S -1.8385086791 -2.0485829909 -0.3700954759
| 17> P -2.118261776 0.0007819915 0.1221939906
| 18> S -1.546881317 1.2954855999 -1.2285014703
| 19> O -1.396572247 0.2151715139 1.5065572282
| 20> C -1.726329699 -0.5604032837 2.6907591424
| 21> C -0.5348791201 -0.5160698511 3.6239920315
| 22> O -3.6492966899 0.0750914368 0.5430399975
| 23> C -4.7165793753 0.2902182806 -0.3987713059
| 24> C -4.8677558555 -0.8583835168 -1.3744751636
| 25> H 5.8815197373 0.8789590129 0.1112025184
| 26> H 5.6931515253 -0.2655035082 1.4452892351
| 27> H 6.5150551161 -0.767149174 -0.0424305515
| 28> H 4.2069123543 -1.6865626864 0.0170099471
| 29> H 4.3609550381 -0.5009309857 -1.3050931916
| 30> H 0.7736316603 2.8426495633 -0.5916370438
| 31> H 0.5054964738 3.0823318916 1.1541817072
| 32> H 3.2139926865 2.8652875441 -0.2663560407
| 33> H 2.5203933388 4.3429464854 0.4193211625
| 34> H 3.0129829521 3.0121549762 1.4878366803
| 35> H 0.0839935376 -2.8873138253 -1.4345882939
| 36> H -0.0705477669 -1.1186996782 -1.7216077959
| 37> H -2.6117819547 -0.1076911459 3.1403654386
| 38> H -1.9580028209 -1.5850035461 2.3850510291
| 39> H 0.3317176574 -0.9698612228 3.1494615498
| 40> H -0.2949583821 0.5134352252 3.8740665963
| 41> H -0.774425452 -1.0622889578 4.5305547942
| 42> H -5.5981480199 0.4000830967 0.2344322307
| 43> H -4.5211884087 1.2256190382 -0.9318828407
| 44> H -4.0109880735 -0.8938536571 -2.0455561543
| 45> H -4.9354116108 -1.8030793693 -0.8408682532
| 46> H -5.7673957686 -0.71019159 -1.963175413
| 47> *
| 48>
| 49>                          ****END OF INPUT****

CARTESIAN COORDINATES (ANGSTROEM)
---------------------------------
  C      5.710453   -0.163529    0.364227
  C      4.393508   -0.635174   -0.218428
  O      3.339803    0.151241    0.371225
  P      1.889676    0.217147   -0.278062
  S      1.886731    0.571077   -2.210983
  O      1.181877    1.259897    0.674860
  C      1.189754    2.675452    0.407908
  C      2.578820    3.264023    0.523867
  S      1.070277   -1.617464    0.339813
  C     -0.146046   -1.924518   -0.985944
  S     -1.838509   -2.048583   -0.370095
  P     -2.118262    0.000782    0.122194
  S     -1.546881    1.295486   -1.228501
  O     -1.396572    0.215172    1.506557
  C     -1.726330   -0.560403    2.690759
  C     -0.534879   -0.516070    3.623992
  O     -3.649297    0.075091    0.543040
  C     -4.716579    0.290218   -0.398771
  C     -4.867756   -0.858384   -1.374475
  H      5.881520    0.878959    0.111203
  H      5.693152   -0.265504    1.445289
  H      6.515055   -0.767149   -0.042431
  H      4.206912   -1.686563    0.017010
  H      4.360955   -0.500931   -1.305093
  H      0.773632    2.842650   -0.591637
  H      0.505496    3.082332    1.154182
  H      3.213993    2.865288   -0.266356
  H      2.520393    4.342946    0.419321
  H      3.012983    3.012155    1.487837
  H      0.083994   -2.887314   -1.434588
  H     -0.070548   -1.118700   -1.721608
  H     -2.611782   -0.107691    3.140365
  H     -1.958003   -1.585004    2.385051
  H      0.331718   -0.969861    3.149462
  H     -0.294958    0.513435    3.874067
  H     -0.774425   -1.062289    4.530555
  H     -5.598148    0.400083    0.234432
  H     -4.521188    1.225619   -0.931883
  H     -4.010988   -0.893854   -2.045556
  H     -4.935412   -1.803079   -0.840868
  H     -5.767396   -0.710192   -1.963175

 Total Charge           Charge          ....    0
 Multiplicity           Mult            ....    1
 Number of Electrons    NEL             ....  202
 Basis Dimension        Dim             ....  539

ORBITAL ENERGIES
----------------

  NO   OCC          E(Eh)            E(eV)
   0   2.0000     -88.575150     -2410.2524
   1   2.0000     -88.572674     -2410.1850
   2   2.0000     -88.514815     -2408.6106
   3   2.0000     -88.512498     -2408.5475
   4   2.0000     -76.910761     -2092.8482
   5   2.0000     -76.907370     -2092.7559
   6   2.0000     -18.992313      -516.8071
   7   2.0000     -18.986384      -516.6458
   8   2.0000     -18.985881      -516.6321
   9   2.0000     -18.980520      -516.4862
  10   2.0000     -10.105219      -274.9770
  11   2.0000     -10.099373      -274.8179
  12   2.0000     -10.097676      -274.7717
  13   2.0000     -10.093131      -274.6480
  14   2.0000     -10.085473      -274.4397
  15   2.0000     -10.030181      -272.9351
  16   2.0000     -10.029080      -272.9051
  17   2.0000     -10.027584      -272.8644
  18   2.0000     -10.020280      -272.6657
  19   2.0000      -7.869726      -214.1461
  20   2.0000      -7.867355      -214.0816
  21   2.0000      -7.809598      -212.5100
  22   2.0000      -7.807206      -212.4449
  23   2.0000      -6.589229      -179.3020
  24   2.0000      -6.585896      -179.2114
  25   2.0000      -5.816592      -158.2775
  26   2.0000      -5.814154      -158.2112
  27   2.0000      -5.813381      -158.1901
  28   2.0000      -5.811176      -158.1301
  29   2.0000      -5.806987      -158.0162
  30   2.0000      -5.804503      -157.9486
  31   2.0000      -5.757361      -156.6658
  32   2.0000      -5.754862      -156.5978
  33   2.0000      -5.749752      -156.4587
  34   2.0000      -5.749616      -156.4550
  35   2.0000      -5.747698      -156.4028
  36   2.0000      -5.746999      -156.3838
  37   2.0000      -4.735123      -128.8493
  38   2.0000      -4.734171      -128.8233
  39   2.0000      -4.732598      -128.7805
  40   2.0000      -4.731210      -128.7428
  41   2.0000      -4.730787      -128.7313
  42   2.0000      -4.729824      -128.7050
  43   2.0000      -1.049037       -28.5458
  44   2.0000      -1.043011       -28.3818
  45   2.0000      -1.007263       -27.4090
  46   2.0000      -1.002841       -27.2887
  47   2.0000      -0.798677       -21.7331
  48   2.0000      -0.756448       -20.5840
  49   2.0000      -0.747614       -20.3436
  50   2.0000      -0.732561       -19.9340
  51   2.0000      -0.726184       -19.7605
  52   2.0000      -0.708558       -19.2808
  53   2.0000      -0.682271       -18.5655
  54   2.0000      -0.661443       -17.9988
  55   2.0000      -0.628201       -17.0942
  56   2.0000      -0.619391       -16.8545
  57   2.0000      -0.601671       -16.3723
  58   2.0000      -0.595166       -16.1953
  59   2.0000      -0.589662       -16.0455
  60   2.0000      -0.528833       -14.3903
  61   2.0000      -0.520757       -14.1705
  62   2.0000      -0.492725       -13.4077
  63   2.0000      -0.487348       -13.2614
  64   2.0000      -0.468157       -12.7392
  65   2.0000      -0.464230       -12.6323
  66   2.0000      -0.454393       -12.3646
  67   2.0000      -0.450936       -12.2706
  68   2.0000      -0.444772       -12.1029
  69   2.0000      -0.432934       -11.7807
  70   2.0000      -0.426988       -11.6189
  71   2.0000      -0.410026       -11.1574
  72   2.0000      -0.404137       -10.9971
  73   2.0000      -0.396699       -10.7947
  74   2.0000      -0.393614       -10.7108
  75   2.0000      -0.385380       -10.4867
  76   2.0000      -0.377999       -10.2859
  77   2.0000      -0.371487       -10.1087
  78   2.0000      -0.368403       -10.0247
  79   2.0000      -0.365367        -9.9421
  80   2.0000      -0.357097        -9.7171
  81   2.0000      -0.355027        -9.6608
  82   2.0000      -0.352094        -9.5810
  83   2.0000      -0.350290        -9.5319
  84   2.0000      -0.344262        -9.3678
  85   2.0000      -0.326618        -8.8877
  86   2.0000      -0.319915        -8.7053
  87   2.0000      -0.316414        -8.6101
  88   2.0000      -0.310583        -8.4514
  89   2.0000      -0.308007        -8.3813
  90   2.0000      -0.291007        -7.9187
  91   2.0000      -0.282831        -7.6962
  92   2.0000      -0.277514        -7.5515
  93   2.0000      -0.275758        -7.5037
  94   2.0000      -0.270074        -7.3491
  95   2.0000      -0.248083        -6.7507
  96   2.0000      -0.232222        -6.3191
  97   2.0000      -0.227405        -6.1880
  98   2.0000      -0.215334        -5.8595
  99   2.0000      -0.204938        -5.5767
 100   2.0000      -0.197501        -5.3743
 101   0.0000      -0.040816        -1.1107
 102   0.0000      -0.029172        -0.7938
 103   0.0000      -0.008333        -0.2268
 104   0.0000       0.013347         0.3632
 105   0.0000       0.021553         0.5865

MULLIKEN ATOMIC CHARGES
-----------------------
   0 C :   -0.441844
   1 C :   -0.159597
   2 O :   -0.279544
   3 P :    0.663849
   4 S :   -0.467064
   5 O :   -0.260265
   6 C :   -0.156298
   7 C :   -0.451031
   8 S :   -0.152121
   9 C :   -0.224117
  10 S :   -0.153086
  11 P :    0.650430
  12 S :   -0.413377
  13 O :   -0.256295
  14 C :   -0.106483
  15 C :   -0.456214
  16 O :   -0.301600
  17 C :   -0.161257
  18 C :   -0.460541
  19 H :    0.154778
  20 H :    0.152607
  21 H :    0.145952
  22 H :    0.151162
  23 H :    0.172367
  24 H :    0.181759
  25 H :    0.155974
  26 H :    0.167632
  27 H :    0.146101
  28 H :    0.154072
  29 H :    0.197167
  30 H :    0.219132
  31 H :    0.154549
  32 H :    0.157812
  33 H :    0.168728
  34 H :    0.154532
  35 H :    0.142761
  36 H :    0.147101
  37 H :    0.174721
  38 H :    0.184396
  39 H :    0.154092
  40 H :    0.149060
Sum of atomic charges:    0.0000000

LOEWDIN ATOMIC CHARGES
----------------------
   0 C :   -0.386714
   1 C :    0.015531
   2 O :   -0.671579
   3 P :    0.368374
   4 S :   -0.130146
   5 O :   -0.660222
   6 C :    0.013511
   7 C :   -0.401414
   8 S :    0.164534
   9 C :   -0.414073
  10 S :    0.126155
  11 P :    0.377239
  12 S :   -0.070720
  13 O :   -0.655978
  14 C :    0.021468
  15 C :   -0.390531
  16 O :   -0.665897
  17 C :    0.022081
  18 C :   -0.409297
  19 H :    0.159864
  20 H :    0.159328
  21 H :    0.159287
  22 H :    0.171305
  23 H :    0.180816
  24 H :    0.184864
  25 H :    0.182754
  26 H :    0.164870
  27 H :    0.158725
  28 H :    0.160096
  29 H :    0.180917
  30 H :    0.202665
  31 H :    0.174560
  32 H :    0.176185
  33 H :    0.165569
  34 H :    0.161547
  35 H :    0.157745
  36 H :    0.179357
  37 H :    0.180482
  38 H :    0.167483
  39 H :    0.159393
  40 H :    0.159864

  Mayer bond orders larger than 0.100000
B(  0-C ,  1-C ) :   0.9541 B(  0-C , 19-H ) :   0.9717 B(  0-C , 20-H ) :   0.9721
B(  0-C , 21-H ) :   0.9654 B(  1-C ,  2-O ) :   0.7886 B(  1-C , 22-H ) :   0.9465
B(  1-C , 23-H ) :   0.9501 B(  2-O ,  3-P ) :   1.0750 B(  3-P ,  4-S ) :   1.7504
B(  3-P ,  5-O ) :   1.1784 B(  3-P ,  8-S ) :   1.0987 B(  5-O ,  6-C ) :   0.7969
B(  6-C ,  7-C ) :   0.9098 B(  6-C , 24-H ) :   0.9613 B(  6-C , 25-H ) :   0.9632
B(  7-C , 26-H ) :   0.9628 B(  7-C , 27-H ) :   0.9613 B(  7-C , 28-H ) :   0.9728
B(  8-S ,  9-C ) :   0.8940 B(  9-C , 10-S ) :   0.9120 B(  9-C , 29-H ) :   0.9139
B(  9-C , 30-H ) :   0.9059 B( 10-S , 11-P ) :   1.0129 B( 11-P , 12-S ) :   1.8374
B( 11-P , 13-O ) :   1.1320 B( 11-P , 16-O ) :   1.0423 B( 13-O , 14-C ) :   0.7493
B( 14-C , 15-C ) :   0.9562 B( 14-C , 31-H ) :   0.9442 B( 14-C , 32-H ) :   0.9518
B( 15-C , 33-H ) :   0.9651 B( 15-C , 34-H ) :   0.9705 B( 15-C , 35-H ) :   0.9650
B( 16-O , 17-C ) :   0.8255 B( 17-C , 18-C ) :   0.9134 B( 17-C , 36-H ) :   0.9608
B( 17-C , 37-H ) :   0.9693 B( 18-C , 38-H ) :   0.9625 B( 18-C , 39-H ) :   0.9679
B( 18-C , 40-H ) :   0.9567

Dispersion correction           -0.022088867
FINAL SINGLE POINT ENERGY     -2932.460898345610

DIPOLE MOMENT
-------------

Method             : SCF
Type of density    : Electron Density
Multiplicity       :   1
Irrep              :   0
Energy             : -2932.4853821671126752 Eh
Relativity type    :
Basis              : AO
                                X                 Y                 Z
Electronic contribution:     -6.627899803      -4.955723876      -9.212406310
Nuclear contribution   :      6.360428599       4.390799216      10.423044795
                        -----------------------------------------
Total Dipole Moment    :     -0.267471204      -0.564924659       1.210638484
                        -----------------------------------------
Magnitude (a.u.)       :      1.362470644
Magnitude (Debye)      :      3.463125158

Rotational constants in cm-1:             0.013189             0.005110             0.005029
Rotational constants in MHz :           395.390475           153.207004           150.759995

                             ****ORCA TERMINATED NORMALLY****
TOTAL RUN TIME: 0 days 0 hours 1 minutes 24 seconds 429 msec
