                         Program Version 6.0.0  -   RELEASE  -
|  1> ! r2scan-3c def2/J RI DEFGRID2 scfconv6 printgap
|  2> %output
|  3>     printlevel normal
|  4> end
|  5> %cpcm
|  6>     smd true
|  7>     smdsolvent "water"
|  8> end
|  9> * xyz 0 1
| 10> C 5.7104526316 -0.1635290896 0.3642269823
| 11> C 4.3935075733 -0.6351740092 -0.2184283594
| 12> O 3.3398033845 0.1512405609 0.3712245653
| 13> P 1.8896761608 0.217147401 -0.2780621907
| 14> S 1.8867313196 0.571077353 -2.2109832618
| 15> O 1.1818769918 1.2598969836 0.6748601733
| 16> C 1.1897535593 2.6754524014 0.4079080463
| 17> C 2.5788197818 3.2640233548 0.5238669858
| 18> S 1.0702772712 -1.6174642764 0.339812694
| 19> C -0.1460459827 -1.924517628 -0.9859441214
| 20> S -1.8385086791 -2.0485829909 -0.3700954759
| 21> P -2.118261776 0.0007819915 0.1221939906
| 22> S -1.546881317 1.2954855999 -1.2285014703
| 23> O -1.396572247 0.2151715139 1.5065572282
| 24> C -1.726329699 -0.5604032837 2.6907591424
| 25> C -0.5348791201 -0.5160698511 3.6239920315
| 26> O -3.6492966899 0.0750914368 0.5430399975
| 27> C -4.7165793753 0.2902182806 -0.3987713059
| 28> C -4.8677558555 -0.8583835168 -1.3744751636
| 29> H 5.8815197373 0.8789590129 0.1112025184
| 30> H 5.6931515253 -0.2655035082 1.4452892351
| 31> H 6.5150551161 -0.767149174 -0.0424305515
| 32> H 4.2069123543 -1.6865626864 0.0170099471
| 33> H 4.3609550381 -0.5009309857 -1.3050931916
| 34> H 0.7736316603 2.8426495633 -0.5916370438
| 35> H 0.5054964738 3.0823318916 1.1541817072
| 36> H 3.2139926865 2.8652875441 -0.2663560407
| 37> H 2.5203933388 4.3429464854 0.4193211625
| 38> H 3.0129829521 3.0121549762 1.4878366803
| 39> H 0.0839935376 -2.8873138253 -1.4345882939
| 40> H -0.0705477669 -1.1186996782 -1.7216077959
| 41> H -2.6117819547 -0.1076911459 3.1403654386
| 42> H -1.9580028209 -1.5850035461 2.3850510291
| 43> H 0.3317176574 -0.9698612228 3.1494615498
| 44> H -0.2949583821 0.5134352252 3.8740665963
| 45> H -0.774425452 -1.0622889578 4.5305547942
| 46> H -5.5981480199 0.4000830967 0.2344322307
| 47> H -4.5211884087 1.2256190382 -0.9318828407
| 48> H -4.0109880735 -0.8938536571 -2.0455561543
| 49> H -4.9354116108 -1.8030793693 -0.8408682532
| 50> H -5.7673957686 -0.71019159 -1.963175413
| 51> *
| 52>
| 53>                          ****END OF INPUT****

CARTESIAN COORDINATES (ANGSTROEM)
---------------------------------
  C      5.710453   -0.163529    0.364227
  C      4.393508   -0.635174   -0.218428
  O      3.339803    0.151241    0.371225
  P      1.889676    0.217147   -0.278062
  S      1.886731    0.571077   -2.210983
  O      1.181877    1.259897    0.674860
  C      1.189754    2.675452    0.407908
  C      2.578820    3.264023    0.523867
  S      1.070277   -1.617464    0.339813
  C     -0.146046   -1.924518   -0.985944
  S     -1.838509   -2.048583   -0.370095
  P     -2.118262    0.000782    0.122194
  S     -1.546881    1.295486   -1.228501
  O     -1.396572    0.215172    1.506557
  C     -1.726330   -0.560403    2.690759
  C     -0.534879   -0.516070    3.623992
  O     -3.649297    0.075091    0.543040
  C     -4.716579    0.290218   -0.398771
  C     -4.867756   -0.858384   -1.374475
  H      5.881520    0.878959    0.111203
  H      5.693152   -0.265504    1.445289
  H      6.515055   -0.767149   -0.042431
  H      4.206912   -1.686563    0.017010
  H      4.360955   -0.500931   -1.305093
  H      0.773632    2.842650   -0.591637
  H      0.505496    3.082332    1.154182
  H      3.213993    2.865288   -0.266356
  H      2.520393    4.342946    0.419321
  H      3.012983    3.012155    1.487837
  H      0.083994   -2.887314   -1.434588
  H     -0.070548   -1.118700   -1.721608
  H     -2.611782   -0.107691    3.140365
  H     -1.958003   -1.585004    2.385051
  H      0.331718   -0.969861    3.149462
  H     -0.294958    0.513435    3.874067
  H     -0.774425   -1.062289    4.530555
  H     -5.598148    0.400083    0.234432
  H     -4.521188    1.225619   -0.931883
  H     -4.010988   -0.893854   -2.045556
  H     -4.935412   -1.803079   -0.840868
  H     -5.767396   -0.710192   -1.963175

 Total Charge           Charge          ....    0
 Multiplicity           Mult            ....    1
 Number of Electrons    NEL             ....  202
 Basis Dimension        Dim             ....  539

ORBITAL ENERGIES
----------------

  NO   OCC          E(Eh)            E(eV)
   0   2.0000     -88.578413     -2410.3412
   1   2.0000     -88.578026     -2410.3306
   2   2.0000     -88.524970     -2408.8869
   3   2.0000     -88.524549     -2408.8754
   4   2.0000     -76.917414     -2093.0292
   5   2.0000     -76.917141     -2093.0218
   6   2.0000     -18.994649      -516.8707
   7   2.0000     -18.992388      -516.8092
   8   2.0000     -18.991971      -516.7978
   9   2.0000     -18.991098      -516.7741
  10   2.0000     -10.104954      -274.9698
  11   2.0000     -10.090740      -274.5830
  12   2.0000     -10.090274      -274.5703
  13   2.0000     -10.088031      -274.5093
  14   2.0000     -10.087051      -274.4826
  15   2.0000     -10.019076      -272.6329
  16   2.0000     -10.018858      -272.6270
  17   2.0000     -10.018773      -272.6247
  18   2.0000     -10.017624      -272.5934
  19   2.0000      -7.872900      -214.2325
  20   2.0000      -7.872635      -214.2253
  21   2.0000      -7.820088      -212.7954
  22   2.0000      -7.819589      -212.7818
  23   2.0000      -6.595930      -179.4844
  24   2.0000      -6.595718      -179.4786
  25   2.0000      -5.819790      -158.3646
  26   2.0000      -5.819441      -158.3551
  27   2.0000      -5.816577      -158.2771
  28   2.0000      -5.816462      -158.2740
  29   2.0000      -5.810131      -158.1017
  30   2.0000      -5.809784      -158.0922
  31   2.0000      -5.767748      -156.9484
  32   2.0000      -5.767169      -156.9327
  33   2.0000      -5.760249      -156.7443
  34   2.0000      -5.760136      -156.7413
  35   2.0000      -5.760069      -156.7394
  36   2.0000      -5.759405      -156.7214
  37   2.0000      -4.741783      -129.0305
  38   2.0000      -4.741001      -129.0092
  39   2.0000      -4.740832      -129.0046
  40   2.0000      -4.740613      -128.9986
  41   2.0000      -4.739701      -128.9738
  42   2.0000      -4.739409      -128.9659
  43   2.0000      -1.052896       -28.6508
  44   2.0000      -1.051029       -28.6000
  45   2.0000      -1.011404       -27.5217
  46   2.0000      -1.009818       -27.4785
  47   2.0000      -0.801302       -21.8045
  48   2.0000      -0.756347       -20.5812
  49   2.0000      -0.745201       -20.2780
  50   2.0000      -0.725068       -19.7301
  51   2.0000      -0.723372       -19.6840
  52   2.0000      -0.710178       -19.3249
  53   2.0000      -0.688375       -18.7316
  54   2.0000      -0.669860       -18.2278
  55   2.0000      -0.630122       -17.1465
  56   2.0000      -0.618056       -16.8182
  57   2.0000      -0.598019       -16.2729
  58   2.0000      -0.592691       -16.1279
  59   2.0000      -0.589400       -16.0384
  60   2.0000      -0.527683       -14.3590
  61   2.0000      -0.521582       -14.1930
  62   2.0000      -0.492925       -13.4132
  63   2.0000      -0.488914       -13.3040
  64   2.0000      -0.470494       -12.8028
  65   2.0000      -0.466500       -12.6941
  66   2.0000      -0.450079       -12.2473
  67   2.0000      -0.448316       -12.1993
  68   2.0000      -0.443701       -12.0737
  69   2.0000      -0.434385       -11.8202
  70   2.0000      -0.425469       -11.5776
  71   2.0000      -0.411403       -11.1948
  72   2.0000      -0.403964       -10.9924
  73   2.0000      -0.398534       -10.8447
  74   2.0000      -0.392093       -10.6694
  75   2.0000      -0.386520       -10.5177
  76   2.0000      -0.376411       -10.2427
  77   2.0000      -0.367842       -10.0095
  78   2.0000      -0.361434        -9.8351
  79   2.0000      -0.358006        -9.7418
  80   2.0000      -0.354238        -9.6393
  81   2.0000      -0.352642        -9.5959
  82   2.0000      -0.350000        -9.5240
  83   2.0000      -0.345212        -9.3937
  84   2.0000      -0.343376        -9.3437
  85   2.0000      -0.325030        -8.8445
  86   2.0000      -0.320691        -8.7264
  87   2.0000      -0.316219        -8.6048
  88   2.0000      -0.311025        -8.4634
  89   2.0000      -0.305069        -8.3013
  90   2.0000      -0.296422        -8.0661
  91   2.0000      -0.287113        -7.8128
  92   2.0000      -0.279566        -7.6074
  93   2.0000      -0.278302        -7.5730
  94   2.0000      -0.273629        -7.4458
  95   2.0000      -0.252514        -6.8713
  96   2.0000      -0.240889        -6.5549
  97   2.0000      -0.237906        -6.4738
  98   2.0000      -0.226661        -6.1678
  99   2.0000      -0.214526        -5.8376
 100   2.0000      -0.209558        -5.7024
 101   0.0000      -0.045976        -1.2511
 102   0.0000      -0.036156        -0.9839
 103   0.0000      -0.012539        -0.3412
 104   0.0000       0.007146         0.1944
 105   0.0000       0.016340         0.4446

MULLIKEN ATOMIC CHARGES
-----------------------
   0 C :   -0.484057
   1 C :   -0.150126
   2 O :   -0.307427
   3 P :    0.694270
   4 S :   -0.522989
   5 O :   -0.289330
   6 C :   -0.152619
   7 C :   -0.494506
   8 S :   -0.146569
   9 C :   -0.225601
  10 S :   -0.150192
  11 P :    0.663292
  12 S :   -0.465248
  13 O :   -0.287337
  14 C :   -0.094787
  15 C :   -0.507177
  16 O :   -0.323680
  17 C :   -0.156238
  18 C :   -0.494682
  19 H :    0.165561
  20 H :    0.165526
  21 H :    0.169121
  22 H :    0.170153
  23 H :    0.172448
  24 H :    0.180570
  25 H :    0.178822
  26 H :    0.169221
  27 H :    0.171664
  28 H :    0.169713
  29 H :    0.238602
  30 H :    0.212468
  31 H :    0.175602
  32 H :    0.171900
  33 H :    0.169675
  34 H :    0.169466
  35 H :    0.170305
  36 H :    0.174901
  37 H :    0.178948
  38 H :    0.176734
  39 H :    0.169887
  40 H :    0.173717
Sum of atomic charges:    0.0000000

LOEWDIN ATOMIC CHARGES
----------------------
   0 C :   -0.389946
   1 C :    0.020431
   2 O :   -0.684824
   3 P :    0.371950
   4 S :   -0.165791
   5 O :   -0.679720
   6 C :    0.014383
   7 C :   -0.403354
   8 S :    0.170611
   9 C :   -0.408851
  10 S :    0.135883
  11 P :    0.379255
  12 S :   -0.107872
  13 O :   -0.677504
  14 C :    0.027928
  15 C :   -0.394983
  16 O :   -0.673777
  17 C :    0.027321
  18 C :   -0.411637
  19 H :    0.162232
  20 H :    0.163023
  21 H :    0.168521
  22 H :    0.179001
  23 H :    0.181247
  24 H :    0.183625
  25 H :    0.190784
  26 H :    0.163204
  27 H :    0.168522
  28 H :    0.164289
  29 H :    0.197376
  30 H :    0.199646
  31 H :    0.183889
  32 H :    0.181758
  33 H :    0.162931
  34 H :    0.164080
  35 H :    0.168953
  36 H :    0.191226
  37 H :    0.181381
  38 H :    0.162185
  39 H :    0.163739
  40 H :    0.168888

  Mayer bond orders larger than 0.100000
B(  0-C ,  1-C ) :   0.9509 B(  0-C , 19-H ) :   0.9694 B(  0-C , 20-H ) :   0.9691
B(  0-C , 21-H ) :   0.9589 B(  1-C ,  2-O ) :   0.7813 B(  1-C , 22-H ) :   0.9375
B(  1-C , 23-H ) :   0.9471 B(  2-O ,  3-P ) :   1.0823 B(  3-P ,  4-S ) :   1.6981
B(  3-P ,  5-O ) :   1.1757 B(  3-P ,  8-S ) :   1.1299 B(  5-O ,  6-C ) :   0.7817
B(  6-C ,  7-C ) :   0.9064 B(  6-C , 24-H ) :   0.9577 B(  6-C , 25-H ) :   0.9511
B(  7-C , 26-H ) :   0.9619 B(  7-C , 27-H ) :   0.9545 B(  7-C , 28-H ) :   0.9710
B(  8-S ,  9-C ) :   0.8865 B(  9-C , 10-S ) :   0.9064 B(  9-C , 29-H ) :   0.8976
B(  9-C , 30-H ) :   0.9104 B( 10-S , 11-P ) :   1.0309 B( 11-P , 12-S ) :   1.8118
B( 11-P , 13-O ) :   1.1336 B( 11-P , 16-O ) :   1.0517 B( 13-O , 14-C ) :   0.7423
B( 14-C , 15-C ) :   0.9394 B( 14-C , 31-H ) :   0.9345 B( 14-C , 32-H ) :   0.9453
B( 15-C , 33-H ) :   0.9667 B( 15-C , 34-H ) :   0.9689 B( 15-C , 35-H ) :   0.9581
B( 16-O , 17-C ) :   0.8140 B( 17-C , 18-C ) :   0.9012 B( 17-C , 36-H ) :   0.9504
B( 17-C , 37-H ) :   0.9678 B( 18-C , 38-H ) :   0.9648 B( 18-C , 39-H ) :   0.9646
B( 18-C , 40-H ) :   0.9513

Dispersion correction           -0.022088867
FINAL SINGLE POINT ENERGY     -2932.470025847861

DIPOLE MOMENT
-------------

Method             : SCF
Type of density    : Electron Density
Multiplicity       :   1
Irrep              :   0
Energy             : -2932.4945096693641062 Eh
Relativity type    :
Basis              : AO
                                X                 Y                 Z
Electronic contribution:     -6.802769424      -5.442464385      -8.816527990
Nuclear contribution   :      6.360428599       4.390799216      10.423044795
                        -----------------------------------------
Total Dipole Moment    :     -0.442340825      -1.051665169       1.606516805
                        -----------------------------------------
Magnitude (a.u.)       :      1.970421599
Magnitude (Debye)      :      5.008413679

Rotational constants in cm-1:             0.013189             0.005110             0.005029
Rotational constants in MHz :           395.390475           153.207004           150.759995

                             ****ORCA TERMINATED NORMALLY****
TOTAL RUN TIME: 0 days 0 hours 1 minutes 51 seconds 425 msec
