                         Program Version 6.0.0  -   RELEASE  -
|  1> ! r2scan-3c def2/J RI DEFGRID2 scfconv6 printgap
|  2> %output
|  3>     printlevel normal
|  4> end
|  5> * xyz 0 1
|  6> C 2.8992721416 0.1902449446 3.2804559067
|  7> C 1.5473054971 -0.1556305391 2.6945094398
|  8> O 1.4005869976 0.3830515429 1.3619430436
|  9> P 2.2212181184 -0.1966777627 0.1409385203
| 10> S 2.7309382499 -2.0883903275 0.2743877947
| 11> O 3.3873766256 0.8745280276 0.0253336529
| 12> C 4.4073722233 0.8090676648 -0.9913048058
| 13> C 5.6232269219 0.0525846006 -0.4916104029
| 14> S 0.9764580395 0.2906171393 -1.5037156217
| 15> C -0.044797233 -1.2052866679 -1.4191656757
| 16> S -1.1309245686 -1.2350945632 0.0238504918
| 17> P -2.3887006279 0.3744345267 -0.6082986271
| 18> S -2.768213599 0.4128511566 -2.5242482753
| 19> O -1.6916978487 1.693862226 -0.1059974685
| 20> C -1.4284087422 1.97072071 1.291786492
| 21> C -2.4749632134 2.9117218839 1.8504306098
| 22> O -3.6536423741 0.2721420848 0.3465121547
| 23> C -4.7149905097 -0.6790977697 0.1306553616
| 24> C -4.4979098174 -1.9411177948 0.9422265272
| 25> H 2.950877919 -0.1630376268 4.3054386454
| 26> H 3.6838939112 -0.2924411874 2.6987664013
| 27> H 3.0561953421 1.2652453233 3.256618033
| 28> H 0.7311374553 0.2998189627 3.2562089143
| 29> H 1.408268101 -1.2404131984 2.6481633463
| 30> H 3.9935247899 0.3415652647 -1.8896111101
| 31> H 4.6478396878 1.8523099813 -1.204635945
| 32> H 6.0053630693 0.5162314646 0.4135177221
| 33> H 5.3623241469 -0.9810040702 -0.2750021802
| 34> H 6.3932854439 0.0694193789 -1.256035333
| 35> H 0.5990036605 -2.0825510081 -1.3492186961
| 36> H -0.6501500673 -1.2217284835 -2.3256703077
| 37> H -1.409170538 1.0252541387 1.8408864014
| 38> H -0.4334065859 2.4207868708 1.3015081227
| 39> H -3.4537058913 2.4399655592 1.8278123115
| 40> H -2.2187203386 3.1613027957 2.8753157579
| 41> H -2.5101309431 3.8210795325 1.2568417739
| 42> H -5.618298396 -0.1558077802 0.4495785421
| 43> H -4.780897447 -0.8961176973 -0.9402261631
| 44> H -3.6009332085 -2.4606593053 0.6133890305
| 45> H -4.3925433842 -1.6942528383 1.9948327159
| 46> H -5.3538604677 -2.5954997953 0.8123149105
| 47> *
| 48>
| 49>                          ****END OF INPUT****

CARTESIAN COORDINATES (ANGSTROEM)
---------------------------------
  C      2.899272    0.190245    3.280456
  C      1.547305   -0.155631    2.694509
  O      1.400587    0.383052    1.361943
  P      2.221218   -0.196678    0.140939
  S      2.730938   -2.088390    0.274388
  O      3.387377    0.874528    0.025334
  C      4.407372    0.809068   -0.991305
  C      5.623227    0.052585   -0.491610
  S      0.976458    0.290617   -1.503716
  C     -0.044797   -1.205287   -1.419166
  S     -1.130925   -1.235095    0.023850
  P     -2.388701    0.374435   -0.608299
  S     -2.768214    0.412851   -2.524248
  O     -1.691698    1.693862   -0.105997
  C     -1.428409    1.970721    1.291786
  C     -2.474963    2.911722    1.850431
  O     -3.653642    0.272142    0.346512
  C     -4.714991   -0.679098    0.130655
  C     -4.497910   -1.941118    0.942227
  H      2.950878   -0.163038    4.305439
  H      3.683894   -0.292441    2.698766
  H      3.056195    1.265245    3.256618
  H      0.731137    0.299819    3.256209
  H      1.408268   -1.240413    2.648163
  H      3.993525    0.341565   -1.889611
  H      4.647840    1.852310   -1.204636
  H      6.005363    0.516231    0.413518
  H      5.362324   -0.981004   -0.275002
  H      6.393285    0.069419   -1.256035
  H      0.599004   -2.082551   -1.349219
  H     -0.650150   -1.221728   -2.325670
  H     -1.409171    1.025254    1.840886
  H     -0.433407    2.420787    1.301508
  H     -3.453706    2.439966    1.827812
  H     -2.218720    3.161303    2.875316
  H     -2.510131    3.821080    1.256842
  H     -5.618298   -0.155808    0.449579
  H     -4.780897   -0.896118   -0.940226
  H     -3.600933   -2.460659    0.613389
  H     -4.392543   -1.694253    1.994833
  H     -5.353860   -2.595500    0.812315

 Total Charge           Charge          ....    0
 Multiplicity           Mult            ....    1
 Number of Electrons    NEL             ....  202
 Basis Dimension        Dim             ....  539

ORBITAL ENERGIES
----------------

  NO   OCC          E(Eh)            E(eV)
   0   2.0000     -88.573886     -2410.2180
   1   2.0000     -88.572857     -2410.1900
   2   2.0000     -88.523443     -2408.8453
   3   2.0000     -88.518048     -2408.6985
   4   2.0000     -76.916228     -2092.9970
   5   2.0000     -76.913155     -2092.9133
   6   2.0000     -18.996205      -516.9130
   7   2.0000     -18.995818      -516.9025
   8   2.0000     -18.993650      -516.8435
   9   2.0000     -18.988894      -516.7141
  10   2.0000     -10.103518      -274.9307
  11   2.0000     -10.101783      -274.8835
  12   2.0000     -10.101586      -274.8781
  13   2.0000     -10.100918      -274.8600
  14   2.0000     -10.099816      -274.8300
  15   2.0000     -10.032199      -272.9900
  16   2.0000     -10.032000      -272.9846
  17   2.0000     -10.030659      -272.9481
  18   2.0000     -10.028496      -272.8893
  19   2.0000      -7.867962      -214.0981
  20   2.0000      -7.867198      -214.0773
  21   2.0000      -7.818335      -212.7477
  22   2.0000      -7.812888      -212.5995
  23   2.0000      -6.594750      -179.4523
  24   2.0000      -6.591624      -179.3672
  25   2.0000      -5.814846      -158.2300
  26   2.0000      -5.813951      -158.2057
  27   2.0000      -5.811829      -158.1479
  28   2.0000      -5.811030      -158.1262
  29   2.0000      -5.805103      -157.9649
  30   2.0000      -5.804458      -157.9473
  31   2.0000      -5.765889      -156.8978
  32   2.0000      -5.760595      -156.7538
  33   2.0000      -5.758566      -156.6986
  34   2.0000      -5.758462      -156.6957
  35   2.0000      -5.753096      -156.5497
  36   2.0000      -5.752878      -156.5438
  37   2.0000      -4.740190      -128.9871
  38   2.0000      -4.739690      -128.9735
  39   2.0000      -4.738519      -128.9417
  40   2.0000      -4.737508      -128.9141
  41   2.0000      -4.736541      -128.8878
  42   2.0000      -4.735016      -128.8463
  43   2.0000      -1.053818       -28.6758
  44   2.0000      -1.052229       -28.6326
  45   2.0000      -1.014704       -27.6115
  46   2.0000      -1.010778       -27.5047
  47   2.0000      -0.800662       -21.7871
  48   2.0000      -0.759696       -20.6724
  49   2.0000      -0.751190       -20.4409
  50   2.0000      -0.736276       -20.0351
  51   2.0000      -0.734068       -19.9750
  52   2.0000      -0.711157       -19.3516
  53   2.0000      -0.686125       -18.6704
  54   2.0000      -0.668502       -18.1909
  55   2.0000      -0.632453       -17.2099
  56   2.0000      -0.624881       -17.0039
  57   2.0000      -0.607105       -16.5202
  58   2.0000      -0.605680       -16.4814
  59   2.0000      -0.592625       -16.1262
  60   2.0000      -0.532319       -14.4851
  61   2.0000      -0.522838       -14.2271
  62   2.0000      -0.500125       -13.6091
  63   2.0000      -0.498340       -13.5605
  64   2.0000      -0.476415       -12.9639
  65   2.0000      -0.467255       -12.7147
  66   2.0000      -0.460351       -12.5268
  67   2.0000      -0.453176       -12.3315
  68   2.0000      -0.448149       -12.1948
  69   2.0000      -0.427496       -11.6327
  70   2.0000      -0.425037       -11.5658
  71   2.0000      -0.413513       -11.2523
  72   2.0000      -0.411397       -11.1947
  73   2.0000      -0.407145       -11.0790
  74   2.0000      -0.400829       -10.9071
  75   2.0000      -0.390683       -10.6310
  76   2.0000      -0.381865       -10.3911
  77   2.0000      -0.378253       -10.2928
  78   2.0000      -0.370827       -10.0907
  79   2.0000      -0.370519       -10.0823
  80   2.0000      -0.363509        -9.8916
  81   2.0000      -0.361290        -9.8312
  82   2.0000      -0.358508        -9.7555
  83   2.0000      -0.353852        -9.6288
  84   2.0000      -0.350704        -9.5431
  85   2.0000      -0.339380        -9.2350
  86   2.0000      -0.326381        -8.8813
  87   2.0000      -0.314563        -8.5597
  88   2.0000      -0.311292        -8.4707
  89   2.0000      -0.308545        -8.3959
  90   2.0000      -0.305111        -8.3025
  91   2.0000      -0.294586        -8.0161
  92   2.0000      -0.287037        -7.8107
  93   2.0000      -0.281412        -7.6576
  94   2.0000      -0.272555        -7.4166
  95   2.0000      -0.246224        -6.7001
  96   2.0000      -0.232847        -6.3361
  97   2.0000      -0.225835        -6.1453
  98   2.0000      -0.217268        -5.9122
  99   2.0000      -0.215122        -5.8538
 100   2.0000      -0.211327        -5.7505
 101   0.0000      -0.045102        -1.2273
 102   0.0000      -0.022707        -0.6179
 103   0.0000      -0.002707        -0.0737
 104   0.0000      -0.000441        -0.0120
 105   0.0000       0.015470         0.4210

MULLIKEN ATOMIC CHARGES
-----------------------
   0 C :   -0.442339
   1 C :   -0.149464
   2 O :   -0.251402
   3 P :    0.663854
   4 S :   -0.486354
   5 O :   -0.299737
   6 C :   -0.132373
   7 C :   -0.456651
   8 S :   -0.120507
   9 C :   -0.226838
  10 S :   -0.183060
  11 P :    0.657547
  12 S :   -0.445281
  13 O :   -0.253827
  14 C :   -0.096071
  15 C :   -0.485874
  16 O :   -0.288227
  17 C :   -0.166168
  18 C :   -0.440770
  19 H :    0.148036
  20 H :    0.170457
  21 H :    0.155993
  22 H :    0.145676
  23 H :    0.176975
  24 H :    0.155534
  25 H :    0.151919
  26 H :    0.151581
  27 H :    0.182134
  28 H :    0.146348
  29 H :    0.212835
  30 H :    0.217609
  31 H :    0.154102
  32 H :    0.170080
  33 H :    0.165627
  34 H :    0.143969
  35 H :    0.160197
  36 H :    0.150374
  37 H :    0.174065
  38 H :    0.168205
  39 H :    0.153557
  40 H :    0.148268
Sum of atomic charges:    0.0000000

LOEWDIN ATOMIC CHARGES
----------------------
   0 C :   -0.398845
   1 C :    0.014930
   2 O :   -0.676410
   3 P :    0.376942
   4 S :   -0.135485
   5 O :   -0.659245
   6 C :    0.023778
   7 C :   -0.401571
   8 S :    0.177052
   9 C :   -0.425648
  10 S :    0.135473
  11 P :    0.378723
  12 S :   -0.104936
  13 O :   -0.648425
  14 C :    0.020235
  15 C :   -0.392331
  16 O :   -0.670039
  17 C :    0.022769
  18 C :   -0.402717
  19 H :    0.159928
  20 H :    0.166477
  21 H :    0.160318
  22 H :    0.177026
  23 H :    0.182383
  24 H :    0.176660
  25 H :    0.179744
  26 H :    0.157896
  27 H :    0.168890
  28 H :    0.158792
  29 H :    0.191746
  30 H :    0.192595
  31 H :    0.175441
  32 H :    0.187070
  33 H :    0.165416
  34 H :    0.157813
  35 H :    0.162984
  36 H :    0.179126
  37 H :    0.182623
  38 H :    0.164560
  39 H :    0.158083
  40 H :    0.160180

  Mayer bond orders larger than 0.100000
B(  0-C ,  1-C ) :   0.9252 B(  0-C , 19-H ) :   0.9631 B(  0-C , 20-H ) :   0.9579
B(  0-C , 21-H ) :   0.9723 B(  1-C ,  2-O ) :   0.7762 B(  1-C , 22-H ) :   0.9611
B(  1-C , 23-H ) :   0.9608 B(  2-O ,  3-P ) :   1.1389 B(  3-P ,  4-S ) :   1.7368
B(  3-P ,  5-O ) :   1.0729 B(  3-P ,  8-S ) :   1.1146 B(  5-O ,  6-C ) :   0.7796
B(  6-C ,  7-C ) :   0.9520 B(  6-C , 24-H ) :   0.9636 B(  6-C , 25-H ) :   0.9634
B(  7-C , 26-H ) :   0.9747 B(  7-C , 27-H ) :   0.9574 B(  7-C , 28-H ) :   0.9638
B(  8-S ,  9-C ) :   0.9091 B(  9-C , 10-S ) :   0.9057 B(  9-C , 29-H ) :   0.9056
B(  9-C , 30-H ) :   0.9046 B( 10-S , 11-P ) :   0.9892 B( 11-P , 12-S ) :   1.8543
B( 11-P , 13-O ) :   1.1517 B( 11-P , 16-O ) :   1.0405 B( 13-O , 14-C ) :   0.7331
B( 14-C , 15-C ) :   0.9293 B( 14-C , 31-H ) :   0.9704 B( 14-C , 32-H ) :   0.9536
B( 15-C , 33-H ) :   0.9708 B( 15-C , 34-H ) :   0.9663 B( 15-C , 35-H ) :   0.9737
B( 16-O , 17-C ) :   0.7767 B( 17-C , 18-C ) :   0.9427 B( 17-C , 36-H ) :   0.9647
B( 17-C , 37-H ) :   0.9607 B( 18-C , 38-H ) :   0.9559 B( 18-C , 39-H ) :   0.9749
B( 18-C , 40-H ) :   0.9633

Dispersion correction           -0.021379242
FINAL SINGLE POINT ENERGY     -2932.463583206938

DIPOLE MOMENT
-------------

Method             : SCF
Type of density    : Electron Density
Multiplicity       :   1
Irrep              :   0
Energy             : -2932.4887064565809851 Eh
Relativity type    :
Basis              : AO
                                X                 Y                 Z
Electronic contribution:     -4.092891201      -2.839317227     -17.992762206
Nuclear contribution   :      4.284182345       3.182186092      19.604674994
                        -----------------------------------------
Total Dipole Moment    :      0.191291144       0.342868865       1.611912787
                        -----------------------------------------
Magnitude (a.u.)       :      1.659040143
Magnitude (Debye)      :      4.216944916

Rotational constants in cm-1:             0.013184             0.004689             0.004442
Rotational constants in MHz :           395.253683           140.583453           133.176163

                             ****ORCA TERMINATED NORMALLY****
TOTAL RUN TIME: 0 days 0 hours 1 minutes 19 seconds 247 msec
