                         Program Version 6.0.0  -   RELEASE  -
|  1> ! r2scan-3c def2/J RI DEFGRID2 scfconv6 printgap
|  2> %output
|  3>     printlevel normal
|  4> end
|  5> %cpcm
|  6>     smd true
|  7>     smdsolvent "water"
|  8> end
|  9> * xyz 0 1
| 10> C 2.8992721416 0.1902449446 3.2804559067
| 11> C 1.5473054971 -0.1556305391 2.6945094398
| 12> O 1.4005869976 0.3830515429 1.3619430436
| 13> P 2.2212181184 -0.1966777627 0.1409385203
| 14> S 2.7309382499 -2.0883903275 0.2743877947
| 15> O 3.3873766256 0.8745280276 0.0253336529
| 16> C 4.4073722233 0.8090676648 -0.9913048058
| 17> C 5.6232269219 0.0525846006 -0.4916104029
| 18> S 0.9764580395 0.2906171393 -1.5037156217
| 19> C -0.044797233 -1.2052866679 -1.4191656757
| 20> S -1.1309245686 -1.2350945632 0.0238504918
| 21> P -2.3887006279 0.3744345267 -0.6082986271
| 22> S -2.768213599 0.4128511566 -2.5242482753
| 23> O -1.6916978487 1.693862226 -0.1059974685
| 24> C -1.4284087422 1.97072071 1.291786492
| 25> C -2.4749632134 2.9117218839 1.8504306098
| 26> O -3.6536423741 0.2721420848 0.3465121547
| 27> C -4.7149905097 -0.6790977697 0.1306553616
| 28> C -4.4979098174 -1.9411177948 0.9422265272
| 29> H 2.950877919 -0.1630376268 4.3054386454
| 30> H 3.6838939112 -0.2924411874 2.6987664013
| 31> H 3.0561953421 1.2652453233 3.256618033
| 32> H 0.7311374553 0.2998189627 3.2562089143
| 33> H 1.408268101 -1.2404131984 2.6481633463
| 34> H 3.9935247899 0.3415652647 -1.8896111101
| 35> H 4.6478396878 1.8523099813 -1.204635945
| 36> H 6.0053630693 0.5162314646 0.4135177221
| 37> H 5.3623241469 -0.9810040702 -0.2750021802
| 38> H 6.3932854439 0.0694193789 -1.256035333
| 39> H 0.5990036605 -2.0825510081 -1.3492186961
| 40> H -0.6501500673 -1.2217284835 -2.3256703077
| 41> H -1.409170538 1.0252541387 1.8408864014
| 42> H -0.4334065859 2.4207868708 1.3015081227
| 43> H -3.4537058913 2.4399655592 1.8278123115
| 44> H -2.2187203386 3.1613027957 2.8753157579
| 45> H -2.5101309431 3.8210795325 1.2568417739
| 46> H -5.618298396 -0.1558077802 0.4495785421
| 47> H -4.780897447 -0.8961176973 -0.9402261631
| 48> H -3.6009332085 -2.4606593053 0.6133890305
| 49> H -4.3925433842 -1.6942528383 1.9948327159
| 50> H -5.3538604677 -2.5954997953 0.8123149105
| 51> *
| 52>
| 53>                          ****END OF INPUT****

CARTESIAN COORDINATES (ANGSTROEM)
---------------------------------
  C      2.899272    0.190245    3.280456
  C      1.547305   -0.155631    2.694509
  O      1.400587    0.383052    1.361943
  P      2.221218   -0.196678    0.140939
  S      2.730938   -2.088390    0.274388
  O      3.387377    0.874528    0.025334
  C      4.407372    0.809068   -0.991305
  C      5.623227    0.052585   -0.491610
  S      0.976458    0.290617   -1.503716
  C     -0.044797   -1.205287   -1.419166
  S     -1.130925   -1.235095    0.023850
  P     -2.388701    0.374435   -0.608299
  S     -2.768214    0.412851   -2.524248
  O     -1.691698    1.693862   -0.105997
  C     -1.428409    1.970721    1.291786
  C     -2.474963    2.911722    1.850431
  O     -3.653642    0.272142    0.346512
  C     -4.714991   -0.679098    0.130655
  C     -4.497910   -1.941118    0.942227
  H      2.950878   -0.163038    4.305439
  H      3.683894   -0.292441    2.698766
  H      3.056195    1.265245    3.256618
  H      0.731137    0.299819    3.256209
  H      1.408268   -1.240413    2.648163
  H      3.993525    0.341565   -1.889611
  H      4.647840    1.852310   -1.204636
  H      6.005363    0.516231    0.413518
  H      5.362324   -0.981004   -0.275002
  H      6.393285    0.069419   -1.256035
  H      0.599004   -2.082551   -1.349219
  H     -0.650150   -1.221728   -2.325670
  H     -1.409171    1.025254    1.840886
  H     -0.433407    2.420787    1.301508
  H     -3.453706    2.439966    1.827812
  H     -2.218720    3.161303    2.875316
  H     -2.510131    3.821080    1.256842
  H     -5.618298   -0.155808    0.449579
  H     -4.780897   -0.896118   -0.940226
  H     -3.600933   -2.460659    0.613389
  H     -4.392543   -1.694253    1.994833
  H     -5.353860   -2.595500    0.812315

 Total Charge           Charge          ....    0
 Multiplicity           Mult            ....    1
 Number of Electrons    NEL             ....  202
 Basis Dimension        Dim             ....  539

ORBITAL ENERGIES
----------------

  NO   OCC          E(Eh)            E(eV)
   0   2.0000     -88.579106     -2410.3600
   1   2.0000     -88.577209     -2410.3084
   2   2.0000     -88.530114     -2409.0269
   3   2.0000     -88.528826     -2408.9918
   4   2.0000     -76.920674     -2093.1179
   5   2.0000     -76.919862     -2093.0959
   6   2.0000     -18.997405      -516.9457
   7   2.0000     -18.996678      -516.9259
   8   2.0000     -18.994517      -516.8671
   9   2.0000     -18.993440      -516.8378
  10   2.0000     -10.102750      -274.9098
  11   2.0000     -10.092197      -274.6226
  12   2.0000     -10.091599      -274.6064
  13   2.0000     -10.091177      -274.5949
  14   2.0000     -10.089462      -274.5482
  15   2.0000     -10.018736      -272.6237
  16   2.0000     -10.018404      -272.6146
  17   2.0000     -10.018403      -272.6146
  18   2.0000     -10.017027      -272.5772
  19   2.0000      -7.873310      -214.2437
  20   2.0000      -7.871515      -214.1948
  21   2.0000      -7.825329      -212.9380
  22   2.0000      -7.823976      -212.9012
  23   2.0000      -6.599164      -179.5724
  24   2.0000      -6.598404      -179.5517
  25   2.0000      -5.820139      -158.3740
  26   2.0000      -5.818292      -158.3238
  27   2.0000      -5.817158      -158.2929
  28   2.0000      -5.815373      -158.2444
  29   2.0000      -5.810523      -158.1124
  30   2.0000      -5.808733      -158.0637
  31   2.0000      -5.772910      -157.0889
  32   2.0000      -5.771488      -157.0502
  33   2.0000      -5.765516      -156.8877
  34   2.0000      -5.765396      -156.8844
  35   2.0000      -5.764211      -156.8522
  36   2.0000      -5.764093      -156.8489
  37   2.0000      -4.744975      -129.1173
  38   2.0000      -4.744049      -129.0921
  39   2.0000      -4.743778      -129.0848
  40   2.0000      -4.743342      -129.0729
  41   2.0000      -4.742705      -129.0556
  42   2.0000      -4.742272      -129.0438
  43   2.0000      -1.055295       -28.7160
  44   2.0000      -1.053763       -28.6743
  45   2.0000      -1.013928       -27.5904
  46   2.0000      -1.013313       -27.5737
  47   2.0000      -0.804172       -21.8826
  48   2.0000      -0.756152       -20.5759
  49   2.0000      -0.744695       -20.2642
  50   2.0000      -0.726565       -19.7708
  51   2.0000      -0.723322       -19.6826
  52   2.0000      -0.710494       -19.3335
  53   2.0000      -0.689490       -18.7620
  54   2.0000      -0.675040       -18.3688
  55   2.0000      -0.628949       -17.1146
  56   2.0000      -0.620632       -16.8883
  57   2.0000      -0.601999       -16.3812
  58   2.0000      -0.597141       -16.2490
  59   2.0000      -0.590788       -16.0762
  60   2.0000      -0.528642       -14.3851
  61   2.0000      -0.518303       -14.1037
  62   2.0000      -0.496558       -13.5120
  63   2.0000      -0.492867       -13.4116
  64   2.0000      -0.476284       -12.9603
  65   2.0000      -0.462477       -12.5846
  66   2.0000      -0.454648       -12.3716
  67   2.0000      -0.448330       -12.1997
  68   2.0000      -0.442261       -12.0345
  69   2.0000      -0.423842       -11.5333
  70   2.0000      -0.419394       -11.4123
  71   2.0000      -0.412266       -11.2183
  72   2.0000      -0.406067       -11.0496
  73   2.0000      -0.400850       -10.9077
  74   2.0000      -0.400210       -10.8903
  75   2.0000      -0.388122       -10.5613
  76   2.0000      -0.379074       -10.3151
  77   2.0000      -0.370708       -10.0875
  78   2.0000      -0.363545        -9.8926
  79   2.0000      -0.362723        -9.8702
  80   2.0000      -0.353975        -9.6321
  81   2.0000      -0.353063        -9.6073
  82   2.0000      -0.352472        -9.5912
  83   2.0000      -0.346300        -9.4233
  84   2.0000      -0.344922        -9.3858
  85   2.0000      -0.336826        -9.1655
  86   2.0000      -0.324105        -8.8193
  87   2.0000      -0.307285        -8.3617
  88   2.0000      -0.306556        -8.3418
  89   2.0000      -0.303139        -8.2488
  90   2.0000      -0.299924        -8.1613
  91   2.0000      -0.291969        -7.9449
  92   2.0000      -0.286043        -7.7836
  93   2.0000      -0.281406        -7.6575
  94   2.0000      -0.275298        -7.4912
  95   2.0000      -0.251160        -6.8344
  96   2.0000      -0.240728        -6.5505
  97   2.0000      -0.234815        -6.3896
  98   2.0000      -0.225433        -6.1344
  99   2.0000      -0.223262        -6.0753
 100   2.0000      -0.220673        -6.0048
 101   0.0000      -0.051192        -1.3930
 102   0.0000      -0.029875        -0.8129
 103   0.0000      -0.007603        -0.2069
 104   0.0000      -0.004868        -0.1325
 105   0.0000       0.014348         0.3904

MULLIKEN ATOMIC CHARGES
-----------------------
   0 C :   -0.485203
   1 C :   -0.142853
   2 O :   -0.275919
   3 P :    0.697209
   4 S :   -0.525433
   5 O :   -0.325469
   6 C :   -0.127815
   7 C :   -0.491711
   8 S :   -0.149147
   9 C :   -0.235094
  10 S :   -0.180245
  11 P :    0.670475
  12 S :   -0.502770
  13 O :   -0.285865
  14 C :   -0.083738
  15 C :   -0.531178
  16 O :   -0.305543
  17 C :   -0.154293
  18 C :   -0.472397
  19 H :    0.173003
  20 H :    0.167586
  21 H :    0.171206
  22 H :    0.180282
  23 H :    0.177334
  24 H :    0.165073
  25 H :    0.177396
  26 H :    0.167617
  27 H :    0.171520
  28 H :    0.169975
  29 H :    0.232510
  30 H :    0.232840
  31 H :    0.175997
  32 H :    0.181136
  33 H :    0.170445
  34 H :    0.171341
  35 H :    0.168958
  36 H :    0.176326
  37 H :    0.172366
  38 H :    0.161776
  39 H :    0.171538
  40 H :    0.170763
Sum of atomic charges:    0.0000000

LOEWDIN ATOMIC CHARGES
----------------------
   0 C :   -0.402403
   1 C :    0.021159
   2 O :   -0.685008
   3 P :    0.381726
   4 S :   -0.159356
   5 O :   -0.670895
   6 C :    0.028920
   7 C :   -0.405161
   8 S :    0.159300
   9 C :   -0.421773
  10 S :    0.141816
  11 P :    0.380887
  12 S :   -0.149512
  13 O :   -0.672186
  14 C :    0.026796
  15 C :   -0.394308
  16 O :   -0.673595
  17 C :    0.028550
  18 C :   -0.404138
  19 H :    0.169199
  20 H :    0.162764
  21 H :    0.164171
  22 H :    0.190936
  23 H :    0.182540
  24 H :    0.180398
  25 H :    0.190618
  26 H :    0.162532
  27 H :    0.162947
  28 H :    0.167562
  29 H :    0.197383
  30 H :    0.196689
  31 H :    0.184259
  32 H :    0.192051
  33 H :    0.165519
  34 H :    0.169095
  35 H :    0.164403
  36 H :    0.190220
  37 H :    0.182400
  38 H :    0.161025
  39 H :    0.163765
  40 H :    0.168705

  Mayer bond orders larger than 0.100000
B(  0-C ,  1-C ) :   0.9121 B(  0-C , 19-H ) :   0.9571 B(  0-C , 20-H ) :   0.9582
B(  0-C , 21-H ) :   0.9716 B(  1-C ,  2-O ) :   0.7636 B(  1-C , 22-H ) :   0.9507
B(  1-C , 23-H ) :   0.9575 B(  2-O ,  3-P ) :   1.1489 B(  3-P ,  4-S ) :   1.7084
B(  3-P ,  5-O ) :   1.0800 B(  3-P ,  8-S ) :   1.1155 B(  5-O ,  6-C ) :   0.7676
B(  6-C ,  7-C ) :   0.9433 B(  6-C , 24-H ) :   0.9571 B(  6-C , 25-H ) :   0.9534
B(  7-C , 26-H ) :   0.9716 B(  7-C , 27-H ) :   0.9613 B(  7-C , 28-H ) :   0.9589
B(  8-S ,  9-C ) :   0.8975 B(  9-C , 10-S ) :   0.8969 B(  9-C , 29-H ) :   0.9023
B(  9-C , 30-H ) :   0.9009 B( 10-S , 11-P ) :   1.0032 B( 11-P , 12-S ) :   1.8252
B( 11-P , 13-O ) :   1.1584 B( 11-P , 16-O ) :   1.0546 B( 13-O , 14-C ) :   0.7200
B( 14-C , 15-C ) :   0.9257 B( 14-C , 31-H ) :   0.9570 B( 14-C , 32-H ) :   0.9454
B( 15-C , 33-H ) :   0.9698 B( 15-C , 34-H ) :   0.9589 B( 15-C , 35-H ) :   0.9724
B( 16-O , 17-C ) :   0.7662 B( 17-C , 18-C ) :   0.9404 B( 17-C , 36-H ) :   0.9540
B( 17-C , 37-H ) :   0.9578 B( 18-C , 38-H ) :   0.9562 B( 18-C , 39-H ) :   0.9717
B( 18-C , 40-H ) :   0.9581

Dispersion correction           -0.021379242
FINAL SINGLE POINT ENERGY     -2932.472914654853

DIPOLE MOMENT
-------------

Method             : SCF
Type of density    : Electron Density
Multiplicity       :   1
Irrep              :   0
Energy             : -2932.4980379044955043 Eh
Relativity type    :
Basis              : AO
                                X                 Y                 Z
Electronic contribution:     -4.083195810      -2.887940724     -17.312960774
Nuclear contribution   :      4.284182345       3.182186092      19.604674994
                        -----------------------------------------
Total Dipole Moment    :      0.200986535       0.294245368       2.291714220
                        -----------------------------------------
Magnitude (a.u.)       :      2.319252032
Magnitude (Debye)      :      5.895070176

Rotational constants in cm-1:             0.013184             0.004689             0.004442
Rotational constants in MHz :           395.253683           140.583453           133.176163

                             ****ORCA TERMINATED NORMALLY****
TOTAL RUN TIME: 0 days 0 hours 1 minutes 48 seconds 413 msec
