                         Program Version 6.0.0  -   RELEASE  -
|  1> ! r2scan-3c def2/J RI DEFGRID2 scfconv6 printgap
|  2> %output
|  3>     printlevel normal
|  4> end
|  5> * xyz 0 1
|  6> C 4.2784473575 -0.216506431 -2.2021787158
|  7> C 4.4276867722 -0.591810948 -0.7412629298
|  8> O 3.1550233078 -0.7615040958 -0.0953097185
|  9> P 2.2135518952 0.4809057679 0.2473999775
| 10> S 3.1463905393 2.1199047485 0.7711888274
| 11> O 1.2329122 -0.1340332076 1.3276479243
| 12> C 1.5205702741 -0.0990772763 2.739164522
| 13> C 2.6498183496 -1.0381644018 3.1066269619
| 14> S 0.8769526076 0.6399017195 -1.3823576209
| 15> C 0.4234814249 -1.1059242389 -1.6031700741
| 16> S -0.6393181344 -1.7851282768 -0.2943631495
| 17> P -2.1036231618 -0.2755592859 -0.3095031109
| 18> S -2.6396639058 0.4211494369 -2.0665514607
| 19> O -1.5164781071 0.7680061425 0.7286351783
| 20> C -1.8551607503 2.1665016911 0.6761674931
| 21> C -3.2782433474 2.4055365879 1.1333672428
| 22> O -3.279825371 -0.9211594817 0.5402503343
| 23> C -4.1711775273 -1.9001229682 -0.0333084698
| 24> C -5.3954291711 -1.9933034237 0.8546544481
| 25> H 5.2620567836 -0.1446758329 -2.6552390141
| 26> H 3.6937719307 -0.9619920299 -2.7349491139
| 27> H 3.7804617992 0.7491499609 -2.2880929161
| 28> H 4.986676746 0.1818286879 -0.2052185854
| 29> H 4.9182114436 -1.5584924147 -0.6193707043
| 30> H 1.7657547028 0.9315858669 3.01632738
| 31> H 0.5775201405 -0.3944470235 3.2019259396
| 32> H 2.7529663544 -1.0691331531 4.1868068715
| 33> H 2.4418534568 -2.0373490384 2.7327842146
| 34> H 3.5830938676 -0.683465103 2.6719062547
| 35> H 1.31685966 -1.7247836607 -1.6231412656
| 36> H -0.1093390008 -1.1395352996 -2.5524421443
| 37> H -1.1261551704 2.6429829928 1.3343187292
| 38> H -1.7082839815 2.5233215319 -0.3493748786
| 39> H -3.4752679716 3.4726266872 1.1585199257
| 40> H -3.969192748 1.9322392518 0.4365452464
| 41> H -3.4300701621 1.9824540995 2.1227738528
| 42> H -4.4321321285 -1.5801396041 -1.0477421724
| 43> H -3.641199986 -2.8550379931 -0.0847446607
| 44> H -5.1003632544 -2.2663740033 1.8635751635
| 45> H -5.9111237966 -1.0377278832 0.8851623883
| 46> H -6.0653747036 -2.7489342902 0.4579206108
| 47> *
| 48>
| 49>                          ****END OF INPUT****

CARTESIAN COORDINATES (ANGSTROEM)
---------------------------------
  C      4.278447   -0.216506   -2.202179
  C      4.427687   -0.591811   -0.741263
  O      3.155023   -0.761504   -0.095310
  P      2.213552    0.480906    0.247400
  S      3.146391    2.119905    0.771189
  O      1.232912   -0.134033    1.327648
  C      1.520570   -0.099077    2.739165
  C      2.649818   -1.038164    3.106627
  S      0.876953    0.639902   -1.382358
  C      0.423481   -1.105924   -1.603170
  S     -0.639318   -1.785128   -0.294363
  P     -2.103623   -0.275559   -0.309503
  S     -2.639664    0.421149   -2.066551
  O     -1.516478    0.768006    0.728635
  C     -1.855161    2.166502    0.676167
  C     -3.278243    2.405537    1.133367
  O     -3.279825   -0.921159    0.540250
  C     -4.171178   -1.900123   -0.033308
  C     -5.395429   -1.993303    0.854654
  H      5.262057   -0.144676   -2.655239
  H      3.693772   -0.961992   -2.734949
  H      3.780462    0.749150   -2.288093
  H      4.986677    0.181829   -0.205219
  H      4.918211   -1.558492   -0.619371
  H      1.765755    0.931586    3.016327
  H      0.577520   -0.394447    3.201926
  H      2.752966   -1.069133    4.186807
  H      2.441853   -2.037349    2.732784
  H      3.583094   -0.683465    2.671906
  H      1.316860   -1.724784   -1.623141
  H     -0.109339   -1.139535   -2.552442
  H     -1.126155    2.642983    1.334319
  H     -1.708284    2.523322   -0.349375
  H     -3.475268    3.472627    1.158520
  H     -3.969193    1.932239    0.436545
  H     -3.430070    1.982454    2.122774
  H     -4.432132   -1.580140   -1.047742
  H     -3.641200   -2.855038   -0.084745
  H     -5.100363   -2.266374    1.863575
  H     -5.911124   -1.037728    0.885162
  H     -6.065375   -2.748934    0.457921

 Total Charge           Charge          ....    0
 Multiplicity           Mult            ....    1
 Number of Electrons    NEL             ....  202
 Basis Dimension        Dim             ....  539

ORBITAL ENERGIES
----------------

  NO   OCC          E(Eh)            E(eV)
   0   2.0000     -88.574709     -2410.2404
   1   2.0000     -88.573320     -2410.2026
   2   2.0000     -88.521707     -2408.7981
   3   2.0000     -88.518821     -2408.7196
   4   2.0000     -76.912744     -2092.9022
   5   2.0000     -76.912365     -2092.8919
   6   2.0000     -18.993205      -516.8314
   7   2.0000     -18.991942      -516.7970
   8   2.0000     -18.985172      -516.6128
   9   2.0000     -18.984363      -516.5908
  10   2.0000     -10.110828      -275.1296
  11   2.0000     -10.100238      -274.8414
  12   2.0000     -10.098647      -274.7982
  13   2.0000     -10.095175      -274.7037
  14   2.0000     -10.091156      -274.5943
  15   2.0000     -10.033843      -273.0347
  16   2.0000     -10.031372      -272.9675
  17   2.0000     -10.028211      -272.8815
  18   2.0000     -10.024255      -272.7738
  19   2.0000      -7.868817      -214.1214
  20   2.0000      -7.868019      -214.0997
  21   2.0000      -7.816357      -212.6939
  22   2.0000      -7.813545      -212.6174
  23   2.0000      -6.591207      -179.3559
  24   2.0000      -6.590857      -179.3463
  25   2.0000      -5.816224      -158.2675
  26   2.0000      -5.814974      -158.2335
  27   2.0000      -5.812315      -158.1611
  28   2.0000      -5.811884      -158.1494
  29   2.0000      -5.805775      -157.9832
  30   2.0000      -5.804970      -157.9613
  31   2.0000      -5.763941      -156.8448
  32   2.0000      -5.761150      -156.7688
  33   2.0000      -5.756721      -156.6483
  34   2.0000      -5.756354      -156.6384
  35   2.0000      -5.753878      -156.5710
  36   2.0000      -5.753555      -156.5622
  37   2.0000      -4.736508      -128.8869
  38   2.0000      -4.736278      -128.8807
  39   2.0000      -4.736196      -128.8785
  40   2.0000      -4.735833      -128.8686
  41   2.0000      -4.735002      -128.8460
  42   2.0000      -4.734703      -128.8378
  43   2.0000      -1.048819       -28.5398
  44   2.0000      -1.047373       -28.5005
  45   2.0000      -1.010170       -27.4881
  46   2.0000      -1.008079       -27.4312
  47   2.0000      -0.801721       -21.8159
  48   2.0000      -0.758178       -20.6311
  49   2.0000      -0.748283       -20.3618
  50   2.0000      -0.731981       -19.9182
  51   2.0000      -0.729475       -19.8500
  52   2.0000      -0.709980       -19.3195
  53   2.0000      -0.687563       -18.7095
  54   2.0000      -0.668222       -18.1833
  55   2.0000      -0.631590       -17.1864
  56   2.0000      -0.625027       -17.0079
  57   2.0000      -0.606515       -16.5041
  58   2.0000      -0.599188       -16.3047
  59   2.0000      -0.593414       -16.1476
  60   2.0000      -0.527403       -14.3514
  61   2.0000      -0.518558       -14.1107
  62   2.0000      -0.494446       -13.4545
  63   2.0000      -0.491916       -13.3857
  64   2.0000      -0.475804       -12.9473
  65   2.0000      -0.461541       -12.5592
  66   2.0000      -0.460047       -12.5185
  67   2.0000      -0.452354       -12.3092
  68   2.0000      -0.444045       -12.0831
  69   2.0000      -0.432507       -11.7691
  70   2.0000      -0.423352       -11.5200
  71   2.0000      -0.414224       -11.2716
  72   2.0000      -0.409383       -11.1399
  73   2.0000      -0.406750       -11.0682
  74   2.0000      -0.396866       -10.7993
  75   2.0000      -0.387478       -10.5438
  76   2.0000      -0.385133       -10.4800
  77   2.0000      -0.373346       -10.1593
  78   2.0000      -0.371501       -10.1091
  79   2.0000      -0.367488        -9.9999
  80   2.0000      -0.363060        -9.8794
  81   2.0000      -0.360320        -9.8048
  82   2.0000      -0.355733        -9.6800
  83   2.0000      -0.354163        -9.6373
  84   2.0000      -0.343028        -9.3343
  85   2.0000      -0.334823        -9.1110
  86   2.0000      -0.325583        -8.8596
  87   2.0000      -0.316337        -8.6080
  88   2.0000      -0.308453        -8.3934
  89   2.0000      -0.304153        -8.2764
  90   2.0000      -0.295974        -8.0539
  91   2.0000      -0.288292        -7.8448
  92   2.0000      -0.279738        -7.6121
  93   2.0000      -0.278787        -7.5862
  94   2.0000      -0.274763        -7.4767
  95   2.0000      -0.242622        -6.6021
  96   2.0000      -0.230698        -6.2776
  97   2.0000      -0.223372        -6.0783
  98   2.0000      -0.220671        -6.0048
  99   2.0000      -0.212870        -5.7925
 100   2.0000      -0.211708        -5.7609
 101   0.0000      -0.045265        -1.2317
 102   0.0000      -0.019870        -0.5407
 103   0.0000      -0.008617        -0.2345
 104   0.0000       0.006729         0.1831
 105   0.0000       0.007172         0.1952

MULLIKEN ATOMIC CHARGES
-----------------------
   0 C :   -0.433075
   1 C :   -0.158675
   2 O :   -0.301297
   3 P :    0.677188
   4 S :   -0.470563
   5 O :   -0.228380
   6 C :   -0.176417
   7 C :   -0.432675
   8 S :   -0.127220
   9 C :   -0.242587
  10 S :   -0.132243
  11 P :    0.697600
  12 S :   -0.480991
  13 O :   -0.271027
  14 C :   -0.149197
  15 C :   -0.447877
  16 O :   -0.287946
  17 C :   -0.156449
  18 C :   -0.439781
  19 H :    0.148577
  20 H :    0.144662
  21 H :    0.177385
  22 H :    0.171393
  23 H :    0.148662
  24 H :    0.170247
  25 H :    0.157791
  26 H :    0.146520
  27 H :    0.156796
  28 H :    0.161838
  29 H :    0.186885
  30 H :    0.208383
  31 H :    0.159123
  32 H :    0.176928
  33 H :    0.147502
  34 H :    0.166989
  35 H :    0.153454
  36 H :    0.171703
  37 H :    0.150890
  38 H :    0.153409
  39 H :    0.155592
  40 H :    0.146885
Sum of atomic charges:    0.0000000

LOEWDIN ATOMIC CHARGES
----------------------
   0 C :   -0.402555
   1 C :    0.016710
   2 O :   -0.680909
   3 P :    0.372542
   4 S :   -0.114903
   5 O :   -0.687679
   6 C :    0.023358
   7 C :   -0.398197
   8 S :    0.191466
   9 C :   -0.410246
  10 S :    0.184240
  11 P :    0.369330
  12 S :   -0.130998
  13 O :   -0.665671
  14 C :    0.019022
  15 C :   -0.399470
  16 O :   -0.663974
  17 C :    0.018392
  18 C :   -0.385920
  19 H :    0.160201
  20 H :    0.155172
  21 H :    0.168072
  22 H :    0.180865
  23 H :    0.178537
  24 H :    0.179922
  25 H :    0.182187
  26 H :    0.158783
  27 H :    0.161455
  28 H :    0.162995
  29 H :    0.186070
  30 H :    0.190484
  31 H :    0.182315
  32 H :    0.182747
  33 H :    0.159559
  34 H :    0.164396
  35 H :    0.159384
  36 H :    0.180766
  37 H :    0.171362
  38 H :    0.159835
  39 H :    0.160432
  40 H :    0.159924

  Mayer bond orders larger than 0.100000
B(  0-C ,  1-C ) :   0.9333 B(  0-C , 19-H ) :   0.9601 B(  0-C , 20-H ) :   0.9710
B(  0-C , 21-H ) :   0.9593 B(  1-C ,  2-O ) :   0.8076 B(  1-C , 22-H ) :   0.9602
B(  1-C , 23-H ) :   0.9599 B(  2-O ,  3-P ) :   1.0225 B(  3-P ,  4-S ) :   1.8047
B(  3-P ,  5-O ) :   1.1409 B(  3-P ,  8-S ) :   1.0499 B(  5-O ,  6-C ) :   0.7932
B(  6-C ,  7-C ) :   0.9217 B(  6-C , 24-H ) :   0.9607 B(  6-C , 25-H ) :   0.9647
B(  7-C , 26-H ) :   0.9630 B(  7-C , 27-H ) :   0.9740 B(  7-C , 28-H ) :   0.9613
B(  8-S ,  9-C ) :   0.9046 B(  9-C , 10-S ) :   0.9253 B(  9-C , 29-H ) :   0.9166
B(  9-C , 30-H ) :   0.9149 B( 10-S , 11-P ) :   1.0784 B( 11-P , 12-S ) :   1.7365
B( 11-P , 13-O ) :   1.1712 B( 11-P , 16-O ) :   1.0920 B( 13-O , 14-C ) :   0.7800
B( 14-C , 15-C ) :   0.9229 B( 14-C , 31-H ) :   0.9598 B( 14-C , 32-H ) :   0.9625
B( 15-C , 33-H ) :   0.9634 B( 15-C , 34-H ) :   0.9615 B( 15-C , 35-H ) :   0.9730
B( 16-O , 17-C ) :   0.7788 B( 17-C , 18-C ) :   0.9571 B( 17-C , 36-H ) :   0.9511
B( 17-C , 37-H ) :   0.9462 B( 18-C , 38-H ) :   0.9717 B( 18-C , 39-H ) :   0.9713
B( 18-C , 40-H ) :   0.9644

Dispersion correction           -0.021602321
FINAL SINGLE POINT ENERGY     -2932.460826862385

DIPOLE MOMENT
-------------

Method             : SCF
Type of density    : Electron Density
Multiplicity       :   1
Irrep              :   0
Energy             : -2932.4856219812172640 Eh
Relativity type    :
Basis              : AO
                                X                 Y                 Z
Electronic contribution:      3.747840768       4.372599972      -8.821113167
Nuclear contribution   :     -3.774626128      -5.667581317       9.474208468
                        -----------------------------------------
Total Dipole Moment    :     -0.026785360      -1.294981346       0.653095301
                        -----------------------------------------
Magnitude (a.u.)       :      1.450595606
Magnitude (Debye)      :      3.687121011

Rotational constants in cm-1:             0.013090             0.004827             0.004672
Rotational constants in MHz :           392.426414           144.702827           140.059061

                             ****ORCA TERMINATED NORMALLY****
TOTAL RUN TIME: 0 days 0 hours 1 minutes 24 seconds 269 msec
