                         Program Version 6.0.0  -   RELEASE  -
|  1> ! r2scan-3c def2/J RI DEFGRID2 scfconv6 printgap
|  2> %output
|  3>     printlevel normal
|  4> end
|  5> %cpcm
|  6>     smd true
|  7>     smdsolvent "water"
|  8> end
|  9> * xyz 0 1
| 10> C 4.2784473575 -0.216506431 -2.2021787158
| 11> C 4.4276867722 -0.591810948 -0.7412629298
| 12> O 3.1550233078 -0.7615040958 -0.0953097185
| 13> P 2.2135518952 0.4809057679 0.2473999775
| 14> S 3.1463905393 2.1199047485 0.7711888274
| 15> O 1.2329122 -0.1340332076 1.3276479243
| 16> C 1.5205702741 -0.0990772763 2.739164522
| 17> C 2.6498183496 -1.0381644018 3.1066269619
| 18> S 0.8769526076 0.6399017195 -1.3823576209
| 19> C 0.4234814249 -1.1059242389 -1.6031700741
| 20> S -0.6393181344 -1.7851282768 -0.2943631495
| 21> P -2.1036231618 -0.2755592859 -0.3095031109
| 22> S -2.6396639058 0.4211494369 -2.0665514607
| 23> O -1.5164781071 0.7680061425 0.7286351783
| 24> C -1.8551607503 2.1665016911 0.6761674931
| 25> C -3.2782433474 2.4055365879 1.1333672428
| 26> O -3.279825371 -0.9211594817 0.5402503343
| 27> C -4.1711775273 -1.9001229682 -0.0333084698
| 28> C -5.3954291711 -1.9933034237 0.8546544481
| 29> H 5.2620567836 -0.1446758329 -2.6552390141
| 30> H 3.6937719307 -0.9619920299 -2.7349491139
| 31> H 3.7804617992 0.7491499609 -2.2880929161
| 32> H 4.986676746 0.1818286879 -0.2052185854
| 33> H 4.9182114436 -1.5584924147 -0.6193707043
| 34> H 1.7657547028 0.9315858669 3.01632738
| 35> H 0.5775201405 -0.3944470235 3.2019259396
| 36> H 2.7529663544 -1.0691331531 4.1868068715
| 37> H 2.4418534568 -2.0373490384 2.7327842146
| 38> H 3.5830938676 -0.683465103 2.6719062547
| 39> H 1.31685966 -1.7247836607 -1.6231412656
| 40> H -0.1093390008 -1.1395352996 -2.5524421443
| 41> H -1.1261551704 2.6429829928 1.3343187292
| 42> H -1.7082839815 2.5233215319 -0.3493748786
| 43> H -3.4752679716 3.4726266872 1.1585199257
| 44> H -3.969192748 1.9322392518 0.4365452464
| 45> H -3.4300701621 1.9824540995 2.1227738528
| 46> H -4.4321321285 -1.5801396041 -1.0477421724
| 47> H -3.641199986 -2.8550379931 -0.0847446607
| 48> H -5.1003632544 -2.2663740033 1.8635751635
| 49> H -5.9111237966 -1.0377278832 0.8851623883
| 50> H -6.0653747036 -2.7489342902 0.4579206108
| 51> *
| 52>
| 53>                          ****END OF INPUT****

CARTESIAN COORDINATES (ANGSTROEM)
---------------------------------
  C      4.278447   -0.216506   -2.202179
  C      4.427687   -0.591811   -0.741263
  O      3.155023   -0.761504   -0.095310
  P      2.213552    0.480906    0.247400
  S      3.146391    2.119905    0.771189
  O      1.232912   -0.134033    1.327648
  C      1.520570   -0.099077    2.739165
  C      2.649818   -1.038164    3.106627
  S      0.876953    0.639902   -1.382358
  C      0.423481   -1.105924   -1.603170
  S     -0.639318   -1.785128   -0.294363
  P     -2.103623   -0.275559   -0.309503
  S     -2.639664    0.421149   -2.066551
  O     -1.516478    0.768006    0.728635
  C     -1.855161    2.166502    0.676167
  C     -3.278243    2.405537    1.133367
  O     -3.279825   -0.921159    0.540250
  C     -4.171178   -1.900123   -0.033308
  C     -5.395429   -1.993303    0.854654
  H      5.262057   -0.144676   -2.655239
  H      3.693772   -0.961992   -2.734949
  H      3.780462    0.749150   -2.288093
  H      4.986677    0.181829   -0.205219
  H      4.918211   -1.558492   -0.619371
  H      1.765755    0.931586    3.016327
  H      0.577520   -0.394447    3.201926
  H      2.752966   -1.069133    4.186807
  H      2.441853   -2.037349    2.732784
  H      3.583094   -0.683465    2.671906
  H      1.316860   -1.724784   -1.623141
  H     -0.109339   -1.139535   -2.552442
  H     -1.126155    2.642983    1.334319
  H     -1.708284    2.523322   -0.349375
  H     -3.475268    3.472627    1.158520
  H     -3.969193    1.932239    0.436545
  H     -3.430070    1.982454    2.122774
  H     -4.432132   -1.580140   -1.047742
  H     -3.641200   -2.855038   -0.084745
  H     -5.100363   -2.266374    1.863575
  H     -5.911124   -1.037728    0.885162
  H     -6.065375   -2.748934    0.457921

 Total Charge           Charge          ....    0
 Multiplicity           Mult            ....    1
 Number of Electrons    NEL             ....  202
 Basis Dimension        Dim             ....  539

ORBITAL ENERGIES
----------------

  NO   OCC          E(Eh)            E(eV)
   0   2.0000     -88.578129     -2410.3334
   1   2.0000     -88.576949     -2410.3013
   2   2.0000     -88.529918     -2409.0215
   3   2.0000     -88.526970     -2408.9413
   4   2.0000     -76.918498     -2093.0587
   5   2.0000     -76.917907     -2093.0427
   6   2.0000     -18.995058      -516.8818
   7   2.0000     -18.993059      -516.8274
   8   2.0000     -18.991639      -516.7888
   9   2.0000     -18.988193      -516.6950
  10   2.0000     -10.107288      -275.0333
  11   2.0000     -10.089921      -274.5607
  12   2.0000     -10.088719      -274.5280
  13   2.0000     -10.088576      -274.5241
  14   2.0000     -10.088478      -274.5214
  15   2.0000     -10.019651      -272.6486
  16   2.0000     -10.018332      -272.6127
  17   2.0000     -10.018243      -272.6103
  18   2.0000     -10.018150      -272.6077
  19   2.0000      -7.872368      -214.2180
  20   2.0000      -7.871580      -214.1966
  21   2.0000      -7.824930      -212.9272
  22   2.0000      -7.821993      -212.8473
  23   2.0000      -6.597061      -179.5152
  24   2.0000      -6.596407      -179.4974
  25   2.0000      -5.819729      -158.3629
  26   2.0000      -5.818503      -158.3295
  27   2.0000      -5.815840      -158.2571
  28   2.0000      -5.815434      -158.2460
  29   2.0000      -5.809390      -158.0815
  30   2.0000      -5.808598      -158.0600
  31   2.0000      -5.772420      -157.0755
  32   2.0000      -5.769535      -156.9970
  33   2.0000      -5.765305      -156.8819
  34   2.0000      -5.764942      -156.8720
  35   2.0000      -5.762299      -156.8001
  36   2.0000      -5.762036      -156.7930
  37   2.0000      -4.742378      -129.0467
  38   2.0000      -4.742050      -129.0378
  39   2.0000      -4.741625      -129.0262
  40   2.0000      -4.741494      -129.0226
  41   2.0000      -4.740939      -129.0075
  42   2.0000      -4.740302      -128.9902
  43   2.0000      -1.052318       -28.6350
  44   2.0000      -1.049668       -28.5629
  45   2.0000      -1.012710       -27.5572
  46   2.0000      -1.010649       -27.5012
  47   2.0000      -0.802421       -21.8350
  48   2.0000      -0.755918       -20.5696
  49   2.0000      -0.742553       -20.2059
  50   2.0000      -0.723517       -19.6879
  51   2.0000      -0.722729       -19.6664
  52   2.0000      -0.709447       -19.3050
  53   2.0000      -0.691631       -18.8202
  54   2.0000      -0.674561       -18.3557
  55   2.0000      -0.629983       -17.1427
  56   2.0000      -0.622210       -16.9312
  57   2.0000      -0.599584       -16.3155
  58   2.0000      -0.594474       -16.1765
  59   2.0000      -0.590036       -16.0557
  60   2.0000      -0.525612       -14.3026
  61   2.0000      -0.514476       -13.9996
  62   2.0000      -0.494248       -13.4492
  63   2.0000      -0.488714       -13.2986
  64   2.0000      -0.475097       -12.9281
  65   2.0000      -0.459460       -12.5025
  66   2.0000      -0.454350       -12.3635
  67   2.0000      -0.447833       -12.1861
  68   2.0000      -0.440987       -11.9999
  69   2.0000      -0.431283       -11.7358
  70   2.0000      -0.420870       -11.4525
  71   2.0000      -0.411190       -11.1891
  72   2.0000      -0.405322       -11.0294
  73   2.0000      -0.402889       -10.9632
  74   2.0000      -0.396289       -10.7836
  75   2.0000      -0.384172       -10.4539
  76   2.0000      -0.382635       -10.4120
  77   2.0000      -0.367057        -9.9881
  78   2.0000      -0.364594        -9.9211
  79   2.0000      -0.362295        -9.8585
  80   2.0000      -0.353410        -9.6168
  81   2.0000      -0.352575        -9.5941
  82   2.0000      -0.349125        -9.5002
  83   2.0000      -0.347002        -9.4424
  84   2.0000      -0.340740        -9.2720
  85   2.0000      -0.331750        -9.0274
  86   2.0000      -0.322524        -8.7763
  87   2.0000      -0.313398        -8.5280
  88   2.0000      -0.303629        -8.2622
  89   2.0000      -0.303026        -8.2458
  90   2.0000      -0.297240        -8.0883
  91   2.0000      -0.288793        -7.8584
  92   2.0000      -0.280700        -7.6382
  93   2.0000      -0.277647        -7.5552
  94   2.0000      -0.275852        -7.5063
  95   2.0000      -0.247521        -6.7354
  96   2.0000      -0.237131        -6.4527
  97   2.0000      -0.232398        -6.3239
  98   2.0000      -0.229978        -6.2580
  99   2.0000      -0.220396        -5.9973
 100   2.0000      -0.218521        -5.9463
 101   0.0000      -0.049078        -1.3355
 102   0.0000      -0.025723        -0.7000
 103   0.0000      -0.012920        -0.3516
 104   0.0000       0.001952         0.0531
 105   0.0000       0.005099         0.1387

MULLIKEN ATOMIC CHARGES
-----------------------
   0 C :   -0.471560
   1 C :   -0.152377
   2 O :   -0.314959
   3 P :    0.708167
   4 S :   -0.528222
   5 O :   -0.258340
   6 C :   -0.171255
   7 C :   -0.471782
   8 S :   -0.156942
   9 C :   -0.251359
  10 S :   -0.138225
  11 P :    0.725390
  12 S :   -0.529193
  13 O :   -0.298897
  14 C :   -0.144393
  15 C :   -0.490196
  16 O :   -0.315426
  17 C :   -0.147325
  18 C :   -0.483019
  19 H :    0.171060
  20 H :    0.169403
  21 H :    0.166751
  22 H :    0.173396
  23 H :    0.175189
  24 H :    0.175744
  25 H :    0.178408
  26 H :    0.171614
  27 H :    0.169227
  28 H :    0.166679
  29 H :    0.227999
  30 H :    0.232725
  31 H :    0.179114
  32 H :    0.178073
  33 H :    0.171867
  34 H :    0.167448
  35 H :    0.169590
  36 H :    0.172712
  37 H :    0.171086
  38 H :    0.165905
  39 H :    0.166136
  40 H :    0.169787
Sum of atomic charges:    0.0000000

LOEWDIN ATOMIC CHARGES
----------------------
   0 C :   -0.406272
   1 C :    0.023786
   2 O :   -0.683731
   3 P :    0.377120
   4 S :   -0.153520
   5 O :   -0.701943
   6 C :    0.026984
   7 C :   -0.401257
   8 S :    0.176147
   9 C :   -0.398588
  10 S :    0.183452
  11 P :    0.372421
  12 S :   -0.161615
  13 O :   -0.683215
  14 C :    0.020921
  15 C :   -0.402410
  16 O :   -0.678024
  17 C :    0.023296
  18 C :   -0.389463
  19 H :    0.167986
  20 H :    0.162939
  21 H :    0.161840
  22 H :    0.181223
  23 H :    0.190324
  24 H :    0.181928
  25 H :    0.190335
  26 H :    0.168247
  27 H :    0.164334
  28 H :    0.162644
  29 H :    0.201418
  30 H :    0.199044
  31 H :    0.190150
  32 H :    0.182613
  33 H :    0.168615
  34 H :    0.162398
  35 H :    0.163883
  36 H :    0.181572
  37 H :    0.179493
  38 H :    0.163280
  39 H :    0.162636
  40 H :    0.169007

  Mayer bond orders larger than 0.100000
B(  0-C ,  1-C ) :   0.9230 B(  0-C , 19-H ) :   0.9557 B(  0-C , 20-H ) :   0.9666
B(  0-C , 21-H ) :   0.9619 B(  1-C ,  2-O ) :   0.7941 B(  1-C , 22-H ) :   0.9596
B(  1-C , 23-H ) :   0.9498 B(  2-O ,  3-P ) :   1.0389 B(  3-P ,  4-S ) :   1.7621
B(  3-P ,  5-O ) :   1.1472 B(  3-P ,  8-S ) :   1.0619 B(  5-O ,  6-C ) :   0.7849
B(  6-C ,  7-C ) :   0.9120 B(  6-C , 24-H ) :   0.9555 B(  6-C , 25-H ) :   0.9555
B(  7-C , 26-H ) :   0.9570 B(  7-C , 27-H ) :   0.9723 B(  7-C , 28-H ) :   0.9593
B(  8-S ,  9-C ) :   0.9000 B(  9-C , 10-S ) :   0.9165 B(  9-C , 29-H ) :   0.9043
B(  9-C , 30-H ) :   0.9064 B( 10-S , 11-P ) :   1.1023 B( 11-P , 12-S ) :   1.6952
B( 11-P , 13-O ) :   1.1684 B( 11-P , 16-O ) :   1.0977 B( 13-O , 14-C ) :   0.7669
B( 14-C , 15-C ) :   0.9162 B( 14-C , 31-H ) :   0.9506 B( 14-C , 32-H ) :   0.9584
B( 15-C , 33-H ) :   0.9573 B( 15-C , 34-H ) :   0.9608 B( 15-C , 35-H ) :   0.9713
B( 16-O , 17-C ) :   0.7715 B( 17-C , 18-C ) :   0.9530 B( 17-C , 36-H ) :   0.9476
B( 17-C , 37-H ) :   0.9371 B( 18-C , 38-H ) :   0.9690 B( 18-C , 39-H ) :   0.9691
B( 18-C , 40-H ) :   0.9582

Dispersion correction           -0.021602321
FINAL SINGLE POINT ENERGY     -2932.470527030819

DIPOLE MOMENT
-------------

Method             : SCF
Type of density    : Electron Density
Multiplicity       :   1
Irrep              :   0
Energy             : -2932.4953221496507467 Eh
Relativity type    :
Basis              : AO
                                X                 Y                 Z
Electronic contribution:      3.866416203       3.759785812      -8.753866569
Nuclear contribution   :     -3.774626128      -5.667581317       9.474208468
                        -----------------------------------------
Total Dipole Moment    :      0.091790075      -1.907795505       0.720341899
                        -----------------------------------------
Magnitude (a.u.)       :      2.041323482
Magnitude (Debye)      :      5.188631944

Rotational constants in cm-1:             0.013090             0.004827             0.004672
Rotational constants in MHz :           392.426414           144.702827           140.059061

                             ****ORCA TERMINATED NORMALLY****
TOTAL RUN TIME: 0 days 0 hours 1 minutes 50 seconds 888 msec
