                         Program Version 6.0.1  -  RELEASE   -
|  1> ! pbe def2-sv(p) def2/J RI DEFGRID1 loosescf d4 GCP(DFT/SV(P)) printgap
|  2> %output
|  3>     printlevel normal
|  4> end
|  5> * xyz 0 1
|  6> C 4.5615170025 -1.6988500172 -3.1381552243
|  7> C 4.2910175406 -1.1319908264 -1.7585315814
|  8> O 3.0152155982 -1.6286219233 -1.3100516113
|  9> C 2.7172394132 -1.5112387904 -0.0360498375
| 10> O 3.4626874899 -1.0704992469 0.8117213381
| 11> C 1.3007625896 -1.9832217603 0.2509311185
| 12> C 0.3233284231 -0.9320074304 -0.2941455066
| 13> H 0.3137418043 -0.9481663058 -1.3864516082
| 14> C 0.8208630577 0.4265647867 0.1623995066
| 15> O 1.7054583715 1.0059410075 -0.4263308165
| 16> O 0.262603179 0.8231603954 1.2856733896
| 17> C 0.7828208595 2.0093324637 1.9170757446
| 18> C 1.8791941134 1.6340150122 2.8998960723
| 19> S -1.3483567592 -1.3024261401 0.3288133874
| 20> P -2.2699434604 0.5757139361 -0.028797791
| 21> S -1.4419081886 1.6978756467 -1.406271184
| 22> O -3.7801084953 0.1499541295 -0.3367172969
| 23> C -4.1297687764 -0.5371927079 -1.5443857021
| 24> O -2.4629562317 1.3233768767 1.3475537513
| 25> C -3.0943800733 0.6855688291 2.4787248177
| 26> H 3.7758740857 -1.3952505431 -3.8233467209
| 27> H 5.5140280216 -1.3241742531 -3.4974156699
| 28> H 4.594444598 -2.7835136634 -3.0969973003
| 29> H 4.2317005378 -0.0388065686 -1.7705427075
| 30> H 5.0530051373 -1.4319698975 -1.0323446392
| 31> H 1.1765942437 -2.0823813376 1.329671531
| 32> H 1.1182499325 -2.93799979 -0.2399067027
| 33> H 1.1591340132 2.6756974094 1.1356252312
| 34> H -0.0765480237 2.4609930398 2.4135560784
| 35> H 1.4844867122 0.9817471607 3.6736353784
| 36> H 2.6839624659 1.1157025504 2.3801676563
| 37> H 2.2749441668 2.5353035476 3.3555254667
| 38> H -3.7818723212 -1.5687558947 -1.4961334577
| 39> H -3.6879085779 -0.0323362987 -2.4047770836
| 40> H -5.2147237078 -0.499311667 -1.5981589525
| 41> H -3.0253834744 1.4081113564 3.2875165093
| 42> H -2.5619203214 -0.2312634468 2.7310149568
| 43> H -4.1335128312 0.4639906471 2.2450249147
| 44> *
| 45>
| 46>                          ****END OF INPUT****

CARTESIAN COORDINATES (ANGSTROEM)
---------------------------------
  C      4.561517   -1.698850   -3.138155
  C      4.291018   -1.131991   -1.758532
  O      3.015216   -1.628622   -1.310052
  C      2.717239   -1.511239   -0.036050
  O      3.462687   -1.070499    0.811721
  C      1.300763   -1.983222    0.250931
  C      0.323328   -0.932007   -0.294146
  H      0.313742   -0.948166   -1.386452
  C      0.820863    0.426565    0.162400
  O      1.705458    1.005941   -0.426331
  O      0.262603    0.823160    1.285673
  C      0.782821    2.009332    1.917076
  C      1.879194    1.634015    2.899896
  S     -1.348357   -1.302426    0.328813
  P     -2.269943    0.575714   -0.028798
  S     -1.441908    1.697876   -1.406271
  O     -3.780108    0.149954   -0.336717
  C     -4.129769   -0.537193   -1.544386
  O     -2.462956    1.323377    1.347554
  C     -3.094380    0.685569    2.478725
  H      3.775874   -1.395251   -3.823347
  H      5.514028   -1.324174   -3.497416
  H      4.594445   -2.783514   -3.096997
  H      4.231701   -0.038807   -1.770543
  H      5.053005   -1.431970   -1.032345
  H      1.176594   -2.082381    1.329672
  H      1.118250   -2.938000   -0.239907
  H      1.159134    2.675697    1.135625
  H     -0.076548    2.460993    2.413556
  H      1.484487    0.981747    3.673635
  H      2.683962    1.115703    2.380168
  H      2.274944    2.535304    3.355525
  H     -3.781872   -1.568756   -1.496133
  H     -3.687909   -0.032336   -2.404777
  H     -5.214724   -0.499312   -1.598159
  H     -3.025383    1.408111    3.287517
  H     -2.561920   -0.231263    2.731015
  H     -4.133513    0.463991    2.245025

 Total Charge           Charge          ....    0
 Multiplicity           Mult            ....    1
 Number of Electrons    NEL             ....  174
 Basis Dimension        Dim             ....  316

ORBITAL ENERGIES
----------------

  NO   OCC          E(Eh)            E(eV)
   0   2.0000     -88.042952     -2395.7705
   1   2.0000     -87.984753     -2394.1868
   2   2.0000     -76.428364     -2079.7215
   3   2.0000     -18.806743      -511.7575
   4   2.0000     -18.801144      -511.6051
   5   2.0000     -18.797882      -511.5164
   6   2.0000     -18.796129      -511.4687
   7   2.0000     -18.736312      -509.8410
   8   2.0000     -18.733757      -509.7715
   9   2.0000     -10.014233      -272.5011
  10   2.0000     -10.010379      -272.3963
  11   2.0000      -9.953648      -270.8525
  12   2.0000      -9.949415      -270.7373
  13   2.0000      -9.948026      -270.6996
  14   2.0000      -9.943064      -270.5645
  15   2.0000      -9.941401      -270.5193
  16   2.0000      -9.916919      -269.8531
  17   2.0000      -9.886221      -269.0178
  18   2.0000      -9.878820      -268.8164
  19   2.0000      -7.687928      -209.1992
  20   2.0000      -7.629848      -207.6187
  21   2.0000      -6.425477      -174.8461
  22   2.0000      -5.715660      -155.5310
  23   2.0000      -5.712425      -155.4430
  24   2.0000      -5.705084      -155.2432
  25   2.0000      -5.658989      -153.9889
  26   2.0000      -5.650149      -153.7484
  27   2.0000      -5.650088      -153.7467
  28   2.0000      -4.648223      -126.4846
  29   2.0000      -4.647385      -126.4618
  30   2.0000      -4.645725      -126.4166
  31   2.0000      -1.014701       -27.6114
  32   2.0000      -1.008773       -27.4501
  33   2.0000      -0.991000       -26.9665
  34   2.0000      -0.946684       -25.7606
  35   2.0000      -0.917040       -24.9539
  36   2.0000      -0.912337       -24.8259
  37   2.0000      -0.770278       -20.9603
  38   2.0000      -0.715483       -19.4693
  39   2.0000      -0.700212       -19.0537
  40   2.0000      -0.693145       -18.8614
  41   2.0000      -0.662426       -18.0255
  42   2.0000      -0.641183       -17.4475
  43   2.0000      -0.623171       -16.9573
  44   2.0000      -0.611918       -16.6511
  45   2.0000      -0.587264       -15.9803
  46   2.0000      -0.565816       -15.3966
  47   2.0000      -0.519533       -14.1372
  48   2.0000      -0.507849       -13.8193
  49   2.0000      -0.496677       -13.5153
  50   2.0000      -0.480439       -13.0734
  51   2.0000      -0.479662       -13.0523
  52   2.0000      -0.455234       -12.3876
  53   2.0000      -0.450286       -12.2529
  54   2.0000      -0.438545       -11.9334
  55   2.0000      -0.434229       -11.8160
  56   2.0000      -0.432523       -11.7695
  57   2.0000      -0.418973       -11.4008
  58   2.0000      -0.408178       -11.1071
  59   2.0000      -0.406029       -11.0486
  60   2.0000      -0.404089       -10.9958
  61   2.0000      -0.395699       -10.7675
  62   2.0000      -0.392728       -10.6867
  63   2.0000      -0.390893       -10.6367
  64   2.0000      -0.367463        -9.9992
  65   2.0000      -0.362601        -9.8669
  66   2.0000      -0.356395        -9.6980
  67   2.0000      -0.349074        -9.4988
  68   2.0000      -0.348021        -9.4701
  69   2.0000      -0.340040        -9.2530
  70   2.0000      -0.330207        -8.9854
  71   2.0000      -0.326241        -8.8775
  72   2.0000      -0.324013        -8.8169
  73   2.0000      -0.315205        -8.5772
  74   2.0000      -0.307936        -8.3794
  75   2.0000      -0.303125        -8.2484
  76   2.0000      -0.299021        -8.1368
  77   2.0000      -0.293159        -7.9772
  78   2.0000      -0.275680        -7.5016
  79   2.0000      -0.265849        -7.2341
  80   2.0000      -0.259830        -7.0703
  81   2.0000      -0.254956        -6.9377
  82   2.0000      -0.236459        -6.4344
  83   2.0000      -0.221240        -6.0202
  84   2.0000      -0.214046        -5.8245
  85   2.0000      -0.203390        -5.5345
  86   2.0000      -0.201346        -5.4789
  87   0.0000      -0.042517        -1.1569
  88   0.0000      -0.028246        -0.7686
  89   0.0000      -0.024551        -0.6681
  90   0.0000       0.010472         0.2850
  91   0.0000       0.015127         0.4116

MULLIKEN ATOMIC CHARGES
-----------------------
   0 C :   -0.277278
   1 C :   -0.028284
   2 O :   -0.230761
   3 C :    0.095278
   4 O :   -0.199847
   5 C :   -0.051563
   6 C :   -0.255481
   7 H :    0.148554
   8 C :    0.163062
   9 O :   -0.187685
  10 O :   -0.223181
  11 C :   -0.014907
  12 C :   -0.310650
  13 S :   -0.106337
  14 P :    0.607303
  15 S :   -0.295818
  16 O :   -0.388497
  17 C :   -0.100130
  18 O :   -0.360363
  19 C :   -0.109518
  20 H :    0.118434
  21 H :    0.112059
  22 H :    0.111455
  23 H :    0.119624
  24 H :    0.108454
  25 H :    0.109927
  26 H :    0.121943
  27 H :    0.117130
  28 H :    0.103250
  29 H :    0.106930
  30 H :    0.142947
  31 H :    0.110327
  32 H :    0.115729
  33 H :    0.120040
  34 H :    0.126610
  35 H :    0.131384
  36 H :    0.122776
  37 H :    0.127083
Sum of atomic charges:    0.0000000

LOEWDIN ATOMIC CHARGES
----------------------
   0 C :   -0.350872
   1 C :   -0.106181
   2 O :   -0.056291
   3 C :    0.025777
   4 O :   -0.161161
   5 C :   -0.239907
   6 C :   -0.258222
   7 H :    0.143892
   8 C :   -0.002198
   9 O :   -0.147820
  10 O :   -0.054983
  11 C :   -0.109214
  12 C :   -0.357997
  13 S :    0.084424
  14 P :    0.569988
  15 S :   -0.289071
  16 O :   -0.259790
  17 C :   -0.215335
  18 O :   -0.235149
  19 C :   -0.210476
  20 H :    0.128100
  21 H :    0.131065
  22 H :    0.124734
  23 H :    0.124456
  24 H :    0.117335
  25 H :    0.137386
  26 H :    0.140656
  27 H :    0.123970
  28 H :    0.115892
  29 H :    0.121816
  30 H :    0.135795
  31 H :    0.129484
  32 H :    0.109358
  33 H :    0.113114
  34 H :    0.123223
  35 H :    0.125466
  36 H :    0.111323
  37 H :    0.117417

  Mayer bond orders larger than 0.100000
B(  0-C ,  1-C ) :   1.1543 B(  0-C , 20-H ) :   0.9484 B(  0-C , 21-H ) :   0.9443
B(  0-C , 22-H ) :   0.9517 B(  1-C ,  2-O ) :   0.9015 B(  1-C , 23-H ) :   0.9291
B(  1-C , 24-H ) :   0.9255 B(  2-O ,  3-C ) :   1.2277 B(  3-C ,  4-O ) :   2.0297
B(  3-C ,  5-C ) :   1.0230 B(  5-C ,  6-C ) :   1.0507 B(  5-C , 25-H ) :   0.8943
B(  5-C , 26-H ) :   0.8941 B(  6-C ,  7-H ) :   0.8687 B(  6-C ,  8-C ) :   0.9226
B(  6-C , 13-S ) :   0.9964 B(  8-C ,  9-O ) :   2.0069 B(  8-C , 10-O ) :   1.2397
B( 10-O , 11-C ) :   0.8973 B( 11-C , 12-C ) :   1.1733 B( 11-C , 27-H ) :   0.9122
B( 11-C , 28-H ) :   0.9323 B( 12-C , 29-H ) :   0.9495 B( 12-C , 30-H ) :   0.9345
B( 12-C , 31-H ) :   0.9440 B( 13-S , 14-P ) :   0.9601 B( 13-S , 15-S ) :   0.1142
B( 14-P , 15-S ) :   1.6479 B( 14-P , 16-O ) :   1.0718 B( 14-P , 18-O ) :   1.1224
B( 16-O , 17-C ) :   0.9298 B( 17-C , 32-H ) :   0.9471 B( 17-C , 33-H ) :   0.9356
B( 17-C , 34-H ) :   0.9585 B( 18-O , 19-C ) :   0.9152 B( 19-C , 35-H ) :   0.9589
B( 19-C , 36-H ) :   0.9376 B( 19-C , 37-H ) :   0.9477

Dispersion correction           -0.052468745
FINAL SINGLE POINT ENERGY     -1979.017050386549

DIPOLE MOMENT
-------------

Method             : SCF
Type of density    : Electron Density
Multiplicity       :   1
Irrep              :   0
Energy             : -1979.1474733261470647 Eh
Relativity type    :
Basis              : AO
                                X                 Y                 Z
Electronic contribution:    -13.127477983       2.937136127      -1.713568180
Nuclear contribution   :     12.366077974      -3.924715301       2.146529042
                        -----------------------------------------
Total Dipole Moment    :     -0.761400009      -0.987579174       0.432960862
                        -----------------------------------------
Magnitude (a.u.)       :      1.320037009
Magnitude (Debye)      :      3.355267430

Rotational constants in cm-1:             0.015549             0.006301             0.005495
Rotational constants in MHz :           466.137298           188.896867           164.750846

                             ****ORCA TERMINATED NORMALLY****
TOTAL RUN TIME: 0 days 0 hours 0 minutes 33 seconds 298 msec
