                         Program Version 6.0.0  -   RELEASE  -
|  1> ! pbe def2-sv(p) def2/J RI DEFGRID1 loosescf d4 GCP(DFT/SV(P)) printgap
|  2> %output
|  3>     printlevel normal
|  4> end
|  5> * xyz 0 1
|  6> C 3.9973667362 -1.0613995988 -2.6900567333
|  7> C 4.2736591183 -1.6205108108 -1.3094412965
|  8> O 3.0700930342 -1.7586195692 -0.5347287643
|  9> P 2.2524044862 -0.5021648666 -0.0019264583
| 10> S 3.3764888967 0.9936685227 0.5969366299
| 11> O 1.3206717726 -1.1841713154 1.0817825982
| 12> C 1.7818194605 -1.4539282276 2.4276553855
| 13> C 1.355458508 -0.3475405582 3.3721700918
| 14> S 0.8196435168 -0.0927665957 -1.495598086
| 15> C 0.2812559993 1.4950410437 -0.802212393
| 16> S -0.7296151455 1.3112146445 0.6842146245
| 17> P -2.4117989411 0.4408560402 -0.3011011613
| 18> S -2.8195646448 1.1485772788 -2.0759692016
| 19> O -3.573208012 0.5399417517 0.7818664321
| 20> C -4.4392809477 1.6854035099 0.891852594
| 21> C -3.6963499886 2.9324680609 1.3243025607
| 22> O -2.1357880383 -1.111205515 -0.3327668268
| 23> C -1.9568274758 -1.9097689506 0.8638554607
| 24> C -1.3117807845 -3.2160042289 0.4509326343
| 25> H 3.6476644681 -0.0325003971 -2.6118601487
| 26> H 4.91069135 -1.0790304795 -3.2759865528
| 27> H 3.2340257557 -1.6511786117 -3.1916048304
| 28> H 4.9641920329 -0.9700937961 -0.7628002057
| 29> H 4.6740956875 -2.6340109679 -1.3562457077
| 30> H 1.3192345487 -2.4066887695 2.6901845687
| 31> H 2.8694300138 -1.5638817618 2.4200616266
| 32> H 1.8297968001 0.5905365428 3.0921965059
| 33> H 0.2781453716 -0.2108485161 3.3358114445
| 34> H 1.6522532568 -0.6070957595 4.3832027634
| 35> H -0.3044646019 1.9891440385 -1.5775424417
| 36> H 1.1546337334 2.0847363033 -0.5225473858
| 37> H -4.9242328532 1.8430095244 -0.0761826556
| 38> H -5.1785469853 1.3785559414 1.6331345046
| 39> H -3.1191639195 2.7382085918 2.2248160633
| 40> H -3.0191100267 3.2554455476 0.5351864093
| 41> H -4.4119167923 3.7251167738 1.517884296
| 42> H -1.3243838318 -1.3537883952 1.5618039959
| 43> H -2.9404243465 -2.0659156349 1.3108199537
| 44> H -1.9191459346 -3.7064432113 -0.3043923888
| 45> H -0.3233186494 -3.0307097032 0.0375129149
| 46> H -1.2243638867 -3.8615505597 1.318992118
| 47> *
| 48>
| 49>                          ****END OF INPUT****

CARTESIAN COORDINATES (ANGSTROEM)
---------------------------------
  C      3.997367   -1.061400   -2.690057
  C      4.273659   -1.620511   -1.309441
  O      3.070093   -1.758620   -0.534729
  P      2.252404   -0.502165   -0.001926
  S      3.376489    0.993669    0.596937
  O      1.320672   -1.184171    1.081783
  C      1.781819   -1.453928    2.427655
  C      1.355459   -0.347541    3.372170
  S      0.819644   -0.092767   -1.495598
  C      0.281256    1.495041   -0.802212
  S     -0.729615    1.311215    0.684215
  P     -2.411799    0.440856   -0.301101
  S     -2.819565    1.148577   -2.075969
  O     -3.573208    0.539942    0.781866
  C     -4.439281    1.685404    0.891853
  C     -3.696350    2.932468    1.324303
  O     -2.135788   -1.111206   -0.332767
  C     -1.956827   -1.909769    0.863855
  C     -1.311781   -3.216004    0.450933
  H      3.647664   -0.032500   -2.611860
  H      4.910691   -1.079030   -3.275987
  H      3.234026   -1.651179   -3.191605
  H      4.964192   -0.970094   -0.762800
  H      4.674096   -2.634011   -1.356246
  H      1.319235   -2.406689    2.690185
  H      2.869430   -1.563882    2.420062
  H      1.829797    0.590537    3.092197
  H      0.278145   -0.210849    3.335811
  H      1.652253   -0.607096    4.383203
  H     -0.304465    1.989144   -1.577542
  H      1.154634    2.084736   -0.522547
  H     -4.924233    1.843010   -0.076183
  H     -5.178547    1.378556    1.633135
  H     -3.119164    2.738209    2.224816
  H     -3.019110    3.255446    0.535186
  H     -4.411917    3.725117    1.517884
  H     -1.324384   -1.353788    1.561804
  H     -2.940424   -2.065916    1.310820
  H     -1.919146   -3.706443   -0.304392
  H     -0.323319   -3.030710    0.037513
  H     -1.224364   -3.861551    1.318992

 Total Charge           Charge          ....    0
 Multiplicity           Mult            ....    1
 Number of Electrons    NEL             ....  202
 Basis Dimension        Dim             ....  334

ORBITAL ENERGIES
----------------

  NO   OCC          E(Eh)            E(eV)
   0   2.0000     -88.043563     -2395.7871
   1   2.0000     -88.040695     -2395.7091
   2   2.0000     -87.992417     -2394.3954
   3   2.0000     -87.986260     -2394.2279
   4   2.0000     -76.429893     -2079.7631
   5   2.0000     -76.425345     -2079.6394
   6   2.0000     -18.797193      -511.4976
   7   2.0000     -18.795416      -511.4493
   8   2.0000     -18.794767      -511.4316
   9   2.0000     -18.788428      -511.2591
  10   2.0000      -9.958702      -270.9901
  11   2.0000      -9.954768      -270.8830
  12   2.0000      -9.954448      -270.8743
  13   2.0000      -9.952357      -270.8174
  14   2.0000      -9.951287      -270.7883
  15   2.0000      -9.885268      -268.9918
  16   2.0000      -9.884933      -268.9827
  17   2.0000      -9.884022      -268.9579
  18   2.0000      -9.882500      -268.9165
  19   2.0000      -7.688756      -209.2217
  20   2.0000      -7.685535      -209.1340
  21   2.0000      -7.637299      -207.8215
  22   2.0000      -7.631551      -207.6651
  23   2.0000      -6.427615      -174.9043
  24   2.0000      -6.422847      -174.7745
  25   2.0000      -5.716567      -155.5557
  26   2.0000      -5.713503      -155.4723
  27   2.0000      -5.713260      -155.4657
  28   2.0000      -5.710150      -155.3811
  29   2.0000      -5.705514      -155.2549
  30   2.0000      -5.702558      -155.1745
  31   2.0000      -5.666061      -154.1813
  32   2.0000      -5.660475      -154.0294
  33   2.0000      -5.658052      -153.9634
  34   2.0000      -5.657497      -153.9483
  35   2.0000      -5.652089      -153.8012
  36   2.0000      -5.651757      -153.7921
  37   2.0000      -4.650211      -126.5387
  38   2.0000      -4.649271      -126.5131
  39   2.0000      -4.648110      -126.4815
  40   2.0000      -4.645763      -126.4176
  41   2.0000      -4.644470      -126.3825
  42   2.0000      -4.643154      -126.3467
  43   2.0000      -0.991222       -26.9725
  44   2.0000      -0.987556       -26.8728
  45   2.0000      -0.949381       -25.8340
  46   2.0000      -0.943469       -25.6731
  47   2.0000      -0.765558       -20.8319
  48   2.0000      -0.722719       -19.6662
  49   2.0000      -0.710645       -19.3376
  50   2.0000      -0.689063       -18.7504
  51   2.0000      -0.688647       -18.7390
  52   2.0000      -0.677109       -18.4251
  53   2.0000      -0.651909       -17.7394
  54   2.0000      -0.639133       -17.3917
  55   2.0000      -0.601995       -16.3811
  56   2.0000      -0.591169       -16.0865
  57   2.0000      -0.577858       -15.7243
  58   2.0000      -0.568906       -15.4807
  59   2.0000      -0.558055       -15.1855
  60   2.0000      -0.507203       -13.8017
  61   2.0000      -0.501848       -13.6560
  62   2.0000      -0.474769       -12.9191
  63   2.0000      -0.472784       -12.8651
  64   2.0000      -0.463118       -12.6021
  65   2.0000      -0.447326       -12.1724
  66   2.0000      -0.440879       -11.9969
  67   2.0000      -0.437498       -11.9049
  68   2.0000      -0.428989       -11.6734
  69   2.0000      -0.421438       -11.4679
  70   2.0000      -0.410183       -11.1616
  71   2.0000      -0.400024       -10.8852
  72   2.0000      -0.390227       -10.6186
  73   2.0000      -0.383351       -10.4315
  74   2.0000      -0.379216       -10.3190
  75   2.0000      -0.375640       -10.2217
  76   2.0000      -0.364872        -9.9287
  77   2.0000      -0.362422        -9.8620
  78   2.0000      -0.355413        -9.6713
  79   2.0000      -0.353310        -9.6140
  80   2.0000      -0.350721        -9.5436
  81   2.0000      -0.344767        -9.3816
  82   2.0000      -0.342376        -9.3165
  83   2.0000      -0.337613        -9.1869
  84   2.0000      -0.336023        -9.1436
  85   2.0000      -0.317377        -8.6363
  86   2.0000      -0.311435        -8.4746
  87   2.0000      -0.300841        -8.1863
  88   2.0000      -0.298893        -8.1333
  89   2.0000      -0.295321        -8.0361
  90   2.0000      -0.290847        -7.9143
  91   2.0000      -0.281466        -7.6591
  92   2.0000      -0.268739        -7.3128
  93   2.0000      -0.265584        -7.2269
  94   2.0000      -0.259566        -7.0631
  95   2.0000      -0.234727        -6.3872
  96   2.0000      -0.219413        -5.9705
  97   2.0000      -0.214457        -5.8357
  98   2.0000      -0.205939        -5.6039
  99   2.0000      -0.204041        -5.5522
 100   2.0000      -0.200720        -5.4619
 101   0.0000      -0.045111        -1.2275
 102   0.0000      -0.025047        -0.6816
 103   0.0000      -0.005195        -0.1414
 104   0.0000      -0.001197        -0.0326
 105   0.0000       0.012059         0.3282

MULLIKEN ATOMIC CHARGES
-----------------------
   0 C :   -0.317627
   1 C :   -0.006548
   2 O :   -0.375425
   3 P :    0.611062
   4 S :   -0.336013
   5 O :   -0.364300
   6 C :   -0.002056
   7 C :   -0.300545
   8 S :   -0.051931
   9 C :   -0.378891
  10 S :   -0.090613
  11 P :    0.605941
  12 S :   -0.313924
  13 O :   -0.387591
  14 C :    0.000279
  15 C :   -0.318040
  16 O :   -0.353522
  17 C :   -0.023813
  18 C :   -0.284424
  19 H :    0.128191
  20 H :    0.114647
  21 H :    0.120520
  22 H :    0.112324
  23 H :    0.106019
  24 H :    0.105128
  25 H :    0.105674
  26 H :    0.128035
  27 H :    0.124046
  28 H :    0.107697
  29 H :    0.195461
  30 H :    0.191580
  31 H :    0.113651
  32 H :    0.104604
  33 H :    0.116895
  34 H :    0.129396
  35 H :    0.114260
  36 H :    0.117472
  37 H :    0.104147
  38 H :    0.118405
  39 H :    0.127921
  40 H :    0.101906
Sum of atomic charges:   -0.0000000

LOEWDIN ATOMIC CHARGES
----------------------
   0 C :   -0.369000
   1 C :   -0.120321
   2 O :   -0.245730
   3 P :    0.572134
   4 S :   -0.323686
   5 O :   -0.238237
   6 C :   -0.112023
   7 C :   -0.363347
   8 S :    0.107016
   9 C :   -0.488854
  10 S :    0.081963
  11 P :    0.571392
  12 S :   -0.310459
  13 O :   -0.250495
  14 C :   -0.115412
  15 C :   -0.370973
  16 O :   -0.233920
  17 C :   -0.115252
  18 C :   -0.352682
  19 H :    0.121919
  20 H :    0.131975
  21 H :    0.125900
  22 H :    0.110406
  23 H :    0.119034
  24 H :    0.117129
  25 H :    0.111257
  26 H :    0.125508
  27 H :    0.121560
  28 H :    0.128386
  29 H :    0.129584
  30 H :    0.128548
  31 H :    0.113702
  32 H :    0.118500
  33 H :    0.123063
  34 H :    0.122147
  35 H :    0.131695
  36 H :    0.104395
  37 H :    0.112348
  38 H :    0.128616
  39 H :    0.126449
  40 H :    0.125764

  Mayer bond orders larger than 0.100000
B(  0-C ,  1-C ) :   1.1647 B(  0-C , 19-H ) :   0.9350 B(  0-C , 20-H ) :   0.9380
B(  0-C , 21-H ) :   0.9451 B(  1-C ,  2-O ) :   0.9075 B(  1-C , 22-H ) :   0.9150
B(  1-C , 23-H ) :   0.9333 B(  2-O ,  3-P ) :   1.1081 B(  3-P ,  4-S ) :   1.5849
B(  3-P ,  5-O ) :   1.1140 B(  3-P ,  8-S ) :   0.9723 B(  4-S ,  8-S ) :   0.1100
B(  5-O ,  6-C ) :   0.8878 B(  6-C ,  7-C ) :   1.1714 B(  6-C , 24-H ) :   0.9320
B(  6-C , 25-H ) :   0.9160 B(  7-C , 26-H ) :   0.9321 B(  7-C , 27-H ) :   0.9445
B(  7-C , 28-H ) :   0.9387 B(  8-S ,  9-C ) :   1.0027 B(  9-C , 10-S ) :   1.0067
B(  9-C , 29-H ) :   0.8736 B(  9-C , 30-H ) :   0.8729 B( 10-S , 11-P ) :   0.9477
B( 10-S , 12-S ) :   0.1084 B( 11-P , 12-S ) :   1.6359 B( 11-P , 13-O ) :   1.0852
B( 11-P , 16-O ) :   1.1416 B( 13-O , 14-C ) :   0.9069 B( 14-C , 15-C ) :   1.1659
B( 14-C , 31-H ) :   0.9195 B( 14-C , 32-H ) :   0.9346 B( 15-C , 33-H ) :   0.9438
B( 15-C , 34-H ) :   0.9346 B( 15-C , 35-H ) :   0.9368 B( 16-O , 17-C ) :   0.8895
B( 17-C , 18-C ) :   1.1684 B( 17-C , 36-H ) :   0.9053 B( 17-C , 37-H ) :   0.9299
B( 18-C , 38-H ) :   0.9482 B( 18-C , 39-H ) :   0.9402 B( 18-C , 40-H ) :   0.9400

Dispersion correction           -0.066510983
FINAL SINGLE POINT ENERGY     -2929.525342429652

DIPOLE MOMENT
-------------

Method             : SCF
Type of density    : Electron Density
Multiplicity       :   1
Irrep              :   0
Energy             : -2929.6444426937960088 Eh
Relativity type    :
Basis              : AO
                                X                 Y                 Z
Electronic contribution:     -1.719396866       6.386353601     -10.749515736
Nuclear contribution   :      1.835181561      -7.195553579      11.968671816
                        -----------------------------------------
Total Dipole Moment    :      0.115784695      -0.809199977       1.219156080
                        -----------------------------------------
Magnitude (a.u.)       :      1.467839312
Magnitude (Debye)      :      3.730951028

Rotational constants in cm-1:             0.012598             0.005010             0.004801
Rotational constants in MHz :           377.681942           150.184834           143.923273

                             ****ORCA TERMINATED NORMALLY****
TOTAL RUN TIME: 0 days 0 hours 0 minutes 21 seconds 693 msec
