                         Program Version 6.0.0  -   RELEASE  -
|  1> ! pbe def2-sv(p) def2/J RI DEFGRID1 loosescf d4 GCP(DFT/SV(P)) printgap
|  2> %output
|  3>     printlevel normal
|  4> end
|  5> * xyz 0 1
|  6> C 5.5177475599 -1.1053536066 -1.4111974031
|  7> C 4.098990077 -1.3250525646 -1.8995838384
|  8> O 3.2027889354 -1.5300344794 -0.7876327579
|  9> P 2.3508615799 -0.3480993333 -0.1509975499
| 10> S 3.340699159 1.2702979744 0.3577986188
| 11> O 1.6218241912 -1.1057362515 1.0278377871
| 12> C 2.1382147788 -1.1105817067 2.3826747256
| 13> C 0.9947308724 -0.9018112569 3.35400401
| 14> S 0.8004184214 -0.0678212514 -1.5566327156
| 15> C 0.1863786245 1.4936620181 -0.864525342
| 16> S -0.7744978067 1.2589426877 0.6447207062
| 17> P -2.434043826 0.307020679 -0.3100819675
| 18> S -2.9402112825 1.0269090403 -2.0542199262
| 19> O -3.5628490999 0.3100990955 0.8082025547
| 20> C -4.4870631569 1.4015260335 0.9760277278
| 21> C -3.801437465 2.6776486625 1.4182051034
| 22> O -2.0388560976 -1.2166989145 -0.3961697593
| 23> C -1.7110380181 -2.0177889103 0.7651713361
| 24> C -2.8860911257 -2.8911708464 1.1525334212
| 25> H 5.5763141393 -0.1926615887 -0.8222647105
| 26> H 5.8333575169 -1.9421080967 -0.7945541358
| 27> H 6.1803339076 -1.0177147923 -2.2661354462
| 28> H 4.0175688803 -2.2382403253 -2.4919928179
| 29> H 3.7508378833 -0.4749159065 -2.4931528375
| 30> H 2.6225094799 -2.0771712359 2.5329004611
| 31> H 2.8823367184 -0.3124493308 2.4760697216
| 32> H 0.2773295176 -1.7129920035 3.2723518514
| 33> H 1.3934481141 -0.8777269543 4.3631442848
| 34> H 0.4956839905 0.0418308494 3.1459895775
| 35> H -0.4469156173 1.9454920612 -1.628389892
| 36> H 1.0318850025 2.1351538095 -0.6129977493
| 37> H -5.0117450223 1.5554431332 0.0283669506
| 38> H -5.1836300654 1.0365835416 1.7321434758
| 39> H -3.1843176389 2.4941250351 2.2941670323
| 40> H -3.1703324218 3.0593868842 0.6171370359
| 41> H -4.5535814163 3.4228963914 1.6563278805
| 42> H -0.8478502309 -2.6131413412 0.4586154092
| 43> H -1.4251007036 -1.3517129555 1.5834503368
| 44> H -3.7273276367 -2.2736402578 1.4559189455
| 45> H -3.1874748429 -3.5043046843 0.30766857
| 46> H -2.5959984073 -3.5345284147 1.9773734746
| 47> *
| 48>
| 49>                          ****END OF INPUT****

CARTESIAN COORDINATES (ANGSTROEM)
---------------------------------
  C      5.517748   -1.105354   -1.411197
  C      4.098990   -1.325053   -1.899584
  O      3.202789   -1.530034   -0.787633
  P      2.350862   -0.348099   -0.150998
  S      3.340699    1.270298    0.357799
  O      1.621824   -1.105736    1.027838
  C      2.138215   -1.110582    2.382675
  C      0.994731   -0.901811    3.354004
  S      0.800418   -0.067821   -1.556633
  C      0.186379    1.493662   -0.864525
  S     -0.774498    1.258943    0.644721
  P     -2.434044    0.307021   -0.310082
  S     -2.940211    1.026909   -2.054220
  O     -3.562849    0.310099    0.808203
  C     -4.487063    1.401526    0.976028
  C     -3.801437    2.677649    1.418205
  O     -2.038856   -1.216699   -0.396170
  C     -1.711038   -2.017789    0.765171
  C     -2.886091   -2.891171    1.152533
  H      5.576314   -0.192662   -0.822265
  H      5.833358   -1.942108   -0.794554
  H      6.180334   -1.017715   -2.266135
  H      4.017569   -2.238240   -2.491993
  H      3.750838   -0.474916   -2.493153
  H      2.622509   -2.077171    2.532900
  H      2.882337   -0.312449    2.476070
  H      0.277330   -1.712992    3.272352
  H      1.393448   -0.877727    4.363144
  H      0.495684    0.041831    3.145990
  H     -0.446916    1.945492   -1.628390
  H      1.031885    2.135154   -0.612998
  H     -5.011745    1.555443    0.028367
  H     -5.183630    1.036584    1.732143
  H     -3.184318    2.494125    2.294167
  H     -3.170332    3.059387    0.617137
  H     -4.553581    3.422896    1.656328
  H     -0.847850   -2.613141    0.458615
  H     -1.425101   -1.351713    1.583450
  H     -3.727328   -2.273640    1.455919
  H     -3.187475   -3.504305    0.307669
  H     -2.595998   -3.534528    1.977373

 Total Charge           Charge          ....    0
 Multiplicity           Mult            ....    1
 Number of Electrons    NEL             ....  202
 Basis Dimension        Dim             ....  334

ORBITAL ENERGIES
----------------

  NO   OCC          E(Eh)            E(eV)
   0   2.0000     -88.042337     -2395.7538
   1   2.0000     -88.041608     -2395.7339
   2   2.0000     -87.990250     -2394.3364
   3   2.0000     -87.987028     -2394.2488
   4   2.0000     -76.428287     -2079.7194
   5   2.0000     -76.427028     -2079.6852
   6   2.0000     -18.798645      -511.5371
   7   2.0000     -18.794519      -511.4249
   8   2.0000     -18.794178      -511.4156
   9   2.0000     -18.789596      -511.2909
  10   2.0000      -9.956735      -270.9365
  11   2.0000      -9.955977      -270.9159
  12   2.0000      -9.954733      -270.8821
  13   2.0000      -9.951644      -270.7980
  14   2.0000      -9.951158      -270.7848
  15   2.0000      -9.889477      -269.1063
  16   2.0000      -9.886365      -269.0217
  17   2.0000      -9.885280      -268.9921
  18   2.0000      -9.882466      -268.9156
  19   2.0000      -7.687633      -209.1911
  20   2.0000      -7.686380      -209.1570
  21   2.0000      -7.635211      -207.7647
  22   2.0000      -7.632339      -207.6865
  23   2.0000      -6.426129      -174.8639
  24   2.0000      -6.424544      -174.8207
  25   2.0000      -5.715435      -155.5249
  26   2.0000      -5.714104      -155.4887
  27   2.0000      -5.712200      -155.4369
  28   2.0000      -5.711034      -155.4051
  29   2.0000      -5.704587      -155.2297
  30   2.0000      -5.703390      -155.1971
  31   2.0000      -5.663895      -154.1224
  32   2.0000      -5.661300      -154.0518
  33   2.0000      -5.655835      -153.9031
  34   2.0000      -5.655591      -153.8964
  35   2.0000      -5.652852      -153.8219
  36   2.0000      -5.652524      -153.8130
  37   2.0000      -4.648633      -126.4957
  38   2.0000      -4.647869      -126.4750
  39   2.0000      -4.647479      -126.4643
  40   2.0000      -4.646606      -126.4406
  41   2.0000      -4.646191      -126.4293
  42   2.0000      -4.644795      -126.3913
  43   2.0000      -0.990063       -26.9410
  44   2.0000      -0.988951       -26.9107
  45   2.0000      -0.947487       -25.7824
  46   2.0000      -0.946399       -25.7528
  47   2.0000      -0.764882       -20.8135
  48   2.0000      -0.723308       -19.6822
  49   2.0000      -0.711352       -19.3569
  50   2.0000      -0.691698       -18.8220
  51   2.0000      -0.688828       -18.7440
  52   2.0000      -0.676350       -18.4044
  53   2.0000      -0.651605       -17.7311
  54   2.0000      -0.639112       -17.3911
  55   2.0000      -0.599907       -16.3243
  56   2.0000      -0.592848       -16.1322
  57   2.0000      -0.574983       -15.6461
  58   2.0000      -0.572079       -15.5671
  59   2.0000      -0.559036       -15.2121
  60   2.0000      -0.510173       -13.8825
  61   2.0000      -0.498719       -13.5708
  62   2.0000      -0.481963       -13.1149
  63   2.0000      -0.476063       -12.9543
  64   2.0000      -0.457506       -12.4494
  65   2.0000      -0.447860       -12.1869
  66   2.0000      -0.443660       -12.0726
  67   2.0000      -0.432198       -11.7607
  68   2.0000      -0.428108       -11.6494
  69   2.0000      -0.422512       -11.4971
  70   2.0000      -0.408440       -11.1142
  71   2.0000      -0.398056       -10.8317
  72   2.0000      -0.393794       -10.7157
  73   2.0000      -0.386464       -10.5162
  74   2.0000      -0.379323       -10.3219
  75   2.0000      -0.376112       -10.2345
  76   2.0000      -0.366604        -9.9758
  77   2.0000      -0.362605        -9.8670
  78   2.0000      -0.357004        -9.7146
  79   2.0000      -0.354133        -9.6365
  80   2.0000      -0.349664        -9.5148
  81   2.0000      -0.344622        -9.3776
  82   2.0000      -0.342862        -9.3298
  83   2.0000      -0.342351        -9.3158
  84   2.0000      -0.335148        -9.1198
  85   2.0000      -0.322397        -8.7729
  86   2.0000      -0.313090        -8.5196
  87   2.0000      -0.300279        -8.1710
  88   2.0000      -0.297788        -8.1032
  89   2.0000      -0.294210        -8.0059
  90   2.0000      -0.291719        -7.9381
  91   2.0000      -0.280913        -7.6440
  92   2.0000      -0.269244        -7.3265
  93   2.0000      -0.265511        -7.2249
  94   2.0000      -0.259618        -7.0646
  95   2.0000      -0.235138        -6.3984
  96   2.0000      -0.220863        -6.0100
  97   2.0000      -0.212258        -5.7758
  98   2.0000      -0.204680        -5.5696
  99   2.0000      -0.203710        -5.5432
 100   2.0000      -0.201542        -5.4842
 101   0.0000      -0.043946        -1.1958
 102   0.0000      -0.024038        -0.6541
 103   0.0000      -0.005103        -0.1389
 104   0.0000      -0.001745        -0.0475
 105   0.0000       0.013014         0.3541

MULLIKEN ATOMIC CHARGES
-----------------------
   0 C :   -0.291994
   1 C :   -0.008688
   2 O :   -0.374411
   3 P :    0.606976
   4 S :   -0.339836
   5 O :   -0.362858
   6 C :   -0.013004
   7 C :   -0.294855
   8 S :   -0.057560
   9 C :   -0.382344
  10 S :   -0.088884
  11 P :    0.597572
  12 S :   -0.312031
  13 O :   -0.382709
  14 C :    0.000375
  15 C :   -0.318632
  16 O :   -0.346611
  17 C :   -0.025076
  18 C :   -0.284688
  19 H :    0.129212
  20 H :    0.111285
  21 H :    0.108898
  22 H :    0.109095
  23 H :    0.104442
  24 H :    0.104868
  25 H :    0.110702
  26 H :    0.118845
  27 H :    0.111646
  28 H :    0.130273
  29 H :    0.194786
  30 H :    0.194466
  31 H :    0.114481
  32 H :    0.105184
  33 H :    0.116876
  34 H :    0.130666
  35 H :    0.115153
  36 H :    0.113404
  37 H :    0.111546
  38 H :    0.116442
  39 H :    0.120309
  40 H :    0.106680
Sum of atomic charges:   -0.0000000

LOEWDIN ATOMIC CHARGES
----------------------
   0 C :   -0.362529
   1 C :   -0.115205
   2 O :   -0.248877
   3 P :    0.568594
   4 S :   -0.321099
   5 O :   -0.240704
   6 C :   -0.116342
   7 C :   -0.355665
   8 S :    0.096587
   9 C :   -0.490354
  10 S :    0.080419
  11 P :    0.571831
  12 S :   -0.308590
  13 O :   -0.248045
  14 C :   -0.115422
  15 C :   -0.371005
  16 O :   -0.230808
  17 C :   -0.116693
  18 C :   -0.357550
  19 H :    0.124973
  20 H :    0.124818
  21 H :    0.129397
  22 H :    0.119591
  23 H :    0.108999
  24 H :    0.115214
  25 H :    0.107350
  26 H :    0.121846
  27 H :    0.130934
  28 H :    0.125272
  29 H :    0.129079
  30 H :    0.128036
  31 H :    0.114259
  32 H :    0.118585
  33 H :    0.123007
  34 H :    0.122577
  35 H :    0.132185
  36 H :    0.119759
  37 H :    0.104068
  38 H :    0.124907
  39 H :    0.128897
  40 H :    0.127701

  Mayer bond orders larger than 0.100000
B(  0-C ,  1-C ) :   1.1672 B(  0-C , 19-H ) :   0.9333 B(  0-C , 20-H ) :   0.9477
B(  0-C , 21-H ) :   0.9398 B(  1-C ,  2-O ) :   0.9004 B(  1-C , 22-H ) :   0.9357
B(  1-C , 23-H ) :   0.9153 B(  2-O ,  3-P ) :   1.1183 B(  3-P ,  4-S ) :   1.5936
B(  3-P ,  5-O ) :   1.1321 B(  3-P ,  8-S ) :   0.9803 B(  4-S ,  8-S ) :   0.1092
B(  5-O ,  6-C ) :   0.8949 B(  6-C ,  7-C ) :   1.1701 B(  6-C , 24-H ) :   0.9326
B(  6-C , 25-H ) :   0.9002 B(  7-C , 26-H ) :   0.9411 B(  7-C , 27-H ) :   0.9382
B(  7-C , 28-H ) :   0.9407 B(  8-S ,  9-C ) :   1.0042 B(  9-C , 10-S ) :   1.0053
B(  9-C , 29-H ) :   0.8723 B(  9-C , 30-H ) :   0.8682 B( 10-S , 11-P ) :   0.9459
B( 10-S , 12-S ) :   0.1082 B( 11-P , 12-S ) :   1.6366 B( 11-P , 13-O ) :   1.0824
B( 11-P , 16-O ) :   1.1468 B( 13-O , 14-C ) :   0.9041 B( 14-C , 15-C ) :   1.1664
B( 14-C , 31-H ) :   0.9193 B( 14-C , 32-H ) :   0.9342 B( 15-C , 33-H ) :   0.9437
B( 15-C , 34-H ) :   0.9343 B( 15-C , 35-H ) :   0.9366 B( 16-O , 17-C ) :   0.8889
B( 17-C , 18-C ) :   1.1593 B( 17-C , 36-H ) :   0.9321 B( 17-C , 37-H ) :   0.9050
B( 18-C , 38-H ) :   0.9435 B( 18-C , 39-H ) :   0.9469 B( 18-C , 40-H ) :   0.9412

Dispersion correction           -0.064725600
FINAL SINGLE POINT ENERGY     -2929.523965202679

DIPOLE MOMENT
-------------

Method             : SCF
Type of density    : Electron Density
Multiplicity       :   1
Irrep              :   0
Energy             : -2929.6438116871941020 Eh
Relativity type    :
Basis              : AO
                                X                 Y                 Z
Electronic contribution:     -0.684447513       7.228049148     -14.982273529
Nuclear contribution   :      0.732833120      -8.027772986      16.251050559
                        -----------------------------------------
Total Dipole Moment    :      0.048385607      -0.799723839       1.268777031
                        -----------------------------------------
Magnitude (a.u.)       :      1.500564740
Magnitude (Debye)      :      3.814132455

Rotational constants in cm-1:             0.013036             0.004676             0.004442
Rotational constants in MHz :           390.819767           140.174015           133.167564

                             ****ORCA TERMINATED NORMALLY****
TOTAL RUN TIME: 0 days 0 hours 0 minutes 21 seconds 281 msec
