                         Program Version 6.0.0  -   RELEASE  -
|  1> ! wb97x-v def2-tzvp def2/J RIJCOSX DEFGRID2 scfconv7 GCP(DFT/TZ) printgap
|  2> %output
|  3>     printlevel normal
|  4> end
|  5> * xyz 0 1
|  6> C 0.8938569055251682 1.3743202087413526 -0.6303128677969274
|  7> C 1.6093853787836256 0.15535305317436143 -0.07200677268359894
|  8> H 2.5821614354755895 0.053086266037908336 -0.5735466032911484
|  9> C 0.7866308752047169 -1.1116757559112613 -0.31070467434871846
| 10> H 1.22047004814536 -1.9395282721665443 0.26726516827371927
| 11> C -0.6740344821764044 -0.9124295101224175 0.12930681571929356
| 12> H -1.2743840305702718 -1.7542472939923588 -0.23553829185179093
| 13> C -1.2512432363846089 0.3808803022061529 -0.4528908378574826
| 14> H -1.3162321404661281 0.3227622264220168 -1.5482568183945673
| 15> O -0.4297978049547663 1.5006848585105286 -0.08568735386370865
| 16> O -2.5422083878332877 0.6292514686134696 0.03659600802834079
| 17> O -0.8006400766492628 -0.9041040984384103 1.5557660588858275
| 18> O 0.8533645610032754 -1.3771787860477025 -1.7145330661563505
| 19> O 1.7823010493540974 0.2511056276058557 1.3536629213582128
| 20> H 0.8507134214536455 1.3057968335269692 -1.727184698067407
| 21> H 1.428529172513101 2.2897138353339717 -0.3596706855782515
| 22> H -2.5305868429180953 0.3922309701310266 0.9788174845234993
| 23> H -0.10051407389617997 -0.31794415645769636 1.8915789760231958
| 24> H 0.37354649918698135 -2.199340225234421 -1.8797716298199603
| 25> H 2.1462523008530328 1.1251152921303085 1.5497852899597684
| 26> *
| 27>
| 28>                          ****END OF INPUT****

CARTESIAN COORDINATES (ANGSTROEM)
---------------------------------
  C      0.893857    1.374320   -0.630313
  C      1.609385    0.155353   -0.072007
  H      2.582161    0.053086   -0.573547
  C      0.786631   -1.111676   -0.310705
  H      1.220470   -1.939528    0.267265
  C     -0.674034   -0.912430    0.129307
  H     -1.274384   -1.754247   -0.235538
  C     -1.251243    0.380880   -0.452891
  H     -1.316232    0.322762   -1.548257
  O     -0.429798    1.500685   -0.085687
  O     -2.542208    0.629251    0.036596
  O     -0.800640   -0.904104    1.555766
  O      0.853365   -1.377179   -1.714533
  O      1.782301    0.251106    1.353663
  H      0.850713    1.305797   -1.727185
  H      1.428529    2.289714   -0.359671
  H     -2.530587    0.392231    0.978817
  H     -0.100514   -0.317944    1.891579
  H      0.373546   -2.199340   -1.879772
  H      2.146252    1.125115    1.549785

 Total Charge           Charge          ....    0
 Multiplicity           Mult            ....    1
 Number of Electrons    NEL             ....   80
 Basis Dimension        Dim             ....  370

ORBITAL ENERGIES
----------------

  NO   OCC          E(Eh)            E(eV)
   0   2.0000     -21.702060      -590.5431
   1   2.0000     -21.697126      -590.4088
   2   2.0000     -21.682663      -590.0153
   3   2.0000     -21.678686      -589.9070
   4   2.0000     -21.674441      -589.7915
   5   2.0000     -12.146120      -330.5127
   6   2.0000     -12.119858      -329.7981
   7   2.0000     -12.118180      -329.7524
   8   2.0000     -12.108909      -329.5002
   9   2.0000     -12.107808      -329.4702
  10   2.0000      -1.712361       -46.5957
  11   2.0000      -1.703216       -46.3469
  12   2.0000      -1.698424       -46.2165
  13   2.0000      -1.679821       -45.7103
  14   2.0000      -1.666384       -45.3446
  15   2.0000      -1.336936       -36.3799
  16   2.0000      -1.300345       -35.3842
  17   2.0000      -1.203165       -32.7398
  18   2.0000      -1.195188       -32.5227
  19   2.0000      -1.141047       -31.0495
  20   2.0000      -1.084361       -29.5070
  21   2.0000      -1.077767       -29.3275
  22   2.0000      -1.052418       -28.6378
  23   2.0000      -1.022532       -27.8245
  24   2.0000      -1.005062       -27.3491
  25   2.0000      -0.999313       -27.1927
  26   2.0000      -0.990551       -26.9543
  27   2.0000      -0.981353       -26.7040
  28   2.0000      -0.968755       -26.3612
  29   2.0000      -0.953864       -25.9560
  30   2.0000      -0.941809       -25.6279
  31   2.0000      -0.933320       -25.3969
  32   2.0000      -0.916787       -24.9470
  33   2.0000      -0.899261       -24.4701
  34   2.0000      -0.880783       -23.9673
  35   2.0000      -0.858811       -23.3694
  36   2.0000      -0.844326       -22.9753
  37   2.0000      -0.822881       -22.3917
  38   2.0000      -0.807083       -21.9618
  39   2.0000      -0.780769       -21.2458
  40   0.0000      -0.235120        -6.3979
  41   0.0000      -0.183636        -4.9970
  42   0.0000      -0.170170        -4.6306
  43   0.0000      -0.140676        -3.8280
  44   0.0000      -0.105679        -2.8757

MULLIKEN ATOMIC CHARGES
-----------------------
   0 C :   -0.124335
   1 C :    0.082116
   2 H :    0.096829
   3 C :    0.075565
   4 H :    0.100121
   5 C :   -0.006349
   6 H :    0.099913
   7 C :    0.119832
   8 H :    0.076882
   9 O :   -0.242267
  10 O :   -0.411867
  11 O :   -0.464280
  12 O :   -0.434684
  13 O :   -0.467322
  14 H :    0.115312
  15 H :    0.119522
  16 H :    0.317998
  17 H :    0.327925
  18 H :    0.308442
  19 H :    0.310646
Sum of atomic charges:    0.0000000

LOEWDIN ATOMIC CHARGES
----------------------
   0 C :   -0.290566
   1 C :   -0.323185
   2 H :    0.143438
   3 C :   -0.305151
   4 H :    0.142557
   5 C :   -0.320445
   6 H :    0.144851
   7 C :   -0.408525
   8 H :    0.131747
   9 O :    0.154568
  10 O :    0.008360
  11 O :   -0.018157
  12 O :   -0.005388
  13 O :   -0.017506
  14 H :    0.133087
  15 H :    0.127709
  16 H :    0.178693
  17 H :    0.173217
  18 H :    0.175285
  19 H :    0.175412

  Mayer bond orders larger than 0.100000
B(  0-C ,  1-C ) :   1.0245 B(  0-C ,  9-O ) :   0.9988 B(  0-C , 14-H ) :   0.9721
B(  0-C , 15-H ) :   0.9683 B(  1-C ,  2-H ) :   0.9592 B(  1-C ,  3-C ) :   0.9313
B(  1-C , 13-O ) :   0.9977 B(  3-C ,  4-H ) :   0.9747 B(  3-C ,  5-C ) :   0.9940
B(  3-C , 12-O ) :   1.0929 B(  5-C ,  6-H ) :   0.9781 B(  5-C ,  7-C ) :   0.9678
B(  5-C , 11-O ) :   1.0276 B(  7-C ,  8-H ) :   0.9825 B(  7-C ,  9-O ) :   1.0109
B(  7-C , 10-O ) :   1.1760 B( 10-O , 16-H ) :   0.8678 B( 11-O , 17-H ) :   0.8549
B( 12-O , 18-H ) :   0.8966 B( 13-O , 19-H ) :   0.8935

FINAL SINGLE POINT ENERGY      -572.705520162128

DIPOLE MOMENT
-------------

Method             : SCF
Type of density    : Electron Density
Multiplicity       :   1
Irrep              :   0
Energy             :  -572.7216932761282351 Eh
Relativity type    :
Basis              : AO
                                X                 Y                 Z
Electronic contribution:     -1.908182758       0.384478338       1.274475111
Nuclear contribution   :      3.052990541      -0.644983481      -1.557961113
                        -----------------------------------------
Total Dipole Moment    :      1.144807783      -0.260505143      -0.283486002
                        -----------------------------------------
Magnitude (a.u.)       :      1.207812942
Magnitude (Debye)      :      3.070016521

Rotational constants in cm-1:             0.057761             0.040400             0.038357
Rotational constants in MHz :          1731.622768          1211.150421          1149.900951

                             ****ORCA TERMINATED NORMALLY****
TOTAL RUN TIME: 0 days 0 hours 3 minutes 51 seconds 608 msec
