                         Program Version 6.0.0  -   RELEASE  -
|  1> ! wb97x-v def2-tzvp def2/J RIJCOSX DEFGRID2 scfconv7 GCP(DFT/TZ) printgap
|  2> %output
|  3>     printlevel normal
|  4> end
|  5> %cpcm
|  6>     smd true
|  7>     smdsolvent "water"
|  8> end
|  9> * xyz 0 1
| 10> C 0.8938569055251682 1.3743202087413526 -0.6303128677969274
| 11> C 1.6093853787836256 0.15535305317436143 -0.07200677268359894
| 12> H 2.5821614354755895 0.053086266037908336 -0.5735466032911484
| 13> C 0.7866308752047169 -1.1116757559112613 -0.31070467434871846
| 14> H 1.22047004814536 -1.9395282721665443 0.26726516827371927
| 15> C -0.6740344821764044 -0.9124295101224175 0.12930681571929356
| 16> H -1.2743840305702718 -1.7542472939923588 -0.23553829185179093
| 17> C -1.2512432363846089 0.3808803022061529 -0.4528908378574826
| 18> H -1.3162321404661281 0.3227622264220168 -1.5482568183945673
| 19> O -0.4297978049547663 1.5006848585105286 -0.08568735386370865
| 20> O -2.5422083878332877 0.6292514686134696 0.03659600802834079
| 21> O -0.8006400766492628 -0.9041040984384103 1.5557660588858275
| 22> O 0.8533645610032754 -1.3771787860477025 -1.7145330661563505
| 23> O 1.7823010493540974 0.2511056276058557 1.3536629213582128
| 24> H 0.8507134214536455 1.3057968335269692 -1.727184698067407
| 25> H 1.428529172513101 2.2897138353339717 -0.3596706855782515
| 26> H -2.5305868429180953 0.3922309701310266 0.9788174845234993
| 27> H -0.10051407389617997 -0.31794415645769636 1.8915789760231958
| 28> H 0.37354649918698135 -2.199340225234421 -1.8797716298199603
| 29> H 2.1462523008530328 1.1251152921303085 1.5497852899597684
| 30> *
| 31>
| 32>                          ****END OF INPUT****

CARTESIAN COORDINATES (ANGSTROEM)
---------------------------------
  C      0.893857    1.374320   -0.630313
  C      1.609385    0.155353   -0.072007
  H      2.582161    0.053086   -0.573547
  C      0.786631   -1.111676   -0.310705
  H      1.220470   -1.939528    0.267265
  C     -0.674034   -0.912430    0.129307
  H     -1.274384   -1.754247   -0.235538
  C     -1.251243    0.380880   -0.452891
  H     -1.316232    0.322762   -1.548257
  O     -0.429798    1.500685   -0.085687
  O     -2.542208    0.629251    0.036596
  O     -0.800640   -0.904104    1.555766
  O      0.853365   -1.377179   -1.714533
  O      1.782301    0.251106    1.353663
  H      0.850713    1.305797   -1.727185
  H      1.428529    2.289714   -0.359671
  H     -2.530587    0.392231    0.978817
  H     -0.100514   -0.317944    1.891579
  H      0.373546   -2.199340   -1.879772
  H      2.146252    1.125115    1.549785

 Total Charge           Charge          ....    0
 Multiplicity           Mult            ....    1
 Number of Electrons    NEL             ....   80
 Basis Dimension        Dim             ....  370

ORBITAL ENERGIES
----------------

  NO   OCC          E(Eh)            E(eV)
   0   2.0000     -21.687445      -590.1454
   1   2.0000     -21.686108      -590.1090
   2   2.0000     -21.686014      -590.1064
   3   2.0000     -21.684187      -590.0567
   4   2.0000     -21.681603      -589.9864
   5   2.0000     -12.146606      -330.5259
   6   2.0000     -12.105680      -329.4123
   7   2.0000     -12.103330      -329.3484
   8   2.0000     -12.101482      -329.2981
   9   2.0000     -12.093577      -329.0830
  10   2.0000      -1.718444       -46.7612
  11   2.0000      -1.691467       -46.0272
  12   2.0000      -1.684647       -45.8416
  13   2.0000      -1.681889       -45.7665
  14   2.0000      -1.674030       -45.5527
  15   2.0000      -1.325117       -36.0583
  16   2.0000      -1.295954       -35.2647
  17   2.0000      -1.195860       -32.5410
  18   2.0000      -1.191033       -32.4097
  19   2.0000      -1.132756       -30.8239
  20   2.0000      -1.084832       -29.5198
  21   2.0000      -1.075921       -29.2773
  22   2.0000      -1.044084       -28.4110
  23   2.0000      -1.022018       -27.8105
  24   2.0000      -1.002554       -27.2809
  25   2.0000      -0.999749       -27.2046
  26   2.0000      -0.981389       -26.7050
  27   2.0000      -0.976461       -26.5709
  28   2.0000      -0.965197       -26.2643
  29   2.0000      -0.953204       -25.9380
  30   2.0000      -0.935626       -25.4597
  31   2.0000      -0.931075       -25.3358
  32   2.0000      -0.919432       -25.0190
  33   2.0000      -0.900910       -24.5150
  34   2.0000      -0.878601       -23.9080
  35   2.0000      -0.848301       -23.0835
  36   2.0000      -0.836423       -22.7602
  37   2.0000      -0.814755       -22.1706
  38   2.0000      -0.794187       -21.6109
  39   2.0000      -0.774535       -21.0762
  40   0.0000      -0.225679        -6.1410
  41   0.0000      -0.177404        -4.8274
  42   0.0000      -0.160598        -4.3701
  43   0.0000      -0.139175        -3.7871
  44   0.0000      -0.097943        -2.6652

MULLIKEN ATOMIC CHARGES
-----------------------
   0 C :   -0.130922
   1 C :    0.107873
   2 H :    0.122245
   3 C :    0.090888
   4 H :    0.115747
   5 C :    0.032166
   6 H :    0.141109
   7 C :    0.108634
   8 H :    0.117317
   9 O :   -0.335345
  10 O :   -0.498919
  11 O :   -0.534108
  12 O :   -0.527685
  13 O :   -0.545665
  14 H :    0.133038
  15 H :    0.158403
  16 H :    0.359104
  17 H :    0.352476
  18 H :    0.366886
  19 H :    0.366758
Sum of atomic charges:    0.0000000

LOEWDIN ATOMIC CHARGES
----------------------
   0 C :   -0.280357
   1 C :   -0.318292
   2 H :    0.151117
   3 C :   -0.299172
   4 H :    0.148027
   5 C :   -0.311622
   6 H :    0.157891
   7 C :   -0.408850
   8 H :    0.141440
   9 O :    0.120030
  10 O :   -0.027463
  11 O :   -0.046084
  12 O :   -0.030998
  13 O :   -0.038320
  14 H :    0.137755
  15 H :    0.140265
  16 H :    0.191122
  17 H :    0.178944
  18 H :    0.197771
  19 H :    0.196795

  Mayer bond orders larger than 0.100000
B(  0-C ,  1-C ) :   1.0117 B(  0-C ,  9-O ) :   0.9519 B(  0-C , 14-H ) :   0.9712
B(  0-C , 15-H ) :   0.9641 B(  1-C ,  2-H ) :   0.9607 B(  1-C ,  3-C ) :   0.9229
B(  1-C , 13-O ) :   0.9867 B(  3-C ,  4-H ) :   0.9765 B(  3-C ,  5-C ) :   1.0038
B(  3-C , 12-O ) :   1.0717 B(  5-C ,  6-H ) :   0.9563 B(  5-C ,  7-C ) :   0.9768
B(  5-C , 11-O ) :   0.9922 B(  7-C ,  8-H ) :   0.9847 B(  7-C ,  9-O ) :   1.0090
B(  7-C , 10-O ) :   1.1247 B( 10-O , 16-H ) :   0.8420 B( 11-O , 17-H ) :   0.8366
B( 12-O , 18-H ) :   0.8605 B( 13-O , 19-H ) :   0.8589

FINAL SINGLE POINT ENERGY      -572.736368422235

DIPOLE MOMENT
-------------

Method             : SCF
Type of density    : Electron Density
Multiplicity       :   1
Irrep              :   0
Energy             :  -572.7525415362351850 Eh
Relativity type    :
Basis              : AO
                                X                 Y                 Z
Electronic contribution:     -1.544655336       0.242639738       1.112380839
Nuclear contribution   :      3.052990541      -0.644983481      -1.557961113
                        -----------------------------------------
Total Dipole Moment    :      1.508335205      -0.402343743      -0.445580274
                        -----------------------------------------
Magnitude (a.u.)       :      1.623421497
Magnitude (Debye)      :      4.126409515

Rotational constants in cm-1:             0.057761             0.040400             0.038357
Rotational constants in MHz :          1731.622768          1211.150421          1149.900951

                             ****ORCA TERMINATED NORMALLY****
TOTAL RUN TIME: 0 days 0 hours 4 minutes 14 seconds 188 msec
