                         Program Version 6.0.0  -   RELEASE  -
|  1> ! pbe def2-sv(p) def2/J RI DEFGRID1 loosescf d4 GCP(DFT/SV(P)) printgap
|  2> %output
|  3>     printlevel normal
|  4> end
|  5> * xyz 0 1
|  6> C 4.4961968924 2.2321929811 -0.9104189067
|  7> C 4.7731878164 0.7519209254 -1.072618744
|  8> O 3.5621051166 -0.0291045807 -1.1732800346
|  9> P 2.4452515574 -0.1064193161 -0.0534101098
| 10> S 1.1407914397 1.3609130528 0.0358648472
| 11> O 3.3223026933 -0.2785574317 1.2617157733
| 12> C 2.7712927957 -0.1170982991 2.5801380066
| 13> C 1.9285044765 -1.3081472895 2.9887959864
| 14> S 1.7002623971 -2.0339024034 -0.5295506108
| 15> C -0.0036167309 -1.6427333756 -0.9838283409
| 16> S -1.0526242214 -1.283495217 0.4634201942
| 17> P -2.4270354617 0.0469061126 -0.4845660923
| 18> S -1.8299722804 0.9026972386 -2.1397847426
| 19> O -2.942683053 0.9405559866 0.7212602607
| 20> C -2.1389259052 1.8409734564 1.5046492467
| 21> C -1.9456742445 3.1703600788 0.8043892414
| 22> O -3.6967294157 -0.831954066 -0.8008628705
| 23> C -4.4104148748 -1.5993572165 0.2001604124
| 24> C -5.6276324282 -0.8420322488 0.6900960564
| 25> H 3.9881234179 2.4188181949 0.0349200214
| 26> H 5.4339030058 2.778796967 -0.923556762
| 27> H 3.8605519597 2.5890759961 -1.7179546219
| 28> H 5.3576787126 0.3685188424 -0.2336372689
| 29> H 5.287183046 0.5415446047 -2.0119912189
| 30> H 3.6478482076 -0.0069947246 3.2202656888
| 31> H 2.1787883308 0.8038482394 2.5966489657
| 32> H 1.6362090714 -1.2004890314 4.028227845
| 33> H 1.0298124041 -1.3666442669 2.3754904859
| 34> H 2.4936741979 -2.2282117839 2.8657146735
| 35> H -0.3855979179 -2.5286002695 -1.4851800281
| 36> H -0.033040805 -0.7716308861 -1.6441876435
| 37> H -2.7033000828 1.9572896708 2.4316761579
| 38> H -1.173433162 1.3738656889 1.7139685079
| 39> H -2.9062579779 3.5905801118 0.5188017319
| 40> H -1.4321834585 3.8548531435 1.4714683981
| 41> H -1.3394940917 3.0376919035 -0.0900883991
| 42> H -4.6957771497 -2.5187766193 -0.3141608046
| 43> H -3.7271692645 -1.8315214826 1.0222618066
| 44> H -6.2712113247 -0.5917743755 -0.1487881289
| 45> H -6.1754121105 -1.4652087395 1.3900123684
| 46> H -5.3264037539 0.0771163153 1.1849017155
| 47> *
| 48>
| 49>                          ****END OF INPUT****

CARTESIAN COORDINATES (ANGSTROEM)
---------------------------------
  C      4.496197    2.232193   -0.910419
  C      4.773188    0.751921   -1.072619
  O      3.562105   -0.029105   -1.173280
  P      2.445252   -0.106419   -0.053410
  S      1.140791    1.360913    0.035865
  O      3.322303   -0.278557    1.261716
  C      2.771293   -0.117098    2.580138
  C      1.928504   -1.308147    2.988796
  S      1.700262   -2.033902   -0.529551
  C     -0.003617   -1.642733   -0.983828
  S     -1.052624   -1.283495    0.463420
  P     -2.427035    0.046906   -0.484566
  S     -1.829972    0.902697   -2.139785
  O     -2.942683    0.940556    0.721260
  C     -2.138926    1.840973    1.504649
  C     -1.945674    3.170360    0.804389
  O     -3.696729   -0.831954   -0.800863
  C     -4.410415   -1.599357    0.200160
  C     -5.627632   -0.842032    0.690096
  H      3.988123    2.418818    0.034920
  H      5.433903    2.778797   -0.923557
  H      3.860552    2.589076   -1.717955
  H      5.357679    0.368519   -0.233637
  H      5.287183    0.541545   -2.011991
  H      3.647848   -0.006995    3.220266
  H      2.178788    0.803848    2.596649
  H      1.636209   -1.200489    4.028228
  H      1.029812   -1.366644    2.375490
  H      2.493674   -2.228212    2.865715
  H     -0.385598   -2.528600   -1.485180
  H     -0.033041   -0.771631   -1.644188
  H     -2.703300    1.957290    2.431676
  H     -1.173433    1.373866    1.713969
  H     -2.906258    3.590580    0.518802
  H     -1.432183    3.854853    1.471468
  H     -1.339494    3.037692   -0.090088
  H     -4.695777   -2.518777   -0.314161
  H     -3.727169   -1.831521    1.022262
  H     -6.271211   -0.591774   -0.148788
  H     -6.175412   -1.465209    1.390012
  H     -5.326404    0.077116    1.184902

 Total Charge           Charge          ....    0
 Multiplicity           Mult            ....    1
 Number of Electrons    NEL             ....  202
 Basis Dimension        Dim             ....  334

ORBITAL ENERGIES
----------------

  NO   OCC          E(Eh)            E(eV)
   0   2.0000     -88.044522     -2395.8132
   1   2.0000     -88.037790     -2395.6301
   2   2.0000     -87.986907     -2394.2454
   3   2.0000     -87.978095     -2394.0057
   4   2.0000     -76.427343     -2079.6937
   5   2.0000     -76.421259     -2079.5282
   6   2.0000     -18.795771      -511.4589
   7   2.0000     -18.792584      -511.3722
   8   2.0000     -18.789364      -511.2846
   9   2.0000     -18.784672      -511.1569
  10   2.0000      -9.955013      -270.8897
  11   2.0000      -9.954430      -270.8738
  12   2.0000      -9.952418      -270.8191
  13   2.0000      -9.950881      -270.7772
  14   2.0000      -9.949730      -270.7459
  15   2.0000      -9.884132      -268.9609
  16   2.0000      -9.883697      -268.9491
  17   2.0000      -9.882880      -268.9268
  18   2.0000      -9.874886      -268.7093
  19   2.0000      -7.689697      -209.2473
  20   2.0000      -7.682105      -209.0407
  21   2.0000      -7.631537      -207.6647
  22   2.0000      -7.623332      -207.4414
  23   2.0000      -6.424718      -174.8255
  24   2.0000      -6.418632      -174.6599
  25   2.0000      -5.717646      -155.5851
  26   2.0000      -5.714137      -155.4896
  27   2.0000      -5.709912      -155.3746
  28   2.0000      -5.706748      -155.2885
  29   2.0000      -5.706648      -155.2858
  30   2.0000      -5.699151      -155.0818
  31   2.0000      -5.660318      -154.0251
  32   2.0000      -5.652388      -153.8093
  33   2.0000      -5.652165      -153.8032
  34   2.0000      -5.651852      -153.7947
  35   2.0000      -5.643929      -153.5791
  36   2.0000      -5.643303      -153.5621
  37   2.0000      -4.647584      -126.4672
  38   2.0000      -4.646240      -126.4306
  39   2.0000      -4.645178      -126.4017
  40   2.0000      -4.641457      -126.3005
  41   2.0000      -4.640515      -126.2748
  42   2.0000      -4.638775      -126.2275
  43   2.0000      -0.989067       -26.9139
  44   2.0000      -0.984955       -26.8020
  45   2.0000      -0.945060       -25.7164
  46   2.0000      -0.940996       -25.6058
  47   2.0000      -0.759415       -20.6647
  48   2.0000      -0.720238       -19.5987
  49   2.0000      -0.708450       -19.2779
  50   2.0000      -0.689298       -18.7568
  51   2.0000      -0.686330       -18.6760
  52   2.0000      -0.671962       -18.2850
  53   2.0000      -0.651219       -17.7206
  54   2.0000      -0.633976       -17.2514
  55   2.0000      -0.596864       -16.2415
  56   2.0000      -0.584169       -15.8960
  57   2.0000      -0.578318       -15.7368
  58   2.0000      -0.570111       -15.5135
  59   2.0000      -0.560050       -15.2397
  60   2.0000      -0.501790       -13.6544
  61   2.0000      -0.496569       -13.5123
  62   2.0000      -0.474346       -12.9076
  63   2.0000      -0.472283       -12.8515
  64   2.0000      -0.454316       -12.3626
  65   2.0000      -0.446359       -12.1460
  66   2.0000      -0.436255       -11.8711
  67   2.0000      -0.430044       -11.7021
  68   2.0000      -0.425306       -11.5732
  69   2.0000      -0.417532       -11.3616
  70   2.0000      -0.411877       -11.2077
  71   2.0000      -0.406556       -11.0629
  72   2.0000      -0.396784       -10.7970
  73   2.0000      -0.383458       -10.4344
  74   2.0000      -0.377282       -10.2664
  75   2.0000      -0.371862       -10.1189
  76   2.0000      -0.355970        -9.6864
  77   2.0000      -0.354172        -9.6375
  78   2.0000      -0.353322        -9.6144
  79   2.0000      -0.349724        -9.5165
  80   2.0000      -0.345091        -9.3904
  81   2.0000      -0.341950        -9.3049
  82   2.0000      -0.339695        -9.2436
  83   2.0000      -0.336841        -9.1659
  84   2.0000      -0.329287        -8.9604
  85   2.0000      -0.318915        -8.6781
  86   2.0000      -0.312957        -8.5160
  87   2.0000      -0.297828        -8.1043
  88   2.0000      -0.291709        -7.9378
  89   2.0000      -0.289446        -7.8762
  90   2.0000      -0.285663        -7.7733
  91   2.0000      -0.277393        -7.5482
  92   2.0000      -0.272287        -7.4093
  93   2.0000      -0.261914        -7.1270
  94   2.0000      -0.258047        -7.0218
  95   2.0000      -0.237379        -6.4594
  96   2.0000      -0.220328        -5.9954
  97   2.0000      -0.210514        -5.7284
  98   2.0000      -0.196141        -5.3373
  99   2.0000      -0.192056        -5.2261
 100   2.0000      -0.187204        -5.0941
 101   0.0000      -0.042040        -1.1440
 102   0.0000      -0.030700        -0.8354
 103   0.0000      -0.013848        -0.3768
 104   0.0000       0.004166         0.1134
 105   0.0000       0.019319         0.5257

MULLIKEN ATOMIC CHARGES
-----------------------
   0 C :   -0.314333
   1 C :    0.000451
   2 O :   -0.370708
   3 P :    0.627768
   4 S :   -0.315997
   5 O :   -0.381379
   6 C :   -0.004640
   7 C :   -0.325337
   8 S :   -0.094986
   9 C :   -0.339399
  10 S :   -0.126650
  11 P :    0.610028
  12 S :   -0.292068
  13 O :   -0.380186
  14 C :   -0.020750
  15 C :   -0.304819
  16 O :   -0.356396
  17 C :   -0.009584
  18 C :   -0.288430
  19 H :    0.125177
  20 H :    0.109366
  21 H :    0.128052
  22 H :    0.108416
  23 H :    0.109197
  24 H :    0.102685
  25 H :    0.106208
  26 H :    0.109337
  27 H :    0.144955
  28 H :    0.116099
  29 H :    0.182360
  30 H :    0.207316
  31 H :    0.099392
  32 H :    0.121477
  33 H :    0.113435
  34 H :    0.106036
  35 H :    0.144652
  36 H :    0.107490
  37 H :    0.097492
  38 H :    0.119979
  39 H :    0.107024
  40 H :    0.121270
Sum of atomic charges:   -0.0000000

LOEWDIN ATOMIC CHARGES
----------------------
   0 C :   -0.367255
   1 C :   -0.109509
   2 O :   -0.244430
   3 P :    0.568021
   4 S :   -0.292272
   5 O :   -0.246621
   6 C :   -0.120053
   7 C :   -0.370473
   8 S :    0.093103
   9 C :   -0.479070
  10 S :    0.057668
  11 P :    0.565319
  12 S :   -0.286688
  13 O :   -0.241629
  14 C :   -0.119229
  15 C :   -0.364567
  16 O :   -0.239622
  17 C :   -0.115876
  18 C :   -0.359288
  19 H :    0.121001
  20 H :    0.128763
  21 H :    0.131564
  22 H :    0.112865
  23 H :    0.121586
  24 H :    0.117097
  25 H :    0.106309
  26 H :    0.129862
  27 H :    0.114280
  28 H :    0.125804
  29 H :    0.135709
  30 H :    0.123844
  31 H :    0.115025
  32 H :    0.104604
  33 H :    0.125916
  34 H :    0.128772
  35 H :    0.125306
  36 H :    0.120107
  37 H :    0.101158
  38 H :    0.128928
  39 H :    0.127909
  40 H :    0.126061

  Mayer bond orders larger than 0.100000
B(  0-C ,  1-C ) :   1.1667 B(  0-C , 19-H ) :   0.9364 B(  0-C , 20-H ) :   0.9358
B(  0-C , 21-H ) :   0.9446 B(  1-C ,  2-O ) :   0.9078 B(  1-C , 22-H ) :   0.9299
B(  1-C , 23-H ) :   0.9350 B(  2-O ,  3-P ) :   1.1346 B(  3-P ,  4-S ) :   1.6337
B(  3-P ,  5-O ) :   1.0808 B(  3-P ,  8-S ) :   0.9499 B(  4-S ,  8-S ) :   0.1230
B(  5-O ,  6-C ) :   0.9106 B(  6-C ,  7-C ) :   1.1667 B(  6-C , 24-H ) :   0.9333
B(  6-C , 25-H ) :   0.9099 B(  7-C , 26-H ) :   0.9380 B(  7-C , 27-H ) :   0.9263
B(  7-C , 28-H ) :   0.9445 B(  8-S ,  9-C ) :   1.0088 B(  9-C , 10-S ) :   0.9830
B(  9-C , 29-H ) :   0.9100 B(  9-C , 30-H ) :   0.8496 B( 10-S , 11-P ) :   0.9436
B( 10-S , 12-S ) :   0.1177 B( 11-P , 12-S ) :   1.6594 B( 11-P , 13-O ) :   1.0873
B( 11-P , 16-O ) :   1.1311 B( 12-S , 30-H ) :   0.1063 B( 13-O , 14-C ) :   0.9043
B( 14-C , 15-C ) :   1.1716 B( 14-C , 31-H ) :   0.9346 B( 14-C , 32-H ) :   0.9092
B( 15-C , 33-H ) :   0.9464 B( 15-C , 34-H ) :   0.9385 B( 15-C , 35-H ) :   0.9295
B( 16-O , 17-C ) :   0.8992 B( 17-C , 18-C ) :   1.1631 B( 17-C , 36-H ) :   0.9366
B( 17-C , 37-H ) :   0.9126 B( 18-C , 38-H ) :   0.9469 B( 18-C , 39-H ) :   0.9402
B( 18-C , 40-H ) :   0.9426

Dispersion correction           -0.064958963
FINAL SINGLE POINT ENERGY     -2929.515712212042

DIPOLE MOMENT
-------------

Method             : SCF
Type of density    : Electron Density
Multiplicity       :   1
Irrep              :   0
Energy             : -2929.6352519918323196 Eh
Relativity type    :
Basis              : AO
                                X                 Y                 Z
Electronic contribution:      1.703643249      -8.750190350     -14.188455723
Nuclear contribution   :     -1.189328011       8.413711781      15.821585256
                        -----------------------------------------
Total Dipole Moment    :      0.514315239      -0.336478569       1.633129533
                        -----------------------------------------
Magnitude (a.u.)       :      1.744949874
Magnitude (Debye)      :      4.435310101

Rotational constants in cm-1:             0.013144             0.004650             0.004453
Rotational constants in MHz :           394.033380           139.414824           133.484100

                             ****ORCA TERMINATED NORMALLY****
TOTAL RUN TIME: 0 days 0 hours 0 minutes 20 seconds 939 msec
