                         Program Version 6.0.0  -   RELEASE  -
|  1> ! pbe def2-sv(p) def2/J RI DEFGRID1 loosescf d4 GCP(DFT/SV(P)) printgap
|  2> %output
|  3>     printlevel normal
|  4> end
|  5> * xyz 0 1
|  6> C 4.4053489258 -1.1285559745 -2.2736582261
|  7> C 2.9250226887 -0.979783754 -1.9887356893
|  8> O 2.6790213002 0.1000272172 -1.054797819
|  9> P 2.5770757193 -0.0676472453 0.5091756793
| 10> S 2.1379612534 1.6222347733 1.3893133252
| 11> O 3.9834500357 -0.7021610488 0.8920394649
| 12> C 4.5005087295 -0.6969203319 2.236020586
| 13> C 3.6674908365 -1.5394085795 3.1798416649
| 14> S 1.1935665471 -1.661794195 0.8192058074
| 15> C -0.2800445334 -0.6360366802 0.7819064238
| 16> S -0.554142364 0.0079553299 -0.9146431486
| 17> P -2.548556281 0.6252178567 -0.6610036282
| 18> S -3.3784950733 1.362013352 -2.2757079323
| 19> O -2.336783631 1.562801714 0.6016408741
| 20> C -3.3794147962 1.9323154607 1.5320062445
| 21> C -4.5210661629 2.6674295371 0.8622885527
| 22> O -3.3346637856 -0.602380484 -0.0059900457
| 23> C -4.0208122377 -1.5724326627 -0.8158489026
| 24> C -3.0526126655 -2.4841771352 -1.5422953379
| 25> H 4.8129707376 -0.1863773393 -2.6299336062
| 26> H 4.9361258421 -1.42264537 -1.3723436356
| 27> H 4.5429091134 -1.8891084377 -3.0358751936
| 28> H 2.505647167 -1.9034896118 -1.5801525849
| 29> H 2.3694511313 -0.6886701751 -2.8821996726
| 30> H 5.5103086719 -1.0947027808 2.1258097154
| 31> H 4.5454094815 0.3400441215 2.5824608505
| 32> H 4.1795296604 -1.617487915 4.1335590662
| 33> H 2.6970623418 -1.0723912688 3.338847992
| 34> H 3.5163271677 -2.5337167449 2.7674039732
| 35> H -0.144284366 0.2100184774 1.4571133156
| 36> H -1.121796298 -1.2587293004 1.073777612
| 37> H -3.7354538524 1.0247905522 2.0245137244
| 38> H -2.8603877817 2.5686949383 2.2510674655
| 39> H -5.2323585987 2.9908012145 1.6158219677
| 40> H -4.1479244178 3.5353580766 0.3233292877
| 41> H -5.0253972507 2.0135692264 0.1519756092
| 42> H -4.6404432645 -2.1207927609 -0.1049927716
| 43> H -4.6535304394 -1.038716863 -1.5320794605
| 44> H -2.462939162 -1.9045760368 -2.2520528279
| 45> H -2.3801927027 -2.9710415637 -0.8402997204
| 46> H -3.6111774652 -3.2396932919 -2.0852378745
| 47> *
| 48>
| 49>                          ****END OF INPUT****

CARTESIAN COORDINATES (ANGSTROEM)
---------------------------------
  C      4.405349   -1.128556   -2.273658
  C      2.925023   -0.979784   -1.988736
  O      2.679021    0.100027   -1.054798
  P      2.577076   -0.067647    0.509176
  S      2.137961    1.622235    1.389313
  O      3.983450   -0.702161    0.892039
  C      4.500509   -0.696920    2.236021
  C      3.667491   -1.539409    3.179842
  S      1.193567   -1.661794    0.819206
  C     -0.280045   -0.636037    0.781906
  S     -0.554142    0.007955   -0.914643
  P     -2.548556    0.625218   -0.661004
  S     -3.378495    1.362013   -2.275708
  O     -2.336784    1.562802    0.601641
  C     -3.379415    1.932315    1.532006
  C     -4.521066    2.667430    0.862289
  O     -3.334664   -0.602380   -0.005990
  C     -4.020812   -1.572433   -0.815849
  C     -3.052613   -2.484177   -1.542295
  H      4.812971   -0.186377   -2.629934
  H      4.936126   -1.422645   -1.372344
  H      4.542909   -1.889108   -3.035875
  H      2.505647   -1.903490   -1.580153
  H      2.369451   -0.688670   -2.882200
  H      5.510309   -1.094703    2.125810
  H      4.545409    0.340044    2.582461
  H      4.179530   -1.617488    4.133559
  H      2.697062   -1.072391    3.338848
  H      3.516327   -2.533717    2.767404
  H     -0.144284    0.210018    1.457113
  H     -1.121796   -1.258729    1.073778
  H     -3.735454    1.024791    2.024514
  H     -2.860388    2.568695    2.251067
  H     -5.232359    2.990801    1.615822
  H     -4.147924    3.535358    0.323329
  H     -5.025397    2.013569    0.151976
  H     -4.640443   -2.120793   -0.104993
  H     -4.653530   -1.038717   -1.532079
  H     -2.462939   -1.904576   -2.252053
  H     -2.380193   -2.971042   -0.840300
  H     -3.611177   -3.239693   -2.085238

 Total Charge           Charge          ....    0
 Multiplicity           Mult            ....    1
 Number of Electrons    NEL             ....  202
 Basis Dimension        Dim             ....  334

ORBITAL ENERGIES
----------------

  NO   OCC          E(Eh)            E(eV)
   0   2.0000     -88.051062     -2395.9912
   1   2.0000     -88.037378     -2395.6188
   2   2.0000     -87.986280     -2394.2284
   3   2.0000     -87.983118     -2394.1424
   4   2.0000     -76.428764     -2079.7324
   5   2.0000     -76.424150     -2079.6068
   6   2.0000     -18.798766      -511.5404
   7   2.0000     -18.795752      -511.4584
   8   2.0000     -18.793139      -511.3873
   9   2.0000     -18.788971      -511.2739
  10   2.0000      -9.957790      -270.9653
  11   2.0000      -9.955079      -270.8915
  12   2.0000      -9.954269      -270.8694
  13   2.0000      -9.953822      -270.8573
  14   2.0000      -9.953641      -270.8524
  15   2.0000      -9.888844      -269.0891
  16   2.0000      -9.886287      -269.0196
  17   2.0000      -9.885996      -269.0116
  18   2.0000      -9.881920      -268.9007
  19   2.0000      -7.695861      -209.4150
  20   2.0000      -7.682485      -209.0510
  21   2.0000      -7.631474      -207.6630
  22   2.0000      -7.628314      -207.5770
  23   2.0000      -6.426304      -174.8686
  24   2.0000      -6.421547      -174.7392
  25   2.0000      -5.723487      -155.7440
  26   2.0000      -5.720429      -155.6608
  27   2.0000      -5.713066      -155.4604
  28   2.0000      -5.710788      -155.3984
  29   2.0000      -5.706896      -155.2925
  30   2.0000      -5.699164      -155.0821
  31   2.0000      -5.660506      -154.0302
  32   2.0000      -5.657282      -153.9425
  33   2.0000      -5.651977      -153.7981
  34   2.0000      -5.651633      -153.7887
  35   2.0000      -5.648861      -153.7133
  36   2.0000      -5.648512      -153.7038
  37   2.0000      -4.649162      -126.5101
  38   2.0000      -4.648028      -126.4793
  39   2.0000      -4.646521      -126.4383
  40   2.0000      -4.644452      -126.3820
  41   2.0000      -4.643322      -126.3512
  42   2.0000      -4.641753      -126.3085
  43   2.0000      -0.991097       -26.9691
  44   2.0000      -0.987458       -26.8701
  45   2.0000      -0.948872       -25.8201
  46   2.0000      -0.943964       -25.6866
  47   2.0000      -0.765365       -20.8266
  48   2.0000      -0.722959       -19.6727
  49   2.0000      -0.710985       -19.3469
  50   2.0000      -0.693309       -18.8659
  51   2.0000      -0.689225       -18.7548
  52   2.0000      -0.675408       -18.3788
  53   2.0000      -0.653601       -17.7854
  54   2.0000      -0.637676       -17.3520
  55   2.0000      -0.598537       -16.2870
  56   2.0000      -0.590960       -16.0808
  57   2.0000      -0.577906       -15.7256
  58   2.0000      -0.576938       -15.6993
  59   2.0000      -0.561795       -15.2872
  60   2.0000      -0.501410       -13.6441
  61   2.0000      -0.497323       -13.5328
  62   2.0000      -0.477772       -13.0008
  63   2.0000      -0.470642       -12.8068
  64   2.0000      -0.454887       -12.3781
  65   2.0000      -0.450590       -12.2612
  66   2.0000      -0.446124       -12.1396
  67   2.0000      -0.434637       -11.8271
  68   2.0000      -0.431011       -11.7284
  69   2.0000      -0.422445       -11.4953
  70   2.0000      -0.410613       -11.1734
  71   2.0000      -0.408683       -11.1208
  72   2.0000      -0.397312       -10.8114
  73   2.0000      -0.391996       -10.6668
  74   2.0000      -0.382044       -10.3960
  75   2.0000      -0.371903       -10.1200
  76   2.0000      -0.366831        -9.9820
  77   2.0000      -0.358470        -9.7545
  78   2.0000      -0.354356        -9.6425
  79   2.0000      -0.351720        -9.5708
  80   2.0000      -0.349379        -9.5071
  81   2.0000      -0.346464        -9.4278
  82   2.0000      -0.343190        -9.3387
  83   2.0000      -0.337218        -9.1762
  84   2.0000      -0.331658        -9.0249
  85   2.0000      -0.322805        -8.7840
  86   2.0000      -0.318034        -8.6541
  87   2.0000      -0.298801        -8.1308
  88   2.0000      -0.294989        -8.0271
  89   2.0000      -0.293227        -7.9791
  90   2.0000      -0.289600        -7.8804
  91   2.0000      -0.275973        -7.5096
  92   2.0000      -0.274041        -7.4570
  93   2.0000      -0.266840        -7.2611
  94   2.0000      -0.260109        -7.0779
  95   2.0000      -0.234018        -6.3679
  96   2.0000      -0.221761        -6.0344
  97   2.0000      -0.205980        -5.6050
  98   2.0000      -0.204585        -5.5670
  99   2.0000      -0.200720        -5.4619
 100   2.0000      -0.196311        -5.3419
 101   0.0000      -0.040665        -1.1066
 102   0.0000      -0.025592        -0.6964
 103   0.0000      -0.013314        -0.3623
 104   0.0000       0.003537         0.0962
 105   0.0000       0.014023         0.3816

MULLIKEN ATOMIC CHARGES
-----------------------
   0 C :   -0.291087
   1 C :   -0.016111
   2 O :   -0.346738
   3 P :    0.600656
   4 S :   -0.299413
   5 O :   -0.380518
   6 C :    0.001028
   7 C :   -0.320936
   8 S :   -0.100740
   9 C :   -0.363500
  10 S :   -0.064656
  11 P :    0.616635
  12 S :   -0.313494
  13 O :   -0.377618
  14 C :   -0.000727
  15 C :   -0.315204
  16 O :   -0.392994
  17 C :   -0.007655
  18 C :   -0.312313
  19 H :    0.121691
  20 H :    0.120566
  21 H :    0.110169
  22 H :    0.103002
  23 H :    0.116362
  24 H :    0.106236
  25 H :    0.114938
  26 H :    0.116031
  27 H :    0.129347
  28 H :    0.117225
  29 H :    0.198679
  30 H :    0.179861
  31 H :    0.104124
  32 H :    0.111964
  33 H :    0.109550
  34 H :    0.128584
  35 H :    0.126590
  36 H :    0.102040
  37 H :    0.112948
  38 H :    0.130314
  39 H :    0.111910
  40 H :    0.113254
Sum of atomic charges:   -0.0000000

LOEWDIN ATOMIC CHARGES
----------------------
   0 C :   -0.360288
   1 C :   -0.117675
   2 O :   -0.229354
   3 P :    0.569470
   4 S :   -0.299538
   5 O :   -0.246578
   6 C :   -0.115718
   7 C :   -0.371618
   8 S :    0.086254
   9 C :   -0.481397
  10 S :    0.091528
  11 P :    0.563323
  12 S :   -0.317153
  13 O :   -0.242291
  14 C :   -0.110312
  15 C :   -0.367622
  16 O :   -0.251765
  17 C :   -0.122824
  18 C :   -0.367082
  19 H :    0.129661
  20 H :    0.124950
  21 H :    0.129823
  22 H :    0.101563
  23 H :    0.123496
  24 H :    0.119088
  25 H :    0.114543
  26 H :    0.132598
  27 H :    0.121867
  28 H :    0.122835
  29 H :    0.123655
  30 H :    0.127824
  31 H :    0.110640
  32 H :    0.122438
  33 H :    0.129031
  34 H :    0.131979
  35 H :    0.121215
  36 H :    0.116322
  37 H :    0.110249
  38 H :    0.123399
  39 H :    0.122192
  40 H :    0.131271

  Mayer bond orders larger than 0.100000
B(  0-C ,  1-C ) :   1.1640 B(  0-C , 19-H ) :   0.9472 B(  0-C , 20-H ) :   0.9413
B(  0-C , 21-H ) :   0.9397 B(  1-C ,  2-O ) :   0.8924 B(  1-C , 22-H ) :   0.9101
B(  1-C , 23-H ) :   0.9342 B(  2-O ,  3-P ) :   1.1452 B(  3-P ,  4-S ) :   1.6478
B(  3-P ,  5-O ) :   1.0892 B(  3-P ,  8-S ) :   0.9317 B(  4-S ,  8-S ) :   0.1105
B(  5-O ,  6-C ) :   0.9034 B(  6-C ,  7-C ) :   1.1662 B(  6-C , 24-H ) :   0.9341
B(  6-C , 25-H ) :   0.9184 B(  7-C , 26-H ) :   0.9370 B(  7-C , 27-H ) :   0.9348
B(  7-C , 28-H ) :   0.9435 B(  8-S ,  9-C ) :   1.0134 B(  9-C , 10-S ) :   0.9594
B(  9-C , 29-H ) :   0.8662 B(  9-C , 30-H ) :   0.8918 B( 10-S , 11-P ) :   0.9958
B( 11-P , 12-S ) :   1.6541 B( 11-P , 13-O ) :   1.0989 B( 11-P , 16-O ) :   1.0429
B( 13-O , 14-C ) :   0.9078 B( 14-C , 15-C ) :   1.1694 B( 14-C , 31-H ) :   0.9291
B( 14-C , 32-H ) :   0.9341 B( 15-C , 33-H ) :   0.9356 B( 15-C , 34-H ) :   0.9447
B( 15-C , 35-H ) :   0.9355 B( 16-O , 17-C ) :   0.9093 B( 17-C , 18-C ) :   1.1644
B( 17-C , 36-H ) :   0.9335 B( 17-C , 37-H ) :   0.9111 B( 18-C , 38-H ) :   0.9340
B( 18-C , 39-H ) :   0.9467 B( 18-C , 40-H ) :   0.9386

Dispersion correction           -0.062744793
FINAL SINGLE POINT ENERGY     -2929.516176413918

DIPOLE MOMENT
-------------

Method             : SCF
Type of density    : Electron Density
Multiplicity       :   1
Irrep              :   0
Energy             : -2929.6386086367670032 Eh
Relativity type    :
Basis              : AO
                                X                 Y                 Z
Electronic contribution:      0.558799909      10.249323674      -4.355905457
Nuclear contribution   :     -0.368808642     -12.032317088       5.359063120
                        -----------------------------------------
Total Dipole Moment    :      0.189991267      -1.782993414       1.003157663
                        -----------------------------------------
Magnitude (a.u.)       :      2.054625876
Magnitude (Debye)      :      5.222443943

Rotational constants in cm-1:             0.013044             0.004144             0.003859
Rotational constants in MHz :           391.047559           124.220509           115.676186

                             ****ORCA TERMINATED NORMALLY****
TOTAL RUN TIME: 0 days 0 hours 0 minutes 20 seconds 306 msec
