                         Program Version 6.0.1  -  RELEASE   -
|  1> ! pbe def2-sv(p) def2/J RI DEFGRID1 loosescf d4 GCP(DFT/SV(P)) printgap
|  2> %output
|  3>     printlevel normal
|  4> end
|  5> * xyz 0 1
|  6> C 3.5666064475 -3.8562249728 -0.0319341462
|  7> C 3.7542995112 -3.0297994394 -1.2939411669
|  8> O 2.5011840537 -2.4631927433 -1.7297943419
|  9> C 2.1157935829 -1.3154759161 -1.2182368358
| 10> O 2.7556488812 -0.66379856 -0.4173342004
| 11> C 0.7533760525 -0.9053631328 -1.731865349
| 12> C 0.4873892877 0.5662127839 -1.429433536
| 13> H 0.9520685317 1.2295669169 -2.1591163772
| 14> C 0.9366212649 0.9544568835 -0.0351183381
| 15> O 0.4538097368 0.4211940713 0.9480919725
| 16> O 1.7704906325 1.9569721794 -0.0329677863
| 17> C 2.2341915411 2.4651366373 1.2356112718
| 18> C 1.3121185198 3.559487675 1.7476982433
| 19> S -1.2982233148 0.9324087213 -1.4673274009
| 20> P -2.0406242179 0.3241410209 0.4419875634
| 21> S -1.9911068061 1.4475107063 2.043988268
| 22> O -3.5835603485 0.2876341895 0.0287647359
| 23> C -4.1353252288 -0.549427624 -1.0039805776
| 24> O -1.7085846168 -1.244603487 0.5838849978
| 25> C -1.069050059 -1.827887892 1.718802315
| 26> H 2.8181768727 -4.6265626 -0.1955017563
| 27> H 4.5089080912 -4.3236225613 0.2338276633
| 28> H 3.2471926494 -3.2189261327 0.7901879676
| 29> H 4.0758783264 -3.6488500497 -2.1311790364
| 30> H 4.4643741127 -2.2159587262 -1.123104533
| 31> H 0.0202185098 -1.5348338435 -1.2192678253
| 32> H 0.6748366062 -1.1067780302 -2.7991936525
| 33> H 2.2878301184 1.6333461262 1.9425688773
| 34> H 3.2318001554 2.8486847451 1.0214838039
| 35> H 1.2163439988 4.3471911729 1.0055404682
| 36> H 0.3242423042 3.1552488457 1.9637864305
| 37> H 1.7240747218 3.9745369258 2.6613265347
| 38> H -5.209730936 -0.5287573847 -0.8395286059
| 39> H -3.7528302419 -1.564256413 -0.9108265538
| 40> H -3.8892905293 -0.1387130447 -1.9818314024
| 41> H -1.5263354933 -2.8053202674 1.8536694858
| 42> H -1.2208519625 -1.2057370196 2.6019311572
| 43> H 0.0003718247 -1.9167009733 1.5302735404
| 44> *
| 45>
| 46>                          ****END OF INPUT****

CARTESIAN COORDINATES (ANGSTROEM)
---------------------------------
  C      3.566606   -3.856225   -0.031934
  C      3.754300   -3.029799   -1.293941
  O      2.501184   -2.463193   -1.729794
  C      2.115794   -1.315476   -1.218237
  O      2.755649   -0.663799   -0.417334
  C      0.753376   -0.905363   -1.731865
  C      0.487389    0.566213   -1.429434
  H      0.952069    1.229567   -2.159116
  C      0.936621    0.954457   -0.035118
  O      0.453810    0.421194    0.948092
  O      1.770491    1.956972   -0.032968
  C      2.234192    2.465137    1.235611
  C      1.312119    3.559488    1.747698
  S     -1.298223    0.932409   -1.467327
  P     -2.040624    0.324141    0.441988
  S     -1.991107    1.447511    2.043988
  O     -3.583560    0.287634    0.028765
  C     -4.135325   -0.549428   -1.003981
  O     -1.708585   -1.244603    0.583885
  C     -1.069050   -1.827888    1.718802
  H      2.818177   -4.626563   -0.195502
  H      4.508908   -4.323623    0.233828
  H      3.247193   -3.218926    0.790188
  H      4.075878   -3.648850   -2.131179
  H      4.464374   -2.215959   -1.123105
  H      0.020219   -1.534834   -1.219268
  H      0.674837   -1.106778   -2.799194
  H      2.287830    1.633346    1.942569
  H      3.231800    2.848685    1.021484
  H      1.216344    4.347191    1.005540
  H      0.324242    3.155249    1.963786
  H      1.724075    3.974537    2.661327
  H     -5.209731   -0.528757   -0.839529
  H     -3.752830   -1.564256   -0.910827
  H     -3.889291   -0.138713   -1.981831
  H     -1.526335   -2.805320    1.853669
  H     -1.220852   -1.205737    2.601931
  H      0.000372   -1.916701    1.530274

 Total Charge           Charge          ....    0
 Multiplicity           Mult            ....    1
 Number of Electrons    NEL             ....  174
 Basis Dimension        Dim             ....  316

ORBITAL ENERGIES
----------------

  NO   OCC          E(Eh)            E(eV)
   0   2.0000     -88.037189     -2395.6137
   1   2.0000     -87.965007     -2393.6495
   2   2.0000     -76.416854     -2079.4083
   3   2.0000     -18.817841      -512.0595
   4   2.0000     -18.803721      -511.6753
   5   2.0000     -18.785032      -511.1667
   6   2.0000     -18.775017      -510.8942
   7   2.0000     -18.756536      -510.3913
   8   2.0000     -18.744135      -510.0539
   9   2.0000     -10.025852      -272.8173
  10   2.0000     -10.016597      -272.5655
  11   2.0000      -9.960364      -271.0353
  12   2.0000      -9.948642      -270.7163
  13   2.0000      -9.941436      -270.5202
  14   2.0000      -9.937185      -270.4046
  15   2.0000      -9.933305      -270.2990
  16   2.0000      -9.918856      -269.9058
  17   2.0000      -9.897498      -269.3246
  18   2.0000      -9.872027      -268.6315
  19   2.0000      -7.681958      -209.0367
  20   2.0000      -7.610256      -207.0856
  21   2.0000      -6.412664      -174.4975
  22   2.0000      -5.710173      -155.3817
  23   2.0000      -5.706181      -155.2731
  24   2.0000      -5.698917      -155.0754
  25   2.0000      -5.639647      -153.4626
  26   2.0000      -5.630990      -153.2270
  27   2.0000      -5.629753      -153.1934
  28   2.0000      -4.635796      -126.1464
  29   2.0000      -4.634461      -126.1101
  30   2.0000      -4.632964      -126.0694
  31   2.0000      -1.027018       -27.9466
  32   2.0000      -1.014181       -27.5973
  33   2.0000      -0.970519       -26.4092
  34   2.0000      -0.933744       -25.4085
  35   2.0000      -0.929290       -25.2873
  36   2.0000      -0.921613       -25.0784
  37   2.0000      -0.765556       -20.8319
  38   2.0000      -0.722293       -19.6546
  39   2.0000      -0.699188       -19.0259
  40   2.0000      -0.689646       -18.7662
  41   2.0000      -0.660648       -17.9771
  42   2.0000      -0.629589       -17.1320
  43   2.0000      -0.617653       -16.8072
  44   2.0000      -0.603217       -16.4144
  45   2.0000      -0.602375       -16.3915
  46   2.0000      -0.560761       -15.2591
  47   2.0000      -0.511717       -13.9245
  48   2.0000      -0.507746       -13.8165
  49   2.0000      -0.494061       -13.4441
  50   2.0000      -0.484300       -13.1785
  51   2.0000      -0.467916       -12.7326
  52   2.0000      -0.465469       -12.6660
  53   2.0000      -0.443314       -12.0632
  54   2.0000      -0.440163       -11.9775
  55   2.0000      -0.434565       -11.8251
  56   2.0000      -0.428848       -11.6695
  57   2.0000      -0.420035       -11.4297
  58   2.0000      -0.417094       -11.3497
  59   2.0000      -0.410671       -11.1749
  60   2.0000      -0.403522       -10.9804
  61   2.0000      -0.398639       -10.8475
  62   2.0000      -0.389582       -10.6011
  63   2.0000      -0.385922       -10.5015
  64   2.0000      -0.375680       -10.2228
  65   2.0000      -0.367484        -9.9997
  66   2.0000      -0.362152        -9.8547
  67   2.0000      -0.355768        -9.6809
  68   2.0000      -0.345892        -9.4122
  69   2.0000      -0.342493        -9.3197
  70   2.0000      -0.331806        -9.0289
  71   2.0000      -0.328431        -8.9370
  72   2.0000      -0.319223        -8.6865
  73   2.0000      -0.309783        -8.4296
  74   2.0000      -0.299017        -8.1367
  75   2.0000      -0.297200        -8.0872
  76   2.0000      -0.290396        -7.9021
  77   2.0000      -0.283927        -7.7261
  78   2.0000      -0.277206        -7.5432
  79   2.0000      -0.262829        -7.1519
  80   2.0000      -0.255852        -6.9621
  81   2.0000      -0.253924        -6.9096
  82   2.0000      -0.241475        -6.5709
  83   2.0000      -0.232974        -6.3395
  84   2.0000      -0.220680        -6.0050
  85   2.0000      -0.184897        -5.0313
  86   2.0000      -0.174336        -4.7439
  87   0.0000      -0.048086        -1.3085
  88   0.0000      -0.038749        -1.0544
  89   0.0000      -0.017989        -0.4895
  90   0.0000       0.008501         0.2313
  91   0.0000       0.029554         0.8042

MULLIKEN ATOMIC CHARGES
-----------------------
   0 C :   -0.309812
   1 C :   -0.013853
   2 O :   -0.225206
   3 C :    0.128414
   4 O :   -0.204448
   5 C :   -0.077233
   6 C :   -0.276472
   7 H :    0.131419
   8 C :    0.202716
   9 O :   -0.216601
  10 O :   -0.208743
  11 C :   -0.007557
  12 C :   -0.316242
  13 S :   -0.102689
  14 P :    0.625550
  15 S :   -0.294980
  16 O :   -0.373810
  17 C :   -0.111000
  18 O :   -0.402082
  19 C :   -0.096273
  20 H :    0.117404
  21 H :    0.117989
  22 H :    0.131598
  23 H :    0.107903
  24 H :    0.113142
  25 H :    0.145523
  26 H :    0.122123
  27 H :    0.112013
  28 H :    0.101099
  29 H :    0.108953
  30 H :    0.149614
  31 H :    0.106433
  32 H :    0.125948
  33 H :    0.114613
  34 H :    0.120519
  35 H :    0.111974
  36 H :    0.123823
  37 H :    0.118230
Sum of atomic charges:   -0.0000000

LOEWDIN ATOMIC CHARGES
----------------------
   0 C :   -0.355880
   1 C :   -0.109111
   2 O :   -0.054388
   3 C :    0.040888
   4 O :   -0.152367
   5 C :   -0.257328
   6 C :   -0.258236
   7 H :    0.141855
   8 C :    0.010789
   9 O :   -0.170201
  10 O :   -0.032937
  11 C :   -0.103574
  12 C :   -0.362073
  13 S :    0.105419
  14 P :    0.580292
  15 S :   -0.297930
  16 O :   -0.258254
  17 C :   -0.216876
  18 O :   -0.262571
  19 C :   -0.215045
  20 H :    0.126388
  21 H :    0.133392
  22 H :    0.131488
  23 H :    0.120382
  24 H :    0.121830
  25 H :    0.152018
  26 H :    0.144677
  27 H :    0.122769
  28 H :    0.117498
  29 H :    0.123431
  30 H :    0.128403
  31 H :    0.128662
  32 H :    0.122862
  33 H :    0.109894
  34 H :    0.107595
  35 H :    0.114126
  36 H :    0.113226
  37 H :    0.108888

  Mayer bond orders larger than 0.100000
B(  0-C ,  1-C ) :   1.1752 B(  0-C , 20-H ) :   0.9486 B(  0-C , 21-H ) :   0.9432
B(  0-C , 22-H ) :   0.9453 B(  1-C ,  2-O ) :   0.9077 B(  1-C , 23-H ) :   0.9367
B(  1-C , 24-H ) :   0.9148 B(  2-O ,  3-C ) :   1.2512 B(  3-C ,  4-O ) :   1.9767
B(  3-C ,  5-C ) :   1.0092 B(  4-O ,  8-C ) :   0.1059 B(  5-C ,  6-C ) :   1.0044
B(  5-C , 25-H ) :   0.8664 B(  5-C , 26-H ) :   0.9017 B(  6-C ,  7-H ) :   0.8841
B(  6-C ,  8-C ) :   0.9090 B(  6-C , 13-S ) :   1.0151 B(  8-C ,  9-O ) :   1.8762
B(  8-C , 10-O ) :   1.2882 B(  9-O , 14-P ) :   0.1262 B( 10-O , 11-C ) :   0.9010
B( 11-C , 12-C ) :   1.1757 B( 11-C , 27-H ) :   0.9138 B( 11-C , 28-H ) :   0.9377
B( 12-C , 29-H ) :   0.9472 B( 12-C , 30-H ) :   0.9224 B( 12-C , 31-H ) :   0.9419
B( 13-S , 14-P ) :   0.9331 B( 13-S , 15-S ) :   0.1049 B( 14-P , 15-S ) :   1.6173
B( 14-P , 16-O ) :   1.0926 B( 14-P , 18-O ) :   1.0399 B( 16-O , 17-C ) :   0.9283
B( 17-C , 32-H ) :   0.9594 B( 17-C , 33-H ) :   0.9439 B( 17-C , 34-H ) :   0.9465
B( 18-O , 19-C ) :   0.9215 B( 19-C , 35-H ) :   0.9539 B( 19-C , 36-H ) :   0.9336
B( 19-C , 37-H ) :   0.9461

Dispersion correction           -0.052228397
FINAL SINGLE POINT ENERGY     -1979.007063232796

DIPOLE MOMENT
-------------

Method             : SCF
Type of density    : Electron Density
Multiplicity       :   1
Irrep              :   0
Energy             : -1979.1397650249787148 Eh
Relativity type    :
Basis              : AO
                                X                 Y                 Z
Electronic contribution:    -13.657382095       9.675405522      -2.846753769
Nuclear contribution   :     15.035887953     -11.310139168       1.685452789
                        -----------------------------------------
Total Dipole Moment    :      1.378505859      -1.634733646      -1.161300980
                        -----------------------------------------
Magnitude (a.u.)       :      2.433362378
Magnitude (Debye)      :      6.185115625

Rotational constants in cm-1:             0.012748             0.007209             0.005855
Rotational constants in MHz :           382.169693           216.128400           175.537099

                             ****ORCA TERMINATED NORMALLY****
TOTAL RUN TIME: 0 days 0 hours 0 minutes 41 seconds 497 msec
