                         Program Version 6.0.1  -  RELEASE   -
|  1> ! pbe def2-sv(p) def2/J RI DEFGRID1 loosescf d4 GCP(DFT/SV(P)) printgap
|  2> %output
|  3>     printlevel normal
|  4> end
|  5> * xyz 0 1
|  6> C 2.8577282693 -3.2768182866 1.1380843853
|  7> C 3.0097770333 -1.7688497005 1.2395612014
|  8> O 2.7524070473 -1.1667161015 -0.045430318
|  9> C 1.6828818005 -0.4470786397 -0.2347009498
| 10> O 0.8611528397 -0.1638933113 0.6274492944
| 11> C 1.5504990294 0.0587883314 -1.6492914589
| 12> C 0.3903387508 1.0414630326 -1.7026751568
| 13> H 0.3848925987 1.5853486999 -2.6511384128
| 14> C 0.4436192433 2.0509781289 -0.5634810492
| 15> O -0.5273747008 2.465966652 0.0231200993
| 16> O 1.6855041309 2.4393482668 -0.3412250706
| 17> C 1.9120075449 3.4454925537 0.6668053932
| 18> C 1.7396094646 4.84130543 0.0906739611
| 19> S -1.2491169477 0.236276332 -1.7039148208
| 20> P -1.6137867199 -0.793589933 0.1121350489
| 21> S -0.7966216751 -2.5420398841 0.5022319737
| 22> O -1.7961409217 0.2348924914 1.3024129004
| 23> C -1.1620886811 0.1404237766 2.575315201
| 24> O -3.1869725182 -0.9969607844 -0.1472784767
| 25> C -3.6798178204 -1.9302388131 -1.1112661624
| 26> H 1.8262332938 -3.5350436589 0.9053448087
| 27> H 3.5046938633 -3.6641992283 0.3569652368
| 28> H 3.1274951922 -3.7277460189 2.0870885857
| 29> H 4.0358057507 -1.4900564526 1.4863097469
| 30> H 2.3154268448 -1.3499140996 1.9724466176
| 31> H 1.3736643838 -0.784750594 -2.3190312158
| 32> H 2.4838026298 0.542694929 -1.9396273297
| 33> H 1.2142732764 3.2754055205 1.4919286544
| 34> H 2.9371680622 3.2721132366 0.9946386314
| 35> H 0.7097516089 4.9907105405 -0.2258280302
| 36> H 1.9830777828 5.5740979114 0.8528211991
| 37> H 2.3979605738 4.9776085931 -0.7626203203
| 38> H -1.9292357946 0.351654235 3.3171701442
| 39> H -0.3632352901 0.8791193018 2.6240000996
| 40> H -0.7499186525 -0.8598219251 2.7245112938
| 41> H -4.7310050427 -2.0706185771 -0.8718741002
| 42> H -3.1412853093 -2.8765841069 -1.0248893603
| 43> H -3.5654610046 -1.5267323702 -2.1171934327
| 44> *
| 45>
| 46>                          ****END OF INPUT****

CARTESIAN COORDINATES (ANGSTROEM)
---------------------------------
  C      2.857728   -3.276818    1.138084
  C      3.009777   -1.768850    1.239561
  O      2.752407   -1.166716   -0.045430
  C      1.682882   -0.447079   -0.234701
  O      0.861153   -0.163893    0.627449
  C      1.550499    0.058788   -1.649291
  C      0.390339    1.041463   -1.702675
  H      0.384893    1.585349   -2.651138
  C      0.443619    2.050978   -0.563481
  O     -0.527375    2.465967    0.023120
  O      1.685504    2.439348   -0.341225
  C      1.912008    3.445493    0.666805
  C      1.739609    4.841305    0.090674
  S     -1.249117    0.236276   -1.703915
  P     -1.613787   -0.793590    0.112135
  S     -0.796622   -2.542040    0.502232
  O     -1.796141    0.234892    1.302413
  C     -1.162089    0.140424    2.575315
  O     -3.186973   -0.996961   -0.147278
  C     -3.679818   -1.930239   -1.111266
  H      1.826233   -3.535044    0.905345
  H      3.504694   -3.664199    0.356965
  H      3.127495   -3.727746    2.087089
  H      4.035806   -1.490056    1.486310
  H      2.315427   -1.349914    1.972447
  H      1.373664   -0.784751   -2.319031
  H      2.483803    0.542695   -1.939627
  H      1.214273    3.275406    1.491929
  H      2.937168    3.272113    0.994639
  H      0.709752    4.990711   -0.225828
  H      1.983078    5.574098    0.852821
  H      2.397961    4.977609   -0.762620
  H     -1.929236    0.351654    3.317170
  H     -0.363235    0.879119    2.624000
  H     -0.749919   -0.859822    2.724511
  H     -4.731005   -2.070619   -0.871874
  H     -3.141285   -2.876584   -1.024889
  H     -3.565461   -1.526732   -2.117193

 Total Charge           Charge          ....    0
 Multiplicity           Mult            ....    1
 Number of Electrons    NEL             ....  174
 Basis Dimension        Dim             ....  316

ORBITAL ENERGIES
----------------

  NO   OCC          E(Eh)            E(eV)
   0   2.0000     -88.029691     -2395.4097
   1   2.0000     -87.966243     -2393.6832
   2   2.0000     -76.414908     -2079.3554
   3   2.0000     -18.816801      -512.0312
   4   2.0000     -18.809195      -511.8242
   5   2.0000     -18.774438      -510.8784
   6   2.0000     -18.769940      -510.7560
   7   2.0000     -18.757105      -510.4068
   8   2.0000     -18.735984      -509.8320
   9   2.0000     -10.025406      -272.8052
  10   2.0000     -10.015102      -272.5248
  11   2.0000      -9.954152      -270.8663
  12   2.0000      -9.952752      -270.8281
  13   2.0000      -9.950859      -270.7766
  14   2.0000      -9.927875      -270.1512
  15   2.0000      -9.927095      -270.1300
  16   2.0000      -9.918524      -269.8968
  17   2.0000      -9.891602      -269.1642
  18   2.0000      -9.883772      -268.9511
  19   2.0000      -7.674609      -208.8367
  20   2.0000      -7.611458      -207.1183
  21   2.0000      -6.410798      -174.4467
  22   2.0000      -5.703108      -155.1895
  23   2.0000      -5.698855      -155.0737
  24   2.0000      -5.691173      -154.8647
  25   2.0000      -5.640420      -153.4836
  26   2.0000      -5.632180      -153.2594
  27   2.0000      -5.631371      -153.2374
  28   2.0000      -4.633294      -126.0783
  29   2.0000      -4.633039      -126.0714
  30   2.0000      -4.631230      -126.0222
  31   2.0000      -1.026337       -27.9280
  32   2.0000      -1.014891       -27.6166
  33   2.0000      -0.967220       -26.3194
  34   2.0000      -0.933017       -25.3887
  35   2.0000      -0.923248       -25.1229
  36   2.0000      -0.917352       -24.9624
  37   2.0000      -0.765040       -20.8178
  38   2.0000      -0.717161       -19.5150
  39   2.0000      -0.707009       -19.2387
  40   2.0000      -0.685549       -18.6547
  41   2.0000      -0.654291       -17.8042
  42   2.0000      -0.623775       -16.9738
  43   2.0000      -0.615859       -16.7584
  44   2.0000      -0.607976       -16.5439
  45   2.0000      -0.596676       -16.2364
  46   2.0000      -0.567613       -15.4455
  47   2.0000      -0.512512       -13.9462
  48   2.0000      -0.510594       -13.8940
  49   2.0000      -0.493921       -13.4403
  50   2.0000      -0.486789       -13.2462
  51   2.0000      -0.461568       -12.5599
  52   2.0000      -0.457704       -12.4548
  53   2.0000      -0.449887       -12.2421
  54   2.0000      -0.439282       -11.9535
  55   2.0000      -0.429263       -11.6808
  56   2.0000      -0.424723       -11.5573
  57   2.0000      -0.414996       -11.2926
  58   2.0000      -0.407855       -11.0983
  59   2.0000      -0.401546       -10.9266
  60   2.0000      -0.399071       -10.8593
  61   2.0000      -0.393186       -10.6991
  62   2.0000      -0.389841       -10.6081
  63   2.0000      -0.382803       -10.4166
  64   2.0000      -0.380135       -10.3440
  65   2.0000      -0.372461       -10.1352
  66   2.0000      -0.358136        -9.7454
  67   2.0000      -0.355580        -9.6758
  68   2.0000      -0.344734        -9.3807
  69   2.0000      -0.341341        -9.2884
  70   2.0000      -0.337481        -9.1833
  71   2.0000      -0.331566        -9.0224
  72   2.0000      -0.325650        -8.8614
  73   2.0000      -0.304330        -8.2812
  74   2.0000      -0.301621        -8.2075
  75   2.0000      -0.297324        -8.0906
  76   2.0000      -0.285699        -7.7743
  77   2.0000      -0.276476        -7.5233
  78   2.0000      -0.268449        -7.3049
  79   2.0000      -0.264768        -7.2047
  80   2.0000      -0.250055        -6.8043
  81   2.0000      -0.246542        -6.7087
  82   2.0000      -0.239173        -6.5082
  83   2.0000      -0.226053        -6.1512
  84   2.0000      -0.215220        -5.8564
  85   2.0000      -0.185035        -5.0351
  86   2.0000      -0.178620        -4.8605
  87   0.0000      -0.046318        -1.2604
  88   0.0000      -0.027349        -0.7442
  89   0.0000      -0.020407        -0.5553
  90   0.0000      -0.005274        -0.1435
  91   0.0000       0.032755         0.8913

MULLIKEN ATOMIC CHARGES
-----------------------
   0 C :   -0.301034
   1 C :   -0.022227
   2 O :   -0.210785
   3 C :    0.142706
   4 O :   -0.226232
   5 C :   -0.058034
   6 C :   -0.306328
   7 H :    0.146546
   8 C :    0.195695
   9 O :   -0.167633
  10 O :   -0.248257
  11 C :   -0.014416
  12 C :   -0.304773
  13 S :   -0.092122
  14 P :    0.642026
  15 S :   -0.371536
  16 O :   -0.349973
  17 C :   -0.091852
  18 O :   -0.375806
  19 C :   -0.103786
  20 H :    0.141690
  21 H :    0.110965
  22 H :    0.109943
  23 H :    0.103615
  24 H :    0.119260
  25 H :    0.136808
  26 H :    0.123874
  27 H :    0.119056
  28 H :    0.100645
  29 H :    0.131499
  30 H :    0.114785
  31 H :    0.112051
  32 H :    0.116165
  33 H :    0.117098
  34 H :    0.115086
  35 H :    0.120498
  36 H :    0.112114
  37 H :    0.112670
Sum of atomic charges:   -0.0000000

LOEWDIN ATOMIC CHARGES
----------------------
   0 C :   -0.357108
   1 C :   -0.106591
   2 O :   -0.033537
   3 C :    0.044505
   4 O :   -0.164800
   5 C :   -0.253762
   6 C :   -0.264270
   7 H :    0.152085
   8 C :    0.007964
   9 O :   -0.146895
  10 O :   -0.065149
  11 C :   -0.108197
  12 C :   -0.356196
  13 S :    0.113564
  14 P :    0.583907
  15 S :   -0.345166
  16 O :   -0.222043
  17 C :   -0.208976
  18 O :   -0.258458
  19 C :   -0.221156
  20 H :    0.127239
  21 H :    0.124235
  22 H :    0.130253
  23 H :    0.117487
  24 H :    0.122571
  25 H :    0.150302
  26 H :    0.147870
  27 H :    0.122519
  28 H :    0.116912
  29 H :    0.132561
  30 H :    0.131770
  31 H :    0.124070
  32 H :    0.116475
  33 H :    0.109634
  34 H :    0.105239
  35 H :    0.120061
  36 H :    0.105506
  37 H :    0.105575

  Mayer bond orders larger than 0.100000
B(  0-C ,  1-C ) :   1.1794 B(  0-C , 20-H ) :   0.9301 B(  0-C , 21-H ) :   0.9482
B(  0-C , 22-H ) :   0.9418 B(  1-C ,  2-O ) :   0.8929 B(  1-C , 23-H ) :   0.9347
B(  1-C , 24-H ) :   0.9069 B(  2-O ,  3-C ) :   1.2947 B(  3-C ,  4-O ) :   1.8647
B(  3-C ,  5-C ) :   1.0102 B(  5-C ,  6-C ) :   1.0303 B(  5-C , 25-H ) :   0.8815
B(  5-C , 26-H ) :   0.8743 B(  6-C ,  7-H ) :   0.8656 B(  6-C ,  8-C ) :   0.8733
B(  6-C , 13-S ) :   1.0578 B(  8-C ,  9-O ) :   2.0997 B(  8-C , 10-O ) :   1.2119
B( 10-O , 11-C ) :   0.9110 B( 11-C , 12-C ) :   1.1758 B( 11-C , 27-H ) :   0.9128
B( 11-C , 28-H ) :   0.9373 B( 12-C , 29-H ) :   0.9449 B( 12-C , 30-H ) :   0.9439
B( 12-C , 31-H ) :   0.9485 B( 13-S , 14-P ) :   0.9631 B( 13-S , 15-S ) :   0.1106
B( 14-P , 15-S ) :   1.5543 B( 14-P , 16-O ) :   1.1438 B( 14-P , 18-O ) :   1.0681
B( 16-O , 17-C ) :   0.9317 B( 17-C , 32-H ) :   0.9537 B( 17-C , 33-H ) :   0.9500
B( 17-C , 34-H ) :   0.9294 B( 18-O , 19-C ) :   0.9452 B( 19-C , 35-H ) :   0.9597
B( 19-C , 36-H ) :   0.9282 B( 19-C , 37-H ) :   0.9476

Dispersion correction           -0.054445241
FINAL SINGLE POINT ENERGY     -1979.005522467483

DIPOLE MOMENT
-------------

Method             : SCF
Type of density    : Electron Density
Multiplicity       :   1
Irrep              :   0
Energy             : -1979.1356860337323269 Eh
Relativity type    :
Basis              : AO
                                X                 Y                 Z
Electronic contribution:    -12.668518909      -3.536019215      -6.512486029
Nuclear contribution   :     14.458016252       4.160454899       6.429951770
                        -----------------------------------------
Total Dipole Moment    :      1.789497343       0.624435684      -0.082534259
                        -----------------------------------------
Magnitude (a.u.)       :      1.897111638
Magnitude (Debye)      :      4.822074567

Rotational constants in cm-1:             0.011896             0.008883             0.006554
Rotational constants in MHz :           356.628281           266.302474           196.487100

                             ****ORCA TERMINATED NORMALLY****
TOTAL RUN TIME: 0 days 0 hours 0 minutes 31 seconds 505 msec
