                         Program Version 6.0.1  -  RELEASE   -
|  1> ! pbe def2-sv(p) def2/J RI DEFGRID1 loosescf d4 GCP(DFT/SV(P)) printgap
|  2> %output
|  3>     printlevel normal
|  4> end
|  5> * xyz 0 1
|  6> C 2.0643590513 -3.3160594369 -2.8051717882
|  7> C 3.0805254393 -3.0743590702 -1.7002833345
|  8> O 2.8995740469 -1.7633902093 -1.13076194
|  9> C 2.0820390603 -1.6299014967 -0.1076517461
| 10> O 1.5145108688 -2.5418234781 0.4511341094
| 11> C 1.9052439712 -0.1694937399 0.2674779794
| 12> C 1.0126436154 0.4933002984 -0.785919649
| 13> H 1.5482075401 0.5599966264 -1.7370145985
| 14> C 0.5648660441 1.8831063615 -0.3648164457
| 15> O -0.6043173778 2.2113318692 -0.3449584166
| 16> O 1.5776232715 2.6443944716 -0.060490072
| 17> C 1.3173535282 3.9731237117 0.4442090268
| 18> C 1.2293387808 3.9489171256 1.9609713615
| 19> S -0.4773923906 -0.4880682229 -1.1628025797
| 20> P -1.7285844297 -0.0239350289 0.4960250006
| 21> S -0.9912858944 0.6064210636 2.196924695
| 22> O -2.9543332882 0.8326292254 -0.0098477141
| 23> C -3.7051835914 0.5031514048 -1.1935889147
| 24> O -2.4612741483 -1.4492610163 0.6588557971
| 25> C -1.8010737049 -2.5535025289 1.2815716381
| 26> H 1.0549065778 -3.2604675835 -2.4033175468
| 27> H 2.1703172527 -2.5667840866 -3.5842274374
| 28> H 2.2234005882 -4.3011795296 -3.2307164018
| 29> H 4.0991566016 -3.0707171943 -2.0882027078
| 30> H 2.9769380527 -3.8178050494 -0.9051826027
| 31> H 2.8703734421 0.335474894 0.2783934396
| 32> H 1.4406294735 -0.1151528699 1.2539518387
| 33> H 2.1652304584 4.5658577094 0.1010746247
| 34> H 0.3860959838 4.3387228445 0.0041433298
| 35> H 0.415684112 3.2996844791 2.2810971526
| 36> H 2.1566438407 3.5774453103 2.3870717138
| 37> H 1.0425469508 4.9529924581 2.3264994775
| 38> H -4.4492468401 1.2905258539 -1.28113165
| 39> H -4.1782181074 -0.4702172055 -1.0746830684
| 40> H -3.046163705 0.498408151 -2.06186403
| 41> H -1.5789270963 -2.3131722327 2.322151439
| 42> H -0.8702328175 -2.7934451833 0.7651830345
| 43> H -2.4985432018 -3.3842425657 1.2202172833
| 44> *
| 45>
| 46>                          ****END OF INPUT****

CARTESIAN COORDINATES (ANGSTROEM)
---------------------------------
  C      2.064359   -3.316059   -2.805172
  C      3.080525   -3.074359   -1.700283
  O      2.899574   -1.763390   -1.130762
  C      2.082039   -1.629901   -0.107652
  O      1.514511   -2.541823    0.451134
  C      1.905244   -0.169494    0.267478
  C      1.012644    0.493300   -0.785920
  H      1.548208    0.559997   -1.737015
  C      0.564866    1.883106   -0.364816
  O     -0.604317    2.211332   -0.344958
  O      1.577623    2.644394   -0.060490
  C      1.317354    3.973124    0.444209
  C      1.229339    3.948917    1.960971
  S     -0.477392   -0.488068   -1.162803
  P     -1.728584   -0.023935    0.496025
  S     -0.991286    0.606421    2.196925
  O     -2.954333    0.832629   -0.009848
  C     -3.705184    0.503151   -1.193589
  O     -2.461274   -1.449261    0.658856
  C     -1.801074   -2.553503    1.281572
  H      1.054907   -3.260468   -2.403318
  H      2.170317   -2.566784   -3.584227
  H      2.223401   -4.301180   -3.230716
  H      4.099157   -3.070717   -2.088203
  H      2.976938   -3.817805   -0.905183
  H      2.870373    0.335475    0.278393
  H      1.440629   -0.115153    1.253952
  H      2.165230    4.565858    0.101075
  H      0.386096    4.338723    0.004143
  H      0.415684    3.299684    2.281097
  H      2.156644    3.577445    2.387072
  H      1.042547    4.952992    2.326499
  H     -4.449247    1.290526   -1.281132
  H     -4.178218   -0.470217   -1.074683
  H     -3.046164    0.498408   -2.061864
  H     -1.578927   -2.313172    2.322151
  H     -0.870233   -2.793445    0.765183
  H     -2.498543   -3.384243    1.220217

 Total Charge           Charge          ....    0
 Multiplicity           Mult            ....    1
 Number of Electrons    NEL             ....  174
 Basis Dimension        Dim             ....  316

ORBITAL ENERGIES
----------------

  NO   OCC          E(Eh)            E(eV)
   0   2.0000     -88.037674     -2395.6269
   1   2.0000     -87.975146     -2393.9254
   2   2.0000     -76.419709     -2079.4860
   3   2.0000     -18.818196      -512.0692
   4   2.0000     -18.806665      -511.7554
   5   2.0000     -18.781426      -511.0686
   6   2.0000     -18.776383      -510.9314
   7   2.0000     -18.748325      -510.1679
   8   2.0000     -18.741540      -509.9832
   9   2.0000     -10.023506      -272.7535
  10   2.0000     -10.011918      -272.4382
  11   2.0000      -9.954573      -270.8777
  12   2.0000      -9.953587      -270.8509
  13   2.0000      -9.951263      -270.7876
  14   2.0000      -9.941308      -270.5168
  15   2.0000      -9.923810      -270.0406
  16   2.0000      -9.905690      -269.5475
  17   2.0000      -9.890314      -269.1291
  18   2.0000      -9.884080      -268.9595
  19   2.0000      -7.682298      -209.0460
  20   2.0000      -7.620301      -207.3589
  21   2.0000      -6.415867      -174.5846
  22   2.0000      -5.710305      -155.3853
  23   2.0000      -5.706844      -155.2911
  24   2.0000      -5.699097      -155.0803
  25   2.0000      -5.649505      -153.7309
  26   2.0000      -5.641016      -153.4999
  27   2.0000      -5.639967      -153.4713
  28   2.0000      -4.638578      -126.2221
  29   2.0000      -4.637914      -126.2041
  30   2.0000      -4.636293      -126.1599
  31   2.0000      -1.026662       -27.9369
  32   2.0000      -1.014541       -27.6071
  33   2.0000      -0.974054       -26.5054
  34   2.0000      -0.930615       -25.3233
  35   2.0000      -0.927133       -25.2286
  36   2.0000      -0.918095       -24.9826
  37   2.0000      -0.767739       -20.8912
  38   2.0000      -0.713439       -19.4137
  39   2.0000      -0.708943       -19.2913
  40   2.0000      -0.686299       -18.6751
  41   2.0000      -0.655728       -17.8433
  42   2.0000      -0.626140       -17.0381
  43   2.0000      -0.619284       -16.8516
  44   2.0000      -0.613752       -16.7010
  45   2.0000      -0.595363       -16.2006
  46   2.0000      -0.568616       -15.4728
  47   2.0000      -0.510175       -13.8826
  48   2.0000      -0.504612       -13.7312
  49   2.0000      -0.499423       -13.5900
  50   2.0000      -0.484491       -13.1837
  51   2.0000      -0.462463       -12.5843
  52   2.0000      -0.459178       -12.4949
  53   2.0000      -0.448746       -12.2110
  54   2.0000      -0.438936       -11.9441
  55   2.0000      -0.433227       -11.7887
  56   2.0000      -0.420811       -11.4508
  57   2.0000      -0.419516       -11.4156
  58   2.0000      -0.408357       -11.1120
  59   2.0000      -0.401722       -10.9314
  60   2.0000      -0.399307       -10.8657
  61   2.0000      -0.396010       -10.7760
  62   2.0000      -0.389993       -10.6123
  63   2.0000      -0.387987       -10.5577
  64   2.0000      -0.379314       -10.3216
  65   2.0000      -0.364108        -9.9079
  66   2.0000      -0.361267        -9.8306
  67   2.0000      -0.354071        -9.6348
  68   2.0000      -0.348357        -9.4793
  69   2.0000      -0.334887        -9.1127
  70   2.0000      -0.333226        -9.0675
  71   2.0000      -0.331796        -9.0286
  72   2.0000      -0.328040        -8.9264
  73   2.0000      -0.312358        -8.4997
  74   2.0000      -0.302617        -8.2346
  75   2.0000      -0.298212        -8.1148
  76   2.0000      -0.291095        -7.9211
  77   2.0000      -0.285136        -7.7589
  78   2.0000      -0.270725        -7.3668
  79   2.0000      -0.265668        -7.2292
  80   2.0000      -0.262150        -7.1335
  81   2.0000      -0.247948        -6.7470
  82   2.0000      -0.240458        -6.5432
  83   2.0000      -0.222070        -6.0428
  84   2.0000      -0.217255        -5.9118
  85   2.0000      -0.195065        -5.3080
  86   2.0000      -0.188366        -5.1257
  87   0.0000      -0.044058        -1.1989
  88   0.0000      -0.035411        -0.9636
  89   0.0000      -0.018032        -0.4907
  90   0.0000       0.003444         0.0937
  91   0.0000       0.025792         0.7018

MULLIKEN ATOMIC CHARGES
-----------------------
   0 C :   -0.305573
   1 C :   -0.016208
   2 O :   -0.234596
   3 C :    0.122298
   4 O :   -0.187188
   5 C :   -0.045686
   6 C :   -0.338089
   7 H :    0.152342
   8 C :    0.211676
   9 O :   -0.177181
  10 O :   -0.222519
  11 C :   -0.013442
  12 C :   -0.310840
  13 S :   -0.096824
  14 P :    0.624818
  15 S :   -0.319218
  16 O :   -0.355339
  17 C :   -0.103680
  18 O :   -0.395981
  19 C :   -0.123508
  20 H :    0.129335
  21 H :    0.112055
  22 H :    0.114045
  23 H :    0.104542
  24 H :    0.112533
  25 H :    0.111968
  26 H :    0.118358
  27 H :    0.105256
  28 H :    0.116514
  29 H :    0.146971
  30 H :    0.112611
  31 H :    0.112588
  32 H :    0.129721
  33 H :    0.121962
  34 H :    0.118813
  35 H :    0.116178
  36 H :    0.139410
  37 H :    0.111878
Sum of atomic charges:   -0.0000000

LOEWDIN ATOMIC CHARGES
----------------------
   0 C :   -0.356712
   1 C :   -0.111864
   2 O :   -0.061254
   3 C :    0.024159
   4 O :   -0.158309
   5 C :   -0.254453
   6 C :   -0.260101
   7 H :    0.149417
   8 C :    0.013346
   9 O :   -0.155918
  10 O :   -0.039865
  11 C :   -0.106291
  12 C :   -0.358108
  13 S :    0.105782
  14 P :    0.591540
  15 S :   -0.305425
  16 O :   -0.232104
  17 C :   -0.208919
  18 O :   -0.267866
  19 C :   -0.225981
  20 H :    0.129405
  21 H :    0.123587
  22 H :    0.131172
  23 H :    0.118179
  24 H :    0.121407
  25 H :    0.140871
  26 H :    0.133345
  27 H :    0.118680
  28 H :    0.123861
  29 H :    0.132547
  30 H :    0.124789
  31 H :    0.131210
  32 H :    0.125728
  33 H :    0.114604
  34 H :    0.109381
  35 H :    0.111282
  36 H :    0.112653
  37 H :    0.116226

  Mayer bond orders larger than 0.100000
B(  0-C ,  1-C ) :   1.1750 B(  0-C , 20-H ) :   0.9424 B(  0-C , 21-H ) :   0.9498
B(  0-C , 22-H ) :   0.9432 B(  1-C ,  2-O ) :   0.9115 B(  1-C , 23-H ) :   0.9369
B(  1-C , 24-H ) :   0.9110 B(  2-O ,  3-C ) :   1.2191 B(  3-C ,  4-O ) :   2.0143
B(  3-C ,  5-C ) :   1.0233 B(  5-C ,  6-C ) :   1.0500 B(  5-C , 25-H ) :   0.8739
B(  5-C , 26-H ) :   0.8713 B(  6-C ,  7-H ) :   0.8599 B(  6-C ,  8-C ) :   0.9059
B(  6-C , 13-S ) :   1.0366 B(  8-C ,  9-O ) :   2.0109 B(  8-C , 10-O ) :   1.2709
B( 10-O , 11-C ) :   0.8957 B( 11-C , 12-C ) :   1.1802 B( 11-C , 27-H ) :   0.9366
B( 11-C , 28-H ) :   0.9111 B( 12-C , 29-H ) :   0.9305 B( 12-C , 30-H ) :   0.9488
B( 12-C , 31-H ) :   0.9414 B( 13-S , 14-P ) :   0.9333 B( 13-S , 15-S ) :   0.1130
B( 14-P , 15-S ) :   1.5951 B( 14-P , 16-O ) :   1.1373 B( 14-P , 18-O ) :   1.0617
B( 16-O , 17-C ) :   0.9233 B( 17-C , 32-H ) :   0.9599 B( 17-C , 33-H ) :   0.9463
B( 17-C , 34-H ) :   0.9392 B( 18-O , 19-C ) :   0.9276 B( 19-C , 35-H ) :   0.9428
B( 19-C , 36-H ) :   0.9249 B( 19-C , 37-H ) :   0.9563

Dispersion correction           -0.053288444
FINAL SINGLE POINT ENERGY     -1979.016851289402

DIPOLE MOMENT
-------------

Method             : SCF
Type of density    : Electron Density
Multiplicity       :   1
Irrep              :   0
Energy             : -1979.1460579415652319 Eh
Relativity type    :
Basis              : AO
                                X                 Y                 Z
Electronic contribution:     -8.073927453       2.572564728       4.126883234
Nuclear contribution   :      9.025171762      -2.491759878      -5.570636240
                        -----------------------------------------
Total Dipole Moment    :      0.951244309       0.080804850      -1.443753006
                        -----------------------------------------
Magnitude (a.u.)       :      1.730843118
Magnitude (Debye)      :      4.399453577

Rotational constants in cm-1:             0.011259             0.008404             0.006160
Rotational constants in MHz :           337.537728           251.949129           184.664276

                             ****ORCA TERMINATED NORMALLY****
TOTAL RUN TIME: 0 days 0 hours 0 minutes 43 seconds 634 msec
