                         Program Version 6.0.0  -   RELEASE  -
|  1> ! pbe def2-sv(p) def2/J RI DEFGRID1 loosescf d4 GCP(DFT/SV(P)) printgap
|  2> %output
|  3>     printlevel normal
|  4> end
|  5> * xyz 0 1
|  6> C 0.4663366462 -2.5429613121 2.0019397319
|  7> C 1.1857241024 -2.3020406112 0.6912011412
|  8> O 1.7725461463 -0.9896819713 0.7447892376
|  9> P 2.4368172397 -0.3448107424 -0.5533723401
| 10> S 3.6221569861 -1.5582995137 -1.532594023
| 11> O 3.0750452873 0.9805307101 0.0270825061
| 12> C 4.4341814624 1.0094545297 0.5170726395
| 13> C 4.5745133836 0.2416140494 1.8136532141
| 14> S 0.8407596406 0.4626209831 -1.6806323829
| 15> C 0.2935114032 1.7866859033 -0.549460194
| 16> S -0.4382262673 1.191018548 0.9879110525
| 17> P -2.2034383607 0.4166457622 0.1266675537
| 18> S -2.9918496453 1.4585086564 -1.3439308708
| 19> O -3.1193005517 0.090766553 1.3821166278
| 20> C -3.4312162511 1.0073332831 2.4480184001
| 21> C -3.9666351065 2.3335043996 1.9495440459
| 22> O -1.752402809 -1.0471602784 -0.2959454177
| 23> C -2.420168997 -1.7737630561 -1.3427393967
| 24> C -3.7900833792 -2.2384671627 -0.8961135953
| 25> H -0.3493496506 -1.8325204269 2.1116126525
| 26> H 0.0668461299 -3.5516938927 2.0088371581
| 27> H 1.1557178367 -2.4201493626 2.8317360895
| 28> H 0.492311095 -2.3457660889 -0.1548888319
| 29> H 1.9874418959 -3.0277203461 0.5224060075
| 30> H 5.089205516 0.5933675141 -0.2547539987
| 31> H 4.640589308 2.0723791814 0.64844494
| 32> H 4.4049364948 -0.8189014574 1.6337066164
| 33> H 5.5776702935 0.3775372447 2.2054849321
| 34> H 3.8481987435 0.5965786351 2.5400860901
| 35> H -0.4563550601 2.3448262057 -1.1124435574
| 36> H 1.1413730838 2.4113152011 -0.2855358037
| 37> H -4.1779661654 0.4710443072 3.0362937446
| 38> H -2.5259351901 1.1562609139 3.0431161431
| 39> H -4.8258278462 2.178246893 1.3012713734
| 40> H -4.2623287126 2.9439801013 2.7967165374
| 41> H -3.1993406945 2.8602796377 1.3837126764
| 42> H -2.4948061542 -1.1288945323 -2.2249431911
| 43> H -1.7556686454 -2.6116731349 -1.5596785539
| 44> H -4.2453459604 -2.8328963989 -1.6819124179
| 45> H -3.709080507 -2.8321227699 0.0102851038
| 46> H -4.419435608 -1.3723075889 -0.6938318717
| 47> *
| 48>
| 49>                          ****END OF INPUT****

CARTESIAN COORDINATES (ANGSTROEM)
---------------------------------
  C      0.466337   -2.542961    2.001940
  C      1.185724   -2.302041    0.691201
  O      1.772546   -0.989682    0.744789
  P      2.436817   -0.344811   -0.553372
  S      3.622157   -1.558300   -1.532594
  O      3.075045    0.980531    0.027083
  C      4.434181    1.009455    0.517073
  C      4.574513    0.241614    1.813653
  S      0.840760    0.462621   -1.680632
  C      0.293511    1.786686   -0.549460
  S     -0.438226    1.191019    0.987911
  P     -2.203438    0.416646    0.126668
  S     -2.991850    1.458509   -1.343931
  O     -3.119301    0.090767    1.382117
  C     -3.431216    1.007333    2.448018
  C     -3.966635    2.333504    1.949544
  O     -1.752403   -1.047160   -0.295945
  C     -2.420169   -1.773763   -1.342739
  C     -3.790083   -2.238467   -0.896114
  H     -0.349350   -1.832520    2.111613
  H      0.066846   -3.551694    2.008837
  H      1.155718   -2.420149    2.831736
  H      0.492311   -2.345766   -0.154889
  H      1.987442   -3.027720    0.522406
  H      5.089206    0.593368   -0.254754
  H      4.640589    2.072379    0.648445
  H      4.404936   -0.818901    1.633707
  H      5.577670    0.377537    2.205485
  H      3.848199    0.596579    2.540086
  H     -0.456355    2.344826   -1.112444
  H      1.141373    2.411315   -0.285536
  H     -4.177966    0.471044    3.036294
  H     -2.525935    1.156261    3.043116
  H     -4.825828    2.178247    1.301271
  H     -4.262329    2.943980    2.796717
  H     -3.199341    2.860280    1.383713
  H     -2.494806   -1.128895   -2.224943
  H     -1.755669   -2.611673   -1.559679
  H     -4.245346   -2.832896   -1.681912
  H     -3.709081   -2.832123    0.010285
  H     -4.419436   -1.372308   -0.693832

 Total Charge           Charge          ....    0
 Multiplicity           Mult            ....    1
 Number of Electrons    NEL             ....  202
 Basis Dimension        Dim             ....  334

ORBITAL ENERGIES
----------------

  NO   OCC          E(Eh)            E(eV)
   0   2.0000     -88.048336     -2395.9170
   1   2.0000     -88.039844     -2395.6859
   2   2.0000     -87.991877     -2394.3807
   3   2.0000     -87.983840     -2394.1620
   4   2.0000     -76.432934     -2079.8459
   5   2.0000     -76.423923     -2079.6007
   6   2.0000     -18.801327      -511.6101
   7   2.0000     -18.796392      -511.4758
   8   2.0000     -18.793516      -511.3976
   9   2.0000     -18.786395      -511.2038
  10   2.0000      -9.964316      -271.1428
  11   2.0000      -9.957589      -270.9598
  12   2.0000      -9.955613      -270.9060
  13   2.0000      -9.950983      -270.7800
  14   2.0000      -9.945726      -270.6370
  15   2.0000      -9.888385      -269.0766
  16   2.0000      -9.885861      -269.0080
  17   2.0000      -9.884328      -268.9662
  18   2.0000      -9.881809      -268.8977
  19   2.0000      -7.693621      -209.3541
  20   2.0000      -7.685065      -209.1213
  21   2.0000      -7.636740      -207.8062
  22   2.0000      -7.629088      -207.5980
  23   2.0000      -6.430116      -174.9724
  24   2.0000      -6.421887      -174.7484
  25   2.0000      -5.721363      -155.6862
  26   2.0000      -5.718144      -155.5986
  27   2.0000      -5.713314      -155.4672
  28   2.0000      -5.710630      -155.3941
  29   2.0000      -5.709362      -155.3596
  30   2.0000      -5.701868      -155.1557
  31   2.0000      -5.665605      -154.1690
  32   2.0000      -5.658024      -153.9627
  33   2.0000      -5.657502      -153.9485
  34   2.0000      -5.656839      -153.9304
  35   2.0000      -5.649918      -153.7421
  36   2.0000      -5.649038      -153.7181
  37   2.0000      -4.652647      -126.6050
  38   2.0000      -4.652042      -126.5885
  39   2.0000      -4.650499      -126.5465
  40   2.0000      -4.644398      -126.3805
  41   2.0000      -4.643774      -126.3635
  42   2.0000      -4.642235      -126.3216
  43   2.0000      -0.992498       -27.0072
  44   2.0000      -0.987162       -26.8621
  45   2.0000      -0.950995       -25.8779
  46   2.0000      -0.945006       -25.7149
  47   2.0000      -0.766515       -20.8579
  48   2.0000      -0.723980       -19.7005
  49   2.0000      -0.710479       -19.3331
  50   2.0000      -0.690826       -18.7983
  51   2.0000      -0.687387       -18.7048
  52   2.0000      -0.675739       -18.3878
  53   2.0000      -0.655178       -17.8283
  54   2.0000      -0.638943       -17.3865
  55   2.0000      -0.602505       -16.3950
  56   2.0000      -0.595769       -16.2117
  57   2.0000      -0.578395       -15.7389
  58   2.0000      -0.566557       -15.4168
  59   2.0000      -0.561538       -15.2802
  60   2.0000      -0.504432       -13.7263
  61   2.0000      -0.496264       -13.5040
  62   2.0000      -0.478692       -13.0259
  63   2.0000      -0.474528       -12.9126
  64   2.0000      -0.465564       -12.6686
  65   2.0000      -0.451609       -12.2889
  66   2.0000      -0.442221       -12.0334
  67   2.0000      -0.431314       -11.7366
  68   2.0000      -0.427494       -11.6327
  69   2.0000      -0.420099       -11.4315
  70   2.0000      -0.416030       -11.3207
  71   2.0000      -0.398774       -10.8512
  72   2.0000      -0.395285       -10.7563
  73   2.0000      -0.391420       -10.6511
  74   2.0000      -0.380094       -10.3429
  75   2.0000      -0.377493       -10.2721
  76   2.0000      -0.365113        -9.9352
  77   2.0000      -0.358076        -9.7438
  78   2.0000      -0.352464        -9.5910
  79   2.0000      -0.352117        -9.5816
  80   2.0000      -0.349898        -9.5212
  81   2.0000      -0.348236        -9.4760
  82   2.0000      -0.345557        -9.4031
  83   2.0000      -0.340809        -9.2739
  84   2.0000      -0.333883        -9.0854
  85   2.0000      -0.321354        -8.7445
  86   2.0000      -0.311121        -8.4660
  87   2.0000      -0.302311        -8.2263
  88   2.0000      -0.299657        -8.1541
  89   2.0000      -0.292426        -7.9573
  90   2.0000      -0.289254        -7.8710
  91   2.0000      -0.279291        -7.5999
  92   2.0000      -0.276959        -7.5364
  93   2.0000      -0.268991        -7.3196
  94   2.0000      -0.254914        -6.9366
  95   2.0000      -0.232536        -6.3276
  96   2.0000      -0.219742        -5.9795
  97   2.0000      -0.209769        -5.7081
  98   2.0000      -0.207237        -5.6392
  99   2.0000      -0.205503        -5.5920
 100   2.0000      -0.197826        -5.3831
 101   0.0000      -0.045529        -1.2389
 102   0.0000      -0.016985        -0.4622
 103   0.0000      -0.015894        -0.4325
 104   0.0000      -0.002400        -0.0653
 105   0.0000       0.008302         0.2259

MULLIKEN ATOMIC CHARGES
-----------------------
   0 C :   -0.279120
   1 C :   -0.019253
   2 O :   -0.373252
   3 P :    0.616330
   4 S :   -0.330279
   5 O :   -0.384314
   6 C :   -0.007104
   7 C :   -0.304262
   8 S :   -0.072638
   9 C :   -0.362942
  10 S :   -0.082358
  11 P :    0.615154
  12 S :   -0.324481
  13 O :   -0.376691
  14 C :   -0.013135
  15 C :   -0.310343
  16 O :   -0.360831
  17 C :   -0.013864
  18 C :   -0.301752
  19 H :    0.117591
  20 H :    0.104948
  21 H :    0.110407
  22 H :    0.113185
  23 H :    0.105078
  24 H :    0.116533
  25 H :    0.104931
  26 H :    0.125717
  27 H :    0.112969
  28 H :    0.116356
  29 H :    0.194786
  30 H :    0.193432
  31 H :    0.111708
  32 H :    0.115141
  33 H :    0.127451
  34 H :    0.113268
  35 H :    0.125629
  36 H :    0.117754
  37 H :    0.109140
  38 H :    0.112902
  39 H :    0.113332
  40 H :    0.122875
Sum of atomic charges:   -0.0000000

LOEWDIN ATOMIC CHARGES
----------------------
   0 C :   -0.351346
   1 C :   -0.122691
   2 O :   -0.246663
   3 P :    0.564661
   4 S :   -0.327188
   5 O :   -0.245700
   6 C :   -0.114506
   7 C :   -0.364120
   8 S :    0.088799
   9 C :   -0.481933
  10 S :    0.095394
  11 P :    0.575089
  12 S :   -0.312986
  13 O :   -0.243462
  14 C :   -0.113666
  15 C :   -0.369602
  16 O :   -0.235894
  17 C :   -0.121565
  18 C :   -0.363271
  19 H :    0.119914
  20 H :    0.127880
  21 H :    0.124566
  22 H :    0.108583
  23 H :    0.108331
  24 H :    0.113786
  25 H :    0.118414
  26 H :    0.124579
  27 H :    0.130878
  28 H :    0.126492
  29 H :    0.130594
  30 H :    0.135964
  31 H :    0.122676
  32 H :    0.110097
  33 H :    0.130286
  34 H :    0.131015
  35 H :    0.121128
  36 H :    0.110924
  37 H :    0.116133
  38 H :    0.130852
  39 H :    0.124821
  40 H :    0.122735

  Mayer bond orders larger than 0.100000
B(  0-C ,  1-C ) :   1.1623 B(  0-C , 19-H ) :   0.9439 B(  0-C , 20-H ) :   0.9424
B(  0-C , 21-H ) :   0.9501 B(  1-C ,  2-O ) :   0.8966 B(  1-C , 22-H ) :   0.9095
B(  1-C , 23-H ) :   0.9227 B(  2-O ,  3-P ) :   1.0878 B(  3-P ,  4-S ) :   1.6499
B(  3-P ,  5-O ) :   1.1045 B(  3-P ,  8-S ) :   0.9770 B(  5-O ,  6-C ) :   0.9004
B(  6-C ,  7-C ) :   1.1651 B(  6-C , 24-H ) :   0.9162 B(  6-C , 25-H ) :   0.9354
B(  7-C , 26-H ) :   0.9359 B(  7-C , 27-H ) :   0.9379 B(  7-C , 28-H ) :   0.9458
B(  8-S ,  9-C ) :   0.9886 B(  9-C , 10-S ) :   1.0077 B(  9-C , 29-H ) :   0.8727
B(  9-C , 30-H ) :   0.8943 B( 10-S , 11-P ) :   0.9636 B( 10-S , 12-S ) :   0.1101
B( 11-P , 12-S ) :   1.5981 B( 11-P , 13-O ) :   1.1039 B( 11-P , 16-O ) :   1.1078
B( 13-O , 14-C ) :   0.9116 B( 14-C , 15-C ) :   1.1656 B( 14-C , 31-H ) :   0.9337
B( 14-C , 32-H ) :   0.9278 B( 15-C , 33-H ) :   0.9427 B( 15-C , 34-H ) :   0.9347
B( 15-C , 35-H ) :   0.9325 B( 16-O , 17-C ) :   0.9030 B( 17-C , 18-C ) :   1.1634
B( 17-C , 36-H ) :   0.9120 B( 17-C , 37-H ) :   0.9278 B( 18-C , 38-H ) :   0.9397
B( 18-C , 39-H ) :   0.9468 B( 18-C , 40-H ) :   0.9358

Dispersion correction           -0.065909420
FINAL SINGLE POINT ENERGY     -2929.521762866811

DIPOLE MOMENT
-------------

Method             : SCF
Type of density    : Electron Density
Multiplicity       :   1
Irrep              :   0
Energy             : -2929.6422853443086751 Eh
Relativity type    :
Basis              : AO
                                X                 Y                 Z
Electronic contribution:      7.264793601       6.578123401     -15.804032833
Nuclear contribution   :     -7.760244052      -6.473790115      17.498378360
                        -----------------------------------------
Total Dipole Moment    :     -0.495450450       0.104333286       1.694345527
                        -----------------------------------------
Magnitude (a.u.)       :      1.768378735
Magnitude (Debye)      :      4.494861531

Rotational constants in cm-1:             0.012954             0.004901             0.004676
Rotational constants in MHz :           388.349830           146.919132           140.171703

                             ****ORCA TERMINATED NORMALLY****
TOTAL RUN TIME: 0 days 0 hours 0 minutes 21 seconds 876 msec
