                         Program Version 6.0.0  -   RELEASE  -
|  1> ! pbe def2-sv(p) def2/J RI DEFGRID1 loosescf d4 GCP(DFT/SV(P)) printgap
|  2> %output
|  3>     printlevel normal
|  4> end
|  5> * xyz 0 1
|  6> C 4.2737159937 0.0624566917 1.5698310354
|  7> C 4.0537913655 0.370155491 0.1019608161
|  8> O 2.6542468426 0.438527875 -0.2197159837
|  9> P 1.7814857156 -0.8679386275 -0.5048409301
| 10> S 2.7364099516 -2.2525334158 -1.5087725882
| 11> O 0.5176133506 -0.2312688417 -1.2403001227
| 12> C 0.6289941528 0.155426203 -2.630624594
| 13> C -0.1003366391 -0.8376701783 -3.5108345049
| 14> S 0.9707484527 -1.5442311482 1.2992796982
| 15> C 0.4565314608 -0.0197598001 2.1949231227
| 16> S 0.065637737 1.4120927503 1.1713144708
| 17> P -1.7932479413 0.8472573782 0.344865814
| 18> S -2.3232638954 1.6482794928 -1.3633772338
| 19> O -2.8729081088 1.0986176056 1.5041386479
| 20> C -3.5708213449 2.3434134388 1.6442164609
| 21> C -2.6484838396 3.4633139385 2.0827490958
| 22> O -1.6949817225 -0.7304803824 0.4172736466
| 23> C -2.6835557268 -1.5708450608 -0.214679227
| 24> C -2.0510053084 -2.9226932444 -0.4731033189
| 25> H 3.8806923986 -0.9246305525 1.8091747848
| 26> H 5.3384305473 0.0763127304 1.7798149192
| 27> H 3.7785036896 0.8081272374 2.1861094625
| 28> H 4.5195412868 -0.392593935 -0.5316047743
| 29> H 4.4363978986 1.3566203098 -0.1636318239
| 30> H 0.1751716474 1.1468977618 -2.6917796921
| 31> H 1.687135016 0.2184822926 -2.8993480788
| 32> H -0.0271938179 -0.515157847 -4.544415489
| 33> H 0.3451327416 -1.8257344381 -3.4116579357
| 34> H -1.1486006999 -0.8851923736 -3.2265256191
| 35> H 1.2778372722 0.2946005812 2.8344761642
| 36> H -0.4111242834 -0.311288744 2.7817566851
| 37> H -4.0395630939 2.5860299611 0.6848041198
| 38> H -4.3391460398 2.1356260913 2.3901504946
| 39> H -2.1341519454 3.1955861386 3.0018533218
| 40> H -1.9056460258 3.6547768132 1.3079779906
| 41> H -3.2297487398 4.365504383 2.2435984525
| 42> H -3.5379114997 -1.6506004262 0.4619008552
| 43> H -3.0073395477 -1.0918069662 -1.1455783089
| 44> H -1.1820026708 -2.8139662272 -1.1186363763
| 45> H -1.7295617127 -3.3705285332 0.4632350507
| 46> H -2.7749855255 -3.5704411066 -0.956423233
| 47> *
| 48>
| 49>                          ****END OF INPUT****

CARTESIAN COORDINATES (ANGSTROEM)
---------------------------------
  C      4.273716    0.062457    1.569831
  C      4.053791    0.370155    0.101961
  O      2.654247    0.438528   -0.219716
  P      1.781486   -0.867939   -0.504841
  S      2.736410   -2.252533   -1.508773
  O      0.517613   -0.231269   -1.240300
  C      0.628994    0.155426   -2.630625
  C     -0.100337   -0.837670   -3.510835
  S      0.970748   -1.544231    1.299280
  C      0.456531   -0.019760    2.194923
  S      0.065638    1.412093    1.171314
  P     -1.793248    0.847257    0.344866
  S     -2.323264    1.648279   -1.363377
  O     -2.872908    1.098618    1.504139
  C     -3.570821    2.343413    1.644216
  C     -2.648484    3.463314    2.082749
  O     -1.694982   -0.730480    0.417274
  C     -2.683556   -1.570845   -0.214679
  C     -2.051005   -2.922693   -0.473103
  H      3.880692   -0.924631    1.809175
  H      5.338431    0.076313    1.779815
  H      3.778504    0.808127    2.186109
  H      4.519541   -0.392594   -0.531605
  H      4.436398    1.356620   -0.163632
  H      0.175172    1.146898   -2.691780
  H      1.687135    0.218482   -2.899348
  H     -0.027194   -0.515158   -4.544415
  H      0.345133   -1.825734   -3.411658
  H     -1.148601   -0.885192   -3.226526
  H      1.277837    0.294601    2.834476
  H     -0.411124   -0.311289    2.781757
  H     -4.039563    2.586030    0.684804
  H     -4.339146    2.135626    2.390150
  H     -2.134152    3.195586    3.001853
  H     -1.905646    3.654777    1.307978
  H     -3.229749    4.365504    2.243598
  H     -3.537911   -1.650600    0.461901
  H     -3.007340   -1.091807   -1.145578
  H     -1.182003   -2.813966   -1.118636
  H     -1.729562   -3.370529    0.463235
  H     -2.774986   -3.570441   -0.956423

 Total Charge           Charge          ....    0
 Multiplicity           Mult            ....    1
 Number of Electrons    NEL             ....  202
 Basis Dimension        Dim             ....  334

ORBITAL ENERGIES
----------------

  NO   OCC          E(Eh)            E(eV)
   0   2.0000     -88.048790     -2395.9294
   1   2.0000     -88.043318     -2395.7805
   2   2.0000     -87.992379     -2394.3944
   3   2.0000     -87.982618     -2394.1287
   4   2.0000     -76.429406     -2079.7499
   5   2.0000     -76.423945     -2079.6013
   6   2.0000     -18.790848      -511.3250
   7   2.0000     -18.790274      -511.3093
   8   2.0000     -18.789748      -511.2950
   9   2.0000     -18.781926      -511.0822
  10   2.0000      -9.967274      -271.2233
  11   2.0000      -9.952013      -270.8080
  12   2.0000      -9.951393      -270.7912
  13   2.0000      -9.949924      -270.7512
  14   2.0000      -9.939076      -270.4560
  15   2.0000      -9.887590      -269.0550
  16   2.0000      -9.886074      -269.0137
  17   2.0000      -9.880893      -268.8728
  18   2.0000      -9.871757      -268.6242
  19   2.0000      -7.693935      -209.3626
  20   2.0000      -7.688304      -209.2094
  21   2.0000      -7.637303      -207.8216
  22   2.0000      -7.627799      -207.5630
  23   2.0000      -6.426806      -174.8823
  24   2.0000      -6.421344      -174.7336
  25   2.0000      -5.722418      -155.7149
  26   2.0000      -5.718327      -155.6036
  27   2.0000      -5.716907      -155.5650
  28   2.0000      -5.712472      -155.4443
  29   2.0000      -5.710258      -155.3840
  30   2.0000      -5.704846      -155.2368
  31   2.0000      -5.666173      -154.1844
  32   2.0000      -5.658258      -153.9690
  33   2.0000      -5.657168      -153.9394
  34   2.0000      -5.656723      -153.9273
  35   2.0000      -5.648422      -153.7014
  36   2.0000      -5.647942      -153.6883
  37   2.0000      -4.649281      -126.5134
  38   2.0000      -4.648738      -126.4986
  39   2.0000      -4.647271      -126.4587
  40   2.0000      -4.643759      -126.3631
  41   2.0000      -4.643349      -126.3519
  42   2.0000      -4.641789      -126.3095
  43   2.0000      -0.987431       -26.8694
  44   2.0000      -0.980213       -26.6729
  45   2.0000      -0.944017       -25.6880
  46   2.0000      -0.937888       -25.5212
  47   2.0000      -0.766706       -20.8631
  48   2.0000      -0.721617       -19.6362
  49   2.0000      -0.706377       -19.2215
  50   2.0000      -0.686251       -18.6738
  51   2.0000      -0.683703       -18.6045
  52   2.0000      -0.673506       -18.3270
  53   2.0000      -0.656378       -17.8609
  54   2.0000      -0.637713       -17.3530
  55   2.0000      -0.597897       -16.2696
  56   2.0000      -0.590027       -16.0555
  57   2.0000      -0.575634       -15.6638
  58   2.0000      -0.566782       -15.4229
  59   2.0000      -0.558889       -15.2082
  60   2.0000      -0.505593       -13.7579
  61   2.0000      -0.497272       -13.5315
  62   2.0000      -0.473423       -12.8825
  63   2.0000      -0.467003       -12.7078
  64   2.0000      -0.461014       -12.5448
  65   2.0000      -0.444186       -12.0869
  66   2.0000      -0.438275       -11.9261
  67   2.0000      -0.430246       -11.7076
  68   2.0000      -0.427618       -11.6361
  69   2.0000      -0.418886       -11.3985
  70   2.0000      -0.416400       -11.3308
  71   2.0000      -0.396834       -10.7984
  72   2.0000      -0.395344       -10.7579
  73   2.0000      -0.388164       -10.5625
  74   2.0000      -0.378643       -10.3034
  75   2.0000      -0.369702       -10.0601
  76   2.0000      -0.368633       -10.0310
  77   2.0000      -0.355396        -9.6708
  78   2.0000      -0.351898        -9.5756
  79   2.0000      -0.349935        -9.5222
  80   2.0000      -0.347790        -9.4639
  81   2.0000      -0.343407        -9.3446
  82   2.0000      -0.337559        -9.1854
  83   2.0000      -0.333085        -9.0637
  84   2.0000      -0.326113        -8.8740
  85   2.0000      -0.319456        -8.6928
  86   2.0000      -0.309132        -8.4119
  87   2.0000      -0.299561        -8.1515
  88   2.0000      -0.297019        -8.0823
  89   2.0000      -0.292910        -7.9705
  90   2.0000      -0.283550        -7.7158
  91   2.0000      -0.273664        -7.4468
  92   2.0000      -0.264858        -7.2071
  93   2.0000      -0.263925        -7.1818
  94   2.0000      -0.259992        -7.0747
  95   2.0000      -0.227108        -6.1799
  96   2.0000      -0.216257        -5.8847
  97   2.0000      -0.213451        -5.8083
  98   2.0000      -0.207035        -5.6337
  99   2.0000      -0.200561        -5.4575
 100   2.0000      -0.197216        -5.3665
 101   0.0000      -0.046824        -1.2741
 102   0.0000      -0.034408        -0.9363
 103   0.0000      -0.021126        -0.5749
 104   0.0000      -0.001770        -0.0482
 105   0.0000       0.015682         0.4267

MULLIKEN ATOMIC CHARGES
-----------------------
   0 C :   -0.321316
   1 C :   -0.007435
   2 O :   -0.376722
   3 P :    0.623971
   4 S :   -0.327494
   5 O :   -0.379088
   6 C :   -0.003384
   7 C :   -0.295942
   8 S :   -0.083153
   9 C :   -0.323095
  10 S :   -0.080206
  11 P :    0.642334
  12 S :   -0.325020
  13 O :   -0.382257
  14 C :   -0.007194
  15 C :   -0.309405
  16 O :   -0.374818
  17 C :   -0.014211
  18 C :   -0.290288
  19 H :    0.128190
  20 H :    0.114240
  21 H :    0.113104
  22 H :    0.111385
  23 H :    0.105261
  24 H :    0.113666
  25 H :    0.097129
  26 H :    0.105505
  27 H :    0.122790
  28 H :    0.118403
  29 H :    0.189037
  30 H :    0.184128
  31 H :    0.110370
  32 H :    0.102663
  33 H :    0.113314
  34 H :    0.121322
  35 H :    0.113052
  36 H :    0.100993
  37 H :    0.110930
  38 H :    0.135341
  39 H :    0.116210
  40 H :    0.107689
Sum of atomic charges:    0.0000000

LOEWDIN ATOMIC CHARGES
----------------------
   0 C :   -0.366664
   1 C :   -0.123047
   2 O :   -0.248054
   3 P :    0.560590
   4 S :   -0.325358
   5 O :   -0.247456
   6 C :   -0.121591
   7 C :   -0.360488
   8 S :    0.097130
   9 C :   -0.467601
  10 S :    0.116261
  11 P :    0.581531
  12 S :   -0.304277
  13 O :   -0.257579
  14 C :   -0.123821
  15 C :   -0.367208
  16 O :   -0.238902
  17 C :   -0.113735
  18 C :   -0.353593
  19 H :    0.122319
  20 H :    0.132003
  21 H :    0.120153
  22 H :    0.108389
  23 H :    0.118339
  24 H :    0.112689
  25 H :    0.105243
  26 H :    0.128654
  27 H :    0.122828
  28 H :    0.121860
  29 H :    0.135401
  30 H :    0.136435
  31 H :    0.108276
  32 H :    0.117277
  33 H :    0.122793
  34 H :    0.118223
  35 H :    0.130630
  36 H :    0.111870
  37 H :    0.107257
  38 H :    0.129403
  39 H :    0.125069
  40 H :    0.128755

  Mayer bond orders larger than 0.100000
B(  0-C ,  1-C ) :   1.1626 B(  0-C , 19-H ) :   0.9369 B(  0-C , 20-H ) :   0.9389
B(  0-C , 21-H ) :   0.9430 B(  1-C ,  2-O ) :   0.9173 B(  1-C , 22-H ) :   0.9060
B(  1-C , 23-H ) :   0.9334 B(  2-O ,  3-P ) :   1.0682 B(  3-P ,  4-S ) :   1.6245
B(  3-P ,  5-O ) :   1.0973 B(  3-P ,  8-S ) :   1.0141 B(  5-O ,  6-C ) :   0.8820
B(  6-C ,  7-C ) :   1.1797 B(  6-C , 24-H ) :   0.9120 B(  6-C , 25-H ) :   0.9077
B(  7-C , 26-H ) :   0.9399 B(  7-C , 27-H ) :   0.9342 B(  7-C , 28-H ) :   0.9388
B(  8-S ,  9-C ) :   0.9474 B(  9-C , 10-S ) :   1.0268 B(  9-C , 29-H ) :   0.9024
B(  9-C , 30-H ) :   0.9053 B( 10-S , 11-P ) :   0.9586 B( 11-P , 12-S ) :   1.6280
B( 11-P , 13-O ) :   1.0689 B( 11-P , 16-O ) :   1.1180 B( 13-O , 14-C ) :   0.9229
B( 14-C , 15-C ) :   1.1623 B( 14-C , 31-H ) :   0.9135 B( 14-C , 32-H ) :   0.9333
B( 15-C , 33-H ) :   0.9452 B( 15-C , 34-H ) :   0.9369 B( 15-C , 35-H ) :   0.9389
B( 16-O , 17-C ) :   0.8963 B( 17-C , 18-C ) :   1.1634 B( 17-C , 36-H ) :   0.9318
B( 17-C , 37-H ) :   0.9068 B( 18-C , 38-H ) :   0.9413 B( 18-C , 39-H ) :   0.9469
B( 18-C , 40-H ) :   0.9395

Dispersion correction           -0.069383837
FINAL SINGLE POINT ENERGY     -2929.514679715553

DIPOLE MOMENT
-------------

Method             : SCF
Type of density    : Electron Density
Multiplicity       :   1
Irrep              :   0
Energy             : -2929.6321200541888174 Eh
Relativity type    :
Basis              : AO
                                X                 Y                 Z
Electronic contribution:      3.407642795      -1.710869414      -0.114697489
Nuclear contribution   :     -3.831206663       2.381196826       1.339036870
                        -----------------------------------------
Total Dipole Moment    :     -0.423563868       0.670327412       1.224339381
                        -----------------------------------------
Magnitude (a.u.)       :      1.458681634
Magnitude (Debye)      :      3.707674059

Rotational constants in cm-1:             0.011675             0.006144             0.005335
Rotational constants in MHz :           350.010911           184.178649           159.947917

                             ****ORCA TERMINATED NORMALLY****
TOTAL RUN TIME: 0 days 0 hours 0 minutes 22 seconds 387 msec
