                         Program Version 6.0.1  -  RELEASE   -
|  1> ! pbe def2-sv(p) def2/J RI DEFGRID1 loosescf d4 GCP(DFT/SV(P)) printgap
|  2> %output
|  3>     printlevel normal
|  4> end
|  5> * xyz 0 1
|  6> C 4.9188563917 -3.7180650031 -1.8117189729
|  7> C 4.0840990519 -2.8934782126 -0.8524412504
|  8> O 3.1567491501 -2.1096009027 -1.6309659204
|  9> C 2.3702824448 -1.2744653634 -0.9934094455
| 10> O 2.3670427433 -1.1226036435 0.2123082683
| 11> C 1.4712684467 -0.5022323755 -1.9349175214
| 12> C 0.4163803072 0.2444240291 -1.1302266325
| 13> H -0.1266522535 0.9531509195 -1.7648728574
| 14> C 1.0858165149 1.0421355061 -0.0225709093
| 15> O 2.0537429376 1.7380144845 -0.2310182991
| 16> O 0.4656185549 0.9322580012 1.1339888417
| 17> C 0.9918728492 1.6601016048 2.2604601705
| 18> C 0.3847831073 3.0498965281 2.343990463
| 19> S -0.8060012367 -0.9298251312 -0.458285476
| 20> P -2.185627142 0.4845650231 0.326814749
| 21> S -2.1291144989 2.2810865748 -0.4474300938
| 22> O -3.5801639482 -0.2763083835 0.1090211019
| 23> C -4.1165464222 -0.4790679829 -1.2028717563
| 24> O -2.1258414645 0.4816569903 1.9050792217
| 25> C -2.1563112994 -0.7368621421 2.6723169221
| 26> H 5.6212357377 -4.3220094143 -1.2472150199
| 27> H 4.276716987 -4.3674444138 -2.3985538473
| 28> H 5.4667223092 -3.0653737043 -2.4844578859
| 29> H 4.6978935154 -2.2100205613 -0.2574957388
| 30> H 3.508143074 -3.5231760791 -0.1675390828
| 31> H 1.0179486463 -1.1827237793 -2.6546623821
| 32> H 2.0925917195 0.2183651053 -2.4715738488
| 33> H 0.7239539363 1.0543585504 3.1264360497
| 34> H 2.0785251202 1.7090309534 2.1486094076
| 35> H -0.6999494136 2.9812220155 2.3890829094
| 36> H 0.7522764549 3.5495917 3.2338119336
| 37> H 0.6586023788 3.6329440955 1.4671477524
| 38> H -4.1191911492 0.4615860987 -1.7557634191
| 39> H -5.1329208798 -0.8333562057 -1.0515427181
| 40> H -3.5232876507 -1.2230151813 -1.7341348355
| 41> H -2.1402765594 -0.4187510888 3.711513253
| 42> H -1.2791322046 -1.3409158673 2.4396259819
| 43> H -3.0646239884 -1.2946920527 2.4529313699
| 44> *
| 45>
| 46>                          ****END OF INPUT****

CARTESIAN COORDINATES (ANGSTROEM)
---------------------------------
  C      4.918856   -3.718065   -1.811719
  C      4.084099   -2.893478   -0.852441
  O      3.156749   -2.109601   -1.630966
  C      2.370282   -1.274465   -0.993409
  O      2.367043   -1.122604    0.212308
  C      1.471268   -0.502232   -1.934918
  C      0.416380    0.244424   -1.130227
  H     -0.126652    0.953151   -1.764873
  C      1.085817    1.042136   -0.022571
  O      2.053743    1.738014   -0.231018
  O      0.465619    0.932258    1.133989
  C      0.991873    1.660102    2.260460
  C      0.384783    3.049897    2.343990
  S     -0.806001   -0.929825   -0.458285
  P     -2.185627    0.484565    0.326815
  S     -2.129114    2.281087   -0.447430
  O     -3.580164   -0.276308    0.109021
  C     -4.116546   -0.479068   -1.202872
  O     -2.125841    0.481657    1.905079
  C     -2.156311   -0.736862    2.672317
  H      5.621236   -4.322009   -1.247215
  H      4.276717   -4.367444   -2.398554
  H      5.466722   -3.065374   -2.484458
  H      4.697894   -2.210021   -0.257496
  H      3.508143   -3.523176   -0.167539
  H      1.017949   -1.182724   -2.654662
  H      2.092592    0.218365   -2.471574
  H      0.723954    1.054359    3.126436
  H      2.078525    1.709031    2.148609
  H     -0.699949    2.981222    2.389083
  H      0.752276    3.549592    3.233812
  H      0.658602    3.632944    1.467148
  H     -4.119191    0.461586   -1.755763
  H     -5.132921   -0.833356   -1.051543
  H     -3.523288   -1.223015   -1.734135
  H     -2.140277   -0.418751    3.711513
  H     -1.279132   -1.340916    2.439626
  H     -3.064624   -1.294692    2.452931

 Total Charge           Charge          ....    0
 Multiplicity           Mult            ....    1
 Number of Electrons    NEL             ....  174
 Basis Dimension        Dim             ....  316

ORBITAL ENERGIES
----------------

  NO   OCC          E(Eh)            E(eV)
   0   2.0000     -88.037294     -2395.6166
   1   2.0000     -87.981760     -2394.1054
   2   2.0000     -76.424231     -2079.6090
   3   2.0000     -18.809997      -511.8460
   4   2.0000     -18.795238      -511.4444
   5   2.0000     -18.793013      -511.3839
   6   2.0000     -18.789906      -511.2993
   7   2.0000     -18.748227      -510.1652
   8   2.0000     -18.724615      -509.5227
   9   2.0000     -10.016902      -272.5738
  10   2.0000     -10.006072      -272.2791
  11   2.0000      -9.955204      -270.8949
  12   2.0000      -9.949226      -270.7322
  13   2.0000      -9.943360      -270.5726
  14   2.0000      -9.941730      -270.5282
  15   2.0000      -9.936566      -270.3877
  16   2.0000      -9.917564      -269.8706
  17   2.0000      -9.894774      -269.2505
  18   2.0000      -9.869014      -268.5495
  19   2.0000      -7.681860      -209.0340
  20   2.0000      -7.626879      -207.5379
  21   2.0000      -6.421101      -174.7270
  22   2.0000      -5.709546      -155.3647
  23   2.0000      -5.706598      -155.2844
  24   2.0000      -5.698888      -155.0746
  25   2.0000      -5.656013      -153.9079
  26   2.0000      -5.647314      -153.6712
  27   2.0000      -5.646971      -153.6619
  28   2.0000      -4.643795      -126.3641
  29   2.0000      -4.643008      -126.3427
  30   2.0000      -4.641451      -126.3003
  31   2.0000      -1.019878       -27.7523
  32   2.0000      -1.002713       -27.2852
  33   2.0000      -0.985610       -26.8198
  34   2.0000      -0.941284       -25.6137
  35   2.0000      -0.924296       -25.1514
  36   2.0000      -0.906327       -24.6624
  37   2.0000      -0.763538       -20.7769
  38   2.0000      -0.720668       -19.6104
  39   2.0000      -0.698066       -18.9953
  40   2.0000      -0.689086       -18.7510
  41   2.0000      -0.660014       -17.9599
  42   2.0000      -0.635830       -17.3018
  43   2.0000      -0.620355       -16.8807
  44   2.0000      -0.610585       -16.6149
  45   2.0000      -0.591623       -16.0989
  46   2.0000      -0.556865       -15.1531
  47   2.0000      -0.516776       -14.0622
  48   2.0000      -0.513692       -13.9783
  49   2.0000      -0.492428       -13.3997
  50   2.0000      -0.478403       -13.0180
  51   2.0000      -0.472829       -12.8663
  52   2.0000      -0.464216       -12.6320
  53   2.0000      -0.452141       -12.3034
  54   2.0000      -0.433391       -11.7932
  55   2.0000      -0.428704       -11.6656
  56   2.0000      -0.420575       -11.4444
  57   2.0000      -0.417050       -11.3485
  58   2.0000      -0.415556       -11.3079
  59   2.0000      -0.413343       -11.2476
  60   2.0000      -0.400771       -10.9055
  61   2.0000      -0.399683       -10.8759
  62   2.0000      -0.387291       -10.5387
  63   2.0000      -0.381556       -10.3827
  64   2.0000      -0.368841       -10.0367
  65   2.0000      -0.365398        -9.9430
  66   2.0000      -0.357649        -9.7321
  67   2.0000      -0.351983        -9.5779
  68   2.0000      -0.344295        -9.3687
  69   2.0000      -0.338974        -9.2240
  70   2.0000      -0.329003        -8.9526
  71   2.0000      -0.319630        -8.6976
  72   2.0000      -0.317846        -8.6490
  73   2.0000      -0.314299        -8.5525
  74   2.0000      -0.308009        -8.3813
  75   2.0000      -0.304686        -8.2909
  76   2.0000      -0.296718        -8.0741
  77   2.0000      -0.285761        -7.7760
  78   2.0000      -0.270144        -7.3510
  79   2.0000      -0.267503        -7.2791
  80   2.0000      -0.258444        -7.0326
  81   2.0000      -0.248643        -6.7659
  82   2.0000      -0.237909        -6.4738
  83   2.0000      -0.229876        -6.2552
  84   2.0000      -0.205450        -5.5906
  85   2.0000      -0.200522        -5.4565
  86   2.0000      -0.196244        -5.3401
  87   0.0000      -0.039311        -1.0697
  88   0.0000      -0.025657        -0.6982
  89   0.0000      -0.011597        -0.3156
  90   0.0000       0.009480         0.2580
  91   0.0000       0.019814         0.5392

MULLIKEN ATOMIC CHARGES
-----------------------
   0 C :   -0.272874
   1 C :   -0.030869
   2 O :   -0.226398
   3 C :    0.112085
   4 O :   -0.200756
   5 C :   -0.095117
   6 C :   -0.309516
   7 H :    0.152289
   8 C :    0.237425
   9 O :   -0.210686
  10 O :   -0.231691
  11 C :   -0.004494
  12 C :   -0.301154
  13 S :   -0.101148
  14 P :    0.624267
  15 S :   -0.317453
  16 O :   -0.390568
  17 C :   -0.098255
  18 O :   -0.360782
  19 C :   -0.112518
  20 H :    0.113908
  21 H :    0.116456
  22 H :    0.118677
  23 H :    0.113276
  24 H :    0.108575
  25 H :    0.127512
  26 H :    0.144795
  27 H :    0.094124
  28 H :    0.109684
  29 H :    0.126217
  30 H :    0.102208
  31 H :    0.124031
  32 H :    0.117586
  33 H :    0.124249
  34 H :    0.111748
  35 H :    0.130119
  36 H :    0.130947
  37 H :    0.124102
Sum of atomic charges:   -0.0000000

LOEWDIN ATOMIC CHARGES
----------------------
   0 C :   -0.350337
   1 C :   -0.104637
   2 O :   -0.057578
   3 C :    0.035636
   4 O :   -0.150724
   5 C :   -0.249118
   6 C :   -0.268594
   7 H :    0.141673
   8 C :    0.018125
   9 O :   -0.171092
  10 O :   -0.054628
  11 C :   -0.104492
  12 C :   -0.358262
  13 S :    0.088605
  14 P :    0.579665
  15 S :   -0.308495
  16 O :   -0.262847
  17 C :   -0.217202
  18 O :   -0.234920
  19 C :   -0.211828
  20 H :    0.132070
  21 H :    0.127523
  22 H :    0.128537
  23 H :    0.120167
  24 H :    0.118170
  25 H :    0.142352
  26 H :    0.160504
  27 H :    0.113515
  28 H :    0.121001
  29 H :    0.125981
  30 H :    0.125129
  31 H :    0.130313
  32 H :    0.111651
  33 H :    0.121844
  34 H :    0.106672
  35 H :    0.125157
  36 H :    0.115126
  37 H :    0.115335

  Mayer bond orders larger than 0.100000
B(  0-C ,  1-C ) :   1.1536 B(  0-C , 20-H ) :   0.9435 B(  0-C , 21-H ) :   0.9494
B(  0-C , 22-H ) :   0.9498 B(  1-C ,  2-O ) :   0.9003 B(  1-C , 23-H ) :   0.9308
B(  1-C , 24-H ) :   0.9331 B(  2-O ,  3-C ) :   1.2500 B(  3-C ,  4-O ) :   2.0077
B(  3-C ,  5-C ) :   1.0026 B(  5-C ,  6-C ) :   1.0638 B(  5-C , 25-H ) :   0.9012
B(  5-C , 26-H ) :   0.8716 B(  6-C ,  7-H ) :   0.8485 B(  6-C ,  8-C ) :   0.8650
B(  6-C , 13-S ) :   1.0204 B(  8-C ,  9-O ) :   2.0464 B(  8-C , 10-O ) :   1.2398
B( 10-O , 11-C ) :   0.9054 B( 11-C , 12-C ) :   1.1796 B( 11-C , 27-H ) :   0.9355
B( 11-C , 28-H ) :   0.9156 B( 12-C , 29-H ) :   0.9407 B( 12-C , 30-H ) :   0.9428
B( 12-C , 31-H ) :   0.9442 B( 13-S , 14-P ) :   0.9606 B( 13-S , 15-S ) :   0.1133
B( 14-P , 15-S ) :   1.6338 B( 14-P , 16-O ) :   1.0666 B( 14-P , 18-O ) :   1.1192
B( 16-O , 17-C ) :   0.9337 B( 17-C , 32-H ) :   0.9360 B( 17-C , 33-H ) :   0.9586
B( 17-C , 34-H ) :   0.9453 B( 18-O , 19-C ) :   0.9177 B( 19-C , 35-H ) :   0.9587
B( 19-C , 36-H ) :   0.9391 B( 19-C , 37-H ) :   0.9458

Dispersion correction           -0.052650032
FINAL SINGLE POINT ENERGY     -1979.022357167378

DIPOLE MOMENT
-------------

Method             : SCF
Type of density    : Electron Density
Multiplicity       :   1
Irrep              :   0
Energy             : -1979.1523392005342430 Eh
Relativity type    :
Basis              : AO
                                X                 Y                 Z
Electronic contribution:    -12.032333235       7.211178890      -2.508347032
Nuclear contribution   :     12.212748971      -9.128452954       2.553414212
                        -----------------------------------------
Total Dipole Moment    :      0.180415736      -1.917274063       0.045067180
                        -----------------------------------------
Magnitude (a.u.)       :      1.926271197
Magnitude (Debye)      :      4.896192275

Rotational constants in cm-1:             0.015295             0.006119             0.005362
Rotational constants in MHz :           458.538743           183.452044           160.760592

                             ****ORCA TERMINATED NORMALLY****
TOTAL RUN TIME: 0 days 0 hours 0 minutes 45 seconds 551 msec
