                         Program Version 6.0.0  -   RELEASE  -
|  1> ! pbe def2-sv(p) def2/J RI DEFGRID1 loosescf d4 GCP(DFT/SV(P)) printgap
|  2> %output
|  3>     printlevel normal
|  4> end
|  5> * xyz 0 1
|  6> C 0.8151151502 1.3084227111 -1.026879341
|  7> C 1.4449062269 0.3272130522 -0.034825852
|  8> H 2.4632260613 0.0833631096 -0.3655470697
|  9> C 0.6371401156 -0.9946900435 0.016042831
| 10> H 0.6279568711 -1.3286348341 1.0600092702
| 11> C -0.8158894309 -0.7656693476 -0.4514586634
| 12> H -0.870602505 -0.8597883195 -1.5422653173
| 13> C -1.2818651397 0.6517131445 -0.0573204024
| 14> H -2.3205039887 0.7969555078 -0.3820047812
| 15> O -0.5264751261 1.6527373853 -0.6846021744
| 16> O -1.3070834721 0.7982895084 1.3311587183
| 17> O -1.6992603828 -1.7291338788 0.0561137588
| 18> O 1.2760132656 -2.0278674997 -0.6861158336
| 19> O 1.4687373493 0.8544260066 1.2757431346
| 20> H 0.836549376 0.8745589536 -2.0337601945
| 21> H 1.3522565289 2.2587366536 -1.0408812853
| 22> H -0.3874229112 0.8937457951 1.6553243703
| 23> H -1.8791787215 -1.5275473933 0.987944296
| 24> H 1.1220107449 -1.9398178493 -1.6373786687
| 25> H 2.0390843498 1.6362482358 1.3086890637
| 26> *
| 27>
| 28>                          ****END OF INPUT****

CARTESIAN COORDINATES (ANGSTROEM)
---------------------------------
  C      0.815115    1.308423   -1.026879
  C      1.444906    0.327213   -0.034826
  H      2.463226    0.083363   -0.365547
  C      0.637140   -0.994690    0.016043
  H      0.627957   -1.328635    1.060009
  C     -0.815889   -0.765669   -0.451459
  H     -0.870603   -0.859788   -1.542265
  C     -1.281865    0.651713   -0.057320
  H     -2.320504    0.796956   -0.382005
  O     -0.526475    1.652737   -0.684602
  O     -1.307083    0.798290    1.331159
  O     -1.699260   -1.729134    0.056114
  O      1.276013   -2.027867   -0.686116
  O      1.468737    0.854426    1.275743
  H      0.836549    0.874559   -2.033760
  H      1.352257    2.258737   -1.040881
  H     -0.387423    0.893746    1.655324
  H     -1.879179   -1.527547    0.987944
  H      1.122011   -1.939818   -1.637379
  H      2.039084    1.636248    1.308689

 Total Charge           Charge          ....    0
 Multiplicity           Mult            ....    1
 Number of Electrons    NEL             ....   80
 Basis Dimension        Dim             ....  160

ORBITAL ENERGIES
----------------

  NO   OCC          E(Eh)            E(eV)
   0   2.0000     -18.789621      -511.2916
   1   2.0000     -18.767853      -510.6992
   2   2.0000     -18.757617      -510.4207
   3   2.0000     -18.745973      -510.1039
   4   2.0000     -18.745737      -510.0974
   5   2.0000      -9.979447      -271.5546
   6   2.0000      -9.960153      -271.0296
   7   2.0000      -9.951979      -270.8071
   8   2.0000      -9.949256      -270.7330
   9   2.0000      -9.944282      -270.5977
  10   2.0000      -0.982016       -26.7220
  11   2.0000      -0.955329       -25.9958
  12   2.0000      -0.939493       -25.5649
  13   2.0000      -0.922012       -25.0892
  14   2.0000      -0.900885       -24.5143
  15   2.0000      -0.710545       -19.3349
  16   2.0000      -0.677196       -18.4274
  17   2.0000      -0.604739       -16.4558
  18   2.0000      -0.590645       -16.0723
  19   2.0000      -0.538151       -14.6438
  20   2.0000      -0.502979       -13.6868
  21   2.0000      -0.498645       -13.5688
  22   2.0000      -0.458297       -12.4709
  23   2.0000      -0.450892       -12.2694
  24   2.0000      -0.436969       -11.8905
  25   2.0000      -0.423753       -11.5309
  26   2.0000      -0.415526       -11.3070
  27   2.0000      -0.393587       -10.7101
  28   2.0000      -0.379574       -10.3287
  29   2.0000      -0.358362        -9.7515
  30   2.0000      -0.326585        -8.8868
  31   2.0000      -0.313662        -8.5352
  32   2.0000      -0.303227        -8.2512
  33   2.0000      -0.292260        -7.9528
  34   2.0000      -0.283005        -7.7010
  35   2.0000      -0.262341        -7.1387
  36   2.0000      -0.243475        -6.6253
  37   2.0000      -0.231338        -6.2950
  38   2.0000      -0.219021        -5.9599
  39   2.0000      -0.204154        -5.5553
  40   0.0000      -0.000094        -0.0025
  41   0.0000       0.013819         0.3760
  42   0.0000       0.051503         1.4015
  43   0.0000       0.054410         1.4806
  44   0.0000       0.065411         1.7799

MULLIKEN ATOMIC CHARGES
-----------------------
   0 C :    0.063131
   1 C :   -0.014518
   2 H :    0.078545
   3 C :    0.073118
   4 H :    0.074586
   5 C :    0.039288
   6 H :    0.054245
   7 C :    0.158674
   8 H :    0.074907
   9 O :   -0.306553
  10 O :   -0.421959
  11 O :   -0.411878
  12 O :   -0.408064
  13 O :   -0.425198
  14 H :    0.073012
  15 H :    0.087574
  16 H :    0.299058
  17 H :    0.300407
  18 H :    0.295936
  19 H :    0.315686
Sum of atomic charges:   -0.0000000

LOEWDIN ATOMIC CHARGES
----------------------
   0 C :   -0.121085
   1 C :   -0.093872
   2 H :    0.113456
   3 C :   -0.069785
   4 H :    0.122932
   5 C :   -0.096158
   6 H :    0.112681
   7 C :   -0.013311
   8 H :    0.109988
   9 O :   -0.157175
  10 O :   -0.326625
  11 O :   -0.310813
  12 O :   -0.306012
  13 O :   -0.305952
  14 H :    0.102313
  15 H :    0.114175
  16 H :    0.266306
  17 H :    0.281662
  18 H :    0.281415
  19 H :    0.295862

  Mayer bond orders larger than 0.100000
B(  0-C ,  1-C ) :   1.0946 B(  0-C ,  9-O ) :   1.0262 B(  0-C , 14-H ) :   0.9055
B(  0-C , 15-H ) :   0.9123 B(  1-C ,  2-H ) :   0.8856 B(  1-C ,  3-C ) :   0.9631
B(  1-C , 13-O ) :   0.9851 B(  3-C ,  4-H ) :   0.8700 B(  3-C ,  5-C ) :   0.9918
B(  3-C , 12-O ) :   1.0687 B(  5-C ,  6-H ) :   0.8531 B(  5-C ,  7-C ) :   1.0075
B(  5-C , 11-O ) :   1.0794 B(  7-C ,  8-H ) :   0.9013 B(  7-C ,  9-O ) :   1.0538
B(  7-C , 10-O ) :   1.1196 B( 10-O , 16-H ) :   0.7899 B( 11-O , 17-H ) :   0.8340
B( 12-O , 18-H ) :   0.8476 B( 13-O , 16-H ) :   0.1192 B( 13-O , 19-H ) :   0.8384

Dispersion correction           -0.019896295
FINAL SINGLE POINT ENERGY      -571.409580079865

DIPOLE MOMENT
-------------

Method             : SCF
Type of density    : Electron Density
Multiplicity       :   1
Irrep              :   0
Energy             :  -571.5195977577617441 Eh
Relativity type    :
Basis              : AO
                                X                 Y                 Z
Electronic contribution:     -1.581655329      -0.165623473       1.398447559
Nuclear contribution   :      2.787239200       0.826236601      -1.847692138
                        -----------------------------------------
Total Dipole Moment    :      1.205583871       0.660613128      -0.449244579
                        -----------------------------------------
Magnitude (a.u.)       :      1.446258229
Magnitude (Debye)      :      3.676096275

Rotational constants in cm-1:             0.052011             0.048773             0.035202
Rotational constants in MHz :          1559.240263          1462.191415          1055.322274

                             ****ORCA TERMINATED NORMALLY****
TOTAL RUN TIME: 0 days 0 hours 0 minutes 12 seconds 37 msec
