                         Program Version 6.0.1  -  RELEASE   -
|  1> ! pbe def2-sv(p) def2/J RI DEFGRID1 loosescf d4 GCP(DFT/SV(P)) printgap
|  2> %output
|  3>     printlevel normal
|  4> end
|  5> * xyz 0 1
|  6> C 4.2890879606 -2.0789902838 0.9222229972
|  7> C 2.8004935408 -2.0305985278 0.6404240991
|  8> O 2.5715298164 -1.0610735865 -0.4000220965
|  9> C 1.4148751927 -1.0653925764 -1.0166947624
| 10> O 0.507588146 -1.83997816 -0.7763525353
| 11> C 1.3260239359 0.0094410997 -2.0790829167
| 12> C 0.1776702757 0.9705094353 -1.776456954
| 13> H 0.0676038531 1.6825374121 -2.6005811103
| 14> C 0.3508439454 1.7680044482 -0.4956204741
| 15> O -0.5957536814 2.2307662053 0.1121415769
| 16> O 1.6017898737 1.9132594033 -0.1607529159
| 17> C 1.8998808815 2.6143532444 1.0648667597
| 18> C 3.4042129612 2.6068779324 1.2411349854
| 19> S -1.4492405531 0.1410315315 -1.6961138782
| 20> P -1.7166095192 -0.2648518577 0.3778189025
| 21> S -0.3075927743 -0.3549120997 1.7356706505
| 22> O -2.8290341273 0.7438431268 0.8803802781
| 23> C -4.0476846073 1.008755919 0.1649483407
| 24> O -2.6161541228 -1.589125129 0.2951136577
| 25> C -2.1272748097 -2.9012780373 0.0143542783
| 26> H 4.4795136272 -2.808293014 1.7023102527
| 27> H 4.8303316893 -2.3625548334 0.0244793855
| 28> H 4.6386579642 -1.1055889971 1.2521028927
| 29> H 2.2254821097 -1.7220321975 1.5198306319
| 30> H 2.4164621504 -2.9974185806 0.2997550909
| 31> H 1.1269121229 -0.4734591032 -3.0367273573
| 32> H 2.2666951508 0.5568850657 -2.1129528194
| 33> H 1.4947577166 3.627672904 0.9888311399
| 34> H 1.3868286321 2.0948626041 1.881154022
| 35> H 3.8809303722 3.1278386476 0.4166454049
| 36> H 3.6561204087 3.099729479 2.1738034119
| 37> H 3.7631493712 1.5824751382 1.2683094976
| 38> H -4.5541648636 1.7731755429 0.7482913394
| 39> H -4.6469599819 0.1016942171 0.1053347447
| 40> H -3.8202302021 1.3771291374 -0.8356134299
| 41> H -1.8293967817 -2.9739682472 -1.0304034822
| 42> H -2.9563854419 -3.5696350858 0.2328806904
| 43> H -1.2701053956 -3.1268082036 0.6482917673
| 44> *
| 45>
| 46>                          ****END OF INPUT****

CARTESIAN COORDINATES (ANGSTROEM)
---------------------------------
  C      4.289088   -2.078990    0.922223
  C      2.800494   -2.030599    0.640424
  O      2.571530   -1.061074   -0.400022
  C      1.414875   -1.065393   -1.016695
  O      0.507588   -1.839978   -0.776353
  C      1.326024    0.009441   -2.079083
  C      0.177670    0.970509   -1.776457
  H      0.067604    1.682537   -2.600581
  C      0.350844    1.768004   -0.495620
  O     -0.595754    2.230766    0.112142
  O      1.601790    1.913259   -0.160753
  C      1.899881    2.614353    1.064867
  C      3.404213    2.606878    1.241135
  S     -1.449241    0.141032   -1.696114
  P     -1.716610   -0.264852    0.377819
  S     -0.307593   -0.354912    1.735671
  O     -2.829034    0.743843    0.880380
  C     -4.047685    1.008756    0.164948
  O     -2.616154   -1.589125    0.295114
  C     -2.127275   -2.901278    0.014354
  H      4.479514   -2.808293    1.702310
  H      4.830332   -2.362555    0.024479
  H      4.638658   -1.105589    1.252103
  H      2.225482   -1.722032    1.519831
  H      2.416462   -2.997419    0.299755
  H      1.126912   -0.473459   -3.036727
  H      2.266695    0.556885   -2.112953
  H      1.494758    3.627673    0.988831
  H      1.386829    2.094863    1.881154
  H      3.880930    3.127839    0.416645
  H      3.656120    3.099729    2.173803
  H      3.763149    1.582475    1.268309
  H     -4.554165    1.773176    0.748291
  H     -4.646960    0.101694    0.105335
  H     -3.820230    1.377129   -0.835613
  H     -1.829397   -2.973968   -1.030403
  H     -2.956385   -3.569635    0.232881
  H     -1.270105   -3.126808    0.648292

 Total Charge           Charge          ....    0
 Multiplicity           Mult            ....    1
 Number of Electrons    NEL             ....  174
 Basis Dimension        Dim             ....  316

ORBITAL ENERGIES
----------------

  NO   OCC          E(Eh)            E(eV)
   0   2.0000     -88.031522     -2395.4595
   1   2.0000     -87.969209     -2393.7639
   2   2.0000     -76.416018     -2079.3856
   3   2.0000     -18.811237      -511.8798
   4   2.0000     -18.803704      -511.6748
   5   2.0000     -18.777498      -510.9617
   6   2.0000     -18.771680      -510.8034
   7   2.0000     -18.736810      -509.8545
   8   2.0000     -18.734906      -509.8027
   9   2.0000     -10.016228      -272.5554
  10   2.0000     -10.009164      -272.3632
  11   2.0000      -9.952725      -270.8274
  12   2.0000      -9.946749      -270.6648
  13   2.0000      -9.942731      -270.5555
  14   2.0000      -9.932599      -270.2798
  15   2.0000      -9.926718      -270.1197
  16   2.0000      -9.911507      -269.7058
  17   2.0000      -9.889294      -269.1014
  18   2.0000      -9.888582      -269.0820
  19   2.0000      -7.676449      -208.8868
  20   2.0000      -7.614432      -207.1992
  21   2.0000      -6.411751      -174.4726
  22   2.0000      -5.704706      -155.2329
  23   2.0000      -5.701119      -155.1353
  24   2.0000      -5.692845      -154.9102
  25   2.0000      -5.643748      -153.5742
  26   2.0000      -5.635013      -153.3365
  27   2.0000      -5.634068      -153.3108
  28   2.0000      -4.634464      -126.1102
  29   2.0000      -4.633882      -126.0943
  30   2.0000      -4.632162      -126.0475
  31   2.0000      -1.019942       -27.7540
  32   2.0000      -1.010343       -27.4928
  33   2.0000      -0.968976       -26.3672
  34   2.0000      -0.924076       -25.1454
  35   2.0000      -0.918112       -24.9831
  36   2.0000      -0.912983       -24.8435
  37   2.0000      -0.763931       -20.7876
  38   2.0000      -0.711367       -19.3573
  39   2.0000      -0.708557       -19.2808
  40   2.0000      -0.686518       -18.6811
  41   2.0000      -0.655018       -17.8239
  42   2.0000      -0.622249       -16.9322
  43   2.0000      -0.616152       -16.7664
  44   2.0000      -0.605770       -16.4838
  45   2.0000      -0.588098       -16.0030
  46   2.0000      -0.560872       -15.2621
  47   2.0000      -0.513570       -13.9749
  48   2.0000      -0.508337       -13.8326
  49   2.0000      -0.498420       -13.5627
  50   2.0000      -0.480609       -13.0780
  51   2.0000      -0.460711       -12.5366
  52   2.0000      -0.452243       -12.3061
  53   2.0000      -0.447460       -12.1760
  54   2.0000      -0.443978       -12.0813
  55   2.0000      -0.422415       -11.4945
  56   2.0000      -0.417455       -11.3595
  57   2.0000      -0.411322       -11.1926
  58   2.0000      -0.407470       -11.0878
  59   2.0000      -0.405062       -11.0223
  60   2.0000      -0.397076       -10.8050
  61   2.0000      -0.387489       -10.5441
  62   2.0000      -0.385673       -10.4947
  63   2.0000      -0.375159       -10.2086
  64   2.0000      -0.370522       -10.0824
  65   2.0000      -0.362476        -9.8635
  66   2.0000      -0.359790        -9.7904
  67   2.0000      -0.355353        -9.6697
  68   2.0000      -0.353680        -9.6241
  69   2.0000      -0.340238        -9.2583
  70   2.0000      -0.334890        -9.1128
  71   2.0000      -0.320652        -8.7254
  72   2.0000      -0.314454        -8.5567
  73   2.0000      -0.308559        -8.3963
  74   2.0000      -0.303113        -8.2481
  75   2.0000      -0.296841        -8.0775
  76   2.0000      -0.284438        -7.7400
  77   2.0000      -0.282174        -7.6783
  78   2.0000      -0.265212        -7.2168
  79   2.0000      -0.262354        -7.1390
  80   2.0000      -0.252693        -6.8761
  81   2.0000      -0.248174        -6.7531
  82   2.0000      -0.234578        -6.3832
  83   2.0000      -0.224876        -6.1192
  84   2.0000      -0.197631        -5.3778
  85   2.0000      -0.188120        -5.1190
  86   2.0000      -0.178739        -4.8637
  87   0.0000      -0.042755        -1.1634
  88   0.0000      -0.033762        -0.9187
  89   0.0000      -0.025717        -0.6998
  90   0.0000       0.007126         0.1939
  91   0.0000       0.026704         0.7267

MULLIKEN ATOMIC CHARGES
-----------------------
   0 C :   -0.285677
   1 C :   -0.036918
   2 O :   -0.218292
   3 C :    0.086515
   4 O :   -0.204886
   5 C :    0.009920
   6 C :   -0.314371
   7 H :    0.155376
   8 C :    0.167182
   9 O :   -0.187072
  10 O :   -0.215530
  11 C :   -0.031342
  12 C :   -0.287608
  13 S :   -0.095718
  14 P :    0.642539
  15 S :   -0.332841
  16 O :   -0.354404
  17 C :   -0.102641
  18 O :   -0.395665
  19 C :   -0.087858
  20 H :    0.112337
  21 H :    0.111509
  22 H :    0.122589
  23 H :    0.125829
  24 H :    0.104206
  25 H :    0.113405
  26 H :    0.108758
  27 H :    0.105977
  28 H :    0.128155
  29 H :    0.111244
  30 H :    0.112917
  31 H :    0.127633
  32 H :    0.125923
  33 H :    0.114948
  34 H :    0.116558
  35 H :    0.116988
  36 H :    0.112672
  37 H :    0.117645
Sum of atomic charges:   -0.0000000

LOEWDIN ATOMIC CHARGES
----------------------
   0 C :   -0.351552
   1 C :   -0.111636
   2 O :   -0.046058
   3 C :    0.022499
   4 O :   -0.172653
   5 C :   -0.251212
   6 C :   -0.257757
   7 H :    0.152548
   8 C :   -0.007584
   9 O :   -0.161354
  10 O :   -0.038601
  11 C :   -0.105955
  12 C :   -0.351987
  13 S :    0.107978
  14 P :    0.593040
  15 S :   -0.302638
  16 O :   -0.234422
  17 C :   -0.212792
  18 O :   -0.258742
  19 C :   -0.210723
  20 H :    0.131386
  21 H :    0.124975
  22 H :    0.124707
  23 H :    0.117122
  24 H :    0.116138
  25 H :    0.143994
  26 H :    0.138745
  27 H :    0.117608
  28 H :    0.121853
  29 H :    0.124765
  30 H :    0.131965
  31 H :    0.127232
  32 H :    0.123827
  33 H :    0.111184
  34 H :    0.106256
  35 H :    0.111082
  36 H :    0.114687
  37 H :    0.112073

  Mayer bond orders larger than 0.100000
B(  0-C ,  1-C ) :   1.1511 B(  0-C , 20-H ) :   0.9436 B(  0-C , 21-H ) :   0.9497
B(  0-C , 22-H ) :   0.9469 B(  1-C ,  2-O ) :   0.8961 B(  1-C , 23-H ) :   0.9224
B(  1-C , 24-H ) :   0.9244 B(  2-O ,  3-C ) :   1.2577 B(  3-C ,  4-O ) :   1.9742
B(  3-C ,  5-C ) :   1.0103 B(  5-C ,  6-C ) :   1.0344 B(  5-C , 25-H ) :   0.8818
B(  5-C , 26-H ) :   0.8806 B(  6-C ,  7-H ) :   0.8709 B(  6-C ,  8-C ) :   0.8983
B(  6-C , 13-S ) :   1.0333 B(  8-C ,  9-O ) :   2.0237 B(  8-C , 10-O ) :   1.2784
B( 10-O , 11-C ) :   0.8868 B( 11-C , 12-C ) :   1.1533 B( 11-C , 27-H ) :   0.9312
B( 11-C , 28-H ) :   0.9173 B( 12-C , 29-H ) :   0.9494 B( 12-C , 30-H ) :   0.9422
B( 12-C , 31-H ) :   0.9425 B( 13-S , 14-P ) :   0.9356 B( 13-S , 15-S ) :   0.1198
B( 14-P , 15-S ) :   1.5695 B( 14-P , 16-O ) :   1.1308 B( 14-P , 18-O ) :   1.0799
B( 16-O , 17-C ) :   0.9290 B( 17-C , 32-H ) :   0.9604 B( 17-C , 33-H ) :   0.9471
B( 17-C , 34-H ) :   0.9357 B( 18-O , 19-C ) :   0.9309 B( 19-C , 35-H ) :   0.9491
B( 19-C , 36-H ) :   0.9559 B( 19-C , 37-H ) :   0.9413

Dispersion correction           -0.055800016
FINAL SINGLE POINT ENERGY     -1979.005009247307

DIPOLE MOMENT
-------------

Method             : SCF
Type of density    : Electron Density
Multiplicity       :   1
Irrep              :   0
Energy             : -1979.1330091770601030 Eh
Relativity type    :
Basis              : AO
                                X                 Y                 Z
Electronic contribution:    -16.675049048       1.766969569      -3.934899144
Nuclear contribution   :     17.659974851      -1.736215293       3.080868880
                        -----------------------------------------
Total Dipole Moment    :      0.984925802       0.030754275      -0.854030264
                        -----------------------------------------
Magnitude (a.u.)       :      1.303990933
Magnitude (Debye)      :      3.314481546

Rotational constants in cm-1:             0.013782             0.008571             0.007107
Rotational constants in MHz :           413.159526           256.955868           213.053384

                             ****ORCA TERMINATED NORMALLY****
TOTAL RUN TIME: 0 days 0 hours 0 minutes 41 seconds 776 msec
