                         Program Version 6.0.0  -   RELEASE  -
|  1> ! pbe def2-sv(p) def2/J RI DEFGRID1 loosescf d4 GCP(DFT/SV(P)) printgap
|  2> %output
|  3>     printlevel normal
|  4> end
|  5> * xyz 0 1
|  6> C 5.4938521834 -1.1159575314 -1.4596585347
|  7> C 4.0705418453 -1.3316868386 -1.9364014189
|  8> O 3.1831494612 -1.537498192 -0.8177156312
|  9> P 2.3396698058 -0.3554258927 -0.1699656417
| 10> S 3.3392224661 1.256118711 0.3419905311
| 11> O 1.6142964237 -1.1167061532 1.008942129
| 12> C 2.1436494269 -1.1393691757 2.358726684
| 13> C 1.0155234033 -0.9048654551 3.3421589044
| 14> S 0.7817133106 -0.0631308305 -1.5650003311
| 15> C 0.1867437476 1.5049471903 -0.8718981842
| 16> S -0.7466547624 1.2807831632 0.6536260706
| 17> P -2.4255123644 0.3265923012 -0.2682403686
| 18> S -2.9258989489 1.015157193 -2.0286728582
| 19> O -3.5077089896 0.3283990224 0.8934466981
| 20> C -3.9026150211 1.4820654609 1.6609822205
| 21> C -4.3564347335 2.6368351373 0.7935762963
| 22> O -2.0750001655 -1.2047192196 -0.3868474444
| 23> C -1.7271179987 -2.0340824687 0.7474362445
| 24> C -2.8988813764 -2.9137578206 1.1310334219
| 25> H 6.1493002834 -1.0282072844 -2.320081071
| 26> H 5.5595883851 -0.2045179911 -0.8695410488
| 27> H 5.8128507521 -1.9545995368 -0.8473278519
| 28> H 3.9823764588 -2.2433783006 -2.5301760802
| 29> H 3.7191347571 -0.4796158783 -2.5253188509
| 30> H 2.604358862 -2.1186560065 2.5002126893
| 31> H 2.9086890686 -0.3608065816 2.4477409396
| 32> H 0.539372468 0.052182993 3.141925621
| 33> H 0.2767137802 -1.6970740029 3.2649852696
| 34> H 1.4244332181 -0.894595047 4.3474357724
| 35> H -0.4604062321 1.9530786474 -1.6267321458
| 36> H 1.0384153498 2.145106967 -0.6385648246
| 37> H -4.7164873412 1.1083824219 2.2847322925
| 38> H -3.057723233 1.7791280435 2.2883235945
| 39> H -4.723698943 3.4395883269 1.424770108
| 40> H -3.5254844103 3.0075847046 0.1950986755
| 41> H -5.1472034569 2.3174845095 0.1188955889
| 42> H -0.8703406625 -2.6235249809 0.412899205
| 43> H -1.4252311877 -1.3900607809 1.57770126
| 44> H -3.2045487603 -3.5162525693 0.2801457896
| 45> H -2.6048911455 -3.5669025289 1.9466936266
| 46> H -3.739419064 -2.2998462229 1.4441649194
| 47> *
| 48>
| 49>                          ****END OF INPUT****

CARTESIAN COORDINATES (ANGSTROEM)
---------------------------------
  C      5.493852   -1.115958   -1.459659
  C      4.070542   -1.331687   -1.936401
  O      3.183149   -1.537498   -0.817716
  P      2.339670   -0.355426   -0.169966
  S      3.339222    1.256119    0.341991
  O      1.614296   -1.116706    1.008942
  C      2.143649   -1.139369    2.358727
  C      1.015523   -0.904865    3.342159
  S      0.781713   -0.063131   -1.565000
  C      0.186744    1.504947   -0.871898
  S     -0.746655    1.280783    0.653626
  P     -2.425512    0.326592   -0.268240
  S     -2.925899    1.015157   -2.028673
  O     -3.507709    0.328399    0.893447
  C     -3.902615    1.482065    1.660982
  C     -4.356435    2.636835    0.793576
  O     -2.075000   -1.204719   -0.386847
  C     -1.727118   -2.034082    0.747436
  C     -2.898881   -2.913758    1.131033
  H      6.149300   -1.028207   -2.320081
  H      5.559588   -0.204518   -0.869541
  H      5.812851   -1.954600   -0.847328
  H      3.982376   -2.243378   -2.530176
  H      3.719135   -0.479616   -2.525319
  H      2.604359   -2.118656    2.500213
  H      2.908689   -0.360807    2.447741
  H      0.539372    0.052183    3.141926
  H      0.276714   -1.697074    3.264985
  H      1.424433   -0.894595    4.347436
  H     -0.460406    1.953079   -1.626732
  H      1.038415    2.145107   -0.638565
  H     -4.716487    1.108382    2.284732
  H     -3.057723    1.779128    2.288324
  H     -4.723699    3.439588    1.424770
  H     -3.525484    3.007585    0.195099
  H     -5.147203    2.317485    0.118896
  H     -0.870341   -2.623525    0.412899
  H     -1.425231   -1.390061    1.577701
  H     -3.204549   -3.516253    0.280146
  H     -2.604891   -3.566903    1.946694
  H     -3.739419   -2.299846    1.444165

 Total Charge           Charge          ....    0
 Multiplicity           Mult            ....    1
 Number of Electrons    NEL             ....  202
 Basis Dimension        Dim             ....  334

ORBITAL ENERGIES
----------------

  NO   OCC          E(Eh)            E(eV)
   0   2.0000     -88.043872     -2395.7955
   1   2.0000     -88.043175     -2395.7766
   2   2.0000     -87.990668     -2394.3478
   3   2.0000     -87.982809     -2394.1339
   4   2.0000     -76.428671     -2079.7299
   5   2.0000     -76.426745     -2079.6775
   6   2.0000     -18.799215      -511.5527
   7   2.0000     -18.794883      -511.4348
   8   2.0000     -18.794464      -511.4234
   9   2.0000     -18.788491      -511.2608
  10   2.0000      -9.962057      -271.0814
  11   2.0000      -9.956230      -270.9228
  12   2.0000      -9.955392      -270.9000
  13   2.0000      -9.952179      -270.8126
  14   2.0000      -9.950895      -270.7776
  15   2.0000      -9.890298      -269.1287
  16   2.0000      -9.885013      -268.9849
  17   2.0000      -9.884921      -268.9824
  18   2.0000      -9.882703      -268.9220
  19   2.0000      -7.688608      -209.2177
  20   2.0000      -7.688436      -209.2130
  21   2.0000      -7.635625      -207.7759
  22   2.0000      -7.628172      -207.5731
  23   2.0000      -6.426510      -174.8742
  24   2.0000      -6.423941      -174.8043
  25   2.0000      -5.716248      -155.5470
  26   2.0000      -5.716237      -155.5467
  27   2.0000      -5.713167      -155.4632
  28   2.0000      -5.713003      -155.4587
  29   2.0000      -5.705830      -155.2635
  30   2.0000      -5.705395      -155.2517
  31   2.0000      -5.664313      -154.1338
  32   2.0000      -5.657270      -153.9421
  33   2.0000      -5.656261      -153.9147
  34   2.0000      -5.655990      -153.9073
  35   2.0000      -5.648705      -153.7091
  36   2.0000      -5.648188      -153.6950
  37   2.0000      -4.649014      -126.5061
  38   2.0000      -4.648254      -126.4854
  39   2.0000      -4.646985      -126.4509
  40   2.0000      -4.646843      -126.4470
  41   2.0000      -4.645947      -126.4226
  42   2.0000      -4.643924      -126.3676
  43   2.0000      -0.990337       -26.9484
  44   2.0000      -0.989294       -26.9201
  45   2.0000      -0.947792       -25.7907
  46   2.0000      -0.945787       -25.7362
  47   2.0000      -0.766055       -20.8454
  48   2.0000      -0.723806       -19.6958
  49   2.0000      -0.712488       -19.3878
  50   2.0000      -0.692231       -18.8366
  51   2.0000      -0.689255       -18.7556
  52   2.0000      -0.676700       -18.4139
  53   2.0000      -0.651292       -17.7226
  54   2.0000      -0.639618       -17.4049
  55   2.0000      -0.597751       -16.2656
  56   2.0000      -0.591002       -16.0820
  57   2.0000      -0.574687       -15.6380
  58   2.0000      -0.573008       -15.5923
  59   2.0000      -0.563086       -15.3223
  60   2.0000      -0.511732       -13.9249
  61   2.0000      -0.499856       -13.6018
  62   2.0000      -0.482330       -13.1249
  63   2.0000      -0.475090       -12.9279
  64   2.0000      -0.460410       -12.5284
  65   2.0000      -0.444306       -12.0902
  66   2.0000      -0.444055       -12.0833
  67   2.0000      -0.435286       -11.8447
  68   2.0000      -0.432235       -11.7617
  69   2.0000      -0.414746       -11.2858
  70   2.0000      -0.410842       -11.1796
  71   2.0000      -0.402225       -10.9451
  72   2.0000      -0.395363       -10.7584
  73   2.0000      -0.389065       -10.5870
  74   2.0000      -0.382572       -10.4103
  75   2.0000      -0.375806       -10.2262
  76   2.0000      -0.364277        -9.9125
  77   2.0000      -0.358607        -9.7582
  78   2.0000      -0.356368        -9.6973
  79   2.0000      -0.350700        -9.5430
  80   2.0000      -0.348997        -9.4967
  81   2.0000      -0.346224        -9.4212
  82   2.0000      -0.343202        -9.3390
  83   2.0000      -0.340486        -9.2651
  84   2.0000      -0.335875        -9.1396
  85   2.0000      -0.323732        -8.8092
  86   2.0000      -0.314767        -8.5652
  87   2.0000      -0.301015        -8.1910
  88   2.0000      -0.299028        -8.1370
  89   2.0000      -0.292323        -7.9545
  90   2.0000      -0.288367        -7.8469
  91   2.0000      -0.282153        -7.6778
  92   2.0000      -0.276454        -7.5227
  93   2.0000      -0.266798        -7.2599
  94   2.0000      -0.258012        -7.0209
  95   2.0000      -0.236212        -6.4277
  96   2.0000      -0.222314        -6.0495
  97   2.0000      -0.210764        -5.7352
  98   2.0000      -0.204863        -5.5746
  99   2.0000      -0.200191        -5.4475
 100   2.0000      -0.197952        -5.3865
 101   0.0000      -0.044768        -1.2182
 102   0.0000      -0.024656        -0.6709
 103   0.0000      -0.008758        -0.2383
 104   0.0000      -0.002485        -0.0676
 105   0.0000       0.012214         0.3324

MULLIKEN ATOMIC CHARGES
-----------------------
   0 C :   -0.292019
   1 C :   -0.008849
   2 O :   -0.374350
   3 P :    0.606506
   4 S :   -0.340163
   5 O :   -0.362948
   6 C :   -0.012402
   7 C :   -0.294888
   8 S :   -0.054955
   9 C :   -0.377426
  10 S :   -0.104311
  11 P :    0.593117
  12 S :   -0.306975
  13 O :   -0.380259
  14 C :   -0.012154
  15 C :   -0.307683
  16 O :   -0.343495
  17 C :   -0.022726
  18 C :   -0.284485
  19 H :    0.108988
  20 H :    0.129194
  21 H :    0.111313
  22 H :    0.109258
  23 H :    0.104480
  24 H :    0.105255
  25 H :    0.110430
  26 H :    0.128352
  27 H :    0.119757
  28 H :    0.111580
  29 H :    0.196026
  30 H :    0.194455
  31 H :    0.109310
  32 H :    0.113073
  33 H :    0.112000
  34 H :    0.126680
  35 H :    0.127842
  36 H :    0.113069
  37 H :    0.106369
  38 H :    0.120872
  39 H :    0.106067
  40 H :    0.116094
Sum of atomic charges:    0.0000000

LOEWDIN ATOMIC CHARGES
----------------------
   0 C :   -0.362528
   1 C :   -0.115265
   2 O :   -0.248859
   3 P :    0.568081
   4 S :   -0.321718
   5 O :   -0.240937
   6 C :   -0.116059
   7 C :   -0.355790
   8 S :    0.099539
   9 C :   -0.488781
  10 S :    0.068209
  11 P :    0.568000
  12 S :   -0.304477
  13 O :   -0.245323
  14 C :   -0.114730
  15 C :   -0.368545
  16 O :   -0.228377
  17 C :   -0.117203
  18 C :   -0.357148
  19 H :    0.129442
  20 H :    0.124948
  21 H :    0.124834
  22 H :    0.119669
  23 H :    0.108960
  24 H :    0.115462
  25 H :    0.107411
  26 H :    0.124662
  27 H :    0.121814
  28 H :    0.130866
  29 H :    0.129338
  30 H :    0.127916
  31 H :    0.121112
  32 H :    0.107991
  33 H :    0.130511
  34 H :    0.122108
  35 H :    0.131140
  36 H :    0.119646
  37 H :    0.102606
  38 H :    0.129182
  39 H :    0.127204
  40 H :    0.125085

  Mayer bond orders larger than 0.100000
B(  0-C ,  1-C ) :   1.1672 B(  0-C , 19-H ) :   0.9397 B(  0-C , 20-H ) :   0.9333
B(  0-C , 21-H ) :   0.9477 B(  1-C ,  2-O ) :   0.9005 B(  1-C , 22-H ) :   0.9357
B(  1-C , 23-H ) :   0.9153 B(  2-O ,  3-P ) :   1.1181 B(  3-P ,  4-S ) :   1.5933
B(  3-P ,  5-O ) :   1.1319 B(  3-P ,  8-S ) :   0.9789 B(  4-S ,  8-S ) :   0.1093
B(  5-O ,  6-C ) :   0.8951 B(  6-C ,  7-C ) :   1.1702 B(  6-C , 24-H ) :   0.9327
B(  6-C , 25-H ) :   0.9003 B(  7-C , 26-H ) :   0.9415 B(  7-C , 27-H ) :   0.9405
B(  7-C , 28-H ) :   0.9382 B(  8-S ,  9-C ) :   1.0066 B(  9-C , 10-S ) :   1.0070
B(  9-C , 29-H ) :   0.8700 B(  9-C , 30-H ) :   0.8686 B( 10-S , 11-P ) :   0.9365
B( 10-S , 12-S ) :   0.1096 B( 11-P , 12-S ) :   1.6477 B( 11-P , 13-O ) :   1.0803
B( 11-P , 16-O ) :   1.1446 B( 13-O , 14-C ) :   0.9111 B( 14-C , 15-C ) :   1.1678
B( 14-C , 31-H ) :   0.9330 B( 14-C , 32-H ) :   0.9260 B( 15-C , 33-H ) :   0.9348
B( 15-C , 34-H ) :   0.9319 B( 15-C , 35-H ) :   0.9431 B( 16-O , 17-C ) :   0.8900
B( 17-C , 18-C ) :   1.1595 B( 17-C , 36-H ) :   0.9319 B( 17-C , 37-H ) :   0.9054
B( 18-C , 38-H ) :   0.9469 B( 18-C , 39-H ) :   0.9416 B( 18-C , 40-H ) :   0.9440

Dispersion correction           -0.064777690
FINAL SINGLE POINT ENERGY     -2929.521891195149

DIPOLE MOMENT
-------------

Method             : SCF
Type of density    : Electron Density
Multiplicity       :   1
Irrep              :   0
Energy             : -2929.6416051356195567 Eh
Relativity type    :
Basis              : AO
                                X                 Y                 Z
Electronic contribution:     -0.354679110       7.407229342     -14.341043225
Nuclear contribution   :      0.558515628      -8.172812914      15.786152828
                        -----------------------------------------
Total Dipole Moment    :      0.203836519      -0.765583572       1.445109603
                        -----------------------------------------
Magnitude (a.u.)       :      1.648031946
Magnitude (Debye)      :      4.188964305

Rotational constants in cm-1:             0.013001             0.004705             0.004447
Rotational constants in MHz :           389.763840           141.045640           133.325920

                             ****ORCA TERMINATED NORMALLY****
TOTAL RUN TIME: 0 days 0 hours 0 minutes 21 seconds 148 msec
