                         Program Version 6.0.0  -   RELEASE  -
|  1> ! pbe def2-sv(p) def2/J RI DEFGRID1 loosescf d4 GCP(DFT/SV(P)) printgap
|  2> %output
|  3>     printlevel normal
|  4> end
|  5> * xyz 0 1
|  6> C 3.0282730936 -2.4076537124 2.103623543
|  7> C 1.6692630294 -2.2285538191 1.4619801334
|  8> O 1.4154832406 -0.843765315 1.1400140737
|  9> P 2.2120861851 -0.0926000143 -0.0019152967
| 10> S 2.8382084583 -1.1914892833 -1.5056818248
| 11> O 3.3503336376 0.6384906084 0.8267191113
| 12> C 4.388233052 1.4000243541 0.1776494517
| 13> C 5.5179738307 1.5865257845 1.1701983473
| 14> S 0.8779861388 1.4741411594 -0.4850608102
| 15> C -0.058339265 0.5525151542 -1.7373220048
| 16> S -1.0116135232 -0.8136755516 -1.0443872084
| 17> P -2.727003729 0.281985103 -0.3685126882
| 18> S -2.9286246226 2.0493603316 -1.1868231975
| 19> O -2.7004349764 0.1754369461 1.2212852191
| 20> C -1.6605453017 0.6550168795 2.0887264232
| 21> C -1.6248046211 2.1675804893 2.1715379633
| 22> O -3.9842513245 -0.600812371 -0.7046883548
| 23> C -4.3921717472 -1.8092196582 -0.0171088422
| 24> C -3.3732769786 -2.9214688925 -0.1437274036
| 25> H 3.8086487189 -2.1586209531 1.3853941351
| 26> H 3.1247589287 -1.7555235042 2.9675239374
| 27> H 3.1493671127 -3.4413149602 2.411975412
| 28> H 0.8595214411 -2.4925298879 2.1430925893
| 29> H 1.5897031495 -2.8175072816 0.5428170117
| 30> H 4.7195439009 0.8524600083 -0.7113548269
| 31> H 3.9656190344 2.3599179078 -0.1315354737
| 32> H 6.2977906541 2.1865735335 0.7129208448
| 33> H 5.1491840544 2.0909294655 2.0584093798
| 34> H 5.9292233846 0.6228698213 1.4567787111
| 35> H 0.6362089301 0.1191292372 -2.4563851812
| 36> H -0.7359106395 1.2662845869 -2.2079680564
| 37> H -1.9109164661 0.2138677585 3.0557313132
| 38> H -0.6983786193 0.2611831041 1.7471157468
| 39> H -1.3443299873 2.5975012722 1.2117699985
| 40> H -2.6023473592 2.5521406683 2.4509212184
| 41> H -0.8928046226 2.4662777922 2.9149882138
| 42> H -4.5758867896 -1.5605032771 1.0295128721
| 43> H -5.3311777509 -2.0673831989 -0.5089956483
| 44> H -2.4488278541 -2.6496263574 0.3631013522
| 45> H -3.7728721456 -3.822939991 0.3103437745
| 46> H -3.1502412208 -3.1156345484 -1.1898037865
| 47> *
| 48>
| 49>                          ****END OF INPUT****

CARTESIAN COORDINATES (ANGSTROEM)
---------------------------------
  C      3.028273   -2.407654    2.103624
  C      1.669263   -2.228554    1.461980
  O      1.415483   -0.843765    1.140014
  P      2.212086   -0.092600   -0.001915
  S      2.838208   -1.191489   -1.505682
  O      3.350334    0.638491    0.826719
  C      4.388233    1.400024    0.177649
  C      5.517974    1.586526    1.170198
  S      0.877986    1.474141   -0.485061
  C     -0.058339    0.552515   -1.737322
  S     -1.011614   -0.813676   -1.044387
  P     -2.727004    0.281985   -0.368513
  S     -2.928625    2.049360   -1.186823
  O     -2.700435    0.175437    1.221285
  C     -1.660545    0.655017    2.088726
  C     -1.624805    2.167580    2.171538
  O     -3.984251   -0.600812   -0.704688
  C     -4.392172   -1.809220   -0.017109
  C     -3.373277   -2.921469   -0.143727
  H      3.808649   -2.158621    1.385394
  H      3.124759   -1.755524    2.967524
  H      3.149367   -3.441315    2.411975
  H      0.859521   -2.492530    2.143093
  H      1.589703   -2.817507    0.542817
  H      4.719544    0.852460   -0.711355
  H      3.965619    2.359918   -0.131535
  H      6.297791    2.186574    0.712921
  H      5.149184    2.090929    2.058409
  H      5.929223    0.622870    1.456779
  H      0.636209    0.119129   -2.456385
  H     -0.735911    1.266285   -2.207968
  H     -1.910916    0.213868    3.055731
  H     -0.698379    0.261183    1.747116
  H     -1.344330    2.597501    1.211770
  H     -2.602347    2.552141    2.450921
  H     -0.892805    2.466278    2.914988
  H     -4.575887   -1.560503    1.029513
  H     -5.331178   -2.067383   -0.508996
  H     -2.448828   -2.649626    0.363101
  H     -3.772872   -3.822940    0.310344
  H     -3.150241   -3.115635   -1.189804

 Total Charge           Charge          ....    0
 Multiplicity           Mult            ....    1
 Number of Electrons    NEL             ....  202
 Basis Dimension        Dim             ....  334

ORBITAL ENERGIES
----------------

  NO   OCC          E(Eh)            E(eV)
   0   2.0000     -88.044688     -2395.8178
   1   2.0000     -88.040801     -2395.7120
   2   2.0000     -87.993546     -2394.4261
   3   2.0000     -87.982445     -2394.1240
   4   2.0000     -76.431159     -2079.7976
   5   2.0000     -76.425710     -2079.6493
   6   2.0000     -18.799307      -511.5552
   7   2.0000     -18.798319      -511.5283
   8   2.0000     -18.791645      -511.3467
   9   2.0000     -18.791216      -511.3350
  10   2.0000      -9.958262      -270.9781
  11   2.0000      -9.957972      -270.9702
  12   2.0000      -9.957515      -270.9578
  13   2.0000      -9.950021      -270.7538
  14   2.0000      -9.948383      -270.7093
  15   2.0000      -9.892922      -269.2001
  16   2.0000      -9.892890      -269.1992
  17   2.0000      -9.889175      -269.0981
  18   2.0000      -9.874312      -268.6937
  19   2.0000      -7.689689      -209.2471
  20   2.0000      -7.685281      -209.1271
  21   2.0000      -7.638434      -207.8524
  22   2.0000      -7.627671      -207.5595
  23   2.0000      -6.428945      -174.9405
  24   2.0000      -6.422847      -174.7745
  25   2.0000      -5.717438      -155.5794
  26   2.0000      -5.714292      -155.4938
  27   2.0000      -5.713204      -155.4642
  28   2.0000      -5.709735      -155.3698
  29   2.0000      -5.706704      -155.2873
  30   2.0000      -5.702400      -155.1702
  31   2.0000      -5.667193      -154.2122
  32   2.0000      -5.659062      -153.9909
  33   2.0000      -5.658780      -153.9832
  34   2.0000      -5.656713      -153.9270
  35   2.0000      -5.648053      -153.6913
  36   2.0000      -5.647884      -153.6867
  37   2.0000      -4.651355      -126.5698
  38   2.0000      -4.650745      -126.5532
  39   2.0000      -4.649445      -126.5178
  40   2.0000      -4.645753      -126.4174
  41   2.0000      -4.644605      -126.3861
  42   2.0000      -4.643083      -126.3447
  43   2.0000      -0.994202       -27.0536
  44   2.0000      -0.987201       -26.8631
  45   2.0000      -0.953309       -25.9409
  46   2.0000      -0.942078       -25.6353
  47   2.0000      -0.764080       -20.7917
  48   2.0000      -0.724923       -19.7262
  49   2.0000      -0.713627       -19.4188
  50   2.0000      -0.694330       -18.8937
  51   2.0000      -0.688884       -18.7455
  52   2.0000      -0.675757       -18.3883
  53   2.0000      -0.652111       -17.7448
  54   2.0000      -0.638607       -17.3774
  55   2.0000      -0.603841       -16.4314
  56   2.0000      -0.591732       -16.1018
  57   2.0000      -0.578447       -15.7403
  58   2.0000      -0.571075       -15.5397
  59   2.0000      -0.562404       -15.3038
  60   2.0000      -0.509663       -13.8686
  61   2.0000      -0.495714       -13.4891
  62   2.0000      -0.483753       -13.1636
  63   2.0000      -0.471431       -12.8283
  64   2.0000      -0.460109       -12.5202
  65   2.0000      -0.448951       -12.2166
  66   2.0000      -0.443397       -12.0654
  67   2.0000      -0.438907       -11.9433
  68   2.0000      -0.424767       -11.5585
  69   2.0000      -0.423343       -11.5198
  70   2.0000      -0.410979       -11.1833
  71   2.0000      -0.402287       -10.9468
  72   2.0000      -0.398022       -10.8307
  73   2.0000      -0.386209       -10.5093
  74   2.0000      -0.384984       -10.4759
  75   2.0000      -0.377372       -10.2688
  76   2.0000      -0.366513        -9.9733
  77   2.0000      -0.361763        -9.8441
  78   2.0000      -0.356898        -9.7117
  79   2.0000      -0.353089        -9.6080
  80   2.0000      -0.351793        -9.5728
  81   2.0000      -0.349168        -9.5013
  82   2.0000      -0.342929        -9.3316
  83   2.0000      -0.339196        -9.2300
  84   2.0000      -0.331769        -9.0279
  85   2.0000      -0.324235        -8.8229
  86   2.0000      -0.312743        -8.5102
  87   2.0000      -0.305316        -8.3081
  88   2.0000      -0.295937        -8.0529
  89   2.0000      -0.293598        -7.9892
  90   2.0000      -0.287202        -7.8152
  91   2.0000      -0.281025        -7.6471
  92   2.0000      -0.274924        -7.4811
  93   2.0000      -0.267139        -7.2692
  94   2.0000      -0.257633        -7.0105
  95   2.0000      -0.237827        -6.4716
  96   2.0000      -0.218503        -5.9458
  97   2.0000      -0.215187        -5.8555
  98   2.0000      -0.206719        -5.6251
  99   2.0000      -0.200045        -5.4435
 100   2.0000      -0.197209        -5.3663
 101   0.0000      -0.045966        -1.2508
 102   0.0000      -0.026486        -0.7207
 103   0.0000      -0.003120        -0.0849
 104   0.0000      -0.000126        -0.0034
 105   0.0000       0.008424         0.2292

MULLIKEN ATOMIC CHARGES
-----------------------
   0 C :   -0.307996
   1 C :   -0.002016
   2 O :   -0.355552
   3 P :    0.613752
   4 S :   -0.332983
   5 O :   -0.374601
   6 C :   -0.014675
   7 C :   -0.281562
   8 S :   -0.087174
   9 C :   -0.353108
  10 S :   -0.116812
  11 P :    0.620156
  12 S :   -0.312139
  13 O :   -0.384049
  14 C :   -0.039842
  15 C :   -0.303396
  16 O :   -0.360688
  17 C :    0.006480
  18 C :   -0.334202
  19 H :    0.124486
  20 H :    0.116835
  21 H :    0.114044
  22 H :    0.103610
  23 H :    0.115892
  24 H :    0.108549
  25 H :    0.106460
  26 H :    0.114668
  27 H :    0.118053
  28 H :    0.119666
  29 H :    0.194573
  30 H :    0.195816
  31 H :    0.096539
  32 H :    0.137910
  33 H :    0.134682
  34 H :    0.112961
  35 H :    0.104035
  36 H :    0.111429
  37 H :    0.112462
  38 H :    0.128231
  39 H :    0.117466
  40 H :    0.132042
Sum of atomic charges:    0.0000000

LOEWDIN ATOMIC CHARGES
----------------------
   0 C :   -0.365107
   1 C :   -0.116463
   2 O :   -0.234301
   3 P :    0.569889
   4 S :   -0.320612
   5 O :   -0.246119
   6 C :   -0.120042
   7 C :   -0.350126
   8 S :    0.091980
   9 C :   -0.488392
  10 S :    0.074964
  11 P :    0.570078
  12 S :   -0.299597
  13 O :   -0.246829
  14 C :   -0.124746
  15 C :   -0.367746
  16 O :   -0.235645
  17 C :   -0.108303
  18 C :   -0.371447
  19 H :    0.122527
  20 H :    0.126500
  21 H :    0.131475
  22 H :    0.117373
  23 H :    0.112330
  24 H :    0.109629
  25 H :    0.111791
  26 H :    0.132266
  27 H :    0.127683
  28 H :    0.128040
  29 H :    0.130187
  30 H :    0.128536
  31 H :    0.115056
  32 H :    0.105980
  33 H :    0.116830
  34 H :    0.125198
  35 H :    0.127829
  36 H :    0.115276
  37 H :    0.123759
  38 H :    0.116286
  39 H :    0.133523
  40 H :    0.130492

  Mayer bond orders larger than 0.100000
B(  0-C ,  1-C ) :   1.1650 B(  0-C , 19-H ) :   0.9344 B(  0-C , 20-H ) :   0.9456
B(  0-C , 21-H ) :   0.9387 B(  1-C ,  2-O ) :   0.8974 B(  1-C , 22-H ) :   0.9335
B(  1-C , 23-H ) :   0.9164 B(  2-O ,  3-P ) :   1.1207 B(  3-P ,  4-S ) :   1.6014
B(  3-P ,  5-O ) :   1.1124 B(  3-P ,  8-S ) :   0.9680 B(  4-S ,  8-S ) :   0.1083
B(  5-O ,  6-C ) :   0.9012 B(  6-C ,  7-C ) :   1.1610 B(  6-C , 24-H ) :   0.9106
B(  6-C , 25-H ) :   0.9289 B(  7-C , 26-H ) :   0.9416 B(  7-C , 27-H ) :   0.9503
B(  7-C , 28-H ) :   0.9515 B(  8-S ,  9-C ) :   0.9968 B(  9-C , 10-S ) :   1.0161
B(  9-C , 29-H ) :   0.8751 B(  9-C , 30-H ) :   0.8603 B( 10-S , 11-P ) :   0.9288
B( 10-S , 12-S ) :   0.1138 B( 11-P , 12-S ) :   1.6506 B( 11-P , 13-O ) :   1.0746
B( 11-P , 16-O ) :   1.1439 B( 13-O , 14-C ) :   0.9070 B( 14-C , 15-C ) :   1.1677
B( 14-C , 31-H ) :   0.9345 B( 14-C , 32-H ) :   0.8977 B( 15-C , 33-H ) :   0.9280
B( 15-C , 34-H ) :   0.9452 B( 15-C , 35-H ) :   0.9381 B( 16-O , 17-C ) :   0.9009
B( 17-C , 18-C ) :   1.1693 B( 17-C , 36-H ) :   0.9269 B( 17-C , 37-H ) :   0.9337
B( 18-C , 38-H ) :   0.9319 B( 18-C , 39-H ) :   0.9356 B( 18-C , 40-H ) :   0.9423

Dispersion correction           -0.064852915
FINAL SINGLE POINT ENERGY     -2929.523265996302

DIPOLE MOMENT
-------------

Method             : SCF
Type of density    : Electron Density
Multiplicity       :   1
Irrep              :   0
Energy             : -2929.6437524513357857 Eh
Relativity type    :
Basis              : AO
                                X                 Y                 Z
Electronic contribution:    -10.747202276       7.044071625     -17.278777021
Nuclear contribution   :     11.476561064      -8.002249929      18.837191247
                        -----------------------------------------
Total Dipole Moment    :      0.729358788      -0.958178304       1.558414227
                        -----------------------------------------
Magnitude (a.u.)       :      1.969447843
Magnitude (Debye)      :      5.005938588

Rotational constants in cm-1:             0.012804             0.004762             0.004408
Rotational constants in MHz :           383.866009           142.757753           132.161115

                             ****ORCA TERMINATED NORMALLY****
TOTAL RUN TIME: 0 days 0 hours 0 minutes 21 seconds 201 msec
