                         Program Version 6.0.0  -   RELEASE  -
|  1> ! pbe def2-sv(p) def2/J RI DEFGRID1 loosescf d4 GCP(DFT/SV(P)) printgap
|  2> %output
|  3>     printlevel normal
|  4> end
|  5> * xyz 0 1
|  6> C 1.1150813918 0.7513691399 2.957075455
|  7> C 2.3500458215 0.8321814833 2.0824243077
|  8> O 2.7332886438 -0.4578406957 1.5765516909
|  9> P 2.1025844303 -1.1834910217 0.3067040681
| 10> S 0.2849865354 -1.9066790478 0.4540352119
| 11> O 3.1102916198 -2.3727021506 0.105594497
| 12> C 4.5463621724 -2.3093084361 0.2941717004
| 13> C 5.2196696284 -1.3708698402 -0.6839719364
| 14> S 2.3896945359 0.1837272943 -1.3071983309
| 15> C 0.6816749293 0.5586042222 -1.7305018295
| 16> S -0.1291637752 1.6517961255 -0.503156135
| 17> P -1.9953664452 0.6913327133 -0.3045786387
| 18> S -2.4520113183 -0.6427741374 -1.6729859868
| 19> O -3.0050193978 1.9191803835 -0.2364436245
| 20> C -3.3816449746 2.6507971422 -1.4185672401
| 21> C -4.6235531454 3.4558775494 -1.0929065884
| 22> O -1.9907216971 0.2527155019 1.2133096292
| 23> C -2.8171349813 -0.8184195618 1.7076614474
| 24> C -4.2876358583 -0.4678531539 1.6374940234
| 25> H 0.9113669615 1.7300679991 3.3793114787
| 26> H 0.2523471707 0.4372186367 2.3725242735
| 27> H 1.2682622338 0.0343630145 3.7593373073
| 28> H 3.2192840029 1.1560115524 2.6581414125
| 29> H 2.1891573889 1.516403076 1.2429676963
| 30> H 4.7412782148 -2.0110392212 1.3255486451
| 31> H 4.8596916248 -3.3429938297 0.140129099
| 32> H 6.295657041 -1.4430039172 -0.5589092322
| 33> H 4.9593837161 -1.6364667751 -1.7051867263
| 34> H 4.9102723431 -0.3430095063 -0.5025932292
| 35> H 0.0992414513 -0.3629805848 -1.8065833991
| 36> H 0.7202341928 1.080291736 -2.6833096815
| 37> H -2.5476349669 3.3008049113 -1.698447162
| 38> H -3.5656700382 1.9350127738 -2.2272796491
| 39> H -4.9062739806 4.041061483 -1.9616892077
| 40> H -5.4410267518 2.7922096055 -0.826040751
| 41> H -4.4232632072 4.1212002311 -0.2582657025
| 42> H -2.5939629465 -1.7208871347 1.1284154086
| 43> H -2.4770162722 -0.9566701128 2.7348829076
| 44> H -4.8695798243 -1.2626163896 2.0933338725
| 45> H -4.4732881266 0.467593385 2.1586451651
| 46> H -4.5901876851 -0.3591518595 0.5963732189
| 47> *
| 48>
| 49>                          ****END OF INPUT****

CARTESIAN COORDINATES (ANGSTROEM)
---------------------------------
  C      1.115081    0.751369    2.957075
  C      2.350046    0.832181    2.082424
  O      2.733289   -0.457841    1.576552
  P      2.102584   -1.183491    0.306704
  S      0.284987   -1.906679    0.454035
  O      3.110292   -2.372702    0.105594
  C      4.546362   -2.309308    0.294172
  C      5.219670   -1.370870   -0.683972
  S      2.389695    0.183727   -1.307198
  C      0.681675    0.558604   -1.730502
  S     -0.129164    1.651796   -0.503156
  P     -1.995366    0.691333   -0.304579
  S     -2.452011   -0.642774   -1.672986
  O     -3.005019    1.919180   -0.236444
  C     -3.381645    2.650797   -1.418567
  C     -4.623553    3.455878   -1.092907
  O     -1.990722    0.252716    1.213310
  C     -2.817135   -0.818420    1.707661
  C     -4.287636   -0.467853    1.637494
  H      0.911367    1.730068    3.379311
  H      0.252347    0.437219    2.372524
  H      1.268262    0.034363    3.759337
  H      3.219284    1.156012    2.658141
  H      2.189157    1.516403    1.242968
  H      4.741278   -2.011039    1.325549
  H      4.859692   -3.342994    0.140129
  H      6.295657   -1.443004   -0.558909
  H      4.959384   -1.636467   -1.705187
  H      4.910272   -0.343010   -0.502593
  H      0.099241   -0.362981   -1.806583
  H      0.720234    1.080292   -2.683310
  H     -2.547635    3.300805   -1.698447
  H     -3.565670    1.935013   -2.227280
  H     -4.906274    4.041061   -1.961689
  H     -5.441027    2.792210   -0.826041
  H     -4.423263    4.121200   -0.258266
  H     -2.593963   -1.720887    1.128415
  H     -2.477016   -0.956670    2.734883
  H     -4.869580   -1.262616    2.093334
  H     -4.473288    0.467593    2.158645
  H     -4.590188   -0.359152    0.596373

 Total Charge           Charge          ....    0
 Multiplicity           Mult            ....    1
 Number of Electrons    NEL             ....  202
 Basis Dimension        Dim             ....  334

ORBITAL ENERGIES
----------------

  NO   OCC          E(Eh)            E(eV)
   0   2.0000     -88.045496     -2395.8397
   1   2.0000     -88.041199     -2395.7228
   2   2.0000     -87.984958     -2394.1924
   3   2.0000     -87.977796     -2393.9975
   4   2.0000     -76.424045     -2079.6040
   5   2.0000     -76.423689     -2079.5943
   6   2.0000     -18.791170      -511.3337
   7   2.0000     -18.790282      -511.3096
   8   2.0000     -18.787556      -511.2354
   9   2.0000     -18.786783      -511.2144
  10   2.0000      -9.957364      -270.9536
  11   2.0000      -9.952531      -270.8221
  12   2.0000      -9.950405      -270.7643
  13   2.0000      -9.949176      -270.7308
  14   2.0000      -9.946296      -270.6525
  15   2.0000      -9.892753      -269.1955
  16   2.0000      -9.886700      -269.0308
  17   2.0000      -9.878862      -268.8175
  18   2.0000      -9.873632      -268.6752
  19   2.0000      -7.690164      -209.2600
  20   2.0000      -7.686129      -209.1502
  21   2.0000      -7.629825      -207.6181
  22   2.0000      -7.622604      -207.4216
  23   2.0000      -6.421226      -174.7304
  24   2.0000      -6.421102      -174.7271
  25   2.0000      -5.718167      -155.5992
  26   2.0000      -5.714366      -155.4958
  27   2.0000      -5.713928      -155.4839
  28   2.0000      -5.710709      -155.3963
  29   2.0000      -5.707417      -155.3067
  30   2.0000      -5.703097      -155.1892
  31   2.0000      -5.658737      -153.9821
  32   2.0000      -5.651749      -153.7919
  33   2.0000      -5.650526      -153.7586
  34   2.0000      -5.649925      -153.7423
  35   2.0000      -5.642934      -153.5520
  36   2.0000      -5.642825      -153.5491
  37   2.0000      -4.644095      -126.3722
  38   2.0000      -4.643295      -126.3505
  39   2.0000      -4.643092      -126.3449
  40   2.0000      -4.642858      -126.3386
  41   2.0000      -4.641916      -126.3130
  42   2.0000      -4.641366      -126.2980
  43   2.0000      -0.986928       -26.8557
  44   2.0000      -0.983995       -26.7759
  45   2.0000      -0.941984       -25.6327
  46   2.0000      -0.941648       -25.6235
  47   2.0000      -0.760556       -20.6958
  48   2.0000      -0.720790       -19.6137
  49   2.0000      -0.710670       -19.3383
  50   2.0000      -0.689059       -18.7502
  51   2.0000      -0.684741       -18.6327
  52   2.0000      -0.673488       -18.3265
  53   2.0000      -0.648338       -17.6422
  54   2.0000      -0.632979       -17.2242
  55   2.0000      -0.597688       -16.2639
  56   2.0000      -0.587359       -15.9829
  57   2.0000      -0.576929       -15.6990
  58   2.0000      -0.564298       -15.3553
  59   2.0000      -0.559890       -15.2354
  60   2.0000      -0.502851       -13.6833
  61   2.0000      -0.495541       -13.4844
  62   2.0000      -0.472871       -12.8675
  63   2.0000      -0.471959       -12.8427
  64   2.0000      -0.450057       -12.2467
  65   2.0000      -0.448189       -12.1958
  66   2.0000      -0.440985       -11.9998
  67   2.0000      -0.431524       -11.7424
  68   2.0000      -0.426290       -11.5999
  69   2.0000      -0.418095       -11.3769
  70   2.0000      -0.412583       -11.2269
  71   2.0000      -0.397651       -10.8206
  72   2.0000      -0.392999       -10.6941
  73   2.0000      -0.386892       -10.5279
  74   2.0000      -0.382395       -10.4055
  75   2.0000      -0.372302       -10.1309
  76   2.0000      -0.361211        -9.8290
  77   2.0000      -0.356248        -9.6940
  78   2.0000      -0.352085        -9.5807
  79   2.0000      -0.350270        -9.5313
  80   2.0000      -0.344371        -9.3708
  81   2.0000      -0.341784        -9.3004
  82   2.0000      -0.341240        -9.2856
  83   2.0000      -0.333352        -9.0710
  84   2.0000      -0.328992        -8.9523
  85   2.0000      -0.314364        -8.5543
  86   2.0000      -0.310506        -8.4493
  87   2.0000      -0.297863        -8.1053
  88   2.0000      -0.294151        -8.0043
  89   2.0000      -0.288973        -7.8633
  90   2.0000      -0.281881        -7.6704
  91   2.0000      -0.275676        -7.5015
  92   2.0000      -0.270843        -7.3700
  93   2.0000      -0.262158        -7.1337
  94   2.0000      -0.255331        -6.9479
  95   2.0000      -0.237795        -6.4707
  96   2.0000      -0.219382        -5.9697
  97   2.0000      -0.211223        -5.7477
  98   2.0000      -0.200299        -5.4504
  99   2.0000      -0.192931        -5.2499
 100   2.0000      -0.186448        -5.0735
 101   0.0000      -0.042371        -1.1530
 102   0.0000      -0.032414        -0.8820
 103   0.0000      -0.009468        -0.2576
 104   0.0000       0.007595         0.2067
 105   0.0000       0.018669         0.5080

MULLIKEN ATOMIC CHARGES
-----------------------
   0 C :   -0.323644
   1 C :   -0.009962
   2 O :   -0.382389
   3 P :    0.613541
   4 S :   -0.308604
   5 O :   -0.356384
   6 C :    0.002882
   7 C :   -0.332119
   8 S :   -0.135301
   9 C :   -0.326421
  10 S :   -0.117542
  11 P :    0.624682
  12 S :   -0.318471
  13 O :   -0.374805
  14 C :   -0.009017
  15 C :   -0.280027
  16 O :   -0.356714
  17 C :   -0.004057
  18 C :   -0.303284
  19 H :    0.103498
  20 H :    0.160033
  21 H :    0.109112
  22 H :    0.098778
  23 H :    0.107963
  24 H :    0.112071
  25 H :    0.112464
  26 H :    0.118241
  27 H :    0.130168
  28 H :    0.129856
  29 H :    0.214501
  30 H :    0.178315
  31 H :    0.096821
  32 H :    0.102295
  33 H :    0.110724
  34 H :    0.118948
  35 H :    0.116057
  36 H :    0.123481
  37 H :    0.105596
  38 H :    0.111485
  39 H :    0.114143
  40 H :    0.123084
Sum of atomic charges:   -0.0000000

LOEWDIN ATOMIC CHARGES
----------------------
   0 C :   -0.370340
   1 C :   -0.118541
   2 O :   -0.246376
   3 P :    0.562490
   4 S :   -0.292902
   5 O :   -0.234133
   6 C :   -0.109838
   7 C :   -0.370837
   8 S :    0.075161
   9 C :   -0.478783
  10 S :    0.072532
  11 P :    0.574425
  12 S :   -0.306388
  13 O :   -0.249166
  14 C :   -0.123564
  15 C :   -0.350253
  16 O :   -0.229574
  17 C :   -0.114961
  18 C :   -0.366322
  19 H :    0.127898
  20 H :    0.125594
  21 H :    0.124195
  22 H :    0.114984
  23 H :    0.097631
  24 H :    0.115257
  25 H :    0.123706
  26 H :    0.134002
  27 H :    0.130113
  28 H :    0.116501
  29 H :    0.126610
  30 H :    0.135171
  31 H :    0.106598
  32 H :    0.106154
  33 H :    0.130134
  34 H :    0.127713
  35 H :    0.126696
  36 H :    0.111980
  37 H :    0.119484
  38 H :    0.130499
  39 H :    0.125255
  40 H :    0.121194

  Mayer bond orders larger than 0.100000
B(  0-C ,  1-C ) :   1.1677 B(  0-C , 19-H ) :   0.9385 B(  0-C , 20-H ) :   0.9199
B(  0-C , 21-H ) :   0.9451 B(  1-C ,  2-O ) :   0.9122 B(  1-C , 22-H ) :   0.9348
B(  1-C , 23-H ) :   0.9062 B(  2-O ,  3-P ) :   1.0729 B(  3-P ,  4-S ) :   1.6728
B(  3-P ,  5-O ) :   1.1430 B(  3-P ,  8-S ) :   0.9265 B(  4-S ,  8-S ) :   0.1114
B(  5-O ,  6-C ) :   0.9006 B(  6-C ,  7-C ) :   1.1690 B(  6-C , 24-H ) :   0.9263
B(  6-C , 25-H ) :   0.9336 B(  7-C , 26-H ) :   0.9356 B(  7-C , 27-H ) :   0.9431
B(  7-C , 28-H ) :   0.9315 B(  8-S ,  9-C ) :   1.0138 B(  9-C , 10-S ) :   0.9835
B(  9-C , 29-H ) :   0.8462 B(  9-C , 30-H ) :   0.9084 B( 10-S , 11-P ) :   0.9562
B( 10-S , 12-S ) :   0.1155 B( 11-P , 12-S ) :   1.6023 B( 11-P , 13-O ) :   1.0983
B( 11-P , 16-O ) :   1.1353 B( 13-O , 14-C ) :   0.9098 B( 14-C , 15-C ) :   1.1603
B( 14-C , 31-H ) :   0.9254 B( 14-C , 32-H ) :   0.9087 B( 15-C , 33-H ) :   0.9423
B( 15-C , 34-H ) :   0.9518 B( 15-C , 35-H ) :   0.9506 B( 16-O , 17-C ) :   0.8957
B( 17-C , 18-C ) :   1.1635 B( 17-C , 36-H ) :   0.9166 B( 17-C , 37-H ) :   0.9343
B( 18-C , 38-H ) :   0.9388 B( 18-C , 39-H ) :   0.9451 B( 18-C , 40-H ) :   0.9333

Dispersion correction           -0.066163315
FINAL SINGLE POINT ENERGY     -2929.519308613625

DIPOLE MOMENT
-------------

Method             : SCF
Type of density    : Electron Density
Multiplicity       :   1
Irrep              :   0
Energy             : -2929.6386880836189448 Eh
Relativity type    :
Basis              : AO
                                X                 Y                 Z
Electronic contribution:      5.949974296      -7.958477254      -8.467648519
Nuclear contribution   :     -5.209988463       9.056900718       8.907684505
                        -----------------------------------------
Total Dipole Moment    :      0.739985833       1.098423464       0.440035986
                        -----------------------------------------
Magnitude (a.u.)       :      1.395616282
Magnitude (Debye)      :      3.547374675

Rotational constants in cm-1:             0.014492             0.004646             0.004414
Rotational constants in MHz :           434.447055           139.269274           132.340779

                             ****ORCA TERMINATED NORMALLY****
TOTAL RUN TIME: 0 days 0 hours 0 minutes 21 seconds 171 msec
