                         Program Version 6.0.0  -   RELEASE  -
|  1> ! pbe def2-sv(p) def2/J RI DEFGRID1 loosescf d4 GCP(DFT/SV(P)) printgap
|  2> %output
|  3>     printlevel normal
|  4> end
|  5> * xyz 0 1
|  6> C 5.3718160114 -2.2462677723 -0.8620169504
|  7> C 4.2382443474 -1.3503655648 -1.3178777347
|  8> O 3.4779934998 -0.9732591824 -0.1502286389
|  9> P 2.4634518946 0.2478918007 -0.1821371292
| 10> S 3.1731298164 1.9541267136 -0.8181563058
| 11> O 1.9828542613 0.323874633 1.3105687351
| 12> C 1.4636814903 -0.8169264114 2.0438934308
| 13> C 0.5484480016 -0.287463132 3.1272476814
| 14> S 0.8439059723 -0.5347050486 -1.3372599713
| 15> C -0.0019581088 1.045697528 -1.5594819614
| 16> S -0.8700010719 1.5980124017 -0.0719401077
| 17> P -2.427462942 0.1629557901 -0.1881572128
| 18> S -3.110017343 -0.2166694408 -1.9792016674
| 19> O -3.574624627 0.6953738896 0.7638732815
| 20> C -3.4533127701 0.8378368703 2.200599376
| 21> C -2.9973312679 2.2319885957 2.5804968959
| 22> O -1.7325240482 -1.0632433599 0.5690152674
| 23> C -2.0524160662 -2.4307190153 0.2482907007
| 24> C -3.4234347546 -2.8120134706 0.7680890039
| 25> H 4.9733490417 -3.1250379763 -0.3637678307
| 26> H 5.9510542211 -2.5541764707 -1.7261748192
| 27> H 6.0161888412 -1.7099629945 -0.1711966468
| 28> H 3.5672390167 -1.870177347 -2.0068880408
| 29> H 4.6117561773 -0.440642162 -1.7989724402
| 30> H 0.9269667206 -1.4658490857 1.3455387678
| 31> H 2.3169170553 -1.3563300558 2.4581523591
| 32> H -0.2854121389 0.2455562684 2.6776580071
| 33> H 0.1736097905 -1.1176766654 3.7169966101
| 34> H 1.0917767508 0.3985715285 3.7701694539
| 35> H -0.7225852709 0.9131136775 -2.3671095324
| 36> H 0.7347433486 1.8131369303 -1.8015155234
| 37> H -4.4611794356 0.6398355595 2.56930613
| 38> H -2.7644075768 0.0775755894 2.5755814935
| 39> H -2.9950832335 2.3218478463 3.6623140765
| 40> H -1.9943743705 2.4272201839 2.2049872562
| 41> H -3.6720108697 2.9728118937 2.1605475969
| 42> H -2.0010756358 -2.5554510915 -0.8376378637
| 43> H -1.2608790721 -3.0113098209 0.7238572856
| 44> H -3.4769502291 -2.6723542001 1.8445181997
| 45> H -4.1811891811 -2.1908268467 0.2907171654
| 46> H -3.6220297423 -3.8522426522 0.5302949174
| 47> *
| 48>
| 49>                          ****END OF INPUT****

CARTESIAN COORDINATES (ANGSTROEM)
---------------------------------
  C      5.371816   -2.246268   -0.862017
  C      4.238244   -1.350366   -1.317878
  O      3.477993   -0.973259   -0.150229
  P      2.463452    0.247892   -0.182137
  S      3.173130    1.954127   -0.818156
  O      1.982854    0.323875    1.310569
  C      1.463681   -0.816926    2.043893
  C      0.548448   -0.287463    3.127248
  S      0.843906   -0.534705   -1.337260
  C     -0.001958    1.045698   -1.559482
  S     -0.870001    1.598012   -0.071940
  P     -2.427463    0.162956   -0.188157
  S     -3.110017   -0.216669   -1.979202
  O     -3.574625    0.695374    0.763873
  C     -3.453313    0.837837    2.200599
  C     -2.997331    2.231989    2.580497
  O     -1.732524   -1.063243    0.569015
  C     -2.052416   -2.430719    0.248291
  C     -3.423435   -2.812013    0.768089
  H      4.973349   -3.125038   -0.363768
  H      5.951054   -2.554176   -1.726175
  H      6.016189   -1.709963   -0.171197
  H      3.567239   -1.870177   -2.006888
  H      4.611756   -0.440642   -1.798972
  H      0.926967   -1.465849    1.345539
  H      2.316917   -1.356330    2.458152
  H     -0.285412    0.245556    2.677658
  H      0.173610   -1.117677    3.716997
  H      1.091777    0.398572    3.770169
  H     -0.722585    0.913114   -2.367110
  H      0.734743    1.813137   -1.801516
  H     -4.461179    0.639836    2.569306
  H     -2.764408    0.077576    2.575581
  H     -2.995083    2.321848    3.662314
  H     -1.994374    2.427220    2.204987
  H     -3.672011    2.972812    2.160548
  H     -2.001076   -2.555451   -0.837638
  H     -1.260879   -3.011310    0.723857
  H     -3.476950   -2.672354    1.844518
  H     -4.181189   -2.190827    0.290717
  H     -3.622030   -3.852243    0.530295

 Total Charge           Charge          ....    0
 Multiplicity           Mult            ....    1
 Number of Electrons    NEL             ....  202
 Basis Dimension        Dim             ....  334

ORBITAL ENERGIES
----------------

  NO   OCC          E(Eh)            E(eV)
   0   2.0000     -88.042758     -2395.7652
   1   2.0000     -88.040535     -2395.7047
   2   2.0000     -87.989486     -2394.3156
   3   2.0000     -87.984041     -2394.1675
   4   2.0000     -76.429787     -2079.7602
   5   2.0000     -76.425156     -2079.6342
   6   2.0000     -18.800178      -511.5789
   7   2.0000     -18.797195      -511.4977
   8   2.0000     -18.796237      -511.4716
   9   2.0000     -18.793074      -511.3855
  10   2.0000      -9.965239      -271.1679
  11   2.0000      -9.956612      -270.9332
  12   2.0000      -9.956480      -270.9296
  13   2.0000      -9.956106      -270.9194
  14   2.0000      -9.950121      -270.7566
  15   2.0000      -9.894718      -269.2490
  16   2.0000      -9.891297      -269.1559
  17   2.0000      -9.890981      -269.1473
  18   2.0000      -9.889716      -269.1128
  19   2.0000      -7.687751      -209.1943
  20   2.0000      -7.685472      -209.1323
  21   2.0000      -7.634739      -207.7518
  22   2.0000      -7.629398      -207.6065
  23   2.0000      -6.427626      -174.9046
  24   2.0000      -6.422958      -174.7776
  25   2.0000      -5.715532      -155.5275
  26   2.0000      -5.713112      -155.4617
  27   2.0000      -5.712459      -155.4439
  28   2.0000      -5.710057      -155.3786
  29   2.0000      -5.704622      -155.2306
  30   2.0000      -5.702646      -155.1769
  31   2.0000      -5.663776      -154.1192
  32   2.0000      -5.658378      -153.9723
  33   2.0000      -5.655289      -153.8882
  34   2.0000      -5.654781      -153.8744
  35   2.0000      -5.649971      -153.7435
  36   2.0000      -5.649494      -153.7305
  37   2.0000      -4.650678      -126.5514
  38   2.0000      -4.648937      -126.5040
  39   2.0000      -4.648064      -126.4802
  40   2.0000      -4.645865      -126.4204
  41   2.0000      -4.644712      -126.3890
  42   2.0000      -4.643067      -126.3443
  43   2.0000      -0.991517       -26.9805
  44   2.0000      -0.990727       -26.9590
  45   2.0000      -0.950681       -25.8694
  46   2.0000      -0.947323       -25.7780
  47   2.0000      -0.764886       -20.8136
  48   2.0000      -0.726466       -19.7682
  49   2.0000      -0.716188       -19.4885
  50   2.0000      -0.697872       -18.9901
  51   2.0000      -0.694331       -18.8937
  52   2.0000      -0.677207       -18.4277
  53   2.0000      -0.651263       -17.7218
  54   2.0000      -0.637991       -17.3606
  55   2.0000      -0.598227       -16.2786
  56   2.0000      -0.586185       -15.9509
  57   2.0000      -0.585384       -15.9291
  58   2.0000      -0.572636       -15.5822
  59   2.0000      -0.562785       -15.3142
  60   2.0000      -0.514085       -13.9890
  61   2.0000      -0.503373       -13.6975
  62   2.0000      -0.485794       -13.2191
  63   2.0000      -0.484867       -13.1939
  64   2.0000      -0.461258       -12.5515
  65   2.0000      -0.453208       -12.3324
  66   2.0000      -0.444025       -12.0825
  67   2.0000      -0.441464       -12.0129
  68   2.0000      -0.432393       -11.7660
  69   2.0000      -0.418912       -11.3992
  70   2.0000      -0.408800       -11.1240
  71   2.0000      -0.403746       -10.9865
  72   2.0000      -0.394233       -10.7276
  73   2.0000      -0.381270       -10.3749
  74   2.0000      -0.379160       -10.3175
  75   2.0000      -0.377624       -10.2757
  76   2.0000      -0.368034       -10.0147
  77   2.0000      -0.363206        -9.8833
  78   2.0000      -0.362409        -9.8616
  79   2.0000      -0.358991        -9.7686
  80   2.0000      -0.354858        -9.6562
  81   2.0000      -0.350055        -9.5255
  82   2.0000      -0.348866        -9.4931
  83   2.0000      -0.343526        -9.3478
  84   2.0000      -0.338950        -9.2233
  85   2.0000      -0.324540        -8.8312
  86   2.0000      -0.316344        -8.6082
  87   2.0000      -0.307323        -8.3627
  88   2.0000      -0.303772        -8.2661
  89   2.0000      -0.300940        -8.1890
  90   2.0000      -0.286993        -7.8095
  91   2.0000      -0.277255        -7.5445
  92   2.0000      -0.277222        -7.5436
  93   2.0000      -0.270041        -7.3482
  94   2.0000      -0.259003        -7.0478
  95   2.0000      -0.234459        -6.3799
  96   2.0000      -0.220126        -5.9899
  97   2.0000      -0.212602        -5.7852
  98   2.0000      -0.204003        -5.5512
  99   2.0000      -0.203321        -5.5326
 100   2.0000      -0.197896        -5.3850
 101   0.0000      -0.044196        -1.2026
 102   0.0000      -0.023287        -0.6337
 103   0.0000      -0.002979        -0.0811
 104   0.0000       0.001044         0.0284
 105   0.0000       0.008352         0.2273

MULLIKEN ATOMIC CHARGES
-----------------------
   0 C :   -0.280312
   1 C :   -0.012174
   2 O :   -0.389267
   3 P :    0.599412
   4 S :   -0.312985
   5 O :   -0.352078
   6 C :   -0.014818
   7 C :   -0.297965
   8 S :   -0.103322
   9 C :   -0.364663
  10 S :   -0.092611
  11 P :    0.624727
  12 S :   -0.311591
  13 O :   -0.365425
  14 C :   -0.038887
  15 C :   -0.309912
  16 O :   -0.385060
  17 C :   -0.009562
  18 C :   -0.312335
  19 H :    0.113511
  20 H :    0.114043
  21 H :    0.122195
  22 H :    0.105429
  23 H :    0.108783
  24 H :    0.114494
  25 H :    0.107245
  26 H :    0.133089
  27 H :    0.103491
  28 H :    0.118979
  29 H :    0.194991
  30 H :    0.195927
  31 H :    0.113296
  32 H :    0.118211
  33 H :    0.114523
  34 H :    0.146425
  35 H :    0.127281
  36 H :    0.115720
  37 H :    0.103288
  38 H :    0.110940
  39 H :    0.131460
  40 H :    0.115507
Sum of atomic charges:    0.0000000

LOEWDIN ATOMIC CHARGES
----------------------
   0 C :   -0.350269
   1 C :   -0.118689
   2 O :   -0.252993
   3 P :    0.566478
   4 S :   -0.311000
   5 O :   -0.231460
   6 C :   -0.112359
   7 C :   -0.354404
   8 S :    0.064550
   9 C :   -0.488955
  10 S :    0.090298
  11 P :    0.573533
  12 S :   -0.304095
  13 O :   -0.240052
  14 C :   -0.116765
  15 C :   -0.362343
  16 O :   -0.251856
  17 C :   -0.122078
  18 C :   -0.365446
  19 H :    0.125506
  20 H :    0.131919
  21 H :    0.129796
  22 H :    0.109635
  23 H :    0.111513
  24 H :    0.105800
  25 H :    0.115096
  26 H :    0.120234
  27 H :    0.126840
  28 H :    0.129264
  29 H :    0.129416
  30 H :    0.128898
  31 H :    0.123233
  32 H :    0.109196
  33 H :    0.133020
  34 H :    0.120646
  35 H :    0.132963
  36 H :    0.110893
  37 H :    0.113801
  38 H :    0.121306
  39 H :    0.126393
  40 H :    0.132538

  Mayer bond orders larger than 0.100000
B(  0-C ,  1-C ) :   1.1600 B(  0-C , 19-H ) :   0.9511 B(  0-C , 20-H ) :   0.9417
B(  0-C , 21-H ) :   0.9508 B(  1-C ,  2-O ) :   0.9032 B(  1-C , 22-H ) :   0.9290
B(  1-C , 23-H ) :   0.9117 B(  2-O ,  3-P ) :   1.0852 B(  3-P ,  4-S ) :   1.6549
B(  3-P ,  5-O ) :   1.1504 B(  3-P ,  8-S ) :   0.9476 B(  4-S ,  8-S ) :   0.1085
B(  5-O ,  6-C ) :   0.8849 B(  6-C ,  7-C ) :   1.1686 B(  6-C , 24-H ) :   0.9055
B(  6-C , 25-H ) :   0.9316 B(  7-C , 26-H ) :   0.9304 B(  7-C , 27-H ) :   0.9404
B(  7-C , 28-H ) :   0.9461 B(  8-S ,  9-C ) :   1.0068 B(  9-C , 10-S ) :   1.0019
B(  9-C , 29-H ) :   0.8703 B(  9-C , 30-H ) :   0.8653 B( 10-S , 11-P ) :   0.9653
B( 10-S , 12-S ) :   0.1040 B( 11-P , 12-S ) :   1.6320 B( 11-P , 13-O ) :   1.1284
B( 11-P , 16-O ) :   1.0614 B( 13-O , 14-C ) :   0.9003 B( 14-C , 15-C ) :   1.1725
B( 14-C , 31-H ) :   0.9322 B( 14-C , 32-H ) :   0.9095 B( 15-C , 33-H ) :   0.9378
B( 15-C , 34-H ) :   0.9283 B( 15-C , 35-H ) :   0.9448 B( 16-O , 17-C ) :   0.9043
B( 17-C , 18-C ) :   1.1624 B( 17-C , 36-H ) :   0.9122 B( 17-C , 37-H ) :   0.9297
B( 18-C , 38-H ) :   0.9462 B( 18-C , 39-H ) :   0.9343 B( 18-C , 40-H ) :   0.9398

Dispersion correction           -0.064936571
FINAL SINGLE POINT ENERGY     -2929.521291122168

DIPOLE MOMENT
-------------

Method             : SCF
Type of density    : Electron Density
Multiplicity       :   1
Irrep              :   0
Energy             : -2929.6421663518326568 Eh
Relativity type    :
Basis              : AO
                                X                 Y                 Z
Electronic contribution:      0.974196249      13.915962332     -17.194491439
Nuclear contribution   :     -1.038150090     -15.579403853      18.743915426
                        -----------------------------------------
Total Dipole Moment    :     -0.063953841      -1.663441520       1.549423986
                        -----------------------------------------
Magnitude (a.u.)       :      2.274168524
Magnitude (Debye)      :      5.780477006

Rotational constants in cm-1:             0.012267             0.004772             0.004671
Rotational constants in MHz :           367.757720           143.068858           140.019800

                             ****ORCA TERMINATED NORMALLY****
TOTAL RUN TIME: 0 days 0 hours 0 minutes 21 seconds 529 msec
