                         Program Version 6.0.0  -   RELEASE  -
|  1> ! pbe def2-sv(p) def2/J RI DEFGRID1 loosescf d4 GCP(DFT/SV(P)) printgap
|  2> %output
|  3>     printlevel normal
|  4> end
|  5> * xyz 0 1
|  6> C 3.9975781733 -2.041427275 0.8465326818
|  7> C 4.6517198904 -0.9690907994 0.0020151115
|  8> O 3.7352478375 -0.3617670452 -0.9435898028
|  9> P 2.4108396552 0.4127222211 -0.5827516084
| 10> S 1.9119736315 1.6331780478 -2.0314516856
| 11> O 2.7905166431 1.0772755794 0.8097025958
| 12> C 2.0106448488 2.1091254606 1.4379288262
| 13> C 2.9463969462 2.9571803261 2.2747934709
| 14> S 0.9613938248 -1.0736455399 -0.1085316676
| 15> C -0.1189651569 -0.9184066186 -1.5698057205
| 16> S -1.8084217934 -1.4225914716 -1.2180412482
| 17> P -2.4101080522 0.1574409362 0.0928931312
| 18> S -1.1959010044 1.6958351563 0.1495633097
| 19> O -2.7204946249 -0.5085631723 1.5036105467
| 20> C -1.7055125971 -0.8978520081 2.4469423508
| 21> C -1.3802793654 -2.3734517989 2.3222965616
| 22> O -3.8490927057 0.5788042601 -0.3820152975
| 23> C -5.0676667609 -0.1655485503 -0.1263304585
| 24> C -5.0456121178 -1.5455561649 -0.7466571405
| 25> H 3.2234660926 -1.6060283544 1.4761005463
| 26> H 3.5464503091 -2.8027616025 0.2157737202
| 27> H 4.7515074567 -2.5002599873 1.4785955861
| 28> H 5.4302179393 -1.3811707229 -0.6418761815
| 29> H 5.0664834504 -0.1766264371 0.6272130643
| 30> H 1.5091345946 2.7020778201 0.6658549927
| 31> H 1.2452724972 1.630264555 2.0537016273
| 32> H 3.6921292688 3.4271083205 1.6393733893
| 33> H 2.370003889 3.726580005 2.7776227178
| 34> H 3.4471426494 2.3388190852 3.0139634718
| 35> H 0.2377643096 -1.5867502994 -2.3499181859
| 36> H -0.0938593445 0.1229890329 -1.9011593423
| 37> H -0.8165936639 -0.2788848962 2.2891449878
| 38> H -2.1383807088 -0.6683988356 3.4226225466
| 39> H -0.6980016824 -2.6523881 3.1182998291
| 40> H -2.2891092723 -2.9622665377 2.4055259538
| 41> H -0.9051582677 -2.5823961373 1.366485214
| 42> H -5.2089380707 -0.2226436735 0.9542090551
| 43> H -5.8389504641 0.4651365555 -0.5708316335
| 44> H -4.2687282339 -2.1544705382 -0.2877250615
| 45> H -6.0085868113 -2.0206217947 -0.5870671853
| 46> H -4.850260292 -1.4808649469 -1.8138515678
| 47> *
| 48>
| 49>                          ****END OF INPUT****

CARTESIAN COORDINATES (ANGSTROEM)
---------------------------------
  C      3.997578   -2.041427    0.846533
  C      4.651720   -0.969091    0.002015
  O      3.735248   -0.361767   -0.943590
  P      2.410840    0.412722   -0.582752
  S      1.911974    1.633178   -2.031452
  O      2.790517    1.077276    0.809703
  C      2.010645    2.109125    1.437929
  C      2.946397    2.957180    2.274793
  S      0.961394   -1.073646   -0.108532
  C     -0.118965   -0.918407   -1.569806
  S     -1.808422   -1.422591   -1.218041
  P     -2.410108    0.157441    0.092893
  S     -1.195901    1.695835    0.149563
  O     -2.720495   -0.508563    1.503611
  C     -1.705513   -0.897852    2.446942
  C     -1.380279   -2.373452    2.322297
  O     -3.849093    0.578804   -0.382015
  C     -5.067667   -0.165549   -0.126330
  C     -5.045612   -1.545556   -0.746657
  H      3.223466   -1.606028    1.476101
  H      3.546450   -2.802762    0.215774
  H      4.751507   -2.500260    1.478596
  H      5.430218   -1.381171   -0.641876
  H      5.066483   -0.176626    0.627213
  H      1.509135    2.702078    0.665855
  H      1.245272    1.630265    2.053702
  H      3.692129    3.427108    1.639373
  H      2.370004    3.726580    2.777623
  H      3.447143    2.338819    3.013963
  H      0.237764   -1.586750   -2.349918
  H     -0.093859    0.122989   -1.901159
  H     -0.816594   -0.278885    2.289145
  H     -2.138381   -0.668399    3.422623
  H     -0.698002   -2.652388    3.118300
  H     -2.289109   -2.962267    2.405526
  H     -0.905158   -2.582396    1.366485
  H     -5.208938   -0.222644    0.954209
  H     -5.838950    0.465137   -0.570832
  H     -4.268728   -2.154471   -0.287725
  H     -6.008587   -2.020622   -0.587067
  H     -4.850260   -1.480865   -1.813852

 Total Charge           Charge          ....    0
 Multiplicity           Mult            ....    1
 Number of Electrons    NEL             ....  202
 Basis Dimension        Dim             ....  334

ORBITAL ENERGIES
----------------

  NO   OCC          E(Eh)            E(eV)
   0   2.0000     -88.045118     -2395.8295
   1   2.0000     -88.036735     -2395.6013
   2   2.0000     -87.979253     -2394.0372
   3   2.0000     -87.978018     -2394.0036
   4   2.0000     -76.425378     -2079.6403
   5   2.0000     -76.421753     -2079.5416
   6   2.0000     -18.792700      -511.3754
   7   2.0000     -18.791982      -511.3558
   8   2.0000     -18.791676      -511.3475
   9   2.0000     -18.785456      -511.1782
  10   2.0000      -9.959258      -271.0052
  11   2.0000      -9.956123      -270.9199
  12   2.0000      -9.954392      -270.8728
  13   2.0000      -9.947926      -270.6968
  14   2.0000      -9.947040      -270.6727
  15   2.0000      -9.893508      -269.2160
  16   2.0000      -9.890106      -269.1235
  17   2.0000      -9.885318      -268.9932
  18   2.0000      -9.884670      -268.9755
  19   2.0000      -7.689659      -209.2463
  20   2.0000      -7.681139      -209.0144
  21   2.0000      -7.624274      -207.4671
  22   2.0000      -7.623221      -207.4384
  23   2.0000      -6.422787      -174.7729
  24   2.0000      -6.419149      -174.6739
  25   2.0000      -5.717645      -155.5850
  26   2.0000      -5.713979      -155.4853
  27   2.0000      -5.709034      -155.3507
  28   2.0000      -5.706827      -155.2907
  29   2.0000      -5.705789      -155.2624
  30   2.0000      -5.698089      -155.0529
  31   2.0000      -5.653382      -153.8364
  32   2.0000      -5.652279      -153.8063
  33   2.0000      -5.644705      -153.6002
  34   2.0000      -5.644391      -153.5917
  35   2.0000      -5.643775      -153.5749
  36   2.0000      -5.643265      -153.5610
  37   2.0000      -4.645715      -126.4163
  38   2.0000      -4.644426      -126.3812
  39   2.0000      -4.643034      -126.3434
  40   2.0000      -4.642167      -126.3198
  41   2.0000      -4.640676      -126.2792
  42   2.0000      -4.639444      -126.2457
  43   2.0000      -0.989021       -26.9126
  44   2.0000      -0.985072       -26.8052
  45   2.0000      -0.944420       -25.6990
  46   2.0000      -0.940550       -25.5937
  47   2.0000      -0.758936       -20.6517
  48   2.0000      -0.721330       -19.6284
  49   2.0000      -0.712698       -19.3935
  50   2.0000      -0.693838       -18.8803
  51   2.0000      -0.691610       -18.8197
  52   2.0000      -0.675278       -18.3753
  53   2.0000      -0.647846       -17.6288
  54   2.0000      -0.629907       -17.1407
  55   2.0000      -0.597625       -16.2622
  56   2.0000      -0.589043       -16.0287
  57   2.0000      -0.580012       -15.7829
  58   2.0000      -0.571919       -15.5627
  59   2.0000      -0.557247       -15.1635
  60   2.0000      -0.504115       -13.7177
  61   2.0000      -0.498013       -13.5516
  62   2.0000      -0.475824       -12.9478
  63   2.0000      -0.472996       -12.8709
  64   2.0000      -0.451685       -12.2910
  65   2.0000      -0.446161       -12.1406
  66   2.0000      -0.443828       -12.0772
  67   2.0000      -0.441558       -12.0154
  68   2.0000      -0.430007       -11.7011
  69   2.0000      -0.421940       -11.4816
  70   2.0000      -0.412828       -11.2336
  71   2.0000      -0.397916       -10.8278
  72   2.0000      -0.394887       -10.7454
  73   2.0000      -0.384413       -10.4604
  74   2.0000      -0.381056       -10.3690
  75   2.0000      -0.368988       -10.0407
  76   2.0000      -0.365902        -9.9567
  77   2.0000      -0.361480        -9.8364
  78   2.0000      -0.355466        -9.6727
  79   2.0000      -0.351779        -9.5724
  80   2.0000      -0.350028        -9.5247
  81   2.0000      -0.346416        -9.4265
  82   2.0000      -0.342935        -9.3317
  83   2.0000      -0.338375        -9.2076
  84   2.0000      -0.334923        -9.1137
  85   2.0000      -0.315364        -8.5815
  86   2.0000      -0.310852        -8.4587
  87   2.0000      -0.298967        -8.1353
  88   2.0000      -0.296032        -8.0554
  89   2.0000      -0.294586        -8.0161
  90   2.0000      -0.292396        -7.9565
  91   2.0000      -0.276909        -7.5351
  92   2.0000      -0.270978        -7.3737
  93   2.0000      -0.260141        -7.0788
  94   2.0000      -0.254506        -6.9255
  95   2.0000      -0.235880        -6.4186
  96   2.0000      -0.217066        -5.9067
  97   2.0000      -0.205130        -5.5819
  98   2.0000      -0.197401        -5.3716
  99   2.0000      -0.189507        -5.1568
 100   2.0000      -0.185188        -5.0392
 101   0.0000      -0.044352        -1.2069
 102   0.0000      -0.031890        -0.8678
 103   0.0000      -0.009639        -0.2623
 104   0.0000       0.003696         0.1006
 105   0.0000       0.011356         0.3090

MULLIKEN ATOMIC CHARGES
-----------------------
   0 C :   -0.324405
   1 C :    0.009221
   2 O :   -0.364235
   3 P :    0.629553
   4 S :   -0.300574
   5 O :   -0.390278
   6 C :   -0.036915
   7 C :   -0.275439
   8 S :   -0.154460
   9 C :   -0.313680
  10 S :   -0.137086
  11 P :    0.614595
  12 S :   -0.308281
  13 O :   -0.384913
  14 C :   -0.019620
  15 C :   -0.301290
  16 O :   -0.359596
  17 C :    0.006566
  18 C :   -0.338305
  19 H :    0.123066
  20 H :    0.126617
  21 H :    0.113983
  22 H :    0.110437
  23 H :    0.108849
  24 H :    0.125323
  25 H :    0.120980
  26 H :    0.118428
  27 H :    0.114076
  28 H :    0.108167
  29 H :    0.179342
  30 H :    0.214632
  31 H :    0.121719
  32 H :    0.104537
  33 H :    0.107042
  34 H :    0.111178
  35 H :    0.132064
  36 H :    0.111418
  37 H :    0.113470
  38 H :    0.132644
  39 H :    0.119082
  40 H :    0.132089
Sum of atomic charges:   -0.0000000

LOEWDIN ATOMIC CHARGES
----------------------
   0 C :   -0.370204
   1 C :   -0.107354
   2 O :   -0.242680
   3 P :    0.569462
   4 S :   -0.291767
   5 O :   -0.247901
   6 C :   -0.121280
   7 C :   -0.351472
   8 S :    0.057192
   9 C :   -0.480611
  10 S :    0.078045
  11 P :    0.567133
  12 S :   -0.294069
  13 O :   -0.249570
  14 C :   -0.118510
  15 C :   -0.364552
  16 O :   -0.235918
  17 C :   -0.108080
  18 C :   -0.372757
  19 H :    0.115906
  20 H :    0.127297
  21 H :    0.131375
  22 H :    0.122672
  23 H :    0.114364
  24 H :    0.110687
  25 H :    0.109360
  26 H :    0.128027
  27 H :    0.132128
  28 H :    0.122642
  29 H :    0.135010
  30 H :    0.124795
  31 H :    0.105563
  32 H :    0.118101
  33 H :    0.129268
  34 H :    0.123658
  35 H :    0.112371
  36 H :    0.115399
  37 H :    0.124142
  38 H :    0.117665
  39 H :    0.134518
  40 H :    0.129942

  Mayer bond orders larger than 0.100000
B(  0-C ,  1-C ) :   1.1694 B(  0-C , 19-H ) :   0.9365 B(  0-C , 20-H ) :   0.9417
B(  0-C , 21-H ) :   0.9356 B(  1-C ,  2-O ) :   0.9044 B(  1-C , 22-H ) :   0.9347
B(  1-C , 23-H ) :   0.9283 B(  2-O ,  3-P ) :   1.1331 B(  3-P ,  4-S ) :   1.6628
B(  3-P ,  5-O ) :   1.0786 B(  3-P ,  8-S ) :   0.9367 B(  4-S ,  8-S ) :   0.1170
B(  5-O ,  6-C ) :   0.8989 B(  6-C ,  7-C ) :   1.1540 B(  6-C , 24-H ) :   0.9077
B(  6-C , 25-H ) :   0.9259 B(  7-C , 26-H ) :   0.9495 B(  7-C , 27-H ) :   0.9421
B(  7-C , 28-H ) :   0.9506 B(  8-S ,  9-C ) :   0.9809 B(  9-C , 10-S ) :   1.0160
B(  9-C , 29-H ) :   0.9074 B(  9-C , 30-H ) :   0.8451 B( 10-S , 11-P ) :   0.9253
B( 10-S , 12-S ) :   0.1131 B( 11-P , 12-S ) :   1.6687 B( 11-P , 13-O ) :   1.0677
B( 11-P , 16-O ) :   1.1448 B( 13-O , 14-C ) :   0.9065 B( 14-C , 15-C ) :   1.1705
B( 14-C , 31-H ) :   0.9006 B( 14-C , 32-H ) :   0.9349 B( 15-C , 33-H ) :   0.9399
B( 15-C , 34-H ) :   0.9456 B( 15-C , 35-H ) :   0.9278 B( 16-O , 17-C ) :   0.8990
B( 17-C , 18-C ) :   1.1699 B( 17-C , 36-H ) :   0.9269 B( 17-C , 37-H ) :   0.9335
B( 18-C , 38-H ) :   0.9301 B( 18-C , 39-H ) :   0.9350 B( 18-C , 40-H ) :   0.9415

Dispersion correction           -0.065242375
FINAL SINGLE POINT ENERGY     -2929.510877515495

DIPOLE MOMENT
-------------

Method             : SCF
Type of density    : Electron Density
Multiplicity       :   1
Irrep              :   0
Energy             : -2929.6308416027090971 Eh
Relativity type    :
Basis              : AO
                                X                 Y                 Z
Electronic contribution:     -1.595675687       9.057375220     -17.098097731
Nuclear contribution   :      1.318748352     -10.526162191      18.700750088
                        -----------------------------------------
Total Dipole Moment    :     -0.276927335      -1.468786971       1.602652357
                        -----------------------------------------
Magnitude (a.u.)       :      2.191464919
Magnitude (Debye)      :      5.570261149

Rotational constants in cm-1:             0.012923             0.004715             0.004586
Rotational constants in MHz :           387.424090           141.353432           137.478967

                             ****ORCA TERMINATED NORMALLY****
TOTAL RUN TIME: 0 days 0 hours 0 minutes 21 seconds 277 msec
