                         Program Version 6.0.0  -   RELEASE  -
|  1> ! pbe def2-sv(p) def2/J RI DEFGRID1 loosescf d4 GCP(DFT/SV(P)) printgap
|  2> %output
|  3>     printlevel normal
|  4> end
|  5> * xyz 0 1
|  6> C 3.9446598975 -0.1007738495 -2.7815187254
|  7> C 4.3054426283 -0.604676201 -1.3982320107
|  8> O 3.742464819 0.2696983334 -0.3834958702
|  9> P 2.5702563662 -0.1560687216 0.5827601796
| 10> S 2.2320952847 1.2251116508 1.9223546284
| 11> O 3.0730670411 -1.5587177856 1.1411297212
| 12> C 2.556397166 -2.1274292908 2.3576740495
| 13> C 1.0888442689 -2.4851750303 2.2410641115
| 14> S 0.980527235 -0.7149292393 -0.7316591602
| 15> C 0.4698457587 0.9697052072 -1.1587909863
| 16> S -0.6812041689 1.7007301057 0.0433234421
| 17> P -2.2607814595 0.347176021 -0.3162516268
| 18> S -2.517525581 -0.2512716159 -2.1688406616
| 19> O -3.5289822867 1.0293428367 0.3555400648
| 20> C -4.4067644068 1.9095671907 -0.3669766491
| 21> C -3.737742278 3.2231412953 -0.7171560216
| 22> O -1.9049490372 -0.7769652743 0.7416578334
| 23> C -2.3956915405 -2.1286657232 0.6131272894
| 24> C -3.8991395257 -2.2020977872 0.7768769578
| 25> H 4.4736514889 -0.693086481 -3.5213770923
| 26> H 2.8753419598 -0.1914683764 -2.9572506178
| 27> H 4.2340910754 0.9413272417 -2.8858162967
| 28> H 5.3827799219 -0.5669793895 -1.2310890003
| 29> H 3.9432163489 -1.6214254737 -1.2358821183
| 30> H 3.1766330495 -3.0107983103 2.5157523392
| 31> H 2.7136277772 -1.4088852258 3.1679246586
| 32> H 0.9226832106 -3.1185497322 1.3725511562
| 33> H 0.7751581134 -3.0086962303 3.1386705893
| 34> H 0.4935541463 -1.5777752469 2.1359697262
| 35> H -0.0226722698 0.9095338242 -2.1291167227
| 36> H 1.3399873919 1.6228748997 -1.1915502711
| 37> H -4.7413026155 1.3957060784 -1.2741502746
| 38> H -5.248825708 2.0544672008 0.311162468
| 39> H -4.4713456066 3.8976441631 -1.1469046071
| 40> H -3.3064036445 3.6762086243 0.1722574062
| 41> H -2.9432533159 3.0552695636 -1.4431347196
| 42> H -2.0911025101 -2.5121602287 -0.3659254994
| 43> H -1.8754828783 -2.6714199938 1.4031580763
| 44> H -4.2110027386 -3.2417803044 0.7744781806
| 45> H -4.1983446918 -1.7343962488 1.7112724495
| 46> H -4.3875638577 -1.6845377835 -0.0480805117
| 47> *
| 48>
| 49>                          ****END OF INPUT****

CARTESIAN COORDINATES (ANGSTROEM)
---------------------------------
  C      3.944660   -0.100774   -2.781519
  C      4.305443   -0.604676   -1.398232
  O      3.742465    0.269698   -0.383496
  P      2.570256   -0.156069    0.582760
  S      2.232095    1.225112    1.922355
  O      3.073067   -1.558718    1.141130
  C      2.556397   -2.127429    2.357674
  C      1.088844   -2.485175    2.241064
  S      0.980527   -0.714929   -0.731659
  C      0.469846    0.969705   -1.158791
  S     -0.681204    1.700730    0.043323
  P     -2.260781    0.347176   -0.316252
  S     -2.517526   -0.251272   -2.168841
  O     -3.528982    1.029343    0.355540
  C     -4.406764    1.909567   -0.366977
  C     -3.737742    3.223141   -0.717156
  O     -1.904949   -0.776965    0.741658
  C     -2.395692   -2.128666    0.613127
  C     -3.899140   -2.202098    0.776877
  H      4.473651   -0.693086   -3.521377
  H      2.875342   -0.191468   -2.957251
  H      4.234091    0.941327   -2.885816
  H      5.382780   -0.566979   -1.231089
  H      3.943216   -1.621425   -1.235882
  H      3.176633   -3.010798    2.515752
  H      2.713628   -1.408885    3.167925
  H      0.922683   -3.118550    1.372551
  H      0.775158   -3.008696    3.138671
  H      0.493554   -1.577775    2.135970
  H     -0.022672    0.909534   -2.129117
  H      1.339987    1.622875   -1.191550
  H     -4.741303    1.395706   -1.274150
  H     -5.248826    2.054467    0.311162
  H     -4.471346    3.897644   -1.146905
  H     -3.306404    3.676209    0.172257
  H     -2.943253    3.055270   -1.443135
  H     -2.091103   -2.512160   -0.365925
  H     -1.875483   -2.671420    1.403158
  H     -4.211003   -3.241780    0.774478
  H     -4.198345   -1.734396    1.711272
  H     -4.387564   -1.684538   -0.048081

 Total Charge           Charge          ....    0
 Multiplicity           Mult            ....    1
 Number of Electrons    NEL             ....  202
 Basis Dimension        Dim             ....  334

ORBITAL ENERGIES
----------------

  NO   OCC          E(Eh)            E(eV)
   0   2.0000     -88.041338     -2395.7266
   1   2.0000     -88.038694     -2395.6547
   2   2.0000     -87.989961     -2394.3286
   3   2.0000     -87.983103     -2394.1419
   4   2.0000     -76.425339     -2079.6392
   5   2.0000     -76.424758     -2079.6234
   6   2.0000     -18.794555      -511.4258
   7   2.0000     -18.793308      -511.3919
   8   2.0000     -18.791133      -511.3327
   9   2.0000     -18.788428      -511.2591
  10   2.0000      -9.957141      -270.9476
  11   2.0000      -9.955669      -270.9075
  12   2.0000      -9.954196      -270.8674
  13   2.0000      -9.952876      -270.8315
  14   2.0000      -9.950447      -270.7654
  15   2.0000      -9.888486      -269.0794
  16   2.0000      -9.884679      -268.9758
  17   2.0000      -9.883587      -268.9461
  18   2.0000      -9.883307      -268.9385
  19   2.0000      -7.685883      -209.1435
  20   2.0000      -7.683782      -209.0863
  21   2.0000      -7.634877      -207.7556
  22   2.0000      -7.628302      -207.5767
  23   2.0000      -6.423022      -174.7793
  24   2.0000      -6.422234      -174.7579
  25   2.0000      -5.713547      -155.4735
  26   2.0000      -5.711620      -155.4211
  27   2.0000      -5.710603      -155.3934
  28   2.0000      -5.708512      -155.3365
  29   2.0000      -5.702917      -155.1843
  30   2.0000      -5.700552      -155.1199
  31   2.0000      -5.663527      -154.1124
  32   2.0000      -5.657335      -153.9439
  33   2.0000      -5.655547      -153.8953
  34   2.0000      -5.655285      -153.8881
  35   2.0000      -5.648934      -153.7153
  36   2.0000      -5.648345      -153.6993
  37   2.0000      -4.645435      -126.4087
  38   2.0000      -4.645241      -126.4034
  39   2.0000      -4.644729      -126.3895
  40   2.0000      -4.643942      -126.3681
  41   2.0000      -4.643650      -126.3601
  42   2.0000      -4.642347      -126.3247
  43   2.0000      -0.988240       -26.8914
  44   2.0000      -0.986390       -26.8410
  45   2.0000      -0.945518       -25.7289
  46   2.0000      -0.945414       -25.7260
  47   2.0000      -0.762883       -20.7591
  48   2.0000      -0.720343       -19.6015
  49   2.0000      -0.709501       -19.3065
  50   2.0000      -0.690490       -18.7892
  51   2.0000      -0.686796       -18.6887
  52   2.0000      -0.675170       -18.3723
  53   2.0000      -0.651087       -17.7170
  54   2.0000      -0.638268       -17.3681
  55   2.0000      -0.601865       -16.3776
  56   2.0000      -0.591448       -16.0941
  57   2.0000      -0.577160       -15.7053
  58   2.0000      -0.571869       -15.5613
  59   2.0000      -0.558317       -15.1926
  60   2.0000      -0.504373       -13.7247
  61   2.0000      -0.492085       -13.3903
  62   2.0000      -0.473615       -12.8877
  63   2.0000      -0.473164       -12.8754
  64   2.0000      -0.459177       -12.4948
  65   2.0000      -0.444468       -12.0946
  66   2.0000      -0.440925       -11.9982
  67   2.0000      -0.439556       -11.9609
  68   2.0000      -0.431697       -11.7471
  69   2.0000      -0.419411       -11.4127
  70   2.0000      -0.409983       -11.1562
  71   2.0000      -0.394557       -10.7364
  72   2.0000      -0.393383       -10.7045
  73   2.0000      -0.385950       -10.5022
  74   2.0000      -0.377843       -10.2816
  75   2.0000      -0.372341       -10.1319
  76   2.0000      -0.368258       -10.0208
  77   2.0000      -0.360283        -9.8038
  78   2.0000      -0.357676        -9.7328
  79   2.0000      -0.353386        -9.6161
  80   2.0000      -0.350035        -9.5249
  81   2.0000      -0.347143        -9.4462
  82   2.0000      -0.343952        -9.3594
  83   2.0000      -0.339108        -9.2276
  84   2.0000      -0.332174        -9.0389
  85   2.0000      -0.316656        -8.6166
  86   2.0000      -0.314094        -8.5469
  87   2.0000      -0.302784        -8.2392
  88   2.0000      -0.295356        -8.0370
  89   2.0000      -0.294029        -8.0009
  90   2.0000      -0.283505        -7.7146
  91   2.0000      -0.273480        -7.4418
  92   2.0000      -0.270414        -7.3583
  93   2.0000      -0.264068        -7.1857
  94   2.0000      -0.259966        -7.0740
  95   2.0000      -0.234503        -6.3811
  96   2.0000      -0.216308        -5.8861
  97   2.0000      -0.211680        -5.7601
  98   2.0000      -0.206913        -5.6304
  99   2.0000      -0.202192        -5.5019
 100   2.0000      -0.190590        -5.1862
 101   0.0000      -0.041454        -1.1280
 102   0.0000      -0.027062        -0.7364
 103   0.0000      -0.002926        -0.0796
 104   0.0000       0.007237         0.1969
 105   0.0000       0.013009         0.3540

MULLIKEN ATOMIC CHARGES
-----------------------
   0 C :   -0.293672
   1 C :   -0.009654
   2 O :   -0.362389
   3 P :    0.583242
   4 S :   -0.302502
   5 O :   -0.382900
   6 C :    0.014143
   7 C :   -0.359096
   8 S :   -0.088339
   9 C :   -0.369220
  10 S :   -0.036556
  11 P :    0.603592
  12 S :   -0.345107
  13 O :   -0.370021
  14 C :   -0.004561
  15 C :   -0.316141
  16 O :   -0.355109
  17 C :   -0.011893
  18 C :   -0.304423
  19 H :    0.111278
  20 H :    0.121932
  21 H :    0.119512
  22 H :    0.111919
  23 H :    0.108207
  24 H :    0.103319
  25 H :    0.114321
  26 H :    0.117845
  27 H :    0.113795
  28 H :    0.155277
  29 H :    0.193218
  30 H :    0.188318
  31 H :    0.110223
  32 H :    0.106349
  33 H :    0.113236
  34 H :    0.121567
  35 H :    0.126074
  36 H :    0.110664
  37 H :    0.112555
  38 H :    0.110758
  39 H :    0.117951
  40 H :    0.122287
Sum of atomic charges:   -0.0000000

LOEWDIN ATOMIC CHARGES
----------------------
   0 C :   -0.360312
   1 C :   -0.112545
   2 O :   -0.243804
   3 P :    0.566044
   4 S :   -0.306698
   5 O :   -0.250103
   6 C :   -0.114756
   7 C :   -0.377112
   8 S :    0.078107
   9 C :   -0.482292
  10 S :    0.110910
  11 P :    0.570952
  12 S :   -0.330777
  13 O :   -0.242216
  14 C :   -0.118916
  15 C :   -0.369537
  16 O :   -0.236711
  17 C :   -0.117110
  18 C :   -0.365554
  19 H :    0.130825
  20 H :    0.121061
  21 H :    0.128162
  22 H :    0.122187
  23 H :    0.110175
  24 H :    0.118106
  25 H :    0.114058
  26 H :    0.121676
  27 H :    0.130826
  28 H :    0.128248
  29 H :    0.129181
  30 H :    0.133148
  31 H :    0.110024
  32 H :    0.119263
  33 H :    0.131155
  34 H :    0.126193
  35 H :    0.120914
  36 H :    0.110141
  37 H :    0.118306
  38 H :    0.129957
  39 H :    0.127092
  40 H :    0.121730

  Mayer bond orders larger than 0.100000
B(  0-C ,  1-C ) :   1.1645 B(  0-C , 19-H ) :   0.9399 B(  0-C , 20-H ) :   0.9377
B(  0-C , 21-H ) :   0.9460 B(  1-C ,  2-O ) :   0.8897 B(  1-C , 22-H ) :   0.9342
B(  1-C , 23-H ) :   0.9176 B(  2-O ,  3-P ) :   1.1240 B(  3-P ,  4-S ) :   1.6554
B(  3-P ,  5-O ) :   1.0877 B(  3-P ,  8-S ) :   0.9441 B(  4-S ,  8-S ) :   0.1134
B(  5-O ,  6-C ) :   0.9057 B(  6-C ,  7-C ) :   1.1624 B(  6-C , 24-H ) :   0.9331
B(  6-C , 25-H ) :   0.9177 B(  7-C , 26-H ) :   0.9418 B(  7-C , 27-H ) :   0.9368
B(  7-C , 28-H ) :   0.9247 B(  8-S ,  9-C ) :   0.9858 B(  9-C , 10-S ) :   1.0101
B(  9-C , 29-H ) :   0.8794 B(  9-C , 30-H ) :   0.8927 B( 10-S , 11-P ) :   0.9763
B( 10-S , 12-S ) :   0.1099 B( 11-P , 12-S ) :   1.5715 B( 11-P , 13-O ) :   1.1110
B( 11-P , 16-O ) :   1.1278 B( 13-O , 14-C ) :   0.9088 B( 14-C , 15-C ) :   1.1664
B( 14-C , 31-H ) :   0.9161 B( 14-C , 32-H ) :   0.9338 B( 15-C , 33-H ) :   0.9378
B( 15-C , 34-H ) :   0.9445 B( 15-C , 35-H ) :   0.9356 B( 16-O , 17-C ) :   0.9054
B( 17-C , 18-C ) :   1.1645 B( 17-C , 36-H ) :   0.9181 B( 17-C , 37-H ) :   0.9289
B( 18-C , 38-H ) :   0.9390 B( 18-C , 39-H ) :   0.9452 B( 18-C , 40-H ) :   0.9349

Dispersion correction           -0.065553382
FINAL SINGLE POINT ENERGY     -2929.521881797305

DIPOLE MOMENT
-------------

Method             : SCF
Type of density    : Electron Density
Multiplicity       :   1
Irrep              :   0
Energy             : -2929.6409500404420214 Eh
Relativity type    :
Basis              : AO
                                X                 Y                 Z
Electronic contribution:      6.839601974       8.189561619       2.522203213
Nuclear contribution   :     -6.979936769      -9.145078620      -2.742065996
                        -----------------------------------------
Total Dipole Moment    :     -0.140334794      -0.955517000      -0.219862783
                        -----------------------------------------
Magnitude (a.u.)       :      0.990477781
Magnitude (Debye)      :      2.517594444

Rotational constants in cm-1:             0.012144             0.004873             0.004506
Rotational constants in MHz :           364.062167           146.094015           135.079716

                             ****ORCA TERMINATED NORMALLY****
TOTAL RUN TIME: 0 days 0 hours 0 minutes 21 seconds 289 msec
