                         Program Version 6.0.0  -   RELEASE  -
|  1> ! pbe def2-sv(p) def2/J RI DEFGRID1 loosescf d4 GCP(DFT/SV(P)) printgap
|  2> %output
|  3>     printlevel normal
|  4> end
|  5> * xyz 0 1
|  6> C 4.1939533487 -0.5667847024 -1.8890518902
|  7> C 4.3744426554 0.4969041928 -0.8262015857
|  8> O 3.1308800369 0.8676671651 -0.1788692055
|  9> P 2.2419937803 -0.0831651062 0.7174239029
| 10> S 1.328647605 0.8901609541 2.1518528803
| 11> O 3.2786720959 -1.1772526917 1.2170667584
| 12> C 3.0105230542 -2.0141638177 2.3557445767
| 13> C 1.8864287751 -2.9916342594 2.0832510717
| 14> S 0.9816361496 -1.1379574433 -0.6577665236
| 15> C 0.416309116 0.2886695579 -1.6207009898
| 16> S -0.6412264001 1.43751165 -0.7057621602
| 17> P -2.4979211466 0.3845596598 -0.8452981366
| 18> S -2.5513482125 -0.9718039227 -2.2542543367
| 19> O -3.606004615 1.4702253825 -1.1156610996
| 20> C -4.1287620603 2.4181626001 -0.1541444991
| 21> C -3.0768279617 3.3895790846 0.3377646669
| 22> O -2.8645192094 -0.0495949529 0.6433055406
| 23> C -2.0835494776 -0.8958152147 1.5002911245
| 24> C -2.0910974104 -2.3416397375 1.046081466
| 25> H 5.1522050905 -0.7499167161 -2.3656426971
| 26> H 3.8401976724 -1.4929870985 -1.4419630362
| 27> H 3.4817117674 -0.2452859508 -2.645188036
| 28> H 4.7207125117 1.4396404748 -1.2531687202
| 29> H 5.0704517617 0.1595692732 -0.0565193494
| 30> H 3.958013241 -2.5242610106 2.5344183436
| 31> H 2.7642013852 -1.3716894143 3.2070561608
| 32> H 2.0925489864 -3.570598714 1.1868286556
| 33> H 1.7780153816 -3.6618823692 2.9297061117
| 34> H 0.9540057296 -2.4472929151 1.9399982453
| 35> H -0.1474194953 -0.1240770353 -2.4591674354
| 36> H 1.2716599453 0.8695709077 -1.9564697855
| 37> H -4.9141018571 2.9284516176 -0.7139013694
| 38> H -4.5647978798 1.8592044473 0.6756613551
| 39> H -2.5978196568 3.8882159287 -0.5013319753
| 40> H -3.5487247681 4.1328019603 0.9730400229
| 41> H -2.313470425 2.8699962681 0.9158808152
| 42> H -1.0644718694 -0.4981229522 1.5606004701
| 43> H -2.5618662142 -0.7849720433 2.4756210458
| 44> H -1.6132299605 -2.9570300216 1.8016986124
| 45> H -3.1143929417 -2.6796183103 0.903463798
| 46> H -1.5551933474 -2.4537030102 0.1053952933
| 47> *
| 48>
| 49>                          ****END OF INPUT****

CARTESIAN COORDINATES (ANGSTROEM)
---------------------------------
  C      4.193953   -0.566785   -1.889052
  C      4.374443    0.496904   -0.826202
  O      3.130880    0.867667   -0.178869
  P      2.241994   -0.083165    0.717424
  S      1.328648    0.890161    2.151853
  O      3.278672   -1.177253    1.217067
  C      3.010523   -2.014164    2.355745
  C      1.886429   -2.991634    2.083251
  S      0.981636   -1.137957   -0.657767
  C      0.416309    0.288670   -1.620701
  S     -0.641226    1.437512   -0.705762
  P     -2.497921    0.384560   -0.845298
  S     -2.551348   -0.971804   -2.254254
  O     -3.606005    1.470225   -1.115661
  C     -4.128762    2.418163   -0.154144
  C     -3.076828    3.389579    0.337765
  O     -2.864519   -0.049595    0.643306
  C     -2.083549   -0.895815    1.500291
  C     -2.091097   -2.341640    1.046081
  H      5.152205   -0.749917   -2.365643
  H      3.840198   -1.492987   -1.441963
  H      3.481712   -0.245286   -2.645188
  H      4.720713    1.439640   -1.253169
  H      5.070452    0.159569   -0.056519
  H      3.958013   -2.524261    2.534418
  H      2.764201   -1.371689    3.207056
  H      2.092549   -3.570599    1.186829
  H      1.778015   -3.661882    2.929706
  H      0.954006   -2.447293    1.939998
  H     -0.147419   -0.124077   -2.459167
  H      1.271660    0.869571   -1.956470
  H     -4.914102    2.928452   -0.713901
  H     -4.564798    1.859204    0.675661
  H     -2.597820    3.888216   -0.501332
  H     -3.548725    4.132802    0.973040
  H     -2.313470    2.869996    0.915881
  H     -1.064472   -0.498123    1.560600
  H     -2.561866   -0.784972    2.475621
  H     -1.613230   -2.957030    1.801699
  H     -3.114393   -2.679618    0.903464
  H     -1.555193   -2.453703    0.105395

 Total Charge           Charge          ....    0
 Multiplicity           Mult            ....    1
 Number of Electrons    NEL             ....  202
 Basis Dimension        Dim             ....  334

ORBITAL ENERGIES
----------------

  NO   OCC          E(Eh)            E(eV)
   0   2.0000     -88.043449     -2395.7841
   1   2.0000     -88.036283     -2395.5891
   2   2.0000     -87.987180     -2394.2529
   3   2.0000     -87.979441     -2394.0423
   4   2.0000     -76.432134     -2079.8241
   5   2.0000     -76.421683     -2079.5397
   6   2.0000     -18.802866      -511.6520
   7   2.0000     -18.798793      -511.5412
   8   2.0000     -18.786907      -511.2177
   9   2.0000     -18.785535      -511.1804
  10   2.0000      -9.964131      -271.1378
  11   2.0000      -9.961316      -271.0612
  12   2.0000      -9.953138      -270.8387
  13   2.0000      -9.953089      -270.8373
  14   2.0000      -9.942657      -270.5535
  15   2.0000      -9.893950      -269.2281
  16   2.0000      -9.893760      -269.2229
  17   2.0000      -9.886601      -269.0281
  18   2.0000      -9.872027      -268.6315
  19   2.0000      -7.687755      -209.1945
  20   2.0000      -7.680902      -209.0080
  21   2.0000      -7.631971      -207.6765
  22   2.0000      -7.624693      -207.4785
  23   2.0000      -6.429280      -174.9496
  24   2.0000      -6.418833      -174.6653
  25   2.0000      -5.715553      -155.5281
  26   2.0000      -5.712497      -155.4450
  27   2.0000      -5.708895      -155.3469
  28   2.0000      -5.705331      -155.2499
  29   2.0000      -5.704694      -155.2326
  30   2.0000      -5.697922      -155.0483
  31   2.0000      -5.660972      -154.0429
  32   2.0000      -5.653734      -153.8459
  33   2.0000      -5.652745      -153.8190
  34   2.0000      -5.651919      -153.7965
  35   2.0000      -5.645107      -153.6112
  36   2.0000      -5.644876      -153.6049
  37   2.0000      -4.652687      -126.6061
  38   2.0000      -4.650841      -126.5558
  39   2.0000      -4.649189      -126.5109
  40   2.0000      -4.641696      -126.3070
  41   2.0000      -4.640576      -126.2765
  42   2.0000      -4.639134      -126.2372
  43   2.0000      -0.996684       -27.1212
  44   2.0000      -0.982352       -26.7312
  45   2.0000      -0.953340       -25.9417
  46   2.0000      -0.937223       -25.5031
  47   2.0000      -0.760689       -20.6994
  48   2.0000      -0.722832       -19.6693
  49   2.0000      -0.711298       -19.3554
  50   2.0000      -0.699490       -19.0341
  51   2.0000      -0.684957       -18.6386
  52   2.0000      -0.674489       -18.3538
  53   2.0000      -0.652307       -17.7502
  54   2.0000      -0.635491       -17.2926
  55   2.0000      -0.600593       -16.3430
  56   2.0000      -0.588381       -16.0107
  57   2.0000      -0.586969       -15.9722
  58   2.0000      -0.574265       -15.6265
  59   2.0000      -0.559470       -15.2239
  60   2.0000      -0.504021       -13.7151
  61   2.0000      -0.491446       -13.3729
  62   2.0000      -0.479379       -13.0446
  63   2.0000      -0.469933       -12.7875
  64   2.0000      -0.461244       -12.5511
  65   2.0000      -0.452459       -12.3120
  66   2.0000      -0.442491       -12.0408
  67   2.0000      -0.434027       -11.8105
  68   2.0000      -0.428870       -11.6701
  69   2.0000      -0.420192       -11.4340
  70   2.0000      -0.414147       -11.2695
  71   2.0000      -0.404011       -10.9937
  72   2.0000      -0.396647       -10.7933
  73   2.0000      -0.384863       -10.4726
  74   2.0000      -0.382491       -10.4081
  75   2.0000      -0.373813       -10.1720
  76   2.0000      -0.369556       -10.0561
  77   2.0000      -0.360217        -9.8020
  78   2.0000      -0.358196        -9.7470
  79   2.0000      -0.352225        -9.5845
  80   2.0000      -0.349092        -9.4993
  81   2.0000      -0.346312        -9.4236
  82   2.0000      -0.340384        -9.2623
  83   2.0000      -0.336922        -9.1681
  84   2.0000      -0.331415        -9.0183
  85   2.0000      -0.326582        -8.8867
  86   2.0000      -0.309389        -8.4189
  87   2.0000      -0.304325        -8.2811
  88   2.0000      -0.301520        -8.2048
  89   2.0000      -0.290640        -7.9087
  90   2.0000      -0.284984        -7.7548
  91   2.0000      -0.278975        -7.5913
  92   2.0000      -0.270850        -7.3702
  93   2.0000      -0.264178        -7.1886
  94   2.0000      -0.254598        -6.9280
  95   2.0000      -0.241804        -6.5798
  96   2.0000      -0.216992        -5.9046
  97   2.0000      -0.204020        -5.5517
  98   2.0000      -0.198822        -5.4102
  99   2.0000      -0.197014        -5.3610
 100   2.0000      -0.189092        -5.1455
 101   0.0000      -0.046503        -1.2654
 102   0.0000      -0.025055        -0.6818
 103   0.0000      -0.013519        -0.3679
 104   0.0000      -0.003081        -0.0838
 105   0.0000       0.009948         0.2707

MULLIKEN ATOMIC CHARGES
-----------------------
   0 C :   -0.325930
   1 C :    0.008166
   2 O :   -0.374368
   3 P :    0.606247
   4 S :   -0.294608
   5 O :   -0.383396
   6 C :    0.002561
   7 C :   -0.349511
   8 S :   -0.104586
   9 C :   -0.342052
  10 S :   -0.101347
  11 P :    0.622126
  12 S :   -0.321069
  13 O :   -0.362296
  14 C :    0.005994
  15 C :   -0.336741
  16 O :   -0.383094
  17 C :   -0.036936
  18 C :   -0.311001
  19 H :    0.115717
  20 H :    0.132260
  21 H :    0.122805
  22 H :    0.112954
  23 H :    0.111983
  24 H :    0.107086
  25 H :    0.114313
  26 H :    0.123954
  27 H :    0.119625
  28 H :    0.148352
  29 H :    0.194594
  30 H :    0.183418
  31 H :    0.109844
  32 H :    0.111081
  33 H :    0.128046
  34 H :    0.116936
  35 H :    0.139775
  36 H :    0.134680
  37 H :    0.097742
  38 H :    0.109081
  39 H :    0.112868
  40 H :    0.134724
Sum of atomic charges:   -0.0000000

LOEWDIN ATOMIC CHARGES
----------------------
   0 C :   -0.368645
   1 C :   -0.107255
   2 O :   -0.242694
   3 P :    0.571075
   4 S :   -0.302177
   5 O :   -0.244770
   6 C :   -0.117917
   7 C :   -0.372397
   8 S :    0.083877
   9 C :   -0.487129
  10 S :    0.083880
  11 P :    0.568891
  12 S :   -0.307365
  13 O :   -0.237114
  14 C :   -0.109237
  15 C :   -0.371960
  16 O :   -0.244133
  17 C :   -0.123562
  18 C :   -0.371118
  19 H :    0.132997
  20 H :    0.122430
  21 H :    0.125757
  22 H :    0.123159
  23 H :    0.116760
  24 H :    0.119631
  25 H :    0.112687
  26 H :    0.126873
  27 H :    0.134745
  28 H :    0.123212
  29 H :    0.129789
  30 H :    0.128203
  31 H :    0.122370
  32 H :    0.115122
  33 H :    0.128753
  34 H :    0.133477
  35 H :    0.121882
  36 H :    0.098643
  37 H :    0.116550
  38 H :    0.125208
  39 H :    0.125604
  40 H :    0.115898

  Mayer bond orders larger than 0.100000
B(  0-C ,  1-C ) :   1.1685 B(  0-C , 19-H ) :   0.9350 B(  0-C , 20-H ) :   0.9358
B(  0-C , 21-H ) :   0.9443 B(  1-C ,  2-O ) :   0.8912 B(  1-C , 22-H ) :   0.9351
B(  1-C , 23-H ) :   0.9275 B(  2-O ,  3-P ) :   1.1117 B(  3-P ,  4-S ) :   1.6660
B(  3-P ,  5-O ) :   1.0698 B(  3-P ,  8-S ) :   0.9484 B(  4-S ,  8-S ) :   0.1098
B(  5-O ,  6-C ) :   0.9027 B(  6-C ,  7-C ) :   1.1621 B(  6-C , 24-H ) :   0.9325
B(  6-C , 25-H ) :   0.9133 B(  7-C , 26-H ) :   0.9433 B(  7-C , 27-H ) :   0.9371
B(  7-C , 28-H ) :   0.9237 B(  8-S ,  9-C ) :   0.9925 B(  9-C , 10-S ) :   1.0200
B(  9-C , 29-H ) :   0.8616 B(  9-C , 30-H ) :   0.8899 B( 10-S , 11-P ) :   0.9415
B( 10-S , 12-S ) :   0.1141 B( 11-P , 12-S ) :   1.6424 B( 11-P , 13-O ) :   1.1413
B( 11-P , 16-O ) :   1.0787 B( 12-S , 29-H ) :   0.1027 B( 13-O , 14-C ) :   0.9015
B( 14-C , 15-C ) :   1.1697 B( 14-C , 31-H ) :   0.9338 B( 14-C , 32-H ) :   0.9265
B( 15-C , 33-H ) :   0.9426 B( 15-C , 34-H ) :   0.9355 B( 15-C , 35-H ) :   0.9316
B( 16-O , 17-C ) :   0.9075 B( 17-C , 18-C ) :   1.1676 B( 17-C , 36-H ) :   0.8939
B( 17-C , 37-H ) :   0.9349 B( 18-C , 38-H ) :   0.9318 B( 18-C , 39-H ) :   0.9421
B( 18-C , 40-H ) :   0.9280

Dispersion correction           -0.066909076
FINAL SINGLE POINT ENERGY     -2929.514180405980

DIPOLE MOMENT
-------------

Method             : SCF
Type of density    : Electron Density
Multiplicity       :   1
Irrep              :   0
Energy             : -2929.6336427564265250 Eh
Relativity type    :
Basis              : AO
                                X                 Y                 Z
Electronic contribution:     -5.599196138       7.045799846      -6.832651886
Nuclear contribution   :      6.903291593      -7.214743998       7.497837574
                        -----------------------------------------
Total Dipole Moment    :      1.304095454      -0.168944152       0.665185687
                        -----------------------------------------
Magnitude (a.u.)       :      1.473661793
Magnitude (Debye)      :      3.745750597

Rotational constants in cm-1:             0.012339             0.004972             0.004822
Rotational constants in MHz :           369.912234           149.058536           144.557821

                             ****ORCA TERMINATED NORMALLY****
TOTAL RUN TIME: 0 days 0 hours 0 minutes 21 seconds 404 msec
