                         Program Version 6.0.0  -   RELEASE  -
|  1> ! r2scan-3c def2/J RI DEFGRID2 scfconv6 printgap
|  2> %output
|  3>     printlevel normal
|  4> end
|  5> * xyz 0 1
|  6> C 1.9485971967 0.8819779896 3.1259224729
|  7> C 1.2510737603 -0.137224575 2.247764425
|  8> O 1.9070639137 -0.1333772867 0.9680668401
|  9> P 1.9176470623 -1.3775528489 -0.0228828986
| 10> S 1.9723078349 -3.1305601328 0.8450762688
| 11> O 3.1155404294 -1.0044351579 -0.9908425525
| 12> C 4.4672759944 -1.4373442007 -0.7257282377
| 13> C 5.0254255094 -0.8141225547 0.5359107855
| 14> S 0.3127785383 -1.0737269764 -1.3673604037
| 15> C 0.5838877354 0.6793717965 -1.7628213569
| 16> S 0.005401877 1.8207483056 -0.4727438435
| 17> P -1.9725813589 1.1130969512 -0.3766759802
| 18> S -2.8202382496 0.574128251 -2.0654492773
| 19> O -2.7435486067 2.2567630301 0.4110023652
| 20> C -3.2237932726 3.4498433618 -0.2436953972
| 21> C -4.3705252624 4.0049966697 0.5768023476
| 22> O -1.8545145102 0.0072453164 0.7522626949
| 23> C -2.7904661918 -1.0863571364 0.8844988997
| 24> C -2.0780065719 -2.2445430004 1.5520304554
| 25> H 2.9872881469 0.6022528587 3.2775428727
| 26> H 1.9097847392 1.8593251902 2.6529155007
| 27> H 1.4459149826 0.9264743271 4.0863851871
| 28> H 0.2006892955 0.1268998025 2.0973123448
| 29> H 1.3110303514 -1.1472778928 2.6676962307
| 30> H 4.4702769855 -2.5290731097 -0.6515357001
| 31> H 5.0175835392 -1.1236648996 -1.6137420972
| 32> H 4.9239063408 0.2673929688 0.4992170967
| 33> H 4.4851279586 -1.1925320093 1.4026994912
| 34> H 6.0741849754 -1.0770346025 0.6328972879
| 35> H 0.0189613618 0.8598479572 -2.6763214879
| 36> H 1.6445208079 0.8665765819 -1.904416833
| 37> H -2.3941359314 4.1586392885 -0.302116104
| 38> H -3.5463665246 3.1860616858 -1.2565298773
| 39> H -5.1856971575 3.2878044909 0.6147645321
| 40> H -4.0354548417 4.2117326625 1.5890140367
| 41> H -4.7233043165 4.923283679 0.1190124854
| 42> H -3.6301553399 -0.7342141142 1.4877038961
| 43> H -3.150196263 -1.3593785312 -0.1133575655
| 44> H -1.7194093779 -1.9512576322 2.5346530422
| 45> H -2.7692746213 -3.0744085441 1.6555847535
| 46> H -1.2295832018 -2.5677613754 0.9516736947
| 47> *
| 48>
| 49>                          ****END OF INPUT****

CARTESIAN COORDINATES (ANGSTROEM)
---------------------------------
  C      1.948597    0.881978    3.125922
  C      1.251074   -0.137225    2.247764
  O      1.907064   -0.133377    0.968067
  P      1.917647   -1.377553   -0.022883
  S      1.972308   -3.130560    0.845076
  O      3.115540   -1.004435   -0.990843
  C      4.467276   -1.437344   -0.725728
  C      5.025426   -0.814123    0.535911
  S      0.312779   -1.073727   -1.367360
  C      0.583888    0.679372   -1.762821
  S      0.005402    1.820748   -0.472744
  P     -1.972581    1.113097   -0.376676
  S     -2.820238    0.574128   -2.065449
  O     -2.743549    2.256763    0.411002
  C     -3.223793    3.449843   -0.243695
  C     -4.370525    4.004997    0.576802
  O     -1.854515    0.007245    0.752263
  C     -2.790466   -1.086357    0.884499
  C     -2.078007   -2.244543    1.552030
  H      2.987288    0.602253    3.277543
  H      1.909785    1.859325    2.652916
  H      1.445915    0.926474    4.086385
  H      0.200689    0.126900    2.097312
  H      1.311030   -1.147278    2.667696
  H      4.470277   -2.529073   -0.651536
  H      5.017584   -1.123665   -1.613742
  H      4.923906    0.267393    0.499217
  H      4.485128   -1.192532    1.402699
  H      6.074185   -1.077035    0.632897
  H      0.018961    0.859848   -2.676321
  H      1.644521    0.866577   -1.904417
  H     -2.394136    4.158639   -0.302116
  H     -3.546367    3.186062   -1.256530
  H     -5.185697    3.287804    0.614765
  H     -4.035455    4.211733    1.589014
  H     -4.723304    4.923284    0.119012
  H     -3.630155   -0.734214    1.487704
  H     -3.150196   -1.359379   -0.113358
  H     -1.719409   -1.951258    2.534653
  H     -2.769275   -3.074409    1.655585
  H     -1.229583   -2.567761    0.951674

 Total Charge           Charge          ....    0
 Multiplicity           Mult            ....    1
 Number of Electrons    NEL             ....  202
 Basis Dimension        Dim             ....  539

ORBITAL ENERGIES
----------------

  NO   OCC          E(Eh)            E(eV)
   0   2.0000     -88.578341     -2410.3392
   1   2.0000     -88.573423     -2410.2054
   2   2.0000     -88.522417     -2408.8174
   3   2.0000     -88.522232     -2408.8124
   4   2.0000     -76.915887     -2092.9877
   5   2.0000     -76.913515     -2092.9231
   6   2.0000     -18.994158      -516.8573
   7   2.0000     -18.991452      -516.7837
   8   2.0000     -18.990290      -516.7521
   9   2.0000     -18.989520      -516.7311
  10   2.0000     -10.110409      -275.1182
  11   2.0000     -10.100473      -274.8478
  12   2.0000     -10.100276      -274.8425
  13   2.0000     -10.094851      -274.6949
  14   2.0000     -10.091302      -274.5983
  15   2.0000     -10.034808      -273.0610
  16   2.0000     -10.031403      -272.9684
  17   2.0000     -10.029969      -272.9293
  18   2.0000     -10.024234      -272.7733
  19   2.0000      -7.872870      -214.2317
  20   2.0000      -7.867447      -214.0841
  21   2.0000      -7.817093      -212.7139
  22   2.0000      -7.816872      -212.7079
  23   2.0000      -6.594383      -179.4423
  24   2.0000      -6.591923      -179.3753
  25   2.0000      -5.819758      -158.3637
  26   2.0000      -5.816649      -158.2791
  27   2.0000      -5.814806      -158.2289
  28   2.0000      -5.811000      -158.1253
  29   2.0000      -5.810015      -158.0986
  30   2.0000      -5.804414      -157.9461
  31   2.0000      -5.764662      -156.8644
  32   2.0000      -5.764473      -156.8593
  33   2.0000      -5.757386      -156.6664
  34   2.0000      -5.757266      -156.6632
  35   2.0000      -5.757171      -156.6606
  36   2.0000      -5.756827      -156.6512
  37   2.0000      -4.739774      -128.9758
  38   2.0000      -4.739340      -128.9640
  39   2.0000      -4.738175      -128.9323
  40   2.0000      -4.737213      -128.9061
  41   2.0000      -4.737021      -128.9009
  42   2.0000      -4.735710      -128.8652
  43   2.0000      -1.050414       -28.5832
  44   2.0000      -1.049525       -28.5590
  45   2.0000      -1.010806       -27.5054
  46   2.0000      -1.010146       -27.4875
  47   2.0000      -0.803297       -21.8588
  48   2.0000      -0.762178       -20.7399
  49   2.0000      -0.750803       -20.4304
  50   2.0000      -0.732737       -19.9388
  51   2.0000      -0.731836       -19.9143
  52   2.0000      -0.708710       -19.2850
  53   2.0000      -0.687488       -18.7075
  54   2.0000      -0.669849       -18.2275
  55   2.0000      -0.630370       -17.1532
  56   2.0000      -0.624177       -16.9847
  57   2.0000      -0.603987       -16.4353
  58   2.0000      -0.598600       -16.2887
  59   2.0000      -0.590801       -16.0765
  60   2.0000      -0.535652       -14.5758
  61   2.0000      -0.525480       -14.2990
  62   2.0000      -0.500580       -13.6215
  63   2.0000      -0.497068       -13.5259
  64   2.0000      -0.479556       -13.0494
  65   2.0000      -0.461925       -12.5696
  66   2.0000      -0.454606       -12.3705
  67   2.0000      -0.450493       -12.2585
  68   2.0000      -0.448776       -12.2118
  69   2.0000      -0.432838       -11.7781
  70   2.0000      -0.425378       -11.5751
  71   2.0000      -0.419172       -11.4062
  72   2.0000      -0.413256       -11.2453
  73   2.0000      -0.397546       -10.8178
  74   2.0000      -0.394492       -10.7347
  75   2.0000      -0.389851       -10.6084
  76   2.0000      -0.380456       -10.3527
  77   2.0000      -0.374598       -10.1933
  78   2.0000      -0.372109       -10.1256
  79   2.0000      -0.367191        -9.9918
  80   2.0000      -0.364019        -9.9055
  81   2.0000      -0.362108        -9.8535
  82   2.0000      -0.358213        -9.7475
  83   2.0000      -0.350202        -9.5295
  84   2.0000      -0.345855        -9.4112
  85   2.0000      -0.334034        -9.0895
  86   2.0000      -0.327115        -8.9013
  87   2.0000      -0.317297        -8.6341
  88   2.0000      -0.310424        -8.4471
  89   2.0000      -0.306577        -8.3424
  90   2.0000      -0.301793        -8.2122
  91   2.0000      -0.291998        -7.9457
  92   2.0000      -0.288999        -7.8641
  93   2.0000      -0.280975        -7.6457
  94   2.0000      -0.270432        -7.3588
  95   2.0000      -0.245567        -6.6822
  96   2.0000      -0.229980        -6.2581
  97   2.0000      -0.223142        -6.0720
  98   2.0000      -0.222038        -6.0420
  99   2.0000      -0.217217        -5.9108
 100   2.0000      -0.215498        -5.8640
 101   0.0000      -0.047051        -1.2803
 102   0.0000      -0.017756        -0.4832
 103   0.0000      -0.010300        -0.2803
 104   0.0000       0.003469         0.0944
 105   0.0000       0.007752         0.2109

MULLIKEN ATOMIC CHARGES
-----------------------
   0 C :   -0.471110
   1 C :   -0.130569
   2 O :   -0.258843
   3 P :    0.679917
   4 S :   -0.473730
   5 O :   -0.305068
   6 C :   -0.157274
   7 C :   -0.438593
   8 S :   -0.118598
   9 C :   -0.251170
  10 S :   -0.124342
  11 P :    0.690843
  12 S :   -0.483351
  13 O :   -0.293878
  14 C :   -0.144070
  15 C :   -0.443329
  16 O :   -0.262155
  17 C :   -0.133572
  18 C :   -0.457945
  19 H :    0.149998
  20 H :    0.159091
  21 H :    0.147087
  22 H :    0.175997
  23 H :    0.167893
  24 H :    0.172647
  25 H :    0.149025
  26 H :    0.155287
  27 H :    0.169233
  28 H :    0.148577
  29 H :    0.213293
  30 H :    0.198098
  31 H :    0.149267
  32 H :    0.170387
  33 H :    0.157576
  34 H :    0.153245
  35 H :    0.147141
  36 H :    0.145564
  37 H :    0.171704
  38 H :    0.147252
  39 H :    0.146364
  40 H :    0.182109
Sum of atomic charges:    0.0000000

LOEWDIN ATOMIC CHARGES
----------------------
   0 C :   -0.386789
   1 C :    0.010597
   2 O :   -0.685015
   3 P :    0.369038
   4 S :   -0.116436
   5 O :   -0.681041
   6 C :    0.024427
   7 C :   -0.401261
   8 S :    0.191298
   9 C :   -0.406459
  10 S :    0.180354
  11 P :    0.366858
  12 S :   -0.129149
  13 O :   -0.662733
  14 C :    0.020315
  15 C :   -0.386052
  16 O :   -0.687715
  17 C :    0.021484
  18 C :   -0.392258
  19 H :    0.157502
  20 H :    0.160942
  21 H :    0.159474
  22 H :    0.188576
  23 H :    0.180907
  24 H :    0.180331
  25 H :    0.179958
  26 H :    0.161029
  27 H :    0.165265
  28 H :    0.159794
  29 H :    0.192065
  30 H :    0.189982
  31 H :    0.171077
  32 H :    0.181263
  33 H :    0.160993
  34 H :    0.159612
  35 H :    0.160121
  36 H :    0.170961
  37 H :    0.183699
  38 H :    0.156978
  39 H :    0.160084
  40 H :    0.169925

  Mayer bond orders larger than 0.100000
B(  0-C ,  1-C ) :   0.9354 B(  0-C , 19-H ) :   0.9730 B(  0-C , 20-H ) :   0.9785
B(  0-C , 21-H ) :   0.9679 B(  1-C ,  2-O ) :   0.7406 B(  1-C , 22-H ) :   0.9372
B(  1-C , 23-H ) :   0.9384 B(  2-O ,  3-P ) :   1.0573 B(  3-P ,  4-S ) :   1.7805
B(  3-P ,  5-O ) :   1.1450 B(  3-P ,  8-S ) :   1.0815 B(  5-O ,  6-C ) :   0.8107
B(  6-C ,  7-C ) :   0.9243 B(  6-C , 24-H ) :   0.9667 B(  6-C , 25-H ) :   0.9614
B(  7-C , 26-H ) :   0.9697 B(  7-C , 27-H ) :   0.9598 B(  7-C , 28-H ) :   0.9599
B(  8-S ,  9-C ) :   0.9108 B(  9-C , 10-S ) :   0.9134 B(  9-C , 29-H ) :   0.9158
B(  9-C , 30-H ) :   0.9168 B( 10-S , 11-P ) :   1.0825 B( 11-P , 12-S ) :   1.7326
B( 11-P , 13-O ) :   1.0960 B( 11-P , 16-O ) :   1.1754 B( 13-O , 14-C ) :   0.7731
B( 14-C , 15-C ) :   0.9590 B( 14-C , 31-H ) :   0.9456 B( 14-C , 32-H ) :   0.9517
B( 15-C , 33-H ) :   0.9718 B( 15-C , 34-H ) :   0.9717 B( 15-C , 35-H ) :   0.9645
B( 16-O , 17-C ) :   0.7791 B( 17-C , 18-C ) :   0.9498 B( 17-C , 36-H ) :   0.9439
B( 17-C , 37-H ) :   0.9564 B( 18-C , 38-H ) :   0.9686 B( 18-C , 39-H ) :   0.9623
B( 18-C , 40-H ) :   0.9635

Dispersion correction           -0.021576512
FINAL SINGLE POINT ENERGY     -2932.465550676188

DIPOLE MOMENT
-------------

Method             : SCF
Type of density    : Electron Density
Multiplicity       :   1
Irrep              :   0
Energy             : -2932.4903720396482640 Eh
Relativity type    :
Basis              : AO
                                X                 Y                 Z
Electronic contribution:     -1.654840741      -6.942889451     -16.318930130
Nuclear contribution   :      2.046207137       8.298281034      17.116028301
                        -----------------------------------------
Total Dipole Moment    :      0.391366396       1.355391583       0.797098171
                        -----------------------------------------
Magnitude (a.u.)       :      1.620376343
Magnitude (Debye)      :      4.118669349

Rotational constants in cm-1:             0.013302             0.004705             0.004623
Rotational constants in MHz :           398.771403           141.064899           138.582549

                             ****ORCA TERMINATED NORMALLY****
TOTAL RUN TIME: 0 days 0 hours 1 minutes 24 seconds 728 msec
