                         Program Version 6.0.0  -   RELEASE  -
|  1> ! r2scan-3c def2/J RI DEFGRID2 scfconv6 printgap
|  2> %output
|  3>     printlevel normal
|  4> end
|  5> %cpcm
|  6>     smd true
|  7>     smdsolvent "water"
|  8> end
|  9> * xyz 0 1
| 10> C 1.9485971967 0.8819779896 3.1259224729
| 11> C 1.2510737603 -0.137224575 2.247764425
| 12> O 1.9070639137 -0.1333772867 0.9680668401
| 13> P 1.9176470623 -1.3775528489 -0.0228828986
| 14> S 1.9723078349 -3.1305601328 0.8450762688
| 15> O 3.1155404294 -1.0044351579 -0.9908425525
| 16> C 4.4672759944 -1.4373442007 -0.7257282377
| 17> C 5.0254255094 -0.8141225547 0.5359107855
| 18> S 0.3127785383 -1.0737269764 -1.3673604037
| 19> C 0.5838877354 0.6793717965 -1.7628213569
| 20> S 0.005401877 1.8207483056 -0.4727438435
| 21> P -1.9725813589 1.1130969512 -0.3766759802
| 22> S -2.8202382496 0.574128251 -2.0654492773
| 23> O -2.7435486067 2.2567630301 0.4110023652
| 24> C -3.2237932726 3.4498433618 -0.2436953972
| 25> C -4.3705252624 4.0049966697 0.5768023476
| 26> O -1.8545145102 0.0072453164 0.7522626949
| 27> C -2.7904661918 -1.0863571364 0.8844988997
| 28> C -2.0780065719 -2.2445430004 1.5520304554
| 29> H 2.9872881469 0.6022528587 3.2775428727
| 30> H 1.9097847392 1.8593251902 2.6529155007
| 31> H 1.4459149826 0.9264743271 4.0863851871
| 32> H 0.2006892955 0.1268998025 2.0973123448
| 33> H 1.3110303514 -1.1472778928 2.6676962307
| 34> H 4.4702769855 -2.5290731097 -0.6515357001
| 35> H 5.0175835392 -1.1236648996 -1.6137420972
| 36> H 4.9239063408 0.2673929688 0.4992170967
| 37> H 4.4851279586 -1.1925320093 1.4026994912
| 38> H 6.0741849754 -1.0770346025 0.6328972879
| 39> H 0.0189613618 0.8598479572 -2.6763214879
| 40> H 1.6445208079 0.8665765819 -1.904416833
| 41> H -2.3941359314 4.1586392885 -0.302116104
| 42> H -3.5463665246 3.1860616858 -1.2565298773
| 43> H -5.1856971575 3.2878044909 0.6147645321
| 44> H -4.0354548417 4.2117326625 1.5890140367
| 45> H -4.7233043165 4.923283679 0.1190124854
| 46> H -3.6301553399 -0.7342141142 1.4877038961
| 47> H -3.150196263 -1.3593785312 -0.1133575655
| 48> H -1.7194093779 -1.9512576322 2.5346530422
| 49> H -2.7692746213 -3.0744085441 1.6555847535
| 50> H -1.2295832018 -2.5677613754 0.9516736947
| 51> *
| 52>
| 53>                          ****END OF INPUT****

CARTESIAN COORDINATES (ANGSTROEM)
---------------------------------
  C      1.948597    0.881978    3.125922
  C      1.251074   -0.137225    2.247764
  O      1.907064   -0.133377    0.968067
  P      1.917647   -1.377553   -0.022883
  S      1.972308   -3.130560    0.845076
  O      3.115540   -1.004435   -0.990843
  C      4.467276   -1.437344   -0.725728
  C      5.025426   -0.814123    0.535911
  S      0.312779   -1.073727   -1.367360
  C      0.583888    0.679372   -1.762821
  S      0.005402    1.820748   -0.472744
  P     -1.972581    1.113097   -0.376676
  S     -2.820238    0.574128   -2.065449
  O     -2.743549    2.256763    0.411002
  C     -3.223793    3.449843   -0.243695
  C     -4.370525    4.004997    0.576802
  O     -1.854515    0.007245    0.752263
  C     -2.790466   -1.086357    0.884499
  C     -2.078007   -2.244543    1.552030
  H      2.987288    0.602253    3.277543
  H      1.909785    1.859325    2.652916
  H      1.445915    0.926474    4.086385
  H      0.200689    0.126900    2.097312
  H      1.311030   -1.147278    2.667696
  H      4.470277   -2.529073   -0.651536
  H      5.017584   -1.123665   -1.613742
  H      4.923906    0.267393    0.499217
  H      4.485128   -1.192532    1.402699
  H      6.074185   -1.077035    0.632897
  H      0.018961    0.859848   -2.676321
  H      1.644521    0.866577   -1.904417
  H     -2.394136    4.158639   -0.302116
  H     -3.546367    3.186062   -1.256530
  H     -5.185697    3.287804    0.614765
  H     -4.035455    4.211733    1.589014
  H     -4.723304    4.923284    0.119012
  H     -3.630155   -0.734214    1.487704
  H     -3.150196   -1.359379   -0.113358
  H     -1.719409   -1.951258    2.534653
  H     -2.769275   -3.074409    1.655585
  H     -1.229583   -2.567761    0.951674

 Total Charge           Charge          ....    0
 Multiplicity           Mult            ....    1
 Number of Electrons    NEL             ....  202
 Basis Dimension        Dim             ....  539

ORBITAL ENERGIES
----------------

  NO   OCC          E(Eh)            E(eV)
   0   2.0000     -88.580068     -2410.3862
   1   2.0000     -88.578108     -2410.3329
   2   2.0000     -88.530502     -2409.0374
   3   2.0000     -88.528747     -2408.9897
   4   2.0000     -76.919351     -2093.0820
   5   2.0000     -76.918930     -2093.0705
   6   2.0000     -18.995048      -516.8815
   7   2.0000     -18.992659      -516.8165
   8   2.0000     -18.992135      -516.8023
   9   2.0000     -18.991750      -516.7918
  10   2.0000     -10.107628      -275.0425
  11   2.0000     -10.089903      -274.5602
  12   2.0000     -10.089692      -274.5545
  13   2.0000     -10.088703      -274.5276
  14   2.0000     -10.085845      -274.4498
  15   2.0000     -10.019508      -272.6447
  16   2.0000     -10.018742      -272.6238
  17   2.0000     -10.018283      -272.6113
  18   2.0000     -10.017837      -272.5992
  19   2.0000      -7.874520      -214.2766
  20   2.0000      -7.872269      -214.2153
  21   2.0000      -7.825479      -212.9421
  22   2.0000      -7.823735      -212.8947
  23   2.0000      -6.597897      -179.5379
  24   2.0000      -6.597367      -179.5235
  25   2.0000      -5.821413      -158.4087
  26   2.0000      -5.819547      -158.3579
  27   2.0000      -5.818304      -158.3241
  28   2.0000      -5.815760      -158.2549
  29   2.0000      -5.811676      -158.1437
  30   2.0000      -5.809370      -158.0810
  31   2.0000      -5.772994      -157.0911
  32   2.0000      -5.771223      -157.0430
  33   2.0000      -5.765833      -156.8963
  34   2.0000      -5.765499      -156.8872
  35   2.0000      -5.764033      -156.8473
  36   2.0000      -5.763833      -156.8419
  37   2.0000      -4.743259      -129.0706
  38   2.0000      -4.742843      -129.0593
  39   2.0000      -4.742594      -129.0526
  40   2.0000      -4.742446      -129.0485
  41   2.0000      -4.741760      -129.0298
  42   2.0000      -4.741270      -129.0165
  43   2.0000      -1.051521       -28.6133
  44   2.0000      -1.050965       -28.5982
  45   2.0000      -1.011451       -27.5230
  46   2.0000      -1.010956       -27.5095
  47   2.0000      -0.803838       -21.8736
  48   2.0000      -0.759011       -20.6537
  49   2.0000      -0.744749       -20.2657
  50   2.0000      -0.723840       -19.6967
  51   2.0000      -0.723349       -19.6833
  52   2.0000      -0.707723       -19.2581
  53   2.0000      -0.691087       -18.8054
  54   2.0000      -0.675455       -18.3801
  55   2.0000      -0.627294       -17.0695
  56   2.0000      -0.619696       -16.8628
  57   2.0000      -0.597437       -16.2571
  58   2.0000      -0.591314       -16.0905
  59   2.0000      -0.587469       -15.9858
  60   2.0000      -0.532079       -14.4786
  61   2.0000      -0.522286       -14.2121
  62   2.0000      -0.497736       -13.5441
  63   2.0000      -0.493632       -13.4324
  64   2.0000      -0.477582       -12.9957
  65   2.0000      -0.455970       -12.4076
  66   2.0000      -0.451000       -12.2723
  67   2.0000      -0.446469       -12.1490
  68   2.0000      -0.442334       -12.0365
  69   2.0000      -0.432968       -11.7817
  70   2.0000      -0.421498       -11.4695
  71   2.0000      -0.413866       -11.2619
  72   2.0000      -0.411864       -11.2074
  73   2.0000      -0.395539       -10.7632
  74   2.0000      -0.388123       -10.5614
  75   2.0000      -0.386900       -10.5281
  76   2.0000      -0.377863       -10.2822
  77   2.0000      -0.364519        -9.9191
  78   2.0000      -0.362454        -9.8629
  79   2.0000      -0.361182        -9.8283
  80   2.0000      -0.355916        -9.6850
  81   2.0000      -0.353229        -9.6119
  82   2.0000      -0.349062        -9.4985
  83   2.0000      -0.344546        -9.3756
  84   2.0000      -0.342636        -9.3236
  85   2.0000      -0.329719        -8.9721
  86   2.0000      -0.323801        -8.8111
  87   2.0000      -0.312535        -8.5045
  88   2.0000      -0.307925        -8.3791
  89   2.0000      -0.304233        -8.2786
  90   2.0000      -0.301096        -8.1932
  91   2.0000      -0.290385        -7.9018
  92   2.0000      -0.286433        -7.7942
  93   2.0000      -0.279562        -7.6073
  94   2.0000      -0.270425        -7.3586
  95   2.0000      -0.248649        -6.7661
  96   2.0000      -0.236033        -6.4228
  97   2.0000      -0.232212        -6.3188
  98   2.0000      -0.229965        -6.2577
  99   2.0000      -0.223207        -6.0738
 100   2.0000      -0.222542        -6.0557
 101   0.0000      -0.049837        -1.3561
 102   0.0000      -0.024051        -0.6545
 103   0.0000      -0.014383        -0.3914
 104   0.0000       0.000788         0.0214
 105   0.0000       0.004798         0.1306

MULLIKEN ATOMIC CHARGES
-----------------------
   0 C :   -0.511513
   1 C :   -0.112217
   2 O :   -0.275756
   3 P :    0.706099
   4 S :   -0.525156
   5 O :   -0.327518
   6 C :   -0.149553
   7 C :   -0.478359
   8 S :   -0.155767
   9 C :   -0.258191
  10 S :   -0.123881
  11 P :    0.718980
  12 S :   -0.535408
  13 O :   -0.320403
  14 C :   -0.137418
  15 C :   -0.484516
  16 O :   -0.279575
  17 C :   -0.126996
  18 C :   -0.502143
  19 H :    0.165109
  20 H :    0.167358
  21 H :    0.170222
  22 H :    0.179152
  23 H :    0.169362
  24 H :    0.176126
  25 H :    0.175513
  26 H :    0.169488
  27 H :    0.169860
  28 H :    0.173016
  29 H :    0.234995
  30 H :    0.232673
  31 H :    0.171505
  32 H :    0.170412
  33 H :    0.166398
  34 H :    0.165771
  35 H :    0.169675
  36 H :    0.171708
  37 H :    0.171800
  38 H :    0.169748
  39 H :    0.169753
  40 H :    0.169647
Sum of atomic charges:    0.0000000

LOEWDIN ATOMIC CHARGES
----------------------
   0 C :   -0.390229
   1 C :    0.016092
   2 O :   -0.690852
   3 P :    0.372870
   4 S :   -0.152317
   5 O :   -0.689278
   6 C :    0.029136
   7 C :   -0.403740
   8 S :    0.170271
   9 C :   -0.397681
  10 S :    0.184668
  11 P :    0.371310
  12 S :   -0.163889
  13 O :   -0.675525
  14 C :    0.024943
  15 C :   -0.390040
  16 O :   -0.694801
  17 C :    0.026097
  18 C :   -0.398197
  19 H :    0.162007
  20 H :    0.162894
  21 H :    0.168221
  22 H :    0.189648
  23 H :    0.182440
  24 H :    0.181231
  25 H :    0.191176
  26 H :    0.164567
  27 H :    0.163079
  28 H :    0.168989
  29 H :    0.199326
  30 H :    0.202634
  31 H :    0.180023
  32 H :    0.181579
  33 H :    0.162498
  34 H :    0.163161
  35 H :    0.168907
  36 H :    0.181515
  37 H :    0.183260
  38 H :    0.162925
  39 H :    0.168237
  40 H :    0.162845

  Mayer bond orders larger than 0.100000
B(  0-C ,  1-C ) :   0.9337 B(  0-C , 19-H ) :   0.9697 B(  0-C , 20-H ) :   0.9750
B(  0-C , 21-H ) :   0.9617 B(  1-C ,  2-O ) :   0.7354 B(  1-C , 22-H ) :   0.9327
B(  1-C , 23-H ) :   0.9359 B(  2-O ,  3-P ) :   1.0650 B(  3-P ,  4-S ) :   1.7487
B(  3-P ,  5-O ) :   1.1537 B(  3-P ,  8-S ) :   1.0917 B(  5-O ,  6-C ) :   0.7988
B(  6-C ,  7-C ) :   0.9123 B(  6-C , 24-H ) :   0.9629 B(  6-C , 25-H ) :   0.9508
B(  7-C , 26-H ) :   0.9688 B(  7-C , 27-H ) :   0.9588 B(  7-C , 28-H ) :   0.9540
B(  8-S ,  9-C ) :   0.9025 B(  9-C , 10-S ) :   0.9088 B(  9-C , 29-H ) :   0.9074
B(  9-C , 30-H ) :   0.9055 B( 10-S , 11-P ) :   1.1007 B( 11-P , 12-S ) :   1.6886
B( 11-P , 13-O ) :   1.1010 B( 11-P , 16-O ) :   1.1816 B( 13-O , 14-C ) :   0.7656
B( 14-C , 15-C ) :   0.9541 B( 14-C , 31-H ) :   0.9368 B( 14-C , 32-H ) :   0.9490
B( 15-C , 33-H ) :   0.9697 B( 15-C , 34-H ) :   0.9688 B( 15-C , 35-H ) :   0.9587
B( 16-O , 17-C ) :   0.7715 B( 17-C , 18-C ) :   0.9420 B( 17-C , 36-H ) :   0.9355
B( 17-C , 37-H ) :   0.9560 B( 18-C , 38-H ) :   0.9650 B( 18-C , 39-H ) :   0.9570
B( 18-C , 40-H ) :   0.9674

Dispersion correction           -0.021576512
FINAL SINGLE POINT ENERGY     -2932.473688154929

DIPOLE MOMENT
-------------

Method             : SCF
Type of density    : Electron Density
Multiplicity       :   1
Irrep              :   0
Energy             : -2932.4985095183892554 Eh
Relativity type    :
Basis              : AO
                                X                 Y                 Z
Electronic contribution:     -1.433251509      -6.372288984     -16.086141620
Nuclear contribution   :      2.046207137       8.298281034      17.116028301
                        -----------------------------------------
Total Dipole Moment    :      0.612955629       1.925992051       1.029886681
                        -----------------------------------------
Magnitude (a.u.)       :      2.268441438
Magnitude (Debye)      :      5.765919910

Rotational constants in cm-1:             0.013302             0.004705             0.004623
Rotational constants in MHz :           398.771403           141.064899           138.582549

                             ****ORCA TERMINATED NORMALLY****
TOTAL RUN TIME: 0 days 0 hours 1 minutes 49 seconds 663 msec
