                         Program Version 6.0.0  -   RELEASE  -
|  1> ! r2scan-3c def2/J RI DEFGRID2 scfconv6 printgap
|  2> %output
|  3>     printlevel normal
|  4> end
|  5> * xyz 0 1
|  6> C 5.5060177078 0.523390856 -0.5782730537
|  7> C 4.846606366 -0.8329975079 -0.7098394384
|  8> O 3.6577068986 -0.9259491779 0.0997120089
|  9> P 2.3454412717 -0.1057277511 -0.2317439459
| 10> S 2.0241855823 0.1460238165 -2.1539883866
| 11> O 2.5727315133 1.1764351091 0.6827620788
| 12> C 1.6204638942 2.2301171535 0.8988555411
| 13> C 1.6680728723 3.26318391 -0.2093447389
| 14> S 0.9489504381 -1.2545604772 0.8533815504
| 15> C -0.0700066451 -1.9071356492 -0.5206215283
| 16> S -1.8123182366 -1.991119753 -0.0728920103
| 17> P -2.1497513332 0.1004894438 0.1900282756
| 18> S -1.3223609253 1.2992514059 -1.113725072
| 19> O -1.6626832912 0.4236996586 1.6553335568
| 20> C -2.094299927 -0.2985979161 2.8359323614
| 21> C -3.2524687609 0.4095061027 3.5077633681
| 22> O -3.7308586959 0.201164487 0.3142433533
| 23> C -4.5930403907 0.3565857793 -0.8273623965
| 24> C -4.5795869962 -0.8584013232 -1.7318470245
| 25> H 6.4394293769 0.5281336876 -1.1322722171
| 26> H 4.8473753314 1.2902767815 -0.9848219241
| 27> H 5.7006542699 0.7469737238 0.4672921036
| 28> H 5.4823552913 -1.63479758 -0.3326313102
| 29> H 4.5725126754 -1.0297115211 -1.7513495062
| 30> H 0.6157378613 1.8043872497 0.9884059924
| 31> H 1.917360232 2.6613918922 1.856883943
| 32> H 1.3429302332 2.8237853016 -1.150748852
| 33> H 0.9977180405 4.0804019663 0.0368182438
| 34> H 2.678727425 3.6448302256 -0.3259637386
| 35> H 0.2375149796 -2.9258300248 -0.7426010896
| 36> H 0.0636248588 -1.2539477605 -1.3884587586
| 37> H -2.3650161871 -1.3180025899 2.5477549228
| 38> H -1.2096924531 -0.3219140889 3.4752471521
| 39> H -2.9796398875 1.4356669792 3.738592591
| 40> H -4.1208783546 0.4150746392 2.8546940286
| 41> H -3.4986439188 -0.1118575557 4.4275157323
| 42> H -5.5780900488 0.5197460666 -0.3878401578
| 43> H -4.2786952538 1.2492793684 -1.376820621
| 44> H -3.6106419632 -0.9503975735 -2.2201785016
| 45> H -4.7695169489 -1.7612479973 -1.1569745934
| 46> H -5.3452183446 -0.7458977285 -2.4927961641
| 47> *
| 48>
| 49>                          ****END OF INPUT****

CARTESIAN COORDINATES (ANGSTROEM)
---------------------------------
  C      5.506018    0.523391   -0.578273
  C      4.846606   -0.832998   -0.709839
  O      3.657707   -0.925949    0.099712
  P      2.345441   -0.105728   -0.231744
  S      2.024186    0.146024   -2.153988
  O      2.572732    1.176435    0.682762
  C      1.620464    2.230117    0.898856
  C      1.668073    3.263184   -0.209345
  S      0.948950   -1.254560    0.853382
  C     -0.070007   -1.907136   -0.520622
  S     -1.812318   -1.991120   -0.072892
  P     -2.149751    0.100489    0.190028
  S     -1.322361    1.299251   -1.113725
  O     -1.662683    0.423700    1.655334
  C     -2.094300   -0.298598    2.835932
  C     -3.252469    0.409506    3.507763
  O     -3.730859    0.201164    0.314243
  C     -4.593040    0.356586   -0.827362
  C     -4.579587   -0.858401   -1.731847
  H      6.439429    0.528134   -1.132272
  H      4.847375    1.290277   -0.984822
  H      5.700654    0.746974    0.467292
  H      5.482355   -1.634798   -0.332631
  H      4.572513   -1.029712   -1.751350
  H      0.615738    1.804387    0.988406
  H      1.917360    2.661392    1.856884
  H      1.342930    2.823785   -1.150749
  H      0.997718    4.080402    0.036818
  H      2.678727    3.644830   -0.325964
  H      0.237515   -2.925830   -0.742601
  H      0.063625   -1.253948   -1.388459
  H     -2.365016   -1.318003    2.547755
  H     -1.209692   -0.321914    3.475247
  H     -2.979640    1.435667    3.738593
  H     -4.120878    0.415075    2.854694
  H     -3.498644   -0.111858    4.427516
  H     -5.578090    0.519746   -0.387840
  H     -4.278695    1.249279   -1.376821
  H     -3.610642   -0.950398   -2.220179
  H     -4.769517   -1.761248   -1.156975
  H     -5.345218   -0.745898   -2.492796

 Total Charge           Charge          ....    0
 Multiplicity           Mult            ....    1
 Number of Electrons    NEL             ....  202
 Basis Dimension        Dim             ....  539

ORBITAL ENERGIES
----------------

  NO   OCC          E(Eh)            E(eV)
   0   2.0000     -88.578549     -2410.3449
   1   2.0000     -88.570266     -2410.1195
   2   2.0000     -88.518676     -2408.7156
   3   2.0000     -88.515105     -2408.6185
   4   2.0000     -76.915437     -2092.9754
   5   2.0000     -76.908191     -2092.7783
   6   2.0000     -18.996923      -516.9325
   7   2.0000     -18.991961      -516.7975
   8   2.0000     -18.984434      -516.5927
   9   2.0000     -18.980008      -516.4723
  10   2.0000     -10.103401      -274.9275
  11   2.0000     -10.102601      -274.9058
  12   2.0000     -10.102402      -274.9003
  13   2.0000     -10.090410      -274.5740
  14   2.0000     -10.086534      -274.4686
  15   2.0000     -10.032824      -273.0070
  16   2.0000     -10.031240      -272.9639
  17   2.0000     -10.022400      -272.7234
  18   2.0000     -10.013456      -272.4800
  19   2.0000      -7.872929      -214.2333
  20   2.0000      -7.864674      -214.0087
  21   2.0000      -7.813395      -212.6133
  22   2.0000      -7.809849      -212.5168
  23   2.0000      -6.593793      -179.4262
  24   2.0000      -6.586420      -179.2256
  25   2.0000      -5.819847      -158.3661
  26   2.0000      -5.816591      -158.2775
  27   2.0000      -5.811505      -158.1391
  28   2.0000      -5.810180      -158.1030
  29   2.0000      -5.808667      -158.0619
  30   2.0000      -5.801663      -157.8713
  31   2.0000      -5.761157      -156.7690
  32   2.0000      -5.757466      -156.6686
  33   2.0000      -5.753483      -156.5602
  34   2.0000      -5.753479      -156.5601
  35   2.0000      -5.750317      -156.4741
  36   2.0000      -5.749699      -156.4573
  37   2.0000      -4.739633      -128.9720
  38   2.0000      -4.738767      -128.9484
  39   2.0000      -4.737174      -128.9050
  40   2.0000      -4.731739      -128.7572
  41   2.0000      -4.731438      -128.7490
  42   2.0000      -4.730273      -128.7173
  43   2.0000      -1.053398       -28.6644
  44   2.0000      -1.041745       -28.3473
  45   2.0000      -1.013275       -27.5726
  46   2.0000      -1.001809       -27.2606
  47   2.0000      -0.798429       -21.7264
  48   2.0000      -0.757775       -20.6201
  49   2.0000      -0.745998       -20.2996
  50   2.0000      -0.737039       -20.0558
  51   2.0000      -0.721468       -19.6321
  52   2.0000      -0.708194       -19.2709
  53   2.0000      -0.686115       -18.6701
  54   2.0000      -0.664250       -18.0752
  55   2.0000      -0.629370       -17.1260
  56   2.0000      -0.621200       -16.9037
  57   2.0000      -0.610434       -16.6107
  58   2.0000      -0.595022       -16.1914
  59   2.0000      -0.590415       -16.0660
  60   2.0000      -0.527801       -14.3622
  61   2.0000      -0.513529       -13.9738
  62   2.0000      -0.496589       -13.5129
  63   2.0000      -0.484311       -13.1788
  64   2.0000      -0.470254       -12.7963
  65   2.0000      -0.462877       -12.5955
  66   2.0000      -0.457945       -12.4613
  67   2.0000      -0.448553       -12.2057
  68   2.0000      -0.447009       -12.1637
  69   2.0000      -0.432053       -11.7568
  70   2.0000      -0.421544       -11.4708
  71   2.0000      -0.414017       -11.2660
  72   2.0000      -0.409693       -11.1483
  73   2.0000      -0.401516       -10.9258
  74   2.0000      -0.395357       -10.7582
  75   2.0000      -0.385122       -10.4797
  76   2.0000      -0.382154       -10.3989
  77   2.0000      -0.374495       -10.1905
  78   2.0000      -0.370267       -10.0755
  79   2.0000      -0.364653        -9.9227
  80   2.0000      -0.362053        -9.8520
  81   2.0000      -0.356027        -9.6880
  82   2.0000      -0.349964        -9.5230
  83   2.0000      -0.347589        -9.4584
  84   2.0000      -0.339449        -9.2369
  85   2.0000      -0.330692        -8.9986
  86   2.0000      -0.320353        -8.7173
  87   2.0000      -0.312043        -8.4911
  88   2.0000      -0.308947        -8.4069
  89   2.0000      -0.300955        -8.1894
  90   2.0000      -0.293638        -7.9903
  91   2.0000      -0.289065        -7.8659
  92   2.0000      -0.282028        -7.6744
  93   2.0000      -0.279387        -7.6025
  94   2.0000      -0.270367        -7.3571
  95   2.0000      -0.246671        -6.7123
  96   2.0000      -0.233080        -6.3424
  97   2.0000      -0.223615        -6.0849
  98   2.0000      -0.217166        -5.9094
  99   2.0000      -0.208210        -5.6657
 100   2.0000      -0.201713        -5.4889
 101   0.0000      -0.043338        -1.1793
 102   0.0000      -0.032934        -0.8962
 103   0.0000      -0.009378        -0.2552
 104   0.0000       0.014604         0.3974
 105   0.0000       0.017583         0.4784

MULLIKEN ATOMIC CHARGES
-----------------------
   0 C :   -0.441607
   1 C :   -0.156222
   2 O :   -0.285878
   3 P :    0.665552
   4 S :   -0.463806
   5 O :   -0.267082
   6 C :   -0.168494
   7 C :   -0.432853
   8 S :   -0.137544
   9 C :   -0.222803
  10 S :   -0.162670
  11 P :    0.646840
  12 S :   -0.411738
  13 O :   -0.273852
  14 C :   -0.113349
  15 C :   -0.459218
  16 O :   -0.296530
  17 C :   -0.162195
  18 C :   -0.452605
  19 H :    0.145624
  20 H :    0.168051
  21 H :    0.154913
  22 H :    0.146860
  23 H :    0.171541
  24 H :    0.179533
  25 H :    0.144079
  26 H :    0.179948
  27 H :    0.144842
  28 H :    0.144523
  29 H :    0.191496
  30 H :    0.222324
  31 H :    0.164547
  32 H :    0.160155
  33 H :    0.156090
  34 H :    0.164874
  35 H :    0.146880
  36 H :    0.147668
  37 H :    0.176195
  38 H :    0.183015
  39 H :    0.153581
  40 H :    0.149317
Sum of atomic charges:   -0.0000000

LOEWDIN ATOMIC CHARGES
----------------------
   0 C :   -0.400850
   1 C :    0.019421
   2 O :   -0.668885
   3 P :    0.379918
   4 S :   -0.123329
   5 O :   -0.659964
   6 C :    0.019572
   7 C :   -0.408794
   8 S :    0.174061
   9 C :   -0.411476
  10 S :    0.127537
  11 P :    0.378283
  12 S :   -0.079576
  13 O :   -0.674109
  14 C :    0.016514
  15 C :   -0.393373
  16 O :   -0.671954
  17 C :    0.021848
  18 C :   -0.408331
  19 H :    0.158288
  20 H :    0.165556
  21 H :    0.160492
  22 H :    0.178621
  23 H :    0.179268
  24 H :    0.187728
  25 H :    0.176364
  26 H :    0.169893
  27 H :    0.160255
  28 H :    0.155535
  29 H :    0.178738
  30 H :    0.200293
  31 H :    0.177048
  32 H :    0.181935
  33 H :    0.161188
  34 H :    0.165900
  35 H :    0.158770
  36 H :    0.179241
  37 H :    0.181331
  38 H :    0.167244
  39 H :    0.159591
  40 H :    0.160207

  Mayer bond orders larger than 0.100000
B(  0-C ,  1-C ) :   0.9272 B(  0-C , 19-H ) :   0.9630 B(  0-C , 20-H ) :   0.9595
B(  0-C , 21-H ) :   0.9709 B(  1-C ,  2-O ) :   0.8122 B(  1-C , 22-H ) :   0.9611
B(  1-C , 23-H ) :   0.9652 B(  2-O ,  3-P ) :   1.1781 B(  3-P ,  4-S ) :   1.7344
B(  3-P ,  5-O ) :   1.0925 B(  3-P ,  8-S ) :   1.0946 B(  5-O ,  6-C ) :   0.7859
B(  6-C ,  7-C ) :   0.9383 B(  6-C , 24-H ) :   0.9514 B(  6-C , 25-H ) :   0.9689
B(  7-C , 26-H ) :   0.9545 B(  7-C , 27-H ) :   0.9630 B(  7-C , 28-H ) :   0.9745
B(  8-S ,  9-C ) :   0.9009 B(  9-C , 10-S ) :   0.9209 B(  9-C , 29-H ) :   0.9146
B(  9-C , 30-H ) :   0.9022 B( 10-S , 11-P ) :   1.0103 B( 11-P , 12-S ) :   1.8499
B( 11-P , 13-O ) :   1.1249 B( 11-P , 16-O ) :   1.0438 B( 13-O , 14-C ) :   0.7458
B( 14-C , 15-C ) :   0.9394 B( 14-C , 31-H ) :   0.9647 B( 14-C , 32-H ) :   0.9607
B( 15-C , 33-H ) :   0.9724 B( 15-C , 34-H ) :   0.9670 B( 15-C , 35-H ) :   0.9656
B( 16-O , 17-C ) :   0.8205 B( 17-C , 18-C ) :   0.9141 B( 17-C , 36-H ) :   0.9612
B( 17-C , 37-H ) :   0.9680 B( 18-C , 38-H ) :   0.9624 B( 18-C , 39-H ) :   0.9675
B( 18-C , 40-H ) :   0.9564

Dispersion correction           -0.021779835
FINAL SINGLE POINT ENERGY     -2932.458865620959

DIPOLE MOMENT
-------------

Method             : SCF
Type of density    : Electron Density
Multiplicity       :   1
Irrep              :   0
Energy             : -2932.4836435403776704 Eh
Relativity type    :
Basis              : AO
                                X                 Y                 Z
Electronic contribution:      2.095919363      -8.975100838      -3.776125083
Nuclear contribution   :     -2.841037638       8.650602803       4.793743168
                        -----------------------------------------
Total Dipole Moment    :     -0.745118276      -0.324498036       1.017618085
                        -----------------------------------------
Magnitude (a.u.)       :      1.302323610
Magnitude (Debye)      :      3.310243548

Rotational constants in cm-1:             0.013689             0.004718             0.004646
Rotational constants in MHz :           410.397985           141.447102           139.283494

                             ****ORCA TERMINATED NORMALLY****
TOTAL RUN TIME: 0 days 0 hours 1 minutes 19 seconds 84 msec
