                         Program Version 6.0.0  -   RELEASE  -
|  1> ! r2scan-3c def2/J RI DEFGRID2 scfconv6 printgap
|  2> %output
|  3>     printlevel normal
|  4> end
|  5> %cpcm
|  6>     smd true
|  7>     smdsolvent "water"
|  8> end
|  9> * xyz 0 1
| 10> C 5.5060177078 0.523390856 -0.5782730537
| 11> C 4.846606366 -0.8329975079 -0.7098394384
| 12> O 3.6577068986 -0.9259491779 0.0997120089
| 13> P 2.3454412717 -0.1057277511 -0.2317439459
| 14> S 2.0241855823 0.1460238165 -2.1539883866
| 15> O 2.5727315133 1.1764351091 0.6827620788
| 16> C 1.6204638942 2.2301171535 0.8988555411
| 17> C 1.6680728723 3.26318391 -0.2093447389
| 18> S 0.9489504381 -1.2545604772 0.8533815504
| 19> C -0.0700066451 -1.9071356492 -0.5206215283
| 20> S -1.8123182366 -1.991119753 -0.0728920103
| 21> P -2.1497513332 0.1004894438 0.1900282756
| 22> S -1.3223609253 1.2992514059 -1.113725072
| 23> O -1.6626832912 0.4236996586 1.6553335568
| 24> C -2.094299927 -0.2985979161 2.8359323614
| 25> C -3.2524687609 0.4095061027 3.5077633681
| 26> O -3.7308586959 0.201164487 0.3142433533
| 27> C -4.5930403907 0.3565857793 -0.8273623965
| 28> C -4.5795869962 -0.8584013232 -1.7318470245
| 29> H 6.4394293769 0.5281336876 -1.1322722171
| 30> H 4.8473753314 1.2902767815 -0.9848219241
| 31> H 5.7006542699 0.7469737238 0.4672921036
| 32> H 5.4823552913 -1.63479758 -0.3326313102
| 33> H 4.5725126754 -1.0297115211 -1.7513495062
| 34> H 0.6157378613 1.8043872497 0.9884059924
| 35> H 1.917360232 2.6613918922 1.856883943
| 36> H 1.3429302332 2.8237853016 -1.150748852
| 37> H 0.9977180405 4.0804019663 0.0368182438
| 38> H 2.678727425 3.6448302256 -0.3259637386
| 39> H 0.2375149796 -2.9258300248 -0.7426010896
| 40> H 0.0636248588 -1.2539477605 -1.3884587586
| 41> H -2.3650161871 -1.3180025899 2.5477549228
| 42> H -1.2096924531 -0.3219140889 3.4752471521
| 43> H -2.9796398875 1.4356669792 3.738592591
| 44> H -4.1208783546 0.4150746392 2.8546940286
| 45> H -3.4986439188 -0.1118575557 4.4275157323
| 46> H -5.5780900488 0.5197460666 -0.3878401578
| 47> H -4.2786952538 1.2492793684 -1.376820621
| 48> H -3.6106419632 -0.9503975735 -2.2201785016
| 49> H -4.7695169489 -1.7612479973 -1.1569745934
| 50> H -5.3452183446 -0.7458977285 -2.4927961641
| 51> *
| 52>
| 53>                          ****END OF INPUT****

CARTESIAN COORDINATES (ANGSTROEM)
---------------------------------
  C      5.506018    0.523391   -0.578273
  C      4.846606   -0.832998   -0.709839
  O      3.657707   -0.925949    0.099712
  P      2.345441   -0.105728   -0.231744
  S      2.024186    0.146024   -2.153988
  O      2.572732    1.176435    0.682762
  C      1.620464    2.230117    0.898856
  C      1.668073    3.263184   -0.209345
  S      0.948950   -1.254560    0.853382
  C     -0.070007   -1.907136   -0.520622
  S     -1.812318   -1.991120   -0.072892
  P     -2.149751    0.100489    0.190028
  S     -1.322361    1.299251   -1.113725
  O     -1.662683    0.423700    1.655334
  C     -2.094300   -0.298598    2.835932
  C     -3.252469    0.409506    3.507763
  O     -3.730859    0.201164    0.314243
  C     -4.593040    0.356586   -0.827362
  C     -4.579587   -0.858401   -1.731847
  H      6.439429    0.528134   -1.132272
  H      4.847375    1.290277   -0.984822
  H      5.700654    0.746974    0.467292
  H      5.482355   -1.634798   -0.332631
  H      4.572513   -1.029712   -1.751350
  H      0.615738    1.804387    0.988406
  H      1.917360    2.661392    1.856884
  H      1.342930    2.823785   -1.150749
  H      0.997718    4.080402    0.036818
  H      2.678727    3.644830   -0.325964
  H      0.237515   -2.925830   -0.742601
  H      0.063625   -1.253948   -1.388459
  H     -2.365016   -1.318003    2.547755
  H     -1.209692   -0.321914    3.475247
  H     -2.979640    1.435667    3.738593
  H     -4.120878    0.415075    2.854694
  H     -3.498644   -0.111858    4.427516
  H     -5.578090    0.519746   -0.387840
  H     -4.278695    1.249279   -1.376821
  H     -3.610642   -0.950398   -2.220179
  H     -4.769517   -1.761248   -1.156975
  H     -5.345218   -0.745898   -2.492796

 Total Charge           Charge          ....    0
 Multiplicity           Mult            ....    1
 Number of Electrons    NEL             ....  202
 Basis Dimension        Dim             ....  539

ORBITAL ENERGIES
----------------

  NO   OCC          E(Eh)            E(eV)
   0   2.0000     -88.580070     -2410.3862
   1   2.0000     -88.577081     -2410.3049
   2   2.0000     -88.526788     -2408.9364
   3   2.0000     -88.525917     -2408.9127
   4   2.0000     -76.918734     -2093.0652
   5   2.0000     -76.918247     -2093.0519
   6   2.0000     -18.995545      -516.8951
   7   2.0000     -18.993849      -516.8489
   8   2.0000     -18.992830      -516.8212
   9   2.0000     -18.989431      -516.7287
  10   2.0000     -10.103478      -274.9296
  11   2.0000     -10.091059      -274.5917
  12   2.0000     -10.090500      -274.5765
  13   2.0000     -10.087616      -274.4980
  14   2.0000     -10.087591      -274.4973
  15   2.0000     -10.018844      -272.6266
  16   2.0000     -10.018217      -272.6095
  17   2.0000     -10.017868      -272.6000
  18   2.0000     -10.014632      -272.5120
  19   2.0000      -7.874381      -214.2728
  20   2.0000      -7.871478      -214.1938
  21   2.0000      -7.821809      -212.8422
  22   2.0000      -7.820977      -212.8196
  23   2.0000      -6.597136      -179.5172
  24   2.0000      -6.596567      -179.5017
  25   2.0000      -5.821328      -158.4064
  26   2.0000      -5.818284      -158.3236
  27   2.0000      -5.818076      -158.3179
  28   2.0000      -5.815447      -158.2464
  29   2.0000      -5.811581      -158.1412
  30   2.0000      -5.808529      -158.0581
  31   2.0000      -5.769371      -156.9926
  32   2.0000      -5.768630      -156.9724
  33   2.0000      -5.762247      -156.7987
  34   2.0000      -5.761692      -156.7836
  35   2.0000      -5.761164      -156.7693
  36   2.0000      -5.761004      -156.7649
  37   2.0000      -4.742914      -129.0612
  38   2.0000      -4.742089      -129.0388
  39   2.0000      -4.741877      -129.0330
  40   2.0000      -4.741557      -129.0243
  41   2.0000      -4.740638      -128.9993
  42   2.0000      -4.740468      -128.9947
  43   2.0000      -1.052802       -28.6482
  44   2.0000      -1.050936       -28.5974
  45   2.0000      -1.012186       -27.5430
  46   2.0000      -1.010457       -27.4959
  47   2.0000      -0.800776       -21.7902
  48   2.0000      -0.755677       -20.5630
  49   2.0000      -0.744080       -20.2474
  50   2.0000      -0.725961       -19.7544
  51   2.0000      -0.721754       -19.6399
  52   2.0000      -0.709539       -19.3075
  53   2.0000      -0.689962       -18.7748
  54   2.0000      -0.671648       -18.2765
  55   2.0000      -0.629797       -17.1376
  56   2.0000      -0.620673       -16.8894
  57   2.0000      -0.602590       -16.3973
  58   2.0000      -0.596501       -16.2316
  59   2.0000      -0.589528       -16.0419
  60   2.0000      -0.524177       -14.2636
  61   2.0000      -0.514565       -14.0020
  62   2.0000      -0.490903       -13.3581
  63   2.0000      -0.487783       -13.2733
  64   2.0000      -0.466340       -12.6898
  65   2.0000      -0.464841       -12.6490
  66   2.0000      -0.456777       -12.4295
  67   2.0000      -0.451236       -12.2788
  68   2.0000      -0.438581       -11.9344
  69   2.0000      -0.429942       -11.6993
  70   2.0000      -0.421235       -11.4624
  71   2.0000      -0.418248       -11.3811
  72   2.0000      -0.403517       -10.9802
  73   2.0000      -0.402976       -10.9655
  74   2.0000      -0.391602       -10.6560
  75   2.0000      -0.386781       -10.5248
  76   2.0000      -0.381678       -10.3860
  77   2.0000      -0.370003       -10.0683
  78   2.0000      -0.362754        -9.8710
  79   2.0000      -0.360735        -9.8161
  80   2.0000      -0.353377        -9.6159
  81   2.0000      -0.351491        -9.5646
  82   2.0000      -0.349135        -9.5004
  83   2.0000      -0.346683        -9.4337
  84   2.0000      -0.342666        -9.3244
  85   2.0000      -0.326812        -8.8930
  86   2.0000      -0.322220        -8.7681
  87   2.0000      -0.306320        -8.3354
  88   2.0000      -0.305019        -8.3000
  89   2.0000      -0.300956        -8.1894
  90   2.0000      -0.297790        -8.1033
  91   2.0000      -0.289272        -7.8715
  92   2.0000      -0.285739        -7.7753
  93   2.0000      -0.278379        -7.5751
  94   2.0000      -0.277016        -7.5380
  95   2.0000      -0.250011        -6.8031
  96   2.0000      -0.241851        -6.5811
  97   2.0000      -0.232573        -6.3286
  98   2.0000      -0.225248        -6.1293
  99   2.0000      -0.217742        -5.9251
 100   2.0000      -0.211953        -5.7675
 101   0.0000      -0.047666        -1.2970
 102   0.0000      -0.040281        -1.0961
 103   0.0000      -0.013104        -0.3566
 104   0.0000       0.012088         0.3289
 105   0.0000       0.013266         0.3610

MULLIKEN ATOMIC CHARGES
-----------------------
   0 C :   -0.482723
   1 C :   -0.148504
   2 O :   -0.321677
   3 P :    0.692708
   4 S :   -0.507197
   5 O :   -0.292922
   6 C :   -0.149481
   7 C :   -0.483143
   8 S :   -0.150340
   9 C :   -0.225154
  10 S :   -0.158875
  11 P :    0.667187
  12 S :   -0.464940
  13 O :   -0.303590
  14 C :   -0.096853
  15 C :   -0.503124
  16 O :   -0.314913
  17 C :   -0.156784
  18 C :   -0.489461
  19 H :    0.172164
  20 H :    0.166725
  21 H :    0.168994
  22 H :    0.173659
  23 H :    0.175208
  24 H :    0.170636
  25 H :    0.173911
  26 H :    0.171115
  27 H :    0.168421
  28 H :    0.164382
  29 H :    0.231910
  30 H :    0.217253
  31 H :    0.175253
  32 H :    0.179353
  33 H :    0.167305
  34 H :    0.169259
  35 H :    0.170524
  36 H :    0.175698
  37 H :    0.179520
  38 H :    0.175734
  39 H :    0.169249
  40 H :    0.173514
Sum of atomic charges:   -0.0000000

LOEWDIN ATOMIC CHARGES
----------------------
   0 C :   -0.404135
   1 C :    0.023774
   2 O :   -0.687325
   3 P :    0.382436
   4 S :   -0.152289
   5 O :   -0.672239
   6 C :    0.023660
   7 C :   -0.414707
   8 S :    0.170210
   9 C :   -0.406702
  10 S :    0.137684
  11 P :    0.381699
  12 S :   -0.118178
  13 O :   -0.690130
  14 C :    0.023414
  15 C :   -0.396373
  16 O :   -0.676834
  17 C :    0.026922
  18 C :   -0.411296
  19 H :    0.168401
  20 H :    0.162415
  21 H :    0.163680
  22 H :    0.189763
  23 H :    0.180897
  24 H :    0.185211
  25 H :    0.188651
  26 H :    0.163694
  27 H :    0.167675
  28 H :    0.161344
  29 H :    0.193918
  30 H :    0.197975
  31 H :    0.182120
  32 H :    0.189910
  33 H :    0.163481
  34 H :    0.165478
  35 H :    0.168394
  36 H :    0.191162
  37 H :    0.181728
  38 H :    0.161932
  39 H :    0.163721
  40 H :    0.168857

  Mayer bond orders larger than 0.100000
B(  0-C ,  1-C ) :   0.9138 B(  0-C , 19-H ) :   0.9565 B(  0-C , 20-H ) :   0.9592
B(  0-C , 21-H ) :   0.9702 B(  1-C ,  2-O ) :   0.8020 B(  1-C , 22-H ) :   0.9515
B(  1-C , 23-H ) :   0.9603 B(  2-O ,  3-P ) :   1.1745 B(  3-P ,  4-S ) :   1.7050
B(  3-P ,  5-O ) :   1.0913 B(  3-P ,  8-S ) :   1.1121 B(  5-O ,  6-C ) :   0.7789
B(  6-C ,  7-C ) :   0.9230 B(  6-C , 24-H ) :   0.9504 B(  6-C , 25-H ) :   0.9589
B(  7-C , 26-H ) :   0.9593 B(  7-C , 27-H ) :   0.9600 B(  7-C , 28-H ) :   0.9710
B(  8-S ,  9-C ) :   0.8907 B(  9-C , 10-S ) :   0.9173 B(  9-C , 29-H ) :   0.9005
B(  9-C , 30-H ) :   0.9058 B( 10-S , 11-P ) :   1.0208 B( 11-P , 12-S ) :   1.8222
B( 11-P , 13-O ) :   1.1311 B( 11-P , 16-O ) :   1.0542 B( 13-O , 14-C ) :   0.7360
B( 14-C , 15-C ) :   0.9309 B( 14-C , 31-H ) :   0.9563 B( 14-C , 32-H ) :   0.9514
B( 15-C , 33-H ) :   0.9710 B( 15-C , 34-H ) :   0.9667 B( 15-C , 35-H ) :   0.9590
B( 16-O , 17-C ) :   0.8099 B( 17-C , 18-C ) :   0.9015 B( 17-C , 36-H ) :   0.9508
B( 17-C , 37-H ) :   0.9672 B( 18-C , 38-H ) :   0.9650 B( 18-C , 39-H ) :   0.9646
B( 18-C , 40-H ) :   0.9513

Dispersion correction           -0.021779835
FINAL SINGLE POINT ENERGY     -2932.466271682552

DIPOLE MOMENT
-------------

Method             : SCF
Type of density    : Electron Density
Multiplicity       :   1
Irrep              :   0
Energy             : -2932.4910496019706443 Eh
Relativity type    :
Basis              : AO
                                X                 Y                 Z
Electronic contribution:      1.846946115      -9.302545449      -3.377376335
Nuclear contribution   :     -2.841037638       8.650602803       4.793743168
                        -----------------------------------------
Total Dipole Moment    :     -0.994091523      -0.651942646       1.416366834
                        -----------------------------------------
Magnitude (a.u.)       :      1.849146338
Magnitude (Debye)      :      4.700156463

Rotational constants in cm-1:             0.013689             0.004718             0.004646
Rotational constants in MHz :           410.397985           141.447102           139.283494

                             ****ORCA TERMINATED NORMALLY****
TOTAL RUN TIME: 0 days 0 hours 1 minutes 47 seconds 141 msec
