                         Program Version 6.0.0  -   RELEASE  -
|  1> ! pbe def2-sv(p) def2/J RI DEFGRID1 loosescf d4 GCP(DFT/SV(P)) printgap
|  2> %output
|  3>     printlevel normal
|  4> end
|  5> * xyz 0 1
|  6> C 4.3615014023 -0.5647901444 -2.4381030124
|  7> C 3.0364167954 -1.2792218574 -2.2785685096
|  8> O 2.6415118235 -1.3321590101 -0.8936727759
|  9> P 2.1018931604 -0.0609713915 -0.1179442627
| 10> S 1.2295993347 1.2596283896 -1.2852407906
| 11> O 3.4103377442 0.4750068272 0.6088387853
| 12> C 3.4374746564 1.234464047 1.8298403502
| 13> C 2.496037718 2.4211333415 1.8108422108
| 14> S 1.0915248253 -1.040477923 1.4699232485
| 15> C 0.0706577715 -2.2069873917 0.5183887672
| 16> S -0.813770499 -1.4824390628 -0.8870691891
| 17> P -2.0817460871 -0.1320727788 0.1479982445
| 18> S -1.385950626 1.3348193753 1.2561701928
| 19> O -2.9151826292 -1.1932691657 0.9781936092
| 20> C -3.6706246506 -0.8297147022 2.1501948706
| 21> C -4.913631995 -0.0495037669 1.7794666384
| 22> O -3.1091858439 0.2759149218 -0.9916042791
| 23> C -2.7909147242 0.9140411221 -2.2407116163
| 24> C -2.3459605742 2.3519394675 -2.0653449235
| 25> H 4.2561064993 0.4712406902 -2.1174212403
| 26> H 5.1227705936 -1.0430521025 -1.8278348139
| 27> H 4.6627000878 -0.5860865222 -3.4805196004
| 28> H 3.0963935449 -2.326034645 -2.5783634932
| 29> H 2.2500456599 -0.7717502233 -2.8470570341
| 30> H 3.1893553834 0.5597477206 2.6545643727
| 31> H 4.4784456016 1.5529824864 1.9109754063
| 32> H 1.4597321645 2.0853904767 1.748813483
| 33> H 2.6192919722 2.9959424608 2.7229805907
| 34> H 2.7019947279 3.0577011635 0.9531474808
| 35> H -0.6423846135 -2.6281138659 1.2241552872
| 36> H 0.711028008 -2.9788762788 0.0972070524
| 37> H -3.9130012092 -1.7853754141 2.6165378367
| 38> H -3.0268645691 -0.2404764615 2.8117100751
| 39> H -5.4962492929 0.1510184266 2.6729678922
| 40> H -4.6262302581 0.8960547959 1.3210217263
| 41> H -5.5140571419 -0.61315242 1.0705709338
| 42> H -2.0178564659 0.3301385634 -2.7489540864
| 43> H -3.7265636297 0.853089961 -2.8000169351
| 44> H -1.3772589714 2.3937776468 -1.5700325761
| 45> H -2.2540811887 2.8185625252 -3.0406941477
| 46> H -3.0683682528 2.9021601909 -1.4678631175
| 47> *
| 48>
| 49>                          ****END OF INPUT****

CARTESIAN COORDINATES (ANGSTROEM)
---------------------------------
  C      4.361501   -0.564790   -2.438103
  C      3.036417   -1.279222   -2.278569
  O      2.641512   -1.332159   -0.893673
  P      2.101893   -0.060971   -0.117944
  S      1.229599    1.259628   -1.285241
  O      3.410338    0.475007    0.608839
  C      3.437475    1.234464    1.829840
  C      2.496038    2.421133    1.810842
  S      1.091525   -1.040478    1.469923
  C      0.070658   -2.206987    0.518389
  S     -0.813770   -1.482439   -0.887069
  P     -2.081746   -0.132073    0.147998
  S     -1.385951    1.334819    1.256170
  O     -2.915183   -1.193269    0.978194
  C     -3.670625   -0.829715    2.150195
  C     -4.913632   -0.049504    1.779467
  O     -3.109186    0.275915   -0.991604
  C     -2.790915    0.914041   -2.240712
  C     -2.345961    2.351939   -2.065345
  H      4.256106    0.471241   -2.117421
  H      5.122771   -1.043052   -1.827835
  H      4.662700   -0.586087   -3.480520
  H      3.096394   -2.326035   -2.578363
  H      2.250046   -0.771750   -2.847057
  H      3.189355    0.559748    2.654564
  H      4.478446    1.552982    1.910975
  H      1.459732    2.085390    1.748813
  H      2.619292    2.995942    2.722981
  H      2.701995    3.057701    0.953147
  H     -0.642385   -2.628114    1.224155
  H      0.711028   -2.978876    0.097207
  H     -3.913001   -1.785375    2.616538
  H     -3.026865   -0.240476    2.811710
  H     -5.496249    0.151018    2.672968
  H     -4.626230    0.896055    1.321022
  H     -5.514057   -0.613152    1.070571
  H     -2.017856    0.330139   -2.748954
  H     -3.726564    0.853090   -2.800017
  H     -1.377259    2.393778   -1.570033
  H     -2.254081    2.818563   -3.040694
  H     -3.068368    2.902160   -1.467863

 Total Charge           Charge          ....    0
 Multiplicity           Mult            ....    1
 Number of Electrons    NEL             ....  202
 Basis Dimension        Dim             ....  334

ORBITAL ENERGIES
----------------

  NO   OCC          E(Eh)            E(eV)
   0   2.0000     -88.040142     -2395.6941
   1   2.0000     -88.036912     -2395.6062
   2   2.0000     -87.978464     -2394.0157
   3   2.0000     -87.976288     -2393.9565
   4   2.0000     -76.422837     -2079.5711
   5   2.0000     -76.422515     -2079.5624
   6   2.0000     -18.788325      -511.2563
   7   2.0000     -18.787788      -511.2417
   8   2.0000     -18.787104      -511.2231
   9   2.0000     -18.785687      -511.1845
  10   2.0000      -9.960911      -271.0502
  11   2.0000      -9.953018      -270.8354
  12   2.0000      -9.952621      -270.8246
  13   2.0000      -9.947085      -270.6740
  14   2.0000      -9.946983      -270.6712
  15   2.0000      -9.879804      -268.8431
  16   2.0000      -9.879324      -268.8301
  17   2.0000      -9.875125      -268.7158
  18   2.0000      -9.872703      -268.6499
  19   2.0000      -7.685210      -209.1252
  20   2.0000      -7.682203      -209.0434
  21   2.0000      -7.623065      -207.4341
  22   2.0000      -7.621103      -207.3808
  23   2.0000      -6.420038      -174.6981
  24   2.0000      -6.419515      -174.6839
  25   2.0000      -5.713208      -155.4643
  26   2.0000      -5.710339      -155.3862
  27   2.0000      -5.709797      -155.3715
  28   2.0000      -5.706762      -155.2889
  29   2.0000      -5.701913      -155.1569
  30   2.0000      -5.698782      -155.0718
  31   2.0000      -5.652015      -153.7991
  32   2.0000      -5.650027      -153.7451
  33   2.0000      -5.643629      -153.5710
  34   2.0000      -5.643290      -153.5617
  35   2.0000      -5.641818      -153.5217
  36   2.0000      -5.641178      -153.5042
  37   2.0000      -4.642653      -126.3330
  38   2.0000      -4.642220      -126.3212
  39   2.0000      -4.642086      -126.3176
  40   2.0000      -4.641643      -126.3055
  41   2.0000      -4.640233      -126.2672
  42   2.0000      -4.639602      -126.2500
  43   2.0000      -0.982917       -26.7465
  44   2.0000      -0.981842       -26.7173
  45   2.0000      -0.942723       -25.6528
  46   2.0000      -0.942121       -25.6364
  47   2.0000      -0.762180       -20.7400
  48   2.0000      -0.715897       -19.4806
  49   2.0000      -0.704234       -19.1632
  50   2.0000      -0.683167       -18.5899
  51   2.0000      -0.682245       -18.5648
  52   2.0000      -0.666196       -18.1281
  53   2.0000      -0.650150       -17.6915
  54   2.0000      -0.635464       -17.2919
  55   2.0000      -0.592154       -16.1133
  56   2.0000      -0.587182       -15.9780
  57   2.0000      -0.571792       -15.5592
  58   2.0000      -0.568494       -15.4695
  59   2.0000      -0.563169       -15.3246
  60   2.0000      -0.497694       -13.5430
  61   2.0000      -0.488268       -13.2864
  62   2.0000      -0.470515       -12.8034
  63   2.0000      -0.466647       -12.6981
  64   2.0000      -0.457870       -12.4593
  65   2.0000      -0.442971       -12.0539
  66   2.0000      -0.434097       -11.8124
  67   2.0000      -0.431555       -11.7432
  68   2.0000      -0.421598       -11.4723
  69   2.0000      -0.412651       -11.2288
  70   2.0000      -0.403816       -10.9884
  71   2.0000      -0.394938       -10.7468
  72   2.0000      -0.389297       -10.5933
  73   2.0000      -0.387927       -10.5560
  74   2.0000      -0.382741       -10.4149
  75   2.0000      -0.375753       -10.2248
  76   2.0000      -0.366171        -9.9640
  77   2.0000      -0.351287        -9.5590
  78   2.0000      -0.345020        -9.3885
  79   2.0000      -0.343822        -9.3559
  80   2.0000      -0.339695        -9.2436
  81   2.0000      -0.339263        -9.2318
  82   2.0000      -0.337411        -9.1814
  83   2.0000      -0.330936        -9.0052
  84   2.0000      -0.328744        -8.9456
  85   2.0000      -0.318787        -8.6746
  86   2.0000      -0.305379        -8.3098
  87   2.0000      -0.292802        -7.9675
  88   2.0000      -0.292206        -7.9513
  89   2.0000      -0.285497        -7.7688
  90   2.0000      -0.282801        -7.6954
  91   2.0000      -0.270222        -7.3531
  92   2.0000      -0.268232        -7.2990
  93   2.0000      -0.258560        -7.0358
  94   2.0000      -0.253460        -6.8970
  95   2.0000      -0.248166        -6.7529
  96   2.0000      -0.217806        -5.9268
  97   2.0000      -0.205381        -5.5887
  98   2.0000      -0.184131        -5.0105
  99   2.0000      -0.182601        -4.9688
 100   2.0000      -0.179609        -4.8874
 101   0.0000      -0.050948        -1.3864
 102   0.0000      -0.029005        -0.7893
 103   0.0000      -0.012911        -0.3513
 104   0.0000      -0.004375        -0.1190
 105   0.0000       0.022353         0.6082

MULLIKEN ATOMIC CHARGES
-----------------------
   0 C :   -0.300613
   1 C :   -0.007961
   2 O :   -0.372337
   3 P :    0.621871
   4 S :   -0.319400
   5 O :   -0.374203
   6 C :   -0.011594
   7 C :   -0.330595
   8 S :   -0.110680
   9 C :   -0.316672
  10 S :   -0.107564
  11 P :    0.627670
  12 S :   -0.303066
  13 O :   -0.373631
  14 C :   -0.008607
  15 C :   -0.301858
  16 O :   -0.375150
  17 C :   -0.013363
  18 C :   -0.318419
  19 H :    0.124818
  20 H :    0.114089
  21 H :    0.109085
  22 H :    0.098888
  23 H :    0.110888
  24 H :    0.113211
  25 H :    0.107760
  26 H :    0.153927
  27 H :    0.108628
  28 H :    0.124871
  29 H :    0.183809
  30 H :    0.189289
  31 H :    0.099907
  32 H :    0.110125
  33 H :    0.109622
  34 H :    0.124012
  35 H :    0.114917
  36 H :    0.115097
  37 H :    0.105891
  38 H :    0.157064
  39 H :    0.105345
  40 H :    0.114930
Sum of atomic charges:   -0.0000000

LOEWDIN ATOMIC CHARGES
----------------------
   0 C :   -0.363144
   1 C :   -0.122067
   2 O :   -0.243758
   3 P :    0.573393
   4 S :   -0.309733
   5 O :   -0.247542
   6 C :   -0.114283
   7 C :   -0.373712
   8 S :    0.074933
   9 C :   -0.465899
  10 S :    0.083864
  11 P :    0.569635
  12 S :   -0.299176
  13 O :   -0.244695
  14 C :   -0.122838
  15 C :   -0.363380
  16 O :   -0.244324
  17 C :   -0.110839
  18 C :   -0.369660
  19 H :    0.124623
  20 H :    0.125358
  21 H :    0.128988
  22 H :    0.115211
  23 H :    0.108213
  24 H :    0.108427
  25 H :    0.120769
  26 H :    0.123762
  27 H :    0.129107
  28 H :    0.128915
  29 H :    0.133824
  30 H :    0.135812
  31 H :    0.115624
  32 H :    0.108030
  33 H :    0.129243
  34 H :    0.123802
  35 H :    0.125650
  36 H :    0.109547
  37 H :    0.119293
  38 H :    0.124610
  39 H :    0.128079
  40 H :    0.126336

  Mayer bond orders larger than 0.100000
B(  0-C ,  1-C ) :   1.1663 B(  0-C , 19-H ) :   0.9351 B(  0-C , 20-H ) :   0.9469
B(  0-C , 21-H ) :   0.9399 B(  1-C ,  2-O ) :   0.9041 B(  1-C , 22-H ) :   0.9333
B(  1-C , 23-H ) :   0.9087 B(  2-O ,  3-P ) :   1.1078 B(  3-P ,  4-S ) :   1.6123
B(  3-P ,  5-O ) :   1.1063 B(  3-P ,  8-S ) :   0.9495 B(  4-S ,  8-S ) :   0.1171
B(  5-O ,  6-C ) :   0.9179 B(  6-C ,  7-C ) :   1.1640 B(  6-C , 24-H ) :   0.9254
B(  6-C , 25-H ) :   0.9341 B(  7-C , 26-H ) :   0.9249 B(  7-C , 27-H ) :   0.9338
B(  7-C , 28-H ) :   0.9408 B(  8-S ,  9-C ) :   0.9996 B(  9-C , 10-S ) :   1.0159
B(  9-C , 29-H ) :   0.9037 B(  9-C , 30-H ) :   0.9065 B( 10-S , 11-P ) :   0.9373
B( 10-S , 12-S ) :   0.1193 B( 11-P , 12-S ) :   1.6454 B( 11-P , 13-O ) :   1.1036
B( 11-P , 16-O ) :   1.1083 B( 13-O , 14-C ) :   0.9060 B( 14-C , 15-C ) :   1.1669
B( 14-C , 31-H ) :   0.9332 B( 14-C , 32-H ) :   0.9084 B( 15-C , 33-H ) :   0.9396
B( 15-C , 34-H ) :   0.9356 B( 15-C , 35-H ) :   0.9469 B( 16-O , 17-C ) :   0.9134
B( 17-C , 18-C ) :   1.1645 B( 17-C , 36-H ) :   0.9240 B( 17-C , 37-H ) :   0.9359
B( 18-C , 38-H ) :   0.9248 B( 18-C , 39-H ) :   0.9363 B( 18-C , 40-H ) :   0.9446

Dispersion correction           -0.068378059
FINAL SINGLE POINT ENERGY     -2929.506648167326

DIPOLE MOMENT
-------------

Method             : SCF
Type of density    : Electron Density
Multiplicity       :   1
Irrep              :   0
Energy             : -2929.6224005825192762 Eh
Relativity type    :
Basis              : AO
                                X                 Y                 Z
Electronic contribution:      1.065344445      -8.466892976       2.539817794
Nuclear contribution   :     -1.067218516       7.738531416      -2.556070771
                        -----------------------------------------
Total Dipole Moment    :     -0.001874071      -0.728361560      -0.016252977
                        -----------------------------------------
Magnitude (a.u.)       :      0.728545286
Magnitude (Debye)      :      1.851814951

Rotational constants in cm-1:             0.012450             0.005436             0.005184
Rotational constants in MHz :           373.230045           162.972359           155.407083

                             ****ORCA TERMINATED NORMALLY****
TOTAL RUN TIME: 0 days 0 hours 0 minutes 21 seconds 352 msec
