                         Program Version 6.0.1  -  RELEASE   -
|  1> ! pbe def2-sv(p) def2/J RI DEFGRID1 loosescf d4 GCP(DFT/SV(P)) printgap
|  2> %output
|  3>     printlevel normal
|  4> end
|  5> * xyz 0 1
|  6> C 2.0252692816 -3.3947587891 -2.4351138897
|  7> C 3.2241683416 -2.8915426274 -1.6470765516
|  8> O 2.9358330365 -1.6162655331 -1.0444011925
|  9> C 2.3106860083 -1.5975882444 0.1149910029
| 10> O 2.0288738285 -2.5771193212 0.7669845251
| 11> C 1.9832230787 -0.1772876496 0.5447306418
| 12> C 1.2041841732 0.5367135919 -0.5632368828
| 13> H 1.859167838 0.7416064234 -1.412402678
| 14> C 0.5923692599 1.8211649089 -0.043168171
| 15> O -0.6133887015 1.9709389301 0.0393254025
| 16> O 1.4871646858 2.6886250498 0.3204634351
| 17> C 1.0448325107 3.9501576098 0.8744900796
| 18> C 0.7270149037 4.9434821165 -0.2301791102
| 19> S -0.1532780701 -0.4871281932 -1.2346977659
| 20> P -1.6118298366 -0.2813156348 0.2757737692
| 21> S -1.2573070927 0.049723437 2.1880128643
| 22> O -2.9099503043 0.4505787357 -0.302460227
| 23> C -3.3740447135 1.7511290846 0.0586702686
| 24> O -2.0754482362 -1.8020739695 0.0299862207
| 25> C -3.1415032464 -2.3886607806 0.7790058158
| 26> H 2.2827728439 -4.3252082163 -2.929831584
| 27> H 1.1850677038 -3.5686301627 -1.7660649806
| 28> H 1.7275814782 -2.6583127409 -3.1762703902
| 29> H 4.0768961808 -2.6982531995 -2.2976278398
| 30> H 3.4950386912 -3.5992667021 -0.8584404189
| 31> H 2.9082498265 0.3670860842 0.7394289834
| 32> H 1.3968731797 -0.233688733 1.4644790385
| 33> H 0.1705307147 3.7655814359 1.504160926
| 34> H 1.8872955193 4.2820498408 1.4805572771
| 35> H 0.4575777835 5.8955947035 0.2145366636
| 36> H 1.5929740939 5.0801993837 -0.8715689916
| 37> H -0.1070149055 4.5873792526 -0.8302200018
| 38> H -2.9707590355 2.4858394983 -0.6345659169
| 39> H -3.0608838665 1.9921990775 1.075428654
| 40> H -4.4590162237 1.7089189796 -0.0077448805
| 41> H -3.0728106207 -3.4589347233 0.6012708876
| 42> H -4.0991425145 -2.0011052363 0.4324601924
| 43> H -3.0162064241 -2.1726249307 1.8424518048
| 44> *
| 45>
| 46>                          ****END OF INPUT****

CARTESIAN COORDINATES (ANGSTROEM)
---------------------------------
  C      2.025269   -3.394759   -2.435114
  C      3.224168   -2.891543   -1.647077
  O      2.935833   -1.616266   -1.044401
  C      2.310686   -1.597588    0.114991
  O      2.028874   -2.577119    0.766985
  C      1.983223   -0.177288    0.544731
  C      1.204184    0.536714   -0.563237
  H      1.859168    0.741606   -1.412403
  C      0.592369    1.821165   -0.043168
  O     -0.613389    1.970939    0.039325
  O      1.487165    2.688625    0.320463
  C      1.044833    3.950158    0.874490
  C      0.727015    4.943482   -0.230179
  S     -0.153278   -0.487128   -1.234698
  P     -1.611830   -0.281316    0.275774
  S     -1.257307    0.049723    2.188013
  O     -2.909950    0.450579   -0.302460
  C     -3.374045    1.751129    0.058670
  O     -2.075448   -1.802074    0.029986
  C     -3.141503   -2.388661    0.779006
  H      2.282773   -4.325208   -2.929832
  H      1.185068   -3.568630   -1.766065
  H      1.727581   -2.658313   -3.176270
  H      4.076896   -2.698253   -2.297628
  H      3.495039   -3.599267   -0.858440
  H      2.908250    0.367086    0.739429
  H      1.396873   -0.233689    1.464479
  H      0.170531    3.765581    1.504161
  H      1.887296    4.282050    1.480557
  H      0.457578    5.895595    0.214537
  H      1.592974    5.080199   -0.871569
  H     -0.107015    4.587379   -0.830220
  H     -2.970759    2.485839   -0.634566
  H     -3.060884    1.992199    1.075429
  H     -4.459016    1.708919   -0.007745
  H     -3.072811   -3.458935    0.601271
  H     -4.099143   -2.001105    0.432460
  H     -3.016206   -2.172625    1.842452

 Total Charge           Charge          ....    0
 Multiplicity           Mult            ....    1
 Number of Electrons    NEL             ....  174
 Basis Dimension        Dim             ....  316

ORBITAL ENERGIES
----------------

  NO   OCC          E(Eh)            E(eV)
   0   2.0000     -88.034684     -2395.5455
   1   2.0000     -87.969308     -2393.7666
   2   2.0000     -76.416578     -2079.4008
   3   2.0000     -18.831888      -512.4417
   4   2.0000     -18.799324      -511.5556
   5   2.0000     -18.779578      -511.0183
   6   2.0000     -18.767338      -510.6852
   7   2.0000     -18.767255      -510.6830
   8   2.0000     -18.731960      -509.7226
   9   2.0000     -10.035849      -273.0893
  10   2.0000     -10.005049      -272.2512
  11   2.0000      -9.966006      -271.1888
  12   2.0000      -9.953624      -270.8519
  13   2.0000      -9.944643      -270.6075
  14   2.0000      -9.931868      -270.2599
  15   2.0000      -9.926408      -270.1113
  16   2.0000      -9.905277      -269.5363
  17   2.0000      -9.901991      -269.4469
  18   2.0000      -9.879866      -268.8448
  19   2.0000      -7.679609      -208.9728
  20   2.0000      -7.614377      -207.1977
  21   2.0000      -6.412312      -174.4879
  22   2.0000      -5.707855      -155.3186
  23   2.0000      -5.704319      -155.2224
  24   2.0000      -5.695948      -154.9946
  25   2.0000      -5.643547      -153.5687
  26   2.0000      -5.635258      -153.3432
  27   2.0000      -5.633998      -153.3089
  28   2.0000      -4.634936      -126.1230
  29   2.0000      -4.634332      -126.1066
  30   2.0000      -4.632928      -126.0684
  31   2.0000      -1.041721       -28.3467
  32   2.0000      -1.006984       -27.4014
  33   2.0000      -0.967473       -26.3263
  34   2.0000      -0.946082       -25.7442
  35   2.0000      -0.922089       -25.0913
  36   2.0000      -0.909259       -24.7422
  37   2.0000      -0.769018       -20.9260
  38   2.0000      -0.722582       -19.6624
  39   2.0000      -0.705630       -19.2012
  40   2.0000      -0.685058       -18.6414
  41   2.0000      -0.647238       -17.6122
  42   2.0000      -0.632976       -17.2241
  43   2.0000      -0.618520       -16.8308
  44   2.0000      -0.614115       -16.7109
  45   2.0000      -0.593709       -16.1556
  46   2.0000      -0.568487       -15.4693
  47   2.0000      -0.517490       -14.0816
  48   2.0000      -0.504403       -13.7255
  49   2.0000      -0.495534       -13.4842
  50   2.0000      -0.486599       -13.2410
  51   2.0000      -0.466321       -12.6892
  52   2.0000      -0.457462       -12.4482
  53   2.0000      -0.451573       -12.2879
  54   2.0000      -0.442777       -12.0486
  55   2.0000      -0.433684       -11.8012
  56   2.0000      -0.429159       -11.6780
  57   2.0000      -0.413708       -11.2576
  58   2.0000      -0.408586       -11.1182
  59   2.0000      -0.403035       -10.9672
  60   2.0000      -0.398274       -10.8376
  61   2.0000      -0.393368       -10.7041
  62   2.0000      -0.386436       -10.5155
  63   2.0000      -0.383992       -10.4490
  64   2.0000      -0.377101       -10.2614
  65   2.0000      -0.370332       -10.0772
  66   2.0000      -0.359418        -9.7803
  67   2.0000      -0.356589        -9.7033
  68   2.0000      -0.352555        -9.5935
  69   2.0000      -0.343790        -9.3550
  70   2.0000      -0.334243        -9.0952
  71   2.0000      -0.329296        -8.9606
  72   2.0000      -0.322106        -8.7649
  73   2.0000      -0.314163        -8.5488
  74   2.0000      -0.304262        -8.2794
  75   2.0000      -0.291967        -7.9448
  76   2.0000      -0.290392        -7.9020
  77   2.0000      -0.289021        -7.8647
  78   2.0000      -0.274196        -7.4612
  79   2.0000      -0.261523        -7.1164
  80   2.0000      -0.256953        -6.9920
  81   2.0000      -0.254704        -6.9309
  82   2.0000      -0.245576        -6.6825
  83   2.0000      -0.215013        -5.8508
  84   2.0000      -0.211858        -5.7649
  85   2.0000      -0.189936        -5.1684
  86   2.0000      -0.182300        -4.9606
  87   0.0000      -0.050972        -1.3870
  88   0.0000      -0.040100        -1.0912
  89   0.0000      -0.013545        -0.3686
  90   0.0000       0.007470         0.2033
  91   0.0000       0.030765         0.8372

MULLIKEN ATOMIC CHARGES
-----------------------
   0 C :   -0.305159
   1 C :   -0.012228
   2 O :   -0.242393
   3 C :    0.123599
   4 O :   -0.179074
   5 C :   -0.074851
   6 C :   -0.329247
   7 H :    0.149327
   8 C :    0.236191
   9 O :   -0.199407
  10 O :   -0.214192
  11 C :   -0.012170
  12 C :   -0.312065
  13 S :   -0.061849
  14 P :    0.651131
  15 S :   -0.351646
  16 O :   -0.390664
  17 C :   -0.085150
  18 O :   -0.391300
  19 C :   -0.095077
  20 H :    0.109673
  21 H :    0.138779
  22 H :    0.111224
  23 H :    0.098990
  24 H :    0.109015
  25 H :    0.117049
  26 H :    0.124343
  27 H :    0.124172
  28 H :    0.112955
  29 H :    0.121712
  30 H :    0.119586
  31 H :    0.130840
  32 H :    0.111716
  33 H :    0.112737
  34 H :    0.114224
  35 H :    0.120677
  36 H :    0.104687
  37 H :    0.113844
Sum of atomic charges:   -0.0000000

LOEWDIN ATOMIC CHARGES
----------------------
   0 C :   -0.357956
   1 C :   -0.110532
   2 O :   -0.066692
   3 C :    0.021913
   4 O :   -0.150718
   5 C :   -0.254491
   6 C :   -0.263367
   7 H :    0.148882
   8 C :    0.031177
   9 O :   -0.154189
  10 O :   -0.030962
  11 C :   -0.104622
  12 C :   -0.355689
  13 S :    0.133648
  14 P :    0.590743
  15 S :   -0.340550
  16 O :   -0.252952
  17 C :   -0.212287
  18 O :   -0.269179
  19 C :   -0.215932
  20 H :    0.128647
  21 H :    0.134183
  22 H :    0.122270
  23 H :    0.115651
  24 H :    0.120314
  25 H :    0.142778
  26 H :    0.136488
  27 H :    0.127476
  28 H :    0.123665
  29 H :    0.135429
  30 H :    0.127746
  31 H :    0.130988
  32 H :    0.110263
  33 H :    0.107302
  34 H :    0.114871
  35 H :    0.120086
  36 H :    0.107607
  37 H :    0.107994

  Mayer bond orders larger than 0.100000
B(  0-C ,  1-C ) :   1.1760 B(  0-C , 20-H ) :   0.9427 B(  0-C , 21-H ) :   0.9418
B(  0-C , 22-H ) :   0.9477 B(  1-C ,  2-O ) :   0.9162 B(  1-C , 23-H ) :   0.9377
B(  1-C , 24-H ) :   0.9142 B(  2-O ,  3-C ) :   1.1989 B(  3-C ,  4-O ) :   2.0860
B(  3-C ,  5-C ) :   1.0202 B(  5-C ,  6-C ) :   1.0317 B(  5-C , 25-H ) :   0.8743
B(  5-C , 26-H ) :   0.8781 B(  6-C ,  7-H ) :   0.8604 B(  6-C ,  8-C ) :   0.9215
B(  6-C , 13-S ) :   1.0462 B(  8-C ,  9-O ) :   1.9008 B(  8-C , 10-O ) :   1.2925
B(  9-O , 14-P ) :   0.1292 B( 10-O , 11-C ) :   0.8942 B( 11-C , 12-C ) :   1.1743
B( 11-C , 27-H ) :   0.9156 B( 11-C , 28-H ) :   0.9358 B( 12-C , 29-H ) :   0.9429
B( 12-C , 30-H ) :   0.9472 B( 12-C , 31-H ) :   0.9452 B( 13-S , 14-P ) :   0.9256
B( 13-S , 15-S ) :   0.1093 B( 14-P , 15-S ) :   1.5549 B( 14-P , 16-O ) :   1.0924
B( 14-P , 18-O ) :   1.0772 B( 16-O , 17-C ) :   0.9333 B( 17-C , 32-H ) :   0.9535
B( 17-C , 33-H ) :   0.9335 B( 17-C , 34-H ) :   0.9546 B( 18-O , 19-C ) :   0.9416
B( 19-C , 35-H ) :   0.9608 B( 19-C , 36-H ) :   0.9511 B( 19-C , 37-H ) :   0.9327

Dispersion correction           -0.052374827
FINAL SINGLE POINT ENERGY     -1979.011440497879

DIPOLE MOMENT
-------------

Method             : SCF
Type of density    : Electron Density
Multiplicity       :   1
Irrep              :   0
Energy             : -1979.1415131437925083 Eh
Relativity type    :
Basis              : AO
                                X                 Y                 Z
Electronic contribution:     -3.075030898      -4.483678437       4.415593110
Nuclear contribution   :      3.608467806       6.058592096      -5.371054300
                        -----------------------------------------
Total Dipole Moment    :      0.533436908       1.574913659      -0.955461191
                        -----------------------------------------
Magnitude (a.u.)       :      1.917762773
Magnitude (Debye)      :      4.874565582

Rotational constants in cm-1:             0.011190             0.008403             0.005824
Rotational constants in MHz :           335.462875           251.916580           174.587844

                             ****ORCA TERMINATED NORMALLY****
TOTAL RUN TIME: 0 days 0 hours 0 minutes 43 seconds 866 msec
