                         Program Version 6.0.0  -   RELEASE  -
|  1> ! pbe def2-sv(p) def2/J RI DEFGRID1 loosescf d4 GCP(DFT/SV(P)) printgap
|  2> %output
|  3>     printlevel normal
|  4> end
|  5> * xyz 0 1
|  6> C 4.1014548864 -1.5294232901 -2.275044167
|  7> C 4.7535153837 -1.1641469733 -0.9577410924
|  8> O 3.8019740168 -1.0751972339 0.1186685508
|  9> P 2.6709452929 0.036624316 0.1665807687
| 10> S 3.1801550229 1.8189719761 -0.4718935913
| 11> O 2.2741397667 0.0715493959 1.691832305
| 12> C 2.3848061628 -1.0293605196 2.6286986878
| 13> C 1.5146972374 -2.2066148149 2.2455535287
| 14> S 1.0148527821 -0.8145831423 -0.8889998022
| 15> C 0.0584752202 0.7092295365 -0.9971709648
| 16> S -0.9206930688 1.0370280102 0.4932485101
| 17> P -2.773251434 0.3339420998 -0.3093964615
| 18> S -3.2374441737 1.0072335789 -2.0851748822
| 19> O -3.8206008597 0.6049477537 0.8549763907
| 20> C -4.5433331456 1.8435371382 0.9799354431
| 21> C -3.6283775936 3.0175156286 1.2607305435
| 22> O -2.657587561 -1.2355172067 -0.3072316812
| 23> C -2.4105317753 -2.0170452849 0.8909116284
| 24> C -1.6828274322 -3.2795695909 0.4784849532
| 25> H 3.4668600441 -0.7128038936 -2.6163721949
| 26> H 4.8720507418 -1.7066074871 -3.0184289911
| 27> H 3.4933024618 -2.423574882 -2.1646486276
| 28> H 5.2724710274 -0.2042909736 -1.0398315394
| 29> H 5.4484825221 -1.9361551694 -0.6243563609
| 30> H 3.4349806297 -1.3209040863 2.6879256318
| 31> H 2.0672913319 -0.5820254514 3.5718153102
| 32> H 1.8514540564 -2.6331674162 1.3029865191
| 33> H 1.5807058755 -2.9627327496 3.0214974818
| 34> H 0.4802621781 -1.8913218923 2.1416610886
| 35> H -0.6168113773 0.6261649794 -1.8500485433
| 36> H 0.7499229736 1.5439663166 -1.1301678549
| 37> H -5.1063907038 2.0081525153 0.0563544346
| 38> H -5.2299140694 1.6596492838 1.8075275931
| 39> H -2.9980328419 3.2141253854 0.39420566
| 40> H -4.2274151026 3.899268569 1.4643815536
| 41> H -2.9913919522 2.8074924849 2.1165484761
| 42> H -1.8204826774 -1.4113210204 1.5854731905
| 43> H -3.3794661487 -2.2353664009 1.3430716784
| 44> H -2.2911118704 -3.842727969 -0.2229970479
| 45> H -0.7408256877 -3.0293521648 -0.0033101088
| 46> H -1.4912419508 -3.8861315859 1.3576094737
| 47> *
| 48>
| 49>                          ****END OF INPUT****

CARTESIAN COORDINATES (ANGSTROEM)
---------------------------------
  C      4.101455   -1.529423   -2.275044
  C      4.753515   -1.164147   -0.957741
  O      3.801974   -1.075197    0.118669
  P      2.670945    0.036624    0.166581
  S      3.180155    1.818972   -0.471894
  O      2.274140    0.071549    1.691832
  C      2.384806   -1.029361    2.628699
  C      1.514697   -2.206615    2.245554
  S      1.014853   -0.814583   -0.889000
  C      0.058475    0.709230   -0.997171
  S     -0.920693    1.037028    0.493249
  P     -2.773251    0.333942   -0.309396
  S     -3.237444    1.007234   -2.085175
  O     -3.820601    0.604948    0.854976
  C     -4.543333    1.843537    0.979935
  C     -3.628378    3.017516    1.260731
  O     -2.657588   -1.235517   -0.307232
  C     -2.410532   -2.017045    0.890912
  C     -1.682827   -3.279570    0.478485
  H      3.466860   -0.712804   -2.616372
  H      4.872051   -1.706607   -3.018429
  H      3.493302   -2.423575   -2.164649
  H      5.272471   -0.204291   -1.039832
  H      5.448483   -1.936155   -0.624356
  H      3.434981   -1.320904    2.687926
  H      2.067291   -0.582025    3.571815
  H      1.851454   -2.633167    1.302987
  H      1.580706   -2.962733    3.021497
  H      0.480262   -1.891322    2.141661
  H     -0.616811    0.626165   -1.850049
  H      0.749923    1.543966   -1.130168
  H     -5.106391    2.008153    0.056354
  H     -5.229914    1.659649    1.807528
  H     -2.998033    3.214125    0.394206
  H     -4.227415    3.899269    1.464382
  H     -2.991392    2.807492    2.116548
  H     -1.820483   -1.411321    1.585473
  H     -3.379466   -2.235366    1.343072
  H     -2.291112   -3.842728   -0.222997
  H     -0.740826   -3.029352   -0.003310
  H     -1.491242   -3.886132    1.357609

 Total Charge           Charge          ....    0
 Multiplicity           Mult            ....    1
 Number of Electrons    NEL             ....  202
 Basis Dimension        Dim             ....  334

ORBITAL ENERGIES
----------------

  NO   OCC          E(Eh)            E(eV)
   0   2.0000     -88.043701     -2395.7909
   1   2.0000     -88.039719     -2395.6825
   2   2.0000     -87.987820     -2394.2703
   3   2.0000     -87.984788     -2394.1878
   4   2.0000     -76.430944     -2079.7917
   5   2.0000     -76.426034     -2079.6581
   6   2.0000     -18.803988      -511.6825
   7   2.0000     -18.796425      -511.4767
   8   2.0000     -18.794427      -511.4224
   9   2.0000     -18.792465      -511.3690
  10   2.0000      -9.962112      -271.0829
  11   2.0000      -9.960311      -271.0338
  12   2.0000      -9.956861      -270.9399
  13   2.0000      -9.955594      -270.9055
  14   2.0000      -9.948080      -270.7010
  15   2.0000      -9.894487      -269.2427
  16   2.0000      -9.888360      -269.0760
  17   2.0000      -9.887910      -269.0637
  18   2.0000      -9.884800      -268.9791
  19   2.0000      -7.688326      -209.2100
  20   2.0000      -7.684549      -209.1072
  21   2.0000      -7.633007      -207.7047
  22   2.0000      -7.630098      -207.6255
  23   2.0000      -6.428437      -174.9267
  24   2.0000      -6.423676      -174.7971
  25   2.0000      -5.715972      -155.5395
  26   2.0000      -5.713026      -155.4594
  27   2.0000      -5.712186      -155.4365
  28   2.0000      -5.709185      -155.3548
  29   2.0000      -5.705402      -155.2519
  30   2.0000      -5.701691      -155.1509
  31   2.0000      -5.662020      -154.0714
  32   2.0000      -5.659145      -153.9932
  33   2.0000      -5.653739      -153.8461
  34   2.0000      -5.652933      -153.8241
  35   2.0000      -5.650794      -153.7659
  36   2.0000      -5.650028      -153.7451
  37   2.0000      -4.651663      -126.5782
  38   2.0000      -4.649836      -126.5285
  39   2.0000      -4.648623      -126.4955
  40   2.0000      -4.646697      -126.4431
  41   2.0000      -4.645306      -126.4052
  42   2.0000      -4.643835      -126.3652
  43   2.0000      -0.995396       -27.0861
  44   2.0000      -0.990178       -26.9441
  45   2.0000      -0.951065       -25.8798
  46   2.0000      -0.947284       -25.7769
  47   2.0000      -0.762604       -20.7515
  48   2.0000      -0.724757       -19.7216
  49   2.0000      -0.715005       -19.4563
  50   2.0000      -0.697405       -18.9773
  51   2.0000      -0.691044       -18.8043
  52   2.0000      -0.679840       -18.4994
  53   2.0000      -0.652481       -17.7549
  54   2.0000      -0.636228       -17.3126
  55   2.0000      -0.602918       -16.4062
  56   2.0000      -0.592835       -16.1319
  57   2.0000      -0.586252       -15.9527
  58   2.0000      -0.573870       -15.6158
  59   2.0000      -0.555729       -15.1222
  60   2.0000      -0.507760       -13.8169
  61   2.0000      -0.501147       -13.6369
  62   2.0000      -0.477318       -12.9885
  63   2.0000      -0.475580       -12.9412
  64   2.0000      -0.463642       -12.6163
  65   2.0000      -0.454467       -12.3667
  66   2.0000      -0.442015       -12.0278
  67   2.0000      -0.439166       -11.9503
  68   2.0000      -0.433014       -11.7829
  69   2.0000      -0.430821       -11.7232
  70   2.0000      -0.413948       -11.2641
  71   2.0000      -0.406646       -11.0654
  72   2.0000      -0.392191       -10.6721
  73   2.0000      -0.388431       -10.5698
  74   2.0000      -0.376459       -10.2440
  75   2.0000      -0.372052       -10.1241
  76   2.0000      -0.366549        -9.9743
  77   2.0000      -0.364422        -9.9164
  78   2.0000      -0.358653        -9.7594
  79   2.0000      -0.357618        -9.7313
  80   2.0000      -0.354604        -9.6493
  81   2.0000      -0.347253        -9.4492
  82   2.0000      -0.345284        -9.3957
  83   2.0000      -0.338688        -9.2162
  84   2.0000      -0.338564        -9.2128
  85   2.0000      -0.323380        -8.7996
  86   2.0000      -0.314995        -8.5715
  87   2.0000      -0.303180        -8.2499
  88   2.0000      -0.302548        -8.2327
  89   2.0000      -0.300296        -8.1715
  90   2.0000      -0.295675        -8.0457
  91   2.0000      -0.278873        -7.5885
  92   2.0000      -0.271416        -7.3856
  93   2.0000      -0.266020        -7.2388
  94   2.0000      -0.257709        -7.0126
  95   2.0000      -0.236606        -6.4384
  96   2.0000      -0.222679        -6.0594
  97   2.0000      -0.211310        -5.7500
  98   2.0000      -0.206199        -5.6110
  99   2.0000      -0.200842        -5.4652
 100   2.0000      -0.193950        -5.2777
 101   0.0000      -0.042841        -1.1658
 102   0.0000      -0.031615        -0.8603
 103   0.0000      -0.010162        -0.2765
 104   0.0000       0.000243         0.0066
 105   0.0000       0.019129         0.5205

MULLIKEN ATOMIC CHARGES
-----------------------
   0 C :   -0.319920
   1 C :   -0.001211
   2 O :   -0.387139
   3 P :    0.609694
   4 S :   -0.308262
   5 O :   -0.360218
   6 C :    0.015859
   7 C :   -0.351503
   8 S :   -0.094999
   9 C :   -0.364606
  10 S :   -0.088138
  11 P :    0.585450
  12 S :   -0.305656
  13 O :   -0.385517
  14 C :    0.001255
  15 C :   -0.325450
  16 O :   -0.358659
  17 C :   -0.026460
  18 C :   -0.289229
  19 H :    0.133998
  20 H :    0.116872
  21 H :    0.116918
  22 H :    0.116573
  23 H :    0.105785
  24 H :    0.110121
  25 H :    0.111474
  26 H :    0.126605
  27 H :    0.113175
  28 H :    0.143114
  29 H :    0.188755
  30 H :    0.197700
  31 H :    0.114147
  32 H :    0.105188
  33 H :    0.135571
  34 H :    0.115774
  35 H :    0.119393
  36 H :    0.116280
  37 H :    0.108138
  38 H :    0.120716
  39 H :    0.131633
  40 H :    0.106779
Sum of atomic charges:    0.0000000

LOEWDIN ATOMIC CHARGES
----------------------
   0 C :   -0.370821
   1 C :   -0.115415
   2 O :   -0.245560
   3 P :    0.575968
   4 S :   -0.305657
   5 O :   -0.239597
   6 C :   -0.104815
   7 C :   -0.370716
   8 S :    0.083538
   9 C :   -0.493720
  10 S :    0.073818
  11 P :    0.571992
  12 S :   -0.312368
  13 O :   -0.249129
  14 C :   -0.114912
  15 C :   -0.371853
  16 O :   -0.239077
  17 C :   -0.114821
  18 C :   -0.356240
  19 H :    0.124253
  20 H :    0.133319
  21 H :    0.123451
  22 H :    0.115025
  23 H :    0.118966
  24 H :    0.115279
  25 H :    0.123645
  26 H :    0.119234
  27 H :    0.131390
  28 H :    0.126162
  29 H :    0.128904
  30 H :    0.127529
  31 H :    0.114428
  32 H :    0.118789
  33 H :    0.124799
  34 H :    0.132697
  35 H :    0.123892
  36 H :    0.100891
  37 H :    0.116980
  38 H :    0.129969
  39 H :    0.121902
  40 H :    0.127882

  Mayer bond orders larger than 0.100000
B(  0-C ,  1-C ) :   1.1670 B(  0-C , 19-H ) :   0.9329 B(  0-C , 20-H ) :   0.9365
B(  0-C , 21-H ) :   0.9445 B(  1-C ,  2-O ) :   0.8988 B(  1-C , 22-H ) :   0.9180
B(  1-C , 23-H ) :   0.9339 B(  2-O ,  3-P ) :   1.0807 B(  3-P ,  4-S ) :   1.6329
B(  3-P ,  5-O ) :   1.1384 B(  3-P ,  8-S ) :   0.9415 B(  4-S ,  8-S ) :   0.1132
B(  4-S , 30-H ) :   0.1068 B(  5-O ,  6-C ) :   0.8992 B(  6-C ,  7-C ) :   1.1693
B(  6-C , 24-H ) :   0.9285 B(  6-C , 25-H ) :   0.9338 B(  7-C , 26-H ) :   0.9380
B(  7-C , 27-H ) :   0.9338 B(  7-C , 28-H ) :   0.9277 B(  8-S ,  9-C ) :   1.0056
B(  9-C , 10-S ) :   0.9882 B(  9-C , 29-H ) :   0.8597 B(  9-C , 30-H ) :   0.8562
B( 10-S , 11-P ) :   0.9593 B( 10-S , 12-S ) :   0.1095 B( 11-P , 12-S ) :   1.6322
B( 11-P , 13-O ) :   1.0909 B( 11-P , 16-O ) :   1.1360 B( 13-O , 14-C ) :   0.9043
B( 14-C , 15-C ) :   1.1651 B( 14-C , 31-H ) :   0.9202 B( 14-C , 32-H ) :   0.9342
B( 15-C , 33-H ) :   0.9332 B( 15-C , 34-H ) :   0.9367 B( 15-C , 35-H ) :   0.9435
B( 16-O , 17-C ) :   0.8887 B( 17-C , 18-C ) :   1.1664 B( 17-C , 36-H ) :   0.9022
B( 17-C , 37-H ) :   0.9292 B( 18-C , 38-H ) :   0.9466 B( 18-C , 39-H ) :   0.9354
B( 18-C , 40-H ) :   0.9388

Dispersion correction           -0.063985519
FINAL SINGLE POINT ENERGY     -2929.516842013676

DIPOLE MOMENT
-------------

Method             : SCF
Type of density    : Electron Density
Multiplicity       :   1
Irrep              :   0
Energy             : -2929.6382610199425471 Eh
Relativity type    :
Basis              : AO
                                X                 Y                 Z
Electronic contribution:     -1.469663518      13.025151504      -8.269491830
Nuclear contribution   :      1.796270548     -14.534580982       9.799439014
                        -----------------------------------------
Total Dipole Moment    :      0.326607031      -1.509429478       1.529947184
                        -----------------------------------------
Magnitude (a.u.)       :      2.173887736
Magnitude (Debye)      :      5.525583499

Rotational constants in cm-1:             0.012640             0.004431             0.004199
Rotational constants in MHz :           378.930914           132.843390           125.881528

                             ****ORCA TERMINATED NORMALLY****
TOTAL RUN TIME: 0 days 0 hours 0 minutes 21 seconds 296 msec
