                         Program Version 6.0.0  -   RELEASE  -
|  1> ! r2scan-3c def2/J RI DEFGRID2 scfconv6 printgap
|  2> %output
|  3>     printlevel normal
|  4> end
|  5> * xyz 0 1
|  6> C 0.0207176142 -0.6665082456 3.1939068798
|  7> C 1.2535261918 -0.1473902795 2.4849705454
|  8> O 1.5749257898 -1.0768961499 1.4159637296
|  9> P 2.3773962026 -0.6499757267 0.1341883609
| 10> S 2.8320340974 -2.1653073457 -1.0130632954
| 11> O 3.6021404385 0.1439667839 0.7609300838
| 12> C 4.6742656404 0.6448182935 -0.0657571463
| 13> C 5.845154834 0.9667029221 0.8402745973
| 14> S 1.2626492376 0.9085359366 -0.8195426138
| 15> C 0.3133321049 -0.1763866011 -1.9070879849
| 16> S -0.8964985914 -1.1831319581 -1.0136721282
| 17> P -2.2447958801 0.4088380014 -0.6278071078
| 18> S -2.4833066654 1.7407401894 -2.0341848434
| 19> O -1.6379922083 0.9550536785 0.7488610967
| 20> C -1.8003124664 2.3275729956 1.1567848851
| 21> C -3.2249524954 2.6058333962 1.5907219538
| 22> O -3.6018543478 -0.3258018673 -0.274456076
| 23> C -3.6952282041 -1.3470215857 0.7505510238
| 24> C -5.1079597616 -1.8909292008 0.7247482492
| 25> H -0.8244518728 -0.6737095118 2.5108392536
| 26> H 0.1948497365 -1.6793707561 3.5450581374
| 27> H -0.2025253968 -0.0237938492 4.0394510669
| 28> H 2.1172252986 -0.1045157862 3.1505586941
| 29> H 1.0835755647 0.840922325 2.0473063003
| 30> H 4.933735688 -0.1230063907 -0.8018150966
| 31> H 4.3134946951 1.5349792969 -0.5878505201
| 32> H 5.5533957088 1.7116732938 1.5745803207
| 33> H 6.1734318577 0.0696886622 1.35771654
| 34> H 6.6625596939 1.3532889466 0.2406589837
| 35> H 0.9923241413 -0.8719490859 -2.4013360073
| 36> H -0.2022075985 0.4621759112 -2.6250130949
| 37> H -1.0932157494 2.4491641338 1.9783080415
| 38> H -1.5156784194 2.9751420628 0.3219467745
| 39> H -3.3096522526 3.6397053874 1.9099844165
| 40> H -3.9013805712 2.4386326171 0.7523882143
| 41> H -3.5091104694 1.952014651 2.4111486472
| 42> H -2.9606012764 -2.1266681755 0.5294933126
| 43> H -3.4583937898 -0.8902420274 1.7145067988
| 44> H -5.8189978342 -1.0925238724 0.9162056258
| 45> H -5.3225835284 -2.3230321151 -0.2483465835
| 46> H -5.2091567049 -2.6558033809 1.4878650067
| 47> *
| 48>
| 49>                          ****END OF INPUT****

CARTESIAN COORDINATES (ANGSTROEM)
---------------------------------
  C      0.020718   -0.666508    3.193907
  C      1.253526   -0.147390    2.484971
  O      1.574926   -1.076896    1.415964
  P      2.377396   -0.649976    0.134188
  S      2.832034   -2.165307   -1.013063
  O      3.602140    0.143967    0.760930
  C      4.674266    0.644818   -0.065757
  C      5.845155    0.966703    0.840275
  S      1.262649    0.908536   -0.819543
  C      0.313332   -0.176387   -1.907088
  S     -0.896499   -1.183132   -1.013672
  P     -2.244796    0.408838   -0.627807
  S     -2.483307    1.740740   -2.034185
  O     -1.637992    0.955054    0.748861
  C     -1.800312    2.327573    1.156785
  C     -3.224952    2.605833    1.590722
  O     -3.601854   -0.325802   -0.274456
  C     -3.695228   -1.347022    0.750551
  C     -5.107960   -1.890929    0.724748
  H     -0.824452   -0.673710    2.510839
  H      0.194850   -1.679371    3.545058
  H     -0.202525   -0.023794    4.039451
  H      2.117225   -0.104516    3.150559
  H      1.083576    0.840922    2.047306
  H      4.933736   -0.123006   -0.801815
  H      4.313495    1.534979   -0.587851
  H      5.553396    1.711673    1.574580
  H      6.173432    0.069689    1.357717
  H      6.662560    1.353289    0.240659
  H      0.992324   -0.871949   -2.401336
  H     -0.202208    0.462176   -2.625013
  H     -1.093216    2.449164    1.978308
  H     -1.515678    2.975142    0.321947
  H     -3.309652    3.639705    1.909984
  H     -3.901381    2.438633    0.752388
  H     -3.509110    1.952015    2.411149
  H     -2.960601   -2.126668    0.529493
  H     -3.458394   -0.890242    1.714507
  H     -5.818998   -1.092524    0.916206
  H     -5.322584   -2.323032   -0.248347
  H     -5.209157   -2.655803    1.487865

 Total Charge           Charge          ....    0
 Multiplicity           Mult            ....    1
 Number of Electrons    NEL             ....  202
 Basis Dimension        Dim             ....  539

ORBITAL ENERGIES
----------------

  NO   OCC          E(Eh)            E(eV)
   0   2.0000     -88.573878     -2410.2178
   1   2.0000     -88.573515     -2410.2079
   2   2.0000     -88.522739     -2408.8262
   3   2.0000     -88.519746     -2408.7447
   4   2.0000     -76.915317     -2092.9722
   5   2.0000     -76.913211     -2092.9149
   6   2.0000     -18.996752      -516.9279
   7   2.0000     -18.995330      -516.8892
   8   2.0000     -18.993230      -516.8321
   9   2.0000     -18.992604      -516.8150
  10   2.0000     -10.110167      -275.1116
  11   2.0000     -10.104533      -274.9583
  12   2.0000     -10.101694      -274.8811
  13   2.0000     -10.101366      -274.8722
  14   2.0000     -10.101186      -274.8672
  15   2.0000     -10.039721      -273.1947
  16   2.0000     -10.035665      -273.0843
  17   2.0000     -10.034951      -273.0649
  18   2.0000     -10.034130      -273.0425
  19   2.0000      -7.868149      -214.1032
  20   2.0000      -7.867734      -214.0919
  21   2.0000      -7.817589      -212.7274
  22   2.0000      -7.814517      -212.6438
  23   2.0000      -6.593903      -179.4292
  24   2.0000      -6.591878      -179.3741
  25   2.0000      -5.814974      -158.2335
  26   2.0000      -5.814501      -158.2206
  27   2.0000      -5.812113      -158.1556
  28   2.0000      -5.811561      -158.1406
  29   2.0000      -5.805211      -157.9678
  30   2.0000      -5.805026      -157.9628
  31   2.0000      -5.765366      -156.8836
  32   2.0000      -5.762231      -156.7983
  33   2.0000      -5.757906      -156.6806
  34   2.0000      -5.757393      -156.6666
  35   2.0000      -5.754721      -156.5939
  36   2.0000      -5.754525      -156.5886
  37   2.0000      -4.739787      -128.9762
  38   2.0000      -4.738525      -128.9418
  39   2.0000      -4.737702      -128.9194
  40   2.0000      -4.737561      -128.9156
  41   2.0000      -4.736846      -128.8961
  42   2.0000      -4.735263      -128.8531
  43   2.0000      -1.053747       -28.6739
  44   2.0000      -1.051631       -28.6163
  45   2.0000      -1.013840       -27.5880
  46   2.0000      -1.011941       -27.5363
  47   2.0000      -0.801543       -21.8111
  48   2.0000      -0.764123       -20.7929
  49   2.0000      -0.756413       -20.5830
  50   2.0000      -0.740268       -20.1437
  51   2.0000      -0.738603       -20.0984
  52   2.0000      -0.710606       -19.3366
  53   2.0000      -0.685253       -18.6467
  54   2.0000      -0.670223       -18.2377
  55   2.0000      -0.626753       -17.0548
  56   2.0000      -0.617074       -16.7914
  57   2.0000      -0.611881       -16.6501
  58   2.0000      -0.607137       -16.5210
  59   2.0000      -0.595322       -16.1995
  60   2.0000      -0.540710       -14.7135
  61   2.0000      -0.530468       -14.4348
  62   2.0000      -0.504580       -13.7303
  63   2.0000      -0.504120       -13.7178
  64   2.0000      -0.479761       -13.0549
  65   2.0000      -0.467949       -12.7335
  66   2.0000      -0.464543       -12.6408
  67   2.0000      -0.458210       -12.4685
  68   2.0000      -0.449846       -12.2409
  69   2.0000      -0.430330       -11.7099
  70   2.0000      -0.426770       -11.6130
  71   2.0000      -0.414792       -11.2871
  72   2.0000      -0.411568       -11.1993
  73   2.0000      -0.402503       -10.9527
  74   2.0000      -0.395112       -10.7516
  75   2.0000      -0.389002       -10.5853
  76   2.0000      -0.384967       -10.4755
  77   2.0000      -0.376733       -10.2514
  78   2.0000      -0.375834       -10.2270
  79   2.0000      -0.370075       -10.0702
  80   2.0000      -0.366429        -9.9710
  81   2.0000      -0.364119        -9.9082
  82   2.0000      -0.360683        -9.8147
  83   2.0000      -0.355397        -9.6708
  84   2.0000      -0.351059        -9.5528
  85   2.0000      -0.336871        -9.1667
  86   2.0000      -0.334925        -9.1138
  87   2.0000      -0.327541        -8.9128
  88   2.0000      -0.320236        -8.7141
  89   2.0000      -0.317838        -8.6488
  90   2.0000      -0.301264        -8.1978
  91   2.0000      -0.290788        -7.9127
  92   2.0000      -0.289404        -7.8751
  93   2.0000      -0.284123        -7.7314
  94   2.0000      -0.271932        -7.3997
  95   2.0000      -0.245537        -6.6814
  96   2.0000      -0.230720        -6.2782
  97   2.0000      -0.227508        -6.1908
  98   2.0000      -0.218026        -5.9328
  99   2.0000      -0.215466        -5.8631
 100   2.0000      -0.213525        -5.8103
 101   0.0000      -0.046000        -1.2517
 102   0.0000      -0.024404        -0.6641
 103   0.0000      -0.000400        -0.0109
 104   0.0000       0.002519         0.0685
 105   0.0000       0.013783         0.3751

MULLIKEN ATOMIC CHARGES
-----------------------
   0 C :   -0.476407
   1 C :   -0.091380
   2 O :   -0.262464
   3 P :    0.668487
   4 S :   -0.448860
   5 O :   -0.281664
   6 C :   -0.153598
   7 C :   -0.439848
   8 S :   -0.188234
   9 C :   -0.236874
  10 S :   -0.140366
  11 P :    0.640166
  12 S :   -0.451728
  13 O :   -0.262758
  14 C :   -0.143531
  15 C :   -0.456236
  16 O :   -0.277254
  17 C :   -0.120420
  18 C :   -0.447046
  19 H :    0.172642
  20 H :    0.157253
  21 H :    0.143922
  22 H :    0.156242
  23 H :    0.150632
  24 H :    0.170564
  25 H :    0.152801
  26 H :    0.150336
  27 H :    0.159131
  28 H :    0.147678
  29 H :    0.220194
  30 H :    0.214604
  31 H :    0.146574
  32 H :    0.179267
  33 H :    0.150169
  34 H :    0.179228
  35 H :    0.147733
  36 H :    0.152690
  37 H :    0.152449
  38 H :    0.157012
  39 H :    0.161407
  40 H :    0.147490
Sum of atomic charges:   -0.0000000

LOEWDIN ATOMIC CHARGES
----------------------
   0 C :   -0.391792
   1 C :    0.026317
   2 O :   -0.646146
   3 P :    0.375747
   4 S :   -0.103679
   5 O :   -0.671198
   6 C :    0.020506
   7 C :   -0.385753
   8 S :    0.135145
   9 C :   -0.425400
  10 S :    0.161269
  11 P :    0.378156
  12 S :   -0.101161
  13 O :   -0.704644
  14 C :    0.011534
  15 C :   -0.399222
  16 O :   -0.662562
  17 C :    0.022175
  18 C :   -0.381638
  19 H :    0.170603
  20 H :    0.162585
  21 H :    0.159057
  22 H :    0.174718
  23 H :    0.175537
  24 H :    0.181278
  25 H :    0.172526
  26 H :    0.158407
  27 H :    0.161996
  28 H :    0.160686
  29 H :    0.193680
  30 H :    0.192354
  31 H :    0.176484
  32 H :    0.183348
  33 H :    0.160992
  34 H :    0.168889
  35 H :    0.154755
  36 H :    0.176052
  37 H :    0.171495
  38 H :    0.162152
  39 H :    0.164319
  40 H :    0.160432

  Mayer bond orders larger than 0.100000
B(  0-C ,  1-C ) :   0.9400 B(  0-C , 19-H ) :   0.9644 B(  0-C , 20-H ) :   0.9684
B(  0-C , 21-H ) :   0.9675 B(  1-C ,  2-O ) :   0.7295 B(  1-C , 22-H ) :   0.9465
B(  1-C , 23-H ) :   0.9550 B(  2-O ,  3-P ) :   1.1803 B(  3-P ,  4-S ) :   1.8312
B(  3-P ,  5-O ) :   1.0539 B(  3-P ,  8-S ) :   0.9726 B(  5-O ,  6-C ) :   0.7846
B(  6-C ,  7-C ) :   0.9552 B(  6-C , 24-H ) :   0.9515 B(  6-C , 25-H ) :   0.9415
B(  7-C , 26-H ) :   0.9715 B(  7-C , 27-H ) :   0.9714 B(  7-C , 28-H ) :   0.9637
B(  8-S ,  9-C ) :   0.9131 B(  9-C , 10-S ) :   0.9220 B(  9-C , 29-H ) :   0.9043
B(  9-C , 30-H ) :   0.9058 B( 10-S , 11-P ) :   1.0677 B( 11-P , 12-S ) :   1.8372
B( 11-P , 13-O ) :   1.0164 B( 11-P , 16-O ) :   1.1371 B( 13-O , 14-C ) :   0.7600
B( 14-C , 15-C ) :   0.9158 B( 14-C , 31-H ) :   0.9640 B( 14-C , 32-H ) :   0.9545
B( 15-C , 33-H ) :   0.9630 B( 15-C , 34-H ) :   0.9589 B( 15-C , 35-H ) :   0.9777
B( 16-O , 17-C ) :   0.7396 B( 17-C , 18-C ) :   0.9619 B( 17-C , 36-H ) :   0.9372
B( 17-C , 37-H ) :   0.9485 B( 18-C , 38-H ) :   0.9736 B( 18-C , 39-H ) :   0.9692
B( 18-C , 40-H ) :   0.9630

Dispersion correction           -0.021210306
FINAL SINGLE POINT ENERGY     -2932.464654593987

DIPOLE MOMENT
-------------

Method             : SCF
Type of density    : Electron Density
Multiplicity       :   1
Irrep              :   0
Energy             : -2932.4898406192814946 Eh
Relativity type    :
Basis              : AO
                                X                 Y                 Z
Electronic contribution:      5.044357205      -5.881863747     -20.910636702
Nuclear contribution   :     -5.115568268       6.669658653      22.972274255
                        -----------------------------------------
Total Dipole Moment    :     -0.071211064       0.787794906       2.061637553
                        -----------------------------------------
Magnitude (a.u.)       :      2.208175996
Magnitude (Debye)      :      5.612737331

Rotational constants in cm-1:             0.012635             0.004568             0.004539
Rotational constants in MHz :           378.789784           136.930957           136.075061

                             ****ORCA TERMINATED NORMALLY****
TOTAL RUN TIME: 0 days 0 hours 1 minutes 20 seconds 699 msec
