                         Program Version 6.0.0  -   RELEASE  -
|  1> ! r2scan-3c def2/J RI DEFGRID2 scfconv6 printgap
|  2> %output
|  3>     printlevel normal
|  4> end
|  5> %cpcm
|  6>     smd true
|  7>     smdsolvent "water"
|  8> end
|  9> * xyz 0 1
| 10> C 0.0207176142 -0.6665082456 3.1939068798
| 11> C 1.2535261918 -0.1473902795 2.4849705454
| 12> O 1.5749257898 -1.0768961499 1.4159637296
| 13> P 2.3773962026 -0.6499757267 0.1341883609
| 14> S 2.8320340974 -2.1653073457 -1.0130632954
| 15> O 3.6021404385 0.1439667839 0.7609300838
| 16> C 4.6742656404 0.6448182935 -0.0657571463
| 17> C 5.845154834 0.9667029221 0.8402745973
| 18> S 1.2626492376 0.9085359366 -0.8195426138
| 19> C 0.3133321049 -0.1763866011 -1.9070879849
| 20> S -0.8964985914 -1.1831319581 -1.0136721282
| 21> P -2.2447958801 0.4088380014 -0.6278071078
| 22> S -2.4833066654 1.7407401894 -2.0341848434
| 23> O -1.6379922083 0.9550536785 0.7488610967
| 24> C -1.8003124664 2.3275729956 1.1567848851
| 25> C -3.2249524954 2.6058333962 1.5907219538
| 26> O -3.6018543478 -0.3258018673 -0.274456076
| 27> C -3.6952282041 -1.3470215857 0.7505510238
| 28> C -5.1079597616 -1.8909292008 0.7247482492
| 29> H -0.8244518728 -0.6737095118 2.5108392536
| 30> H 0.1948497365 -1.6793707561 3.5450581374
| 31> H -0.2025253968 -0.0237938492 4.0394510669
| 32> H 2.1172252986 -0.1045157862 3.1505586941
| 33> H 1.0835755647 0.840922325 2.0473063003
| 34> H 4.933735688 -0.1230063907 -0.8018150966
| 35> H 4.3134946951 1.5349792969 -0.5878505201
| 36> H 5.5533957088 1.7116732938 1.5745803207
| 37> H 6.1734318577 0.0696886622 1.35771654
| 38> H 6.6625596939 1.3532889466 0.2406589837
| 39> H 0.9923241413 -0.8719490859 -2.4013360073
| 40> H -0.2022075985 0.4621759112 -2.6250130949
| 41> H -1.0932157494 2.4491641338 1.9783080415
| 42> H -1.5156784194 2.9751420628 0.3219467745
| 43> H -3.3096522526 3.6397053874 1.9099844165
| 44> H -3.9013805712 2.4386326171 0.7523882143
| 45> H -3.5091104694 1.952014651 2.4111486472
| 46> H -2.9606012764 -2.1266681755 0.5294933126
| 47> H -3.4583937898 -0.8902420274 1.7145067988
| 48> H -5.8189978342 -1.0925238724 0.9162056258
| 49> H -5.3225835284 -2.3230321151 -0.2483465835
| 50> H -5.2091567049 -2.6558033809 1.4878650067
| 51> *
| 52>
| 53>                          ****END OF INPUT****

CARTESIAN COORDINATES (ANGSTROEM)
---------------------------------
  C      0.020718   -0.666508    3.193907
  C      1.253526   -0.147390    2.484971
  O      1.574926   -1.076896    1.415964
  P      2.377396   -0.649976    0.134188
  S      2.832034   -2.165307   -1.013063
  O      3.602140    0.143967    0.760930
  C      4.674266    0.644818   -0.065757
  C      5.845155    0.966703    0.840275
  S      1.262649    0.908536   -0.819543
  C      0.313332   -0.176387   -1.907088
  S     -0.896499   -1.183132   -1.013672
  P     -2.244796    0.408838   -0.627807
  S     -2.483307    1.740740   -2.034185
  O     -1.637992    0.955054    0.748861
  C     -1.800312    2.327573    1.156785
  C     -3.224952    2.605833    1.590722
  O     -3.601854   -0.325802   -0.274456
  C     -3.695228   -1.347022    0.750551
  C     -5.107960   -1.890929    0.724748
  H     -0.824452   -0.673710    2.510839
  H      0.194850   -1.679371    3.545058
  H     -0.202525   -0.023794    4.039451
  H      2.117225   -0.104516    3.150559
  H      1.083576    0.840922    2.047306
  H      4.933736   -0.123006   -0.801815
  H      4.313495    1.534979   -0.587851
  H      5.553396    1.711673    1.574580
  H      6.173432    0.069689    1.357717
  H      6.662560    1.353289    0.240659
  H      0.992324   -0.871949   -2.401336
  H     -0.202208    0.462176   -2.625013
  H     -1.093216    2.449164    1.978308
  H     -1.515678    2.975142    0.321947
  H     -3.309652    3.639705    1.909984
  H     -3.901381    2.438633    0.752388
  H     -3.509110    1.952015    2.411149
  H     -2.960601   -2.126668    0.529493
  H     -3.458394   -0.890242    1.714507
  H     -5.818998   -1.092524    0.916206
  H     -5.322584   -2.323032   -0.248347
  H     -5.209157   -2.655803    1.487865

 Total Charge           Charge          ....    0
 Multiplicity           Mult            ....    1
 Number of Electrons    NEL             ....  202
 Basis Dimension        Dim             ....  539

ORBITAL ENERGIES
----------------

  NO   OCC          E(Eh)            E(eV)
   0   2.0000     -88.579641     -2410.3746
   1   2.0000     -88.578200     -2410.3354
   2   2.0000     -88.531693     -2409.0698
   3   2.0000     -88.531629     -2409.0681
   4   2.0000     -76.920565     -2093.1150
   5   2.0000     -76.920107     -2093.1025
   6   2.0000     -18.997252      -516.9415
   7   2.0000     -18.997077      -516.9367
   8   2.0000     -18.997014      -516.9350
   9   2.0000     -18.990834      -516.7669
  10   2.0000     -10.103654      -274.9344
  11   2.0000     -10.094843      -274.6946
  12   2.0000     -10.093226      -274.6506
  13   2.0000     -10.091448      -274.6023
  14   2.0000     -10.087883      -274.5052
  15   2.0000     -10.021302      -272.6935
  16   2.0000     -10.020101      -272.6608
  17   2.0000     -10.019136      -272.6346
  18   2.0000     -10.018543      -272.6184
  19   2.0000      -7.873971      -214.2616
  20   2.0000      -7.872396      -214.2188
  21   2.0000      -7.826899      -212.9808
  22   2.0000      -7.826760      -212.9770
  23   2.0000      -6.599267      -179.5752
  24   2.0000      -6.598672      -179.5590
  25   2.0000      -5.820730      -158.3901
  26   2.0000      -5.819178      -158.3479
  27   2.0000      -5.817900      -158.3131
  28   2.0000      -5.816250      -158.2682
  29   2.0000      -5.811135      -158.1290
  30   2.0000      -5.809647      -158.0885
  31   2.0000      -5.774572      -157.1341
  32   2.0000      -5.774349      -157.1280
  33   2.0000      -5.767175      -156.9328
  34   2.0000      -5.766943      -156.9265
  35   2.0000      -5.766842      -156.9237
  36   2.0000      -5.766783      -156.9221
  37   2.0000      -4.745024      -129.1187
  38   2.0000      -4.744463      -129.1034
  39   2.0000      -4.744196      -129.0961
  40   2.0000      -4.743278      -129.0712
  41   2.0000      -4.742796      -129.0580
  42   2.0000      -4.742491      -129.0497
  43   2.0000      -1.056653       -28.7530
  44   2.0000      -1.050285       -28.5797
  45   2.0000      -1.014131       -27.5959
  46   2.0000      -1.011345       -27.5201
  47   2.0000      -0.805384       -21.9156
  48   2.0000      -0.758949       -20.6521
  49   2.0000      -0.748197       -20.3595
  50   2.0000      -0.727586       -19.7986
  51   2.0000      -0.726874       -19.7792
  52   2.0000      -0.709315       -19.3014
  53   2.0000      -0.689131       -18.7522
  54   2.0000      -0.677156       -18.4264
  55   2.0000      -0.622194       -16.9308
  56   2.0000      -0.610831       -16.6215
  57   2.0000      -0.600242       -16.3334
  58   2.0000      -0.598473       -16.2853
  59   2.0000      -0.593275       -16.1438
  60   2.0000      -0.536613       -14.6020
  61   2.0000      -0.524988       -14.2857
  62   2.0000      -0.500379       -13.6160
  63   2.0000      -0.497189       -13.5292
  64   2.0000      -0.478373       -13.0172
  65   2.0000      -0.461200       -12.5499
  66   2.0000      -0.452763       -12.3203
  67   2.0000      -0.451223       -12.2784
  68   2.0000      -0.443829       -12.0772
  69   2.0000      -0.430323       -11.7097
  70   2.0000      -0.420168       -11.4334
  71   2.0000      -0.410981       -11.1834
  72   2.0000      -0.403736       -10.9862
  73   2.0000      -0.399878       -10.8812
  74   2.0000      -0.390759       -10.6331
  75   2.0000      -0.384321       -10.4579
  76   2.0000      -0.380949       -10.3661
  77   2.0000      -0.369615       -10.0577
  78   2.0000      -0.360485        -9.8093
  79   2.0000      -0.357849        -9.7376
  80   2.0000      -0.354745        -9.6531
  81   2.0000      -0.353766        -9.6265
  82   2.0000      -0.352773        -9.5994
  83   2.0000      -0.345341        -9.3972
  84   2.0000      -0.345334        -9.3970
  85   2.0000      -0.330005        -8.9799
  86   2.0000      -0.326532        -8.8854
  87   2.0000      -0.320322        -8.7164
  88   2.0000      -0.317016        -8.6264
  89   2.0000      -0.314837        -8.5672
  90   2.0000      -0.298295        -8.1170
  91   2.0000      -0.286988        -7.8093
  92   2.0000      -0.284106        -7.7309
  93   2.0000      -0.281858        -7.6697
  94   2.0000      -0.273605        -7.4452
  95   2.0000      -0.250559        -6.8180
  96   2.0000      -0.240021        -6.5313
  97   2.0000      -0.238030        -6.4771
  98   2.0000      -0.229391        -6.2420
  99   2.0000      -0.226192        -6.1550
 100   2.0000      -0.222767        -6.0618
 101   0.0000      -0.052399        -1.4259
 102   0.0000      -0.031912        -0.8684
 103   0.0000      -0.005131        -0.1396
 104   0.0000      -0.002663        -0.0725
 105   0.0000       0.013673         0.3721

MULLIKEN ATOMIC CHARGES
-----------------------
   0 C :   -0.507477
   1 C :   -0.097876
   2 O :   -0.294638
   3 P :    0.679100
   4 S :   -0.503118
   5 O :   -0.301048
   6 C :   -0.140573
   7 C :   -0.480761
   8 S :   -0.184337
   9 C :   -0.243412
  10 S :   -0.166774
  11 P :    0.655351
  12 S :   -0.504529
  13 O :   -0.271344
  14 C :   -0.138010
  15 C :   -0.489078
  16 O :   -0.308940
  17 C :   -0.104196
  18 C :   -0.494618
  19 H :    0.172309
  20 H :    0.167611
  21 H :    0.173461
  22 H :    0.177781
  23 H :    0.171593
  24 H :    0.172274
  25 H :    0.170539
  26 H :    0.166046
  27 H :    0.166640
  28 H :    0.169795
  29 H :    0.235084
  30 H :    0.232877
  31 H :    0.181047
  32 H :    0.176345
  33 H :    0.172112
  34 H :    0.168855
  35 H :    0.170547
  36 H :    0.161931
  37 H :    0.180836
  38 H :    0.169455
  39 H :    0.167698
  40 H :    0.171441
Sum of atomic charges:   -0.0000000

LOEWDIN ATOMIC CHARGES
----------------------
   0 C :   -0.393064
   1 C :    0.032546
   2 O :   -0.668844
   3 P :    0.376965
   4 S :   -0.146454
   5 O :   -0.677815
   6 C :    0.025822
   7 C :   -0.388739
   8 S :    0.141182
   9 C :   -0.422898
  10 S :    0.146964
  11 P :    0.380516
  12 S :   -0.140731
  13 O :   -0.702830
  14 C :    0.018291
  15 C :   -0.401487
  16 O :   -0.680711
  17 C :    0.031025
  18 C :   -0.386063
  19 H :    0.169005
  20 H :    0.164664
  21 H :    0.171464
  22 H :    0.184497
  23 H :    0.183001
  24 H :    0.181803
  25 H :    0.180082
  26 H :    0.163325
  27 H :    0.163355
  28 H :    0.169369
  29 H :    0.197663
  30 H :    0.197067
  31 H :    0.190281
  32 H :    0.181952
  33 H :    0.168592
  34 H :    0.163135
  35 H :    0.163036
  36 H :    0.180820
  37 H :    0.183810
  38 H :    0.164889
  39 H :    0.164202
  40 H :    0.170312

  Mayer bond orders larger than 0.100000
B(  0-C ,  1-C ) :   0.9317 B(  0-C , 19-H ) :   0.9628 B(  0-C , 20-H ) :   0.9677
B(  0-C , 21-H ) :   0.9599 B(  1-C ,  2-O ) :   0.7168 B(  1-C , 22-H ) :   0.9354
B(  1-C , 23-H ) :   0.9464 B(  2-O ,  3-P ) :   1.1876 B(  3-P ,  4-S ) :   1.8069
B(  3-P ,  5-O ) :   1.0662 B(  3-P ,  8-S ) :   0.9875 B(  5-O ,  6-C ) :   0.7757
B(  6-C ,  7-C ) :   0.9537 B(  6-C , 24-H ) :   0.9487 B(  6-C , 25-H ) :   0.9322
B(  7-C , 26-H ) :   0.9679 B(  7-C , 27-H ) :   0.9694 B(  7-C , 28-H ) :   0.9578
B(  8-S ,  9-C ) :   0.9030 B(  9-C , 10-S ) :   0.9043 B(  9-C , 29-H ) :   0.9005
B(  9-C , 30-H ) :   0.9026 B( 10-S , 11-P ) :   1.0730 B( 11-P , 12-S ) :   1.8135
B( 11-P , 13-O ) :   1.0363 B( 11-P , 16-O ) :   1.1477 B( 13-O , 14-C ) :   0.7453
B( 14-C , 15-C ) :   0.9093 B( 14-C , 31-H ) :   0.9535 B( 14-C , 32-H ) :   0.9530
B( 15-C , 33-H ) :   0.9586 B( 15-C , 34-H ) :   0.9608 B( 15-C , 35-H ) :   0.9722
B( 16-O , 17-C ) :   0.7350 B( 17-C , 18-C ) :   0.9484 B( 17-C , 36-H ) :   0.9295
B( 17-C , 37-H ) :   0.9380 B( 18-C , 38-H ) :   0.9718 B( 18-C , 39-H ) :   0.9687
B( 18-C , 40-H ) :   0.9565

Dispersion correction           -0.021210306
FINAL SINGLE POINT ENERGY     -2932.476974384410

DIPOLE MOMENT
-------------

Method             : SCF
Type of density    : Electron Density
Multiplicity       :   1
Irrep              :   0
Energy             : -2932.5021604097050840 Eh
Relativity type    :
Basis              : AO
                                X                 Y                 Z
Electronic contribution:      5.147654018      -5.398387134     -20.094321963
Nuclear contribution   :     -5.115568268       6.669658653      22.972274255
                        -----------------------------------------
Total Dipole Moment    :      0.032085750       1.271271519       2.877952293
                        -----------------------------------------
Magnitude (a.u.)       :      3.146390022
Magnitude (Debye)      :      7.997487865

Rotational constants in cm-1:             0.012635             0.004568             0.004539
Rotational constants in MHz :           378.789784           136.930957           136.075061

                             ****ORCA TERMINATED NORMALLY****
TOTAL RUN TIME: 0 days 0 hours 1 minutes 57 seconds 315 msec
