                         Program Version 6.0.0  -   RELEASE  -
|  1> ! pbe def2-sv(p) def2/J RI DEFGRID1 loosescf d4 GCP(DFT/SV(P)) printgap
|  2> %output
|  3>     printlevel normal
|  4> end
|  5> * xyz 0 1
|  6> C 5.7981625111 -0.4077561204 0.171497506
|  7> C 4.4402654005 -0.8105266826 -0.3672340429
|  8> O 3.4436245241 -0.0051300889 0.2918047182
|  9> P 1.9795579764 0.1629753634 -0.3055970067
| 10> S 1.9356976691 0.5891344687 -2.2222719452
| 11> O 1.3574645606 1.1965871714 0.7160297384
| 12> C 1.43144423 2.6214971642 0.5141389903
| 13> C 2.8554814438 3.1289010208 0.5739075558
| 14> S 1.0806239852 -1.6447066472 0.2795417763
| 15> C -0.1986003033 -1.8495453957 -1.0111771278
| 16> S -1.8663127416 -1.9393466866 -0.3295578637
| 17> P -2.0611183246 0.1004054987 0.2366652892
| 18> S -1.3995049649 1.4123758201 -1.0593011001
| 19> O -1.3466972557 0.2578193815 1.632494889
| 20> C -1.3534502842 -0.6906497907 2.7299009132
| 21> C -2.7475462753 -1.0881181431 3.1614427387
| 22> O -3.5976865429 0.2636749097 0.6009890044
| 23> C -4.5979660728 0.6019431986 -0.3749768058
| 24> C -4.8114949368 -0.5028723891 -1.3894476289
| 25> H 5.9980355427 0.6356102961 -0.0555923223
| 26> H 5.823585184 -0.5451247379 1.2484967613
| 27> H 6.5607512401 -1.0267185329 -0.2894232505
| 28> H 4.2230191932 -1.8611356239 -0.1560473965
| 29> H 4.3672257415 -0.6398179113 -1.4468220656
| 30> H 0.969226207 2.8582416099 -0.4503637812
| 31> H 0.814521081 3.0266714319 1.3178529322
| 32> H 3.4223446135 2.7327958886 -0.2680199175
| 33> H 2.8516349044 4.2129906689 0.5180366817
| 34> H 3.3280621832 2.8113048657 1.4996853877
| 35> H -0.0211640208 -2.7987277812 -1.5097166312
| 36> H -0.1206459069 -1.0137779435 -1.7123110239
| 37> H -0.7716377495 -1.5664063631 2.4276454802
| 38> H -0.8215364891 -0.1548285567 3.51755644
| 39> H -3.339829511 -0.2050936283 3.3863521036
| 40> H -3.2407569724 -1.6526897455 2.3730312102
| 41> H -2.6751609942 -1.7092929043 4.0489579248
| 42> H -5.4928970731 0.7777735986 0.2234834037
| 43> H -4.2957477128 1.5283588773 -0.8735740247
| 44> H -4.9896070378 -1.4503200313 -0.8875073397
| 45> H -5.6667680966 -0.2567657778 -2.0105765611
| 46> H -3.9330961165 -0.6008210325 -2.0253036447
| 47> *
| 48>
| 49>                          ****END OF INPUT****

CARTESIAN COORDINATES (ANGSTROEM)
---------------------------------
  C      5.798163   -0.407756    0.171498
  C      4.440265   -0.810527   -0.367234
  O      3.443625   -0.005130    0.291805
  P      1.979558    0.162975   -0.305597
  S      1.935698    0.589134   -2.222272
  O      1.357465    1.196587    0.716030
  C      1.431444    2.621497    0.514139
  C      2.855481    3.128901    0.573908
  S      1.080624   -1.644707    0.279542
  C     -0.198600   -1.849545   -1.011177
  S     -1.866313   -1.939347   -0.329558
  P     -2.061118    0.100405    0.236665
  S     -1.399505    1.412376   -1.059301
  O     -1.346697    0.257819    1.632495
  C     -1.353450   -0.690650    2.729901
  C     -2.747546   -1.088118    3.161443
  O     -3.597687    0.263675    0.600989
  C     -4.597966    0.601943   -0.374977
  C     -4.811495   -0.502872   -1.389448
  H      5.998036    0.635610   -0.055592
  H      5.823585   -0.545125    1.248497
  H      6.560751   -1.026719   -0.289423
  H      4.223019   -1.861136   -0.156047
  H      4.367226   -0.639818   -1.446822
  H      0.969226    2.858242   -0.450364
  H      0.814521    3.026671    1.317853
  H      3.422345    2.732796   -0.268020
  H      2.851635    4.212991    0.518037
  H      3.328062    2.811305    1.499685
  H     -0.021164   -2.798728   -1.509717
  H     -0.120646   -1.013778   -1.712311
  H     -0.771638   -1.566406    2.427645
  H     -0.821536   -0.154829    3.517556
  H     -3.339830   -0.205094    3.386352
  H     -3.240757   -1.652690    2.373031
  H     -2.675161   -1.709293    4.048958
  H     -5.492897    0.777774    0.223483
  H     -4.295748    1.528359   -0.873574
  H     -4.989607   -1.450320   -0.887507
  H     -5.666768   -0.256766   -2.010577
  H     -3.933096   -0.600821   -2.025304

 Total Charge           Charge          ....    0
 Multiplicity           Mult            ....    1
 Number of Electrons    NEL             ....  202
 Basis Dimension        Dim             ....  334

ORBITAL ENERGIES
----------------

  NO   OCC          E(Eh)            E(eV)
   0   2.0000     -88.045754     -2395.8468
   1   2.0000     -88.041195     -2395.7227
   2   2.0000     -87.980607     -2394.0740
   3   2.0000     -87.979564     -2394.0456
   4   2.0000     -76.424363     -2079.6126
   5   2.0000     -76.420087     -2079.4963
   6   2.0000     -18.793275      -511.3910
   7   2.0000     -18.788048      -511.2488
   8   2.0000     -18.787643      -511.2378
   9   2.0000     -18.780047      -511.0311
  10   2.0000      -9.955313      -270.8978
  11   2.0000      -9.952308      -270.8161
  12   2.0000      -9.951181      -270.7854
  13   2.0000      -9.948049      -270.7002
  14   2.0000      -9.938892      -270.4510
  15   2.0000      -9.885921      -269.0096
  16   2.0000      -9.885503      -268.9982
  17   2.0000      -9.883963      -268.9563
  18   2.0000      -9.875630      -268.7296
  19   2.0000      -7.690666      -209.2737
  20   2.0000      -7.686363      -209.1566
  21   2.0000      -7.625533      -207.5013
  22   2.0000      -7.624462      -207.4722
  23   2.0000      -6.421646      -174.7419
  24   2.0000      -6.417741      -174.6356
  25   2.0000      -5.718474      -155.6076
  26   2.0000      -5.715023      -155.5137
  27   2.0000      -5.714203      -155.4914
  28   2.0000      -5.710802      -155.3988
  29   2.0000      -5.707880      -155.3193
  30   2.0000      -5.703373      -155.1967
  31   2.0000      -5.654392      -153.8638
  32   2.0000      -5.653478      -153.8390
  33   2.0000      -5.646352      -153.6451
  34   2.0000      -5.645570      -153.6238
  35   2.0000      -5.644966      -153.6073
  36   2.0000      -5.644609      -153.5976
  37   2.0000      -4.644416      -126.3810
  38   2.0000      -4.643518      -126.3566
  39   2.0000      -4.641857      -126.3113
  40   2.0000      -4.640004      -126.2609
  41   2.0000      -4.639428      -126.2453
  42   2.0000      -4.638527      -126.2207
  43   2.0000      -0.985226       -26.8094
  44   2.0000      -0.980405       -26.6782
  45   2.0000      -0.943414       -25.6716
  46   2.0000      -0.937796       -25.5187
  47   2.0000      -0.762289       -20.7429
  48   2.0000      -0.718865       -19.5613
  49   2.0000      -0.707883       -19.2625
  50   2.0000      -0.689491       -18.7620
  51   2.0000      -0.683233       -18.5917
  52   2.0000      -0.673106       -18.3162
  53   2.0000      -0.647901       -17.6303
  54   2.0000      -0.630806       -17.1651
  55   2.0000      -0.598620       -16.2893
  56   2.0000      -0.590244       -16.0613
  57   2.0000      -0.575317       -15.6552
  58   2.0000      -0.563839       -15.3428
  59   2.0000      -0.557508       -15.1706
  60   2.0000      -0.499840       -13.6013
  61   2.0000      -0.490347       -13.3430
  62   2.0000      -0.469671       -12.7804
  63   2.0000      -0.467826       -12.7302
  64   2.0000      -0.448965       -12.2170
  65   2.0000      -0.446462       -12.1488
  66   2.0000      -0.441049       -12.0016
  67   2.0000      -0.433503       -11.7962
  68   2.0000      -0.426600       -11.6084
  69   2.0000      -0.415647       -11.3103
  70   2.0000      -0.410877       -11.1805
  71   2.0000      -0.396415       -10.7870
  72   2.0000      -0.390248       -10.6192
  73   2.0000      -0.381261       -10.3746
  74   2.0000      -0.379282       -10.3208
  75   2.0000      -0.370088       -10.0706
  76   2.0000      -0.364394        -9.9157
  77   2.0000      -0.358992        -9.7687
  78   2.0000      -0.353555        -9.6207
  79   2.0000      -0.350945        -9.5497
  80   2.0000      -0.345756        -9.4085
  81   2.0000      -0.340818        -9.2741
  82   2.0000      -0.337425        -9.1818
  83   2.0000      -0.335290        -9.1237
  84   2.0000      -0.331620        -9.0238
  85   2.0000      -0.313607        -8.5337
  86   2.0000      -0.308138        -8.3849
  87   2.0000      -0.296231        -8.0608
  88   2.0000      -0.292222        -7.9518
  89   2.0000      -0.290628        -7.9084
  90   2.0000      -0.275497        -7.4966
  91   2.0000      -0.270651        -7.3648
  92   2.0000      -0.263213        -7.1624
  93   2.0000      -0.260340        -7.0842
  94   2.0000      -0.256858        -6.9894
  95   2.0000      -0.237828        -6.4716
  96   2.0000      -0.220996        -6.0136
  97   2.0000      -0.212998        -5.7960
  98   2.0000      -0.201001        -5.4695
  99   2.0000      -0.192636        -5.2419
 100   2.0000      -0.183932        -5.0051
 101   0.0000      -0.040112        -1.0915
 102   0.0000      -0.028907        -0.7866
 103   0.0000      -0.009036        -0.2459
 104   0.0000       0.012731         0.3464
 105   0.0000       0.025613         0.6970

MULLIKEN ATOMIC CHARGES
-----------------------
   0 C :   -0.281347
   1 C :   -0.009149
   2 O :   -0.378822
   3 P :    0.614825
   4 S :   -0.319626
   5 O :   -0.352533
   6 C :   -0.000767
   7 C :   -0.305133
   8 S :   -0.107719
   9 C :   -0.349278
  10 S :   -0.111613
  11 P :    0.596752
  12 S :   -0.302959
  13 O :   -0.349470
  14 C :   -0.001861
  15 C :   -0.304438
  16 O :   -0.374096
  17 C :   -0.001201
  18 C :   -0.318918
  19 H :    0.119909
  20 H :    0.115400
  21 H :    0.110715
  22 H :    0.098003
  23 H :    0.103430
  24 H :    0.122876
  25 H :    0.102424
  26 H :    0.121218
  27 H :    0.109113
  28 H :    0.112418
  29 H :    0.182870
  30 H :    0.210877
  31 H :    0.114308
  32 H :    0.107817
  33 H :    0.120073
  34 H :    0.116415
  35 H :    0.111815
  36 H :    0.103958
  37 H :    0.113561
  38 H :    0.115205
  39 H :    0.114283
  40 H :    0.130664
Sum of atomic charges:   -0.0000000

LOEWDIN ATOMIC CHARGES
----------------------
   0 C :   -0.350430
   1 C :   -0.123249
   2 O :   -0.248747
   3 P :    0.568457
   4 S :   -0.313595
   5 O :   -0.229645
   6 C :   -0.117344
   7 C :   -0.367016
   8 S :    0.079211
   9 C :   -0.477550
  10 S :    0.075009
  11 P :    0.567915
  12 S :   -0.292762
  13 O :   -0.229393
  14 C :   -0.115312
  15 C :   -0.366594
  16 O :   -0.242351
  17 C :   -0.118182
  18 C :   -0.371156
  19 H :    0.127856
  20 H :    0.126316
  21 H :    0.130155
  22 H :    0.107533
  23 H :    0.106458
  24 H :    0.109674
  25 H :    0.118888
  26 H :    0.120363
  27 H :    0.129214
  28 H :    0.123840
  29 H :    0.137680
  30 H :    0.127358
  31 H :    0.102036
  32 H :    0.122320
  33 H :    0.127551
  34 H :    0.117127
  35 H :    0.130602
  36 H :    0.118234
  37 H :    0.112695
  38 H :    0.122345
  39 H :    0.131818
  40 H :    0.122671

  Mayer bond orders larger than 0.100000
B(  0-C ,  1-C ) :   1.1598 B(  0-C , 19-H ) :   0.9517 B(  0-C , 20-H ) :   0.9504
B(  0-C , 21-H ) :   0.9423 B(  1-C ,  2-O ) :   0.9080 B(  1-C , 22-H ) :   0.9277
B(  1-C , 23-H ) :   0.9069 B(  2-O ,  3-P ) :   1.0926 B(  3-P ,  4-S ) :   1.6075
B(  3-P ,  5-O ) :   1.1557 B(  3-P ,  8-S ) :   0.9593 B(  4-S ,  8-S ) :   0.1145
B(  5-O ,  6-C ) :   0.8997 B(  6-C ,  7-C ) :   1.1590 B(  6-C , 24-H ) :   0.9132
B(  6-C , 25-H ) :   0.9361 B(  7-C , 26-H ) :   0.9348 B(  7-C , 27-H ) :   0.9387
B(  7-C , 28-H ) :   0.9446 B(  8-S ,  9-C ) :   0.9918 B(  9-C , 10-S ) :   1.0055
B(  9-C , 29-H ) :   0.9111 B(  9-C , 30-H ) :   0.8477 B( 10-S , 11-P ) :   0.9336
B( 10-S , 12-S ) :   0.1041 B( 11-P , 12-S ) :   1.6307 B( 11-P , 13-O ) :   1.1531
B( 11-P , 16-O ) :   1.0905 B( 13-O , 14-C ) :   0.8979 B( 14-C , 15-C ) :   1.1693
B( 14-C , 31-H ) :   0.9091 B( 14-C , 32-H ) :   0.9351 B( 15-C , 33-H ) :   0.9433
B( 15-C , 34-H ) :   0.9384 B( 15-C , 35-H ) :   0.9361 B( 16-O , 17-C ) :   0.9058
B( 17-C , 18-C ) :   1.1657 B( 17-C , 36-H ) :   0.9339 B( 17-C , 37-H ) :   0.9147
B( 18-C , 38-H ) :   0.9449 B( 18-C , 39-H ) :   0.9376 B( 18-C , 40-H ) :   0.9343

Dispersion correction           -0.067545309
FINAL SINGLE POINT ENERGY     -2929.520039878796

DIPOLE MOMENT
-------------

Method             : SCF
Type of density    : Electron Density
Multiplicity       :   1
Irrep              :   0
Energy             : -2929.6383455792811219 Eh
Relativity type    :
Basis              : AO
                                X                 Y                 Z
Electronic contribution:     -3.111786347      -3.380639647      -7.492730520
Nuclear contribution   :      2.882693715       2.746268760       8.533098851
                        -----------------------------------------
Total Dipole Moment    :     -0.229092631      -0.634370886       1.040368330
                        -----------------------------------------
Magnitude (a.u.)       :      1.239869395
Magnitude (Debye)      :      3.151497549

Rotational constants in cm-1:             0.013712             0.004990             0.004840
Rotational constants in MHz :           411.089872           149.591805           145.097409

                             ****ORCA TERMINATED NORMALLY****
TOTAL RUN TIME: 0 days 0 hours 0 minutes 21 seconds 783 msec
