                         Program Version 6.0.0  -   RELEASE  -
|  1> ! pbe def2-sv(p) def2/J RI DEFGRID1 loosescf d4 GCP(DFT/SV(P)) printgap
|  2> %output
|  3>     printlevel normal
|  4> end
|  5> * xyz 0 1
|  6> C 5.2510850662 0.9604947875 -0.7199549407
|  7> C 4.1696840877 0.0908640763 -1.3321764033
|  8> O 3.2914444607 -0.432115619 -0.3202401009
|  9> P 1.9351196896 0.310415622 0.0851333383
| 10> S 2.0983138989 2.1615388762 0.6952184723
| 11> O 1.3701304932 -0.7424089079 1.1147294529
| 12> C 1.3976681989 -0.5152085919 2.5362676539
| 13> C 2.7887076117 -0.7386390873 3.0895364007
| 14> S 0.7180738237 0.0411067628 -1.6373561279
| 15> C 0.2395149886 -1.6945553807 -1.4492615339
| 16> S -0.9440329651 -2.0127285909 -0.0952314924
| 17> P -2.0755887598 -0.2424594783 -0.1709242153
| 18> S -2.7542768406 0.3390992393 -1.9226890952
| 19> O -1.1260568196 0.7360171586 0.6588808951
| 20> C -1.5806542769 2.0120552825 1.1651048857
| 21> C -1.5273411848 3.0963282749 0.1082546644
| 22> O -3.2273271958 -0.495502188 0.895874327
| 23> C -4.5033828273 -1.0523487552 0.531096204
| 24> C -4.3974988974 -2.5213044595 0.177475367
| 25> H 4.8092474991 1.8300529503 -0.2382596828
| 26> H 5.8091007195 0.3947821992 0.0208365983
| 27> H 5.9263915425 1.2944821246 -1.5009996216
| 28> H 4.5973343179 -0.7917281494 -1.8118880737
| 29> H 3.5800599724 0.6535556529 -2.0643949938
| 30> H 1.0595763516 0.5063941981 2.7368117524
| 31> H 0.6751742314 -1.2303378339 2.9326987521
| 32> H 3.1405981343 -1.7328444253 2.8284873472
| 33> H 3.470624293 -0.0006985855 2.6685779464
| 34> H 2.7704877474 -0.6305224976 4.1693163128
| 35> H 1.1142850922 -2.3063214107 -1.24055937
| 36> H -0.2212146901 -1.9677057298 -2.3967977715
| 37> H -2.5913738372 1.8892275673 1.5608540281
| 38> H -0.8878584986 2.2329705023 1.9799286544
| 39> H -1.8369934298 4.0377541149 0.5506022072
| 40> H -0.5124529482 3.1997379467 -0.2696461678
| 41> H -2.1869730677 2.8570465224 -0.7230343217
| 42> H -5.1217601157 -0.8922653067 1.4152482988
| 43> H -4.9009822617 -0.4803381811 -0.3134981479
| 44> H -3.8228438729 -2.6410839494 -0.7397489395
| 45> H -3.9008897923 -3.067467192 0.9753050127
| 46> H -5.3927953127 -2.926270307 0.0256451827
| 47> *
| 48>
| 49>                          ****END OF INPUT****

CARTESIAN COORDINATES (ANGSTROEM)
---------------------------------
  C      5.251085    0.960495   -0.719955
  C      4.169684    0.090864   -1.332176
  O      3.291444   -0.432116   -0.320240
  P      1.935120    0.310416    0.085133
  S      2.098314    2.161539    0.695218
  O      1.370130   -0.742409    1.114729
  C      1.397668   -0.515209    2.536268
  C      2.788708   -0.738639    3.089536
  S      0.718074    0.041107   -1.637356
  C      0.239515   -1.694555   -1.449262
  S     -0.944033   -2.012729   -0.095231
  P     -2.075589   -0.242459   -0.170924
  S     -2.754277    0.339099   -1.922689
  O     -1.126057    0.736017    0.658881
  C     -1.580654    2.012055    1.165105
  C     -1.527341    3.096328    0.108255
  O     -3.227327   -0.495502    0.895874
  C     -4.503383   -1.052349    0.531096
  C     -4.397499   -2.521304    0.177475
  H      4.809247    1.830053   -0.238260
  H      5.809101    0.394782    0.020837
  H      5.926392    1.294482   -1.501000
  H      4.597334   -0.791728   -1.811888
  H      3.580060    0.653556   -2.064395
  H      1.059576    0.506394    2.736812
  H      0.675174   -1.230338    2.932699
  H      3.140598   -1.732844    2.828487
  H      3.470624   -0.000699    2.668578
  H      2.770488   -0.630522    4.169316
  H      1.114285   -2.306321   -1.240559
  H     -0.221215   -1.967706   -2.396798
  H     -2.591374    1.889228    1.560854
  H     -0.887858    2.232971    1.979929
  H     -1.836993    4.037754    0.550602
  H     -0.512453    3.199738   -0.269646
  H     -2.186973    2.857047   -0.723034
  H     -5.121760   -0.892265    1.415248
  H     -4.900982   -0.480338   -0.313498
  H     -3.822844   -2.641084   -0.739749
  H     -3.900890   -3.067467    0.975305
  H     -5.392795   -2.926270    0.025645

 Total Charge           Charge          ....    0
 Multiplicity           Mult            ....    1
 Number of Electrons    NEL             ....  202
 Basis Dimension        Dim             ....  334

ORBITAL ENERGIES
----------------

  NO   OCC          E(Eh)            E(eV)
   0   2.0000     -88.043779     -2395.7930
   1   2.0000     -88.039617     -2395.6798
   2   2.0000     -87.991913     -2394.3817
   3   2.0000     -87.981459     -2394.0972
   4   2.0000     -76.427915     -2079.7093
   5   2.0000     -76.425102     -2079.6328
   6   2.0000     -18.793045      -511.3848
   7   2.0000     -18.792113      -511.3594
   8   2.0000     -18.790711      -511.3213
   9   2.0000     -18.783052      -511.1128
  10   2.0000      -9.962040      -271.0809
  11   2.0000      -9.953925      -270.8601
  12   2.0000      -9.952196      -270.8130
  13   2.0000      -9.950369      -270.7633
  14   2.0000      -9.943082      -270.5650
  15   2.0000      -9.884070      -268.9592
  16   2.0000      -9.883133      -268.9337
  17   2.0000      -9.880912      -268.8733
  18   2.0000      -9.864797      -268.4348
  19   2.0000      -7.688420      -209.2126
  20   2.0000      -7.684937      -209.1178
  21   2.0000      -7.636854      -207.8094
  22   2.0000      -7.626432      -207.5258
  23   2.0000      -6.425431      -174.8449
  24   2.0000      -6.422009      -174.7518
  25   2.0000      -5.716748      -155.5606
  26   2.0000      -5.713123      -155.4620
  27   2.0000      -5.712754      -155.4519
  28   2.0000      -5.709530      -155.3642
  29   2.0000      -5.705075      -155.2430
  30   2.0000      -5.701422      -155.1436
  31   2.0000      -5.665680      -154.1710
  32   2.0000      -5.657735      -153.9548
  33   2.0000      -5.656810      -153.9296
  34   2.0000      -5.655363      -153.8902
  35   2.0000      -5.647146      -153.6667
  36   2.0000      -5.646537      -153.6501
  37   2.0000      -4.647904      -126.4759
  38   2.0000      -4.647357      -126.4610
  39   2.0000      -4.645882      -126.4209
  40   2.0000      -4.644864      -126.3932
  41   2.0000      -4.643677      -126.3609
  42   2.0000      -4.642413      -126.3265
  43   2.0000      -0.988620       -26.9017
  44   2.0000      -0.983244       -26.7554
  45   2.0000      -0.945833       -25.7374
  46   2.0000      -0.938358       -25.5340
  47   2.0000      -0.764766       -20.8104
  48   2.0000      -0.719503       -19.5787
  49   2.0000      -0.704721       -19.1764
  50   2.0000      -0.685555       -18.6549
  51   2.0000      -0.681914       -18.5558
  52   2.0000      -0.671061       -18.2605
  53   2.0000      -0.654681       -17.8148
  54   2.0000      -0.638107       -17.3638
  55   2.0000      -0.597443       -16.2573
  56   2.0000      -0.591215       -16.0878
  57   2.0000      -0.572940       -15.5905
  58   2.0000      -0.566515       -15.4157
  59   2.0000      -0.560366       -15.2483
  60   2.0000      -0.502229       -13.6663
  61   2.0000      -0.494714       -13.4619
  62   2.0000      -0.477430       -12.9915
  63   2.0000      -0.464369       -12.6361
  64   2.0000      -0.459162       -12.4944
  65   2.0000      -0.441558       -12.0154
  66   2.0000      -0.438256       -11.9256
  67   2.0000      -0.430931       -11.7262
  68   2.0000      -0.425379       -11.5752
  69   2.0000      -0.411203       -11.1894
  70   2.0000      -0.410092       -11.1592
  71   2.0000      -0.400016       -10.8850
  72   2.0000      -0.396830       -10.7983
  73   2.0000      -0.387484       -10.5440
  74   2.0000      -0.375979       -10.2309
  75   2.0000      -0.369269       -10.0483
  76   2.0000      -0.365146        -9.9361
  77   2.0000      -0.358730        -9.7615
  78   2.0000      -0.351635        -9.5685
  79   2.0000      -0.349499        -9.5103
  80   2.0000      -0.344845        -9.3837
  81   2.0000      -0.342117        -9.3095
  82   2.0000      -0.336169        -9.1476
  83   2.0000      -0.332580        -9.0500
  84   2.0000      -0.329805        -8.9744
  85   2.0000      -0.321367        -8.7448
  86   2.0000      -0.306186        -8.3318
  87   2.0000      -0.295624        -8.0443
  88   2.0000      -0.293404        -7.9839
  89   2.0000      -0.291651        -7.9362
  90   2.0000      -0.286575        -7.7981
  91   2.0000      -0.272231        -7.4078
  92   2.0000      -0.269932        -7.3452
  93   2.0000      -0.261563        -7.1175
  94   2.0000      -0.259401        -7.0587
  95   2.0000      -0.228528        -6.2186
  96   2.0000      -0.218898        -5.9565
  97   2.0000      -0.214740        -5.8434
  98   2.0000      -0.205322        -5.5871
  99   2.0000      -0.192457        -5.2370
 100   2.0000      -0.191574        -5.2130
 101   0.0000      -0.050265        -1.3678
 102   0.0000      -0.026479        -0.7205
 103   0.0000      -0.011062        -0.3010
 104   0.0000      -0.000815        -0.0222
 105   0.0000       0.019743         0.5372

MULLIKEN ATOMIC CHARGES
-----------------------
   0 C :   -0.291209
   1 C :   -0.012656
   2 O :   -0.372732
   3 P :    0.624558
   4 S :   -0.320734
   5 O :   -0.364195
   6 C :   -0.009716
   7 C :   -0.299888
   8 S :   -0.074321
   9 C :   -0.318671
  10 S :   -0.091416
  11 P :    0.628129
  12 S :   -0.330250
  13 O :   -0.374009
  14 C :   -0.006439
  15 C :   -0.305176
  16 O :   -0.378730
  17 C :   -0.005433
  18 C :   -0.314236
  19 H :    0.128916
  20 H :    0.111859
  21 H :    0.107188
  22 H :    0.103857
  23 H :    0.099900
  24 H :    0.118931
  25 H :    0.103472
  26 H :    0.115215
  27 H :    0.122108
  28 H :    0.111081
  29 H :    0.180716
  30 H :    0.191065
  31 H :    0.097659
  32 H :    0.108826
  33 H :    0.098839
  34 H :    0.123427
  35 H :    0.124084
  36 H :    0.102819
  37 H :    0.112496
  38 H :    0.126151
  39 H :    0.115735
  40 H :    0.112782
Sum of atomic charges:   -0.0000000

LOEWDIN ATOMIC CHARGES
----------------------
   0 C :   -0.363879
   1 C :   -0.120120
   2 O :   -0.253705
   3 P :    0.575610
   4 S :   -0.302173
   5 O :   -0.230683
   6 C :   -0.115238
   7 C :   -0.362527
   8 S :    0.108843
   9 C :   -0.466398
  10 S :    0.088842
  11 P :    0.568175
  12 S :   -0.326963
  13 O :   -0.248492
  14 C :   -0.114579
  15 C :   -0.370359
  16 O :   -0.245246
  17 C :   -0.122073
  18 C :   -0.369310
  19 H :    0.123733
  20 H :    0.124516
  21 H :    0.128413
  22 H :    0.117024
  23 H :    0.104386
  24 H :    0.110305
  25 H :    0.117450
  26 H :    0.125993
  27 H :    0.122919
  28 H :    0.129977
  29 H :    0.134618
  30 H :    0.139166
  31 H :    0.107059
  32 H :    0.114511
  33 H :    0.125402
  34 H :    0.122163
  35 H :    0.119618
  36 H :    0.117217
  37 H :    0.109916
  38 H :    0.121316
  39 H :    0.123548
  40 H :    0.131027

  Mayer bond orders larger than 0.100000
B(  0-C ,  1-C ) :   1.1658 B(  0-C , 19-H ) :   0.9319 B(  0-C , 20-H ) :   0.9470
B(  0-C , 21-H ) :   0.9399 B(  1-C ,  2-O ) :   0.9117 B(  1-C , 22-H ) :   0.9363
B(  1-C , 23-H ) :   0.9130 B(  2-O ,  3-P ) :   1.0810 B(  3-P ,  4-S ) :   1.6245
B(  3-P ,  5-O ) :   1.1285 B(  3-P ,  8-S ) :   0.9516 B(  5-O ,  6-C ) :   0.8953
B(  6-C ,  7-C ) :   1.1626 B(  6-C , 24-H ) :   0.9126 B(  6-C , 25-H ) :   0.9313
B(  7-C , 26-H ) :   0.9466 B(  7-C , 27-H ) :   0.9368 B(  7-C , 28-H ) :   0.9400
B(  8-S ,  9-C ) :   1.0097 B(  9-C , 10-S ) :   0.9744 B(  9-C , 29-H ) :   0.9062
B(  9-C , 30-H ) :   0.9042 B( 10-S , 11-P ) :   0.9750 B( 10-S , 12-S ) :   0.1174
B( 11-P , 12-S ) :   1.6094 B( 11-P , 13-O ) :   1.0986 B( 11-P , 16-O ) :   1.0929
B( 13-O , 14-C ) :   0.8992 B( 14-C , 15-C ) :   1.1726 B( 14-C , 31-H ) :   0.9233
B( 14-C , 32-H ) :   0.9239 B( 15-C , 33-H ) :   0.9381 B( 15-C , 34-H ) :   0.9345
B( 15-C , 35-H ) :   0.9300 B( 16-O , 17-C ) :   0.9064 B( 17-C , 18-C ) :   1.1665
B( 17-C , 36-H ) :   0.9329 B( 17-C , 37-H ) :   0.9107 B( 18-C , 38-H ) :   0.9346
B( 18-C , 39-H ) :   0.9454 B( 18-C , 40-H ) :   0.9383

Dispersion correction           -0.068794847
FINAL SINGLE POINT ENERGY     -2929.516252239684

DIPOLE MOMENT
-------------

Method             : SCF
Type of density    : Electron Density
Multiplicity       :   1
Irrep              :   0
Energy             : -2929.6333819049727936 Eh
Relativity type    :
Basis              : AO
                                X                 Y                 Z
Electronic contribution:     -5.068591334      -1.084174174      -9.394612760
Nuclear contribution   :      5.387545479       0.124431900      10.109372957
                        -----------------------------------------
Total Dipole Moment    :      0.318954145      -0.959742274       0.714760197
                        -----------------------------------------
Magnitude (a.u.)       :      1.238434140
Magnitude (Debye)      :      3.147849420

Rotational constants in cm-1:             0.013482             0.005249             0.005164
Rotational constants in MHz :           404.186325           157.375590           154.799395

                             ****ORCA TERMINATED NORMALLY****
TOTAL RUN TIME: 0 days 0 hours 0 minutes 22 seconds 561 msec
