                         Program Version 6.0.0  -   RELEASE  -
|  1> ! pbe def2-sv(p) def2/J RI DEFGRID1 loosescf d4 GCP(DFT/SV(P)) printgap
|  2> %output
|  3>     printlevel normal
|  4> end
|  5> * xyz 0 1
|  6> C 4.3711557916 -1.6084161798 -1.1404535713
|  7> C 4.624479003 -0.1243440395 -0.9667653712
|  8> O 3.6583008646 0.5020533676 -0.1084373379
|  9> P 2.1141149769 0.6199352659 -0.4859897011
| 10> S 1.8038463434 0.9798850249 -2.3836070922
| 11> O 1.6658089466 1.8070747378 0.448221085
| 12> C 1.3685985719 1.7243944608 1.8591699977
| 13> C 2.5303937784 1.1964841636 2.6720434556
| 14> S 1.2544241096 -1.1601531658 0.3191589623
| 15> C 0.2201071999 -1.6821682776 -1.0843009795
| 16> S -1.453251785 -2.1332610293 -0.574373692
| 17> P -2.0457324703 -0.2898412026 0.2852802113
| 18> S -1.3873543035 1.3293440377 -0.6260422293
| 19> O -1.5799528161 -0.480478072 1.788471246
| 20> C -2.3692940476 -0.1371296152 2.9514325002
| 21> C -2.5665922589 1.3596174031 3.0776179319
| 22> O -3.6240454744 -0.3964741262 0.4070826328
| 23> C -4.5055797507 0.0276905374 -0.6473708517
| 24> C -4.4272806784 -0.87936278 -1.8577477967
| 25> H 4.2727658068 -2.0936031862 -0.1727686185
| 26> H 3.4557291351 -1.7609914526 -1.7105692537
| 27> H 5.1996760919 -2.0507487308 -1.6841350566
| 28> H 4.6035504579 0.382690082 -1.9366492367
| 29> H 5.575739414 0.0667868833 -0.4680942605
| 30> H 1.121009053 2.7550935018 2.119302384
| 31> H 0.4850224301 1.0907605258 1.9826464988
| 32> H 2.2806842527 1.252568779 3.72706208
| 33> H 2.7303339382 0.159185317 2.4081198529
| 34> H 3.4215012949 1.787572349 2.4780132837
| 35> H 0.6464940896 -2.5808080539 -1.5235562718
| 36> H 0.1907913928 -0.8649568279 -1.8112617935
| 37> H -3.3279121902 -0.6537605267 2.8830454215
| 38> H -1.7851380407 -0.5397624014 3.7801356663
| 39> H -1.6092510412 1.8676749071 3.1639710681
| 40> H -3.0804571296 1.7424928014 2.1964453921
| 41> H -3.1653895275 1.5713255382 3.9578944698
| 42> H -5.4939844356 0.0005229779 -0.1866061909
| 43> H -4.2479999444 1.0561777769 -0.9205746951
| 44> H -3.4582580595 -0.7712732341 -2.343028926
| 45> H -4.5566314257 -1.9172896766 -1.5620142597
| 46> H -5.2045522895 -0.6039004753 -2.5633240002
| 47> *
| 48>
| 49>                          ****END OF INPUT****

CARTESIAN COORDINATES (ANGSTROEM)
---------------------------------
  C      4.371156   -1.608416   -1.140454
  C      4.624479   -0.124344   -0.966765
  O      3.658301    0.502053   -0.108437
  P      2.114115    0.619935   -0.485990
  S      1.803846    0.979885   -2.383607
  O      1.665809    1.807075    0.448221
  C      1.368599    1.724394    1.859170
  C      2.530394    1.196484    2.672043
  S      1.254424   -1.160153    0.319159
  C      0.220107   -1.682168   -1.084301
  S     -1.453252   -2.133261   -0.574374
  P     -2.045732   -0.289841    0.285280
  S     -1.387354    1.329344   -0.626042
  O     -1.579953   -0.480478    1.788471
  C     -2.369294   -0.137130    2.951433
  C     -2.566592    1.359617    3.077618
  O     -3.624045   -0.396474    0.407083
  C     -4.505580    0.027691   -0.647371
  C     -4.427281   -0.879363   -1.857748
  H      4.272766   -2.093603   -0.172769
  H      3.455729   -1.760991   -1.710569
  H      5.199676   -2.050749   -1.684135
  H      4.603550    0.382690   -1.936649
  H      5.575739    0.066787   -0.468094
  H      1.121009    2.755094    2.119302
  H      0.485022    1.090761    1.982646
  H      2.280684    1.252569    3.727062
  H      2.730334    0.159185    2.408120
  H      3.421501    1.787572    2.478013
  H      0.646494   -2.580808   -1.523556
  H      0.190791   -0.864957   -1.811262
  H     -3.327912   -0.653761    2.883045
  H     -1.785138   -0.539762    3.780136
  H     -1.609251    1.867675    3.163971
  H     -3.080457    1.742493    2.196445
  H     -3.165390    1.571326    3.957894
  H     -5.493984    0.000523   -0.186606
  H     -4.248000    1.056178   -0.920575
  H     -3.458258   -0.771273   -2.343029
  H     -4.556631   -1.917290   -1.562014
  H     -5.204552   -0.603900   -2.563324

 Total Charge           Charge          ....    0
 Multiplicity           Mult            ....    1
 Number of Electrons    NEL             ....  202
 Basis Dimension        Dim             ....  334

ORBITAL ENERGIES
----------------

  NO   OCC          E(Eh)            E(eV)
   0   2.0000     -88.041333     -2395.7265
   1   2.0000     -88.038475     -2395.6487
   2   2.0000     -87.983403     -2394.1501
   3   2.0000     -87.977023     -2393.9765
   4   2.0000     -76.427651     -2079.7021
   5   2.0000     -76.419265     -2079.4739
   6   2.0000     -18.799349      -511.5563
   7   2.0000     -18.789023      -511.2753
   8   2.0000     -18.782122      -511.0875
   9   2.0000     -18.782061      -511.0858
  10   2.0000      -9.959344      -271.0075
  11   2.0000      -9.956343      -270.9259
  12   2.0000      -9.951246      -270.7872
  13   2.0000      -9.947264      -270.6788
  14   2.0000      -9.945671      -270.6355
  15   2.0000      -9.889776      -269.1145
  16   2.0000      -9.885507      -268.9983
  17   2.0000      -9.883782      -268.9514
  18   2.0000      -9.879833      -268.8439
  19   2.0000      -7.686746      -209.1670
  20   2.0000      -7.682758      -209.0585
  21   2.0000      -7.627853      -207.5644
  22   2.0000      -7.622280      -207.4128
  23   2.0000      -6.424634      -174.8232
  24   2.0000      -6.416354      -174.5979
  25   2.0000      -5.714774      -155.5069
  26   2.0000      -5.711204      -155.4098
  27   2.0000      -5.710621      -155.3939
  28   2.0000      -5.707315      -155.3039
  29   2.0000      -5.703581      -155.2023
  30   2.0000      -5.699783      -155.0990
  31   2.0000      -5.656751      -153.9280
  32   2.0000      -5.651282      -153.7792
  33   2.0000      -5.648610      -153.7065
  34   2.0000      -5.648027      -153.6906
  35   2.0000      -5.642949      -153.5525
  36   2.0000      -5.642241      -153.5332
  37   2.0000      -4.647844      -126.4743
  38   2.0000      -4.646150      -126.4282
  39   2.0000      -4.644776      -126.3908
  40   2.0000      -4.638997      -126.2335
  41   2.0000      -4.638101      -126.2091
  42   2.0000      -4.636852      -126.1752
  43   2.0000      -0.991567       -26.9819
  44   2.0000      -0.977943       -26.6112
  45   2.0000      -0.946694       -25.7609
  46   2.0000      -0.935768       -25.4636
  47   2.0000      -0.760331       -20.6897
  48   2.0000      -0.718128       -19.5412
  49   2.0000      -0.707289       -19.2463
  50   2.0000      -0.692883       -18.8543
  51   2.0000      -0.683939       -18.6109
  52   2.0000      -0.674973       -18.3669
  53   2.0000      -0.649939       -17.6857
  54   2.0000      -0.630778       -17.1643
  55   2.0000      -0.598318       -16.2811
  56   2.0000      -0.589989       -16.0544
  57   2.0000      -0.582197       -15.8424
  58   2.0000      -0.568915       -15.4810
  59   2.0000      -0.558493       -15.1974
  60   2.0000      -0.500621       -13.6226
  61   2.0000      -0.486352       -13.2343
  62   2.0000      -0.474856       -12.9215
  63   2.0000      -0.463529       -12.6133
  64   2.0000      -0.456324       -12.4172
  65   2.0000      -0.446392       -12.1469
  66   2.0000      -0.435568       -11.8524
  67   2.0000      -0.433581       -11.7983
  68   2.0000      -0.429519       -11.6878
  69   2.0000      -0.417695       -11.3661
  70   2.0000      -0.413591       -11.2544
  71   2.0000      -0.408156       -11.1065
  72   2.0000      -0.391264       -10.6468
  73   2.0000      -0.384732       -10.4691
  74   2.0000      -0.378373       -10.2961
  75   2.0000      -0.369933       -10.0664
  76   2.0000      -0.362273        -9.8580
  77   2.0000      -0.356638        -9.7046
  78   2.0000      -0.355019        -9.6606
  79   2.0000      -0.349888        -9.5209
  80   2.0000      -0.347699        -9.4614
  81   2.0000      -0.342800        -9.3281
  82   2.0000      -0.341229        -9.2853
  83   2.0000      -0.339654        -9.2425
  84   2.0000      -0.332737        -9.0542
  85   2.0000      -0.319892        -8.7047
  86   2.0000      -0.306094        -8.3293
  87   2.0000      -0.298912        -8.1338
  88   2.0000      -0.293941        -7.9985
  89   2.0000      -0.286923        -7.8076
  90   2.0000      -0.283201        -7.7063
  91   2.0000      -0.278413        -7.5760
  92   2.0000      -0.264518        -7.1979
  93   2.0000      -0.257841        -7.0162
  94   2.0000      -0.254806        -6.9336
  95   2.0000      -0.234780        -6.3887
  96   2.0000      -0.215515        -5.8644
  97   2.0000      -0.208117        -5.6632
  98   2.0000      -0.196846        -5.3564
  99   2.0000      -0.193250        -5.2586
 100   2.0000      -0.183782        -5.0010
 101   0.0000      -0.046272        -1.2591
 102   0.0000      -0.030810        -0.8384
 103   0.0000      -0.007786        -0.2119
 104   0.0000       0.011341         0.3086
 105   0.0000       0.017819         0.4849

MULLIKEN ATOMIC CHARGES
-----------------------
   0 C :   -0.313545
   1 C :    0.002877
   2 O :   -0.375498
   3 P :    0.609767
   4 S :   -0.301200
   5 O :   -0.350617
   6 C :   -0.039677
   7 C :   -0.306558
   8 S :   -0.124475
   9 C :   -0.344143
  10 S :   -0.096975
  11 P :    0.620161
  12 S :   -0.297868
  13 O :   -0.372693
  14 C :    0.001472
  15 C :   -0.315608
  16 O :   -0.385616
  17 C :   -0.003696
  18 C :   -0.316926
  19 H :    0.116386
  20 H :    0.117683
  21 H :    0.110110
  22 H :    0.110928
  23 H :    0.101159
  24 H :    0.109989
  25 H :    0.141310
  26 H :    0.108363
  27 H :    0.121190
  28 H :    0.122005
  29 H :    0.180123
  30 H :    0.207169
  31 H :    0.112227
  32 H :    0.107852
  33 H :    0.121571
  34 H :    0.128023
  35 H :    0.111162
  36 H :    0.103619
  37 H :    0.113624
  38 H :    0.133550
  39 H :    0.117544
  40 H :    0.115228
Sum of atomic charges:    0.0000000

LOEWDIN ATOMIC CHARGES
----------------------
   0 C :   -0.370721
   1 C :   -0.118494
   2 O :   -0.248389
   3 P :    0.576027
   4 S :   -0.297919
   5 O :   -0.226615
   6 C :   -0.122600
   7 C :   -0.365287
   8 S :    0.069456
   9 C :   -0.480209
  10 S :    0.081084
  11 P :    0.566077
  12 S :   -0.295530
  13 O :   -0.247164
  14 C :   -0.109380
  15 C :   -0.363241
  16 O :   -0.245059
  17 C :   -0.119204
  18 C :   -0.369536
  19 H :    0.122491
  20 H :    0.118021
  21 H :    0.129075
  22 H :    0.111016
  23 H :    0.116941
  24 H :    0.121606
  25 H :    0.108336
  26 H :    0.128912
  27 H :    0.116679
  28 H :    0.128787
  29 H :    0.133998
  30 H :    0.124142
  31 H :    0.114273
  32 H :    0.120546
  33 H :    0.126517
  34 H :    0.125216
  35 H :    0.129796
  36 H :    0.117647
  37 H :    0.111866
  38 H :    0.124143
  39 H :    0.124285
  40 H :    0.132412

  Mayer bond orders larger than 0.100000
B(  0-C ,  1-C ) :   1.1639 B(  0-C , 19-H ) :   0.9430 B(  0-C , 20-H ) :   0.9366
B(  0-C , 21-H ) :   0.9377 B(  1-C ,  2-O ) :   0.9179 B(  1-C , 22-H ) :   0.9161
B(  1-C , 23-H ) :   0.9345 B(  2-O ,  3-P ) :   1.0810 B(  3-P ,  4-S ) :   1.6157
B(  3-P ,  5-O ) :   1.1470 B(  3-P ,  8-S ) :   0.9361 B(  4-S ,  8-S ) :   0.1159
B(  4-S , 30-H ) :   0.1027 B(  5-O ,  6-C ) :   0.9006 B(  6-C ,  7-C ) :   1.1632
B(  6-C , 24-H ) :   0.9327 B(  6-C , 25-H ) :   0.8982 B(  7-C , 26-H ) :   0.9369
B(  7-C , 27-H ) :   0.9377 B(  7-C , 28-H ) :   0.9427 B(  8-S ,  9-C ) :   0.9985
B(  9-C , 10-S ) :   1.0033 B(  9-C , 29-H ) :   0.9078 B(  9-C , 30-H ) :   0.8457
B( 10-S , 11-P ) :   0.9432 B( 10-S , 12-S ) :   0.1220 B( 11-P , 12-S ) :   1.6469
B( 11-P , 13-O ) :   1.0899 B( 11-P , 16-O ) :   1.0771 B( 13-O , 14-C ) :   0.9012
B( 14-C , 15-C ) :   1.1657 B( 14-C , 31-H ) :   0.9274 B( 14-C , 32-H ) :   0.9351
B( 15-C , 33-H ) :   0.9458 B( 15-C , 34-H ) :   0.9360 B( 15-C , 35-H ) :   0.9376
B( 16-O , 17-C ) :   0.9015 B( 17-C , 18-C ) :   1.1689 B( 17-C , 36-H ) :   0.9331
B( 17-C , 37-H ) :   0.9133 B( 18-C , 38-H ) :   0.9346 B( 18-C , 39-H ) :   0.9445
B( 18-C , 40-H ) :   0.9374

Dispersion correction           -0.068140397
FINAL SINGLE POINT ENERGY     -2929.512946896862

DIPOLE MOMENT
-------------

Method             : SCF
Type of density    : Electron Density
Multiplicity       :   1
Irrep              :   0
Energy             : -2929.6311438537654794 Eh
Relativity type    :
Basis              : AO
                                X                 Y                 Z
Electronic contribution:      1.262995857      -0.380484339      -9.990503304
Nuclear contribution   :     -1.891564071      -0.343038505      11.395004573
                        -----------------------------------------
Total Dipole Moment    :     -0.628568213      -0.723522844       1.404501269
                        -----------------------------------------
Magnitude (a.u.)       :      1.700354998
Magnitude (Debye)      :      4.321958934

Rotational constants in cm-1:             0.012643             0.005512             0.004846
Rotational constants in MHz :           379.033212           165.247918           145.271570

                             ****ORCA TERMINATED NORMALLY****
TOTAL RUN TIME: 0 days 0 hours 0 minutes 21 seconds 887 msec
