                         Program Version 6.0.0  -   RELEASE  -
|  1> ! pbe def2-sv(p) def2/J RI DEFGRID1 loosescf d4 GCP(DFT/SV(P)) printgap
|  2> %output
|  3>     printlevel normal
|  4> end
|  5> * xyz 0 1
|  6> C 1.4815351123 -0.5809171516 -2.8619863174
|  7> C 2.4975493526 0.1523014341 -2.0089522601
|  8> O 2.866371982 -0.6363751981 -0.8643446455
|  9> P 2.2971285084 -0.4118828189 0.6020662788
| 10> S 2.3458579333 1.4354491276 1.269075575
| 11> O 3.1661127815 -1.441536821 1.4326973318
| 12> C 4.423180916 -1.0791737562 2.0397746141
| 13> C 5.5001460117 -0.8307663675 1.0049761278
| 14> S 0.4628558085 -1.4468245987 0.6633592512
| 15> C -0.4391737055 -0.3574353033 1.8258894778
| 16> S -2.1969960236 -0.3088789802 1.4534634171
| 17> P -2.05767239 0.4936110995 -0.5235272889
| 18> S -0.6276624088 1.7889808455 -0.8527633403
| 19> O -3.5544881415 0.9379298395 -0.8140408751
| 20> C -4.3662844171 1.7523275165 0.0529272414
| 21> C -3.6943492382 3.0545133426 0.4340055559
| 22> O -1.8838881633 -0.7297731066 -1.500858637
| 23> C -2.7890420218 -1.86115162 -1.5394771525
| 24> C -3.7467773763 -1.7309606574 -2.705973111
| 25> H 1.3206419998 -0.0219652292 -3.7782759983
| 26> H 1.8458752645 -1.5762020736 -3.1003340071
| 27> H 0.5320612419 -0.6666530238 -2.3369278761
| 28> H 2.1080236761 1.1200159551 -1.6748035244
| 29> H 3.4308860259 0.3061488961 -2.5542515778
| 30> H 4.2643097346 -0.1867109156 2.6535291662
| 31> H 4.6595537139 -1.9333698813 2.6754340251
| 32> H 6.449458627 -0.6666251805 1.5051775472
| 33> H 5.5831911296 -1.6840271309 0.337024935
| 34> H 5.2514667814 0.052658221 0.418237971
| 35> H -0.0148474364 0.6482059712 1.7502120168
| 36> H -0.3501579931 -0.7497908441 2.8358961213
| 37> H -5.2705702241 1.9284396946 -0.5322449439
| 38> H -4.6058091493 1.1656301453 0.9438811798
| 39> H -4.3804252808 3.658222061 1.0192529986
| 40> H -2.8015939039 2.8586132824 1.0268536483
| 41> H -3.3985984945 3.6050726151 -0.4561717583
| 42> H -2.1382204535 -2.730773342 -1.6480155767
| 43> H -3.3250525688 -1.9212674856 -0.5883250797
| 44> H -4.3803649886 -2.6113917093 -2.7451378284
| 45> H -4.3661841317 -0.8460639577 -2.5864839579
| 46> H -3.1916956322 -1.6455695563 -3.6359181575
| 47> *
| 48>
| 49>                          ****END OF INPUT****

CARTESIAN COORDINATES (ANGSTROEM)
---------------------------------
  C      1.481535   -0.580917   -2.861986
  C      2.497549    0.152301   -2.008952
  O      2.866372   -0.636375   -0.864345
  P      2.297129   -0.411883    0.602066
  S      2.345858    1.435449    1.269076
  O      3.166113   -1.441537    1.432697
  C      4.423181   -1.079174    2.039775
  C      5.500146   -0.830766    1.004976
  S      0.462856   -1.446825    0.663359
  C     -0.439174   -0.357435    1.825889
  S     -2.196996   -0.308879    1.453463
  P     -2.057672    0.493611   -0.523527
  S     -0.627662    1.788981   -0.852763
  O     -3.554488    0.937930   -0.814041
  C     -4.366284    1.752328    0.052927
  C     -3.694349    3.054513    0.434006
  O     -1.883888   -0.729773   -1.500859
  C     -2.789042   -1.861152   -1.539477
  C     -3.746777   -1.730961   -2.705973
  H      1.320642   -0.021965   -3.778276
  H      1.845875   -1.576202   -3.100334
  H      0.532061   -0.666653   -2.336928
  H      2.108024    1.120016   -1.674804
  H      3.430886    0.306149   -2.554252
  H      4.264310   -0.186711    2.653529
  H      4.659554   -1.933370    2.675434
  H      6.449459   -0.666625    1.505178
  H      5.583191   -1.684027    0.337025
  H      5.251467    0.052658    0.418238
  H     -0.014847    0.648206    1.750212
  H     -0.350158   -0.749791    2.835896
  H     -5.270570    1.928440   -0.532245
  H     -4.605809    1.165630    0.943881
  H     -4.380425    3.658222    1.019253
  H     -2.801594    2.858613    1.026854
  H     -3.398598    3.605073   -0.456172
  H     -2.138220   -2.730773   -1.648016
  H     -3.325053   -1.921267   -0.588325
  H     -4.380365   -2.611392   -2.745138
  H     -4.366184   -0.846064   -2.586484
  H     -3.191696   -1.645570   -3.635918

 Total Charge           Charge          ....    0
 Multiplicity           Mult            ....    1
 Number of Electrons    NEL             ....  202
 Basis Dimension        Dim             ....  334

ORBITAL ENERGIES
----------------

  NO   OCC          E(Eh)            E(eV)
   0   2.0000     -88.049278     -2395.9427
   1   2.0000     -88.036881     -2395.6053
   2   2.0000     -87.982096     -2394.1145
   3   2.0000     -87.981354     -2394.0944
   4   2.0000     -76.428090     -2079.7140
   5   2.0000     -76.419675     -2079.4851
   6   2.0000     -18.798878      -511.5435
   7   2.0000     -18.792933      -511.3817
   8   2.0000     -18.785456      -511.1783
   9   2.0000     -18.781468      -511.0697
  10   2.0000      -9.962256      -271.0868
  11   2.0000      -9.956461      -270.9291
  12   2.0000      -9.953061      -270.8365
  13   2.0000      -9.945621      -270.6341
  14   2.0000      -9.939804      -270.4758
  15   2.0000      -9.888050      -269.0675
  16   2.0000      -9.884820      -268.9796
  17   2.0000      -9.878714      -268.8135
  18   2.0000      -9.868161      -268.5263
  19   2.0000      -7.694077      -209.3665
  20   2.0000      -7.682026      -209.0386
  21   2.0000      -7.627017      -207.5417
  22   2.0000      -7.626282      -207.5217
  23   2.0000      -6.425055      -174.8346
  24   2.0000      -6.417472      -174.6283
  25   2.0000      -5.721865      -155.6999
  26   2.0000      -5.718377      -155.6049
  27   2.0000      -5.711435      -155.4160
  28   2.0000      -5.709899      -155.3743
  29   2.0000      -5.706783      -155.2895
  30   2.0000      -5.698703      -155.0696
  31   2.0000      -5.655824      -153.9028
  32   2.0000      -5.655414      -153.8917
  33   2.0000      -5.647739      -153.6828
  34   2.0000      -5.647187      -153.6678
  35   2.0000      -5.646733      -153.6554
  36   2.0000      -5.646384      -153.6459
  37   2.0000      -4.647895      -126.4756
  38   2.0000      -4.647178      -126.4562
  39   2.0000      -4.644997      -126.3968
  40   2.0000      -4.639782      -126.2549
  41   2.0000      -4.639114      -126.2367
  42   2.0000      -4.638255      -126.2133
  43   2.0000      -0.992097       -26.9963
  44   2.0000      -0.979068       -26.6418
  45   2.0000      -0.948495       -25.8099
  46   2.0000      -0.937415       -25.5084
  47   2.0000      -0.762783       -20.7564
  48   2.0000      -0.720552       -19.6072
  49   2.0000      -0.708187       -19.2708
  50   2.0000      -0.693602       -18.8739
  51   2.0000      -0.678209       -18.4550
  52   2.0000      -0.671961       -18.2850
  53   2.0000      -0.649837       -17.6830
  54   2.0000      -0.632123       -17.2009
  55   2.0000      -0.595173       -16.1955
  56   2.0000      -0.589946       -16.0533
  57   2.0000      -0.576913       -15.6986
  58   2.0000      -0.564055       -15.3487
  59   2.0000      -0.560184       -15.2434
  60   2.0000      -0.504660       -13.7325
  61   2.0000      -0.488743       -13.2994
  62   2.0000      -0.477352       -12.9894
  63   2.0000      -0.468431       -12.7467
  64   2.0000      -0.454343       -12.3633
  65   2.0000      -0.446611       -12.1529
  66   2.0000      -0.440408       -11.9841
  67   2.0000      -0.431839       -11.7509
  68   2.0000      -0.427700       -11.6383
  69   2.0000      -0.413199       -11.2437
  70   2.0000      -0.408097       -11.1049
  71   2.0000      -0.398272       -10.8375
  72   2.0000      -0.390014       -10.6128
  73   2.0000      -0.386105       -10.5064
  74   2.0000      -0.384011       -10.4495
  75   2.0000      -0.370481       -10.0813
  76   2.0000      -0.359205        -9.7745
  77   2.0000      -0.358145        -9.7456
  78   2.0000      -0.350566        -9.5394
  79   2.0000      -0.348695        -9.4885
  80   2.0000      -0.344873        -9.3845
  81   2.0000      -0.342130        -9.3098
  82   2.0000      -0.337974        -9.1967
  83   2.0000      -0.333975        -9.0879
  84   2.0000      -0.324545        -8.8313
  85   2.0000      -0.321925        -8.7600
  86   2.0000      -0.306993        -8.3537
  87   2.0000      -0.299798        -8.1579
  88   2.0000      -0.293443        -7.9850
  89   2.0000      -0.282519        -7.6877
  90   2.0000      -0.281757        -7.6670
  91   2.0000      -0.277840        -7.5604
  92   2.0000      -0.267695        -7.2843
  93   2.0000      -0.264392        -7.1945
  94   2.0000      -0.257280        -7.0010
  95   2.0000      -0.234225        -6.3736
  96   2.0000      -0.221605        -6.0302
  97   2.0000      -0.209446        -5.6993
  98   2.0000      -0.197301        -5.3688
  99   2.0000      -0.195611        -5.3228
 100   2.0000      -0.186793        -5.0829
 101   0.0000      -0.044141        -1.2011
 102   0.0000      -0.031290        -0.8514
 103   0.0000      -0.012806        -0.3485
 104   0.0000       0.012296         0.3346
 105   0.0000       0.018059         0.4914

MULLIKEN ATOMIC CHARGES
-----------------------
   0 C :   -0.314694
   1 C :   -0.010227
   2 O :   -0.374211
   3 P :    0.628416
   4 S :   -0.321495
   5 O :   -0.368438
   6 C :   -0.003536
   7 C :   -0.304867
   8 S :   -0.103261
   9 C :   -0.346320
  10 S :   -0.121909
  11 P :    0.590973
  12 S :   -0.293512
  13 O :   -0.377297
  14 C :   -0.012045
  15 C :   -0.310506
  16 O :   -0.343031
  17 C :   -0.007725
  18 C :   -0.287317
  19 H :    0.104668
  20 H :    0.102098
  21 H :    0.148856
  22 H :    0.119806
  23 H :    0.098368
  24 H :    0.108077
  25 H :    0.102520
  26 H :    0.109171
  27 H :    0.116428
  28 H :    0.122943
  29 H :    0.212845
  30 H :    0.181417
  31 H :    0.109766
  32 H :    0.113734
  33 H :    0.112201
  34 H :    0.130461
  35 H :    0.128767
  36 H :    0.111674
  37 H :    0.097383
  38 H :    0.109616
  39 H :    0.119781
  40 H :    0.120421
Sum of atomic charges:   -0.0000000

LOEWDIN ATOMIC CHARGES
----------------------
   0 C :   -0.368204
   1 C :   -0.117164
   2 O :   -0.241543
   3 P :    0.570767
   4 S :   -0.304253
   5 O :   -0.246869
   6 C :   -0.117783
   7 C :   -0.364332
   8 S :    0.076651
   9 C :   -0.477947
  10 S :    0.066077
  11 P :    0.564036
  12 S :   -0.287865
  13 O :   -0.245344
  14 C :   -0.115289
  15 C :   -0.368895
  16 O :   -0.227432
  17 C :   -0.116324
  18 C :   -0.357987
  19 H :    0.128924
  20 H :    0.119831
  21 H :    0.122729
  22 H :    0.108207
  23 H :    0.114536
  24 H :    0.108775
  25 H :    0.117548
  26 H :    0.128850
  27 H :    0.126303
  28 H :    0.123651
  29 H :    0.123653
  30 H :    0.134637
  31 H :    0.121366
  32 H :    0.108207
  33 H :    0.130612
  34 H :    0.123031
  35 H :    0.131441
  36 H :    0.120867
  37 H :    0.102073
  38 H :    0.129258
  39 H :    0.126155
  40 H :    0.129046

  Mayer bond orders larger than 0.100000
B(  0-C ,  1-C ) :   1.1729 B(  0-C , 19-H ) :   0.9402 B(  0-C , 20-H ) :   0.9461
B(  0-C , 21-H ) :   0.9230 B(  1-C ,  2-O ) :   0.8983 B(  1-C , 22-H ) :   0.9042
B(  1-C , 23-H ) :   0.9344 B(  2-O ,  3-P ) :   1.1200 B(  3-P ,  4-S ) :   1.6101
B(  3-P ,  5-O ) :   1.1270 B(  3-P ,  8-S ) :   0.9554 B(  4-S ,  8-S ) :   0.1191
B(  5-O ,  6-C ) :   0.9141 B(  6-C ,  7-C ) :   1.1631 B(  6-C , 24-H ) :   0.9154
B(  6-C , 25-H ) :   0.9352 B(  7-C , 26-H ) :   0.9389 B(  7-C , 27-H ) :   0.9465
B(  7-C , 28-H ) :   0.9378 B(  8-S ,  9-C ) :   0.9927 B(  9-C , 10-S ) :   1.0073
B(  9-C , 29-H ) :   0.8466 B(  9-C , 30-H ) :   0.9088 B( 10-S , 11-P ) :   0.9313
B( 10-S , 12-S ) :   0.1102 B( 11-P , 12-S ) :   1.6614 B( 11-P , 13-O ) :   1.0820
B( 11-P , 16-O ) :   1.1188 B( 13-O , 14-C ) :   0.9104 B( 14-C , 15-C ) :   1.1673
B( 14-C , 31-H ) :   0.9328 B( 14-C , 32-H ) :   0.9265 B( 15-C , 33-H ) :   0.9346
B( 15-C , 34-H ) :   0.9321 B( 15-C , 35-H ) :   0.9426 B( 16-O , 17-C ) :   0.8887
B( 17-C , 18-C ) :   1.1652 B( 17-C , 36-H ) :   0.9340 B( 17-C , 37-H ) :   0.9123
B( 18-C , 38-H ) :   0.9405 B( 18-C , 39-H ) :   0.9434 B( 18-C , 40-H ) :   0.9475

Dispersion correction           -0.066061170
FINAL SINGLE POINT ENERGY     -2929.519071314629

DIPOLE MOMENT
-------------

Method             : SCF
Type of density    : Electron Density
Multiplicity       :   1
Irrep              :   0
Energy             : -2929.6380650709502333 Eh
Relativity type    :
Basis              : AO
                                X                 Y                 Z
Electronic contribution:      1.788324255       1.127124195       9.962885248
Nuclear contribution   :     -2.810985074      -1.923322085      -9.993332359
                        -----------------------------------------
Total Dipole Moment    :     -1.022660819      -0.796197890      -0.030447111
                        -----------------------------------------
Magnitude (a.u.)       :      1.296415542
Magnitude (Debye)      :      3.295226431

Rotational constants in cm-1:             0.013736             0.004780             0.004504
Rotational constants in MHz :           411.799943           143.293844           135.016095

                             ****ORCA TERMINATED NORMALLY****
TOTAL RUN TIME: 0 days 0 hours 0 minutes 21 seconds 507 msec
