                         Program Version 6.0.0  -   RELEASE  -
|  1> ! pbe def2-sv(p) def2/J RI DEFGRID1 loosescf d4 GCP(DFT/SV(P)) printgap
|  2> %output
|  3>     printlevel normal
|  4> end
|  5> * xyz 0 1
|  6> C 3.9827194302 -1.8921245643 -2.137981108
|  7> C 4.59296444 -1.4812722606 -0.8134854319
|  8> O 3.5959319481 -1.1976514422 0.183833416
|  9> P 2.6127274546 0.0448749972 0.0790756782
| 10> S 3.4214278387 1.6801179769 -0.6285807581
| 11> O 2.1390025659 0.2502102075 1.5671177254
| 12> C 1.2529561496 -0.587663866 2.3467850103
| 13> C 1.635128962 -2.0514981449 2.3116916685
| 14> S 0.9291462532 -0.6972519346 -1.0109915359
| 15> C 0.2693419352 0.9173257329 -1.475003231
| 16> S -0.5009838208 1.7782607633 -0.0738665606
| 17> P -2.2631322006 0.6059042841 -0.049894179
| 18> S -3.0121513127 0.1744705428 -1.8128579487
| 19> O -3.0582125341 1.5596599578 0.9317012231
| 20> C -4.2330315645 1.1428255406 1.6622696723
| 21> C -5.4623379613 1.093854256 0.7769220791
| 22> O -1.9493758201 -0.6686909579 0.8540296892
| 23> C -1.9977365743 -2.0321066036 0.3879480432
| 24> C -3.2870173328 -2.6876162238 0.8406691594
| 25> H 3.2703913893 -2.700385421 -1.994300669
| 26> H 3.4683355552 -1.0456297421 -2.5901906312
| 27> H 4.7707945641 -2.2204415055 -2.8080065679
| 28> H 5.2194051516 -0.5926048111 -0.9385727969
| 29> H 5.1779953957 -2.289107177 -0.3718287574
| 30> H 1.3407226259 -0.1712296226 3.3516669872
| 31> H 0.2339876226 -0.4338468559 1.9808225695
| 32> H 2.6643522019 -2.1778909767 2.6370782192
| 33> H 0.9782374039 -2.6045661204 2.9764986184
| 34> H 1.5380457355 -2.4438335596 1.3008565774
| 35> H -0.4747294308 0.7530143246 -2.2557461163
| 36> H 1.0845493456 1.5510236459 -1.8262713314
| 37> H -4.0353524616 0.1693080683 2.1178047858
| 38> H -4.3341903867 1.9007040982 2.4410575019
| 39> H -5.6267941611 2.0609475191 0.3087562426
| 40> H -5.3372156979 0.3504774222 -0.0083821407
| 41> H -6.328085837 0.8341078795 1.377961138
| 42> H -1.9187218498 -2.0416750816 -0.7030908399
| 43> H -1.1229671403 -2.5179377788 0.8215538116
| 44> H -4.1386105238 -2.1949330502 0.3756552303
| 45> H -3.2784682463 -3.7303947837 0.5409472129
| 46> H -3.3846481355 -2.6260914417 1.9210892275
| 47> *
| 48>
| 49>                          ****END OF INPUT****

CARTESIAN COORDINATES (ANGSTROEM)
---------------------------------
  C      3.982719   -1.892125   -2.137981
  C      4.592964   -1.481272   -0.813485
  O      3.595932   -1.197651    0.183833
  P      2.612727    0.044875    0.079076
  S      3.421428    1.680118   -0.628581
  O      2.139003    0.250210    1.567118
  C      1.252956   -0.587664    2.346785
  C      1.635129   -2.051498    2.311692
  S      0.929146   -0.697252   -1.010992
  C      0.269342    0.917326   -1.475003
  S     -0.500984    1.778261   -0.073867
  P     -2.263132    0.605904   -0.049894
  S     -3.012151    0.174471   -1.812858
  O     -3.058213    1.559660    0.931701
  C     -4.233032    1.142826    1.662270
  C     -5.462338    1.093854    0.776922
  O     -1.949376   -0.668691    0.854030
  C     -1.997737   -2.032107    0.387948
  C     -3.287017   -2.687616    0.840669
  H      3.270391   -2.700385   -1.994301
  H      3.468336   -1.045630   -2.590191
  H      4.770795   -2.220442   -2.808007
  H      5.219405   -0.592605   -0.938573
  H      5.177995   -2.289107   -0.371829
  H      1.340723   -0.171230    3.351667
  H      0.233988   -0.433847    1.980823
  H      2.664352   -2.177891    2.637078
  H      0.978237   -2.604566    2.976499
  H      1.538046   -2.443834    1.300857
  H     -0.474729    0.753014   -2.255746
  H      1.084549    1.551024   -1.826271
  H     -4.035352    0.169308    2.117805
  H     -4.334190    1.900704    2.441058
  H     -5.626794    2.060948    0.308756
  H     -5.337216    0.350477   -0.008382
  H     -6.328086    0.834108    1.377961
  H     -1.918722   -2.041675   -0.703091
  H     -1.122967   -2.517938    0.821554
  H     -4.138611   -2.194933    0.375655
  H     -3.278468   -3.730395    0.540947
  H     -3.384648   -2.626091    1.921089

 Total Charge           Charge          ....    0
 Multiplicity           Mult            ....    1
 Number of Electrons    NEL             ....  202
 Basis Dimension        Dim             ....  334

ORBITAL ENERGIES
----------------

  NO   OCC          E(Eh)            E(eV)
   0   2.0000     -88.044560     -2395.8143
   1   2.0000     -88.040311     -2395.6987
   2   2.0000     -87.994159     -2394.4428
   3   2.0000     -87.984125     -2394.1698
   4   2.0000     -76.431434     -2079.8051
   5   2.0000     -76.427462     -2079.6970
   6   2.0000     -18.801110      -511.6042
   7   2.0000     -18.798735      -511.5396
   8   2.0000     -18.795536      -511.4525
   9   2.0000     -18.789635      -511.2920
  10   2.0000      -9.962865      -271.1033
  11   2.0000      -9.957887      -270.9679
  12   2.0000      -9.954098      -270.8648
  13   2.0000      -9.953279      -270.8425
  14   2.0000      -9.950262      -270.7604
  15   2.0000      -9.893888      -269.2264
  16   2.0000      -9.890287      -269.1284
  17   2.0000      -9.888749      -269.0865
  18   2.0000      -9.884929      -268.9826
  19   2.0000      -7.689017      -209.2288
  20   2.0000      -7.685465      -209.1321
  21   2.0000      -7.639012      -207.8681
  22   2.0000      -7.629435      -207.6075
  23   2.0000      -6.429064      -174.9437
  24   2.0000      -6.424664      -174.8240
  25   2.0000      -5.716691      -155.5591
  26   2.0000      -5.713606      -155.4751
  27   2.0000      -5.713324      -155.4674
  28   2.0000      -5.710210      -155.3827
  29   2.0000      -5.706209      -155.2738
  30   2.0000      -5.702220      -155.1653
  31   2.0000      -5.667793      -154.2285
  32   2.0000      -5.659939      -154.0148
  33   2.0000      -5.659012      -153.9896
  34   2.0000      -5.658404      -153.9730
  35   2.0000      -5.649973      -153.7436
  36   2.0000      -5.649568      -153.7326
  37   2.0000      -4.651971      -126.5866
  38   2.0000      -4.650463      -126.5455
  39   2.0000      -4.649533      -126.5202
  40   2.0000      -4.647455      -126.4637
  41   2.0000      -4.646477      -126.4371
  42   2.0000      -4.644937      -126.3952
  43   2.0000      -0.993837       -27.0437
  44   2.0000      -0.987372       -26.8678
  45   2.0000      -0.951717       -25.8975
  46   2.0000      -0.945673       -25.7331
  47   2.0000      -0.765093       -20.8192
  48   2.0000      -0.726424       -19.7670
  49   2.0000      -0.712813       -19.3966
  50   2.0000      -0.695546       -18.9268
  51   2.0000      -0.691750       -18.8235
  52   2.0000      -0.677638       -18.4395
  53   2.0000      -0.654523       -17.8105
  54   2.0000      -0.638643       -17.3784
  55   2.0000      -0.602929       -16.4065
  56   2.0000      -0.596826       -16.2405
  57   2.0000      -0.584035       -15.8924
  58   2.0000      -0.577548       -15.7159
  59   2.0000      -0.559400       -15.2220
  60   2.0000      -0.507670       -13.8144
  61   2.0000      -0.492033       -13.3889
  62   2.0000      -0.483624       -13.1601
  63   2.0000      -0.472071       -12.8457
  64   2.0000      -0.463166       -12.6034
  65   2.0000      -0.448006       -12.1909
  66   2.0000      -0.443432       -12.0664
  67   2.0000      -0.443270       -12.0620
  68   2.0000      -0.433598       -11.7988
  69   2.0000      -0.418632       -11.3916
  70   2.0000      -0.413049       -11.2396
  71   2.0000      -0.400403       -10.8955
  72   2.0000      -0.398221       -10.8361
  73   2.0000      -0.386061       -10.5053
  74   2.0000      -0.381287       -10.3754
  75   2.0000      -0.376501       -10.2451
  76   2.0000      -0.370281       -10.0759
  77   2.0000      -0.364967        -9.9312
  78   2.0000      -0.358702        -9.7608
  79   2.0000      -0.356416        -9.6986
  80   2.0000      -0.354671        -9.6511
  81   2.0000      -0.348398        -9.4804
  82   2.0000      -0.347193        -9.4476
  83   2.0000      -0.343577        -9.3492
  84   2.0000      -0.338511        -9.2114
  85   2.0000      -0.326094        -8.8735
  86   2.0000      -0.312145        -8.4939
  87   2.0000      -0.300879        -8.1873
  88   2.0000      -0.299025        -8.1369
  89   2.0000      -0.294202        -8.0057
  90   2.0000      -0.292673        -7.9640
  91   2.0000      -0.283813        -7.7229
  92   2.0000      -0.270605        -7.3635
  93   2.0000      -0.268395        -7.3034
  94   2.0000      -0.262387        -7.1399
  95   2.0000      -0.236041        -6.4230
  96   2.0000      -0.219286        -5.9671
  97   2.0000      -0.215578        -5.8662
  98   2.0000      -0.204581        -5.5669
  99   2.0000      -0.201955        -5.4955
 100   2.0000      -0.200509        -5.4561
 101   0.0000      -0.047321        -1.2877
 102   0.0000      -0.026189        -0.7126
 103   0.0000      -0.004419        -0.1202
 104   0.0000      -0.000548        -0.0149
 105   0.0000       0.013475         0.3667

MULLIKEN ATOMIC CHARGES
-----------------------
   0 C :   -0.315073
   1 C :   -0.001909
   2 O :   -0.375808
   3 P :    0.604852
   4 S :   -0.312964
   5 O :   -0.353309
   6 C :   -0.022776
   7 C :   -0.318612
   8 S :   -0.116718
   9 C :   -0.377825
  10 S :   -0.055745
  11 P :    0.638872
  12 S :   -0.326848
  13 O :   -0.372986
  14 C :   -0.017876
  15 C :   -0.312962
  16 O :   -0.379911
  17 C :   -0.020410
  18 C :   -0.294754
  19 H :    0.114237
  20 H :    0.128550
  21 H :    0.113994
  22 H :    0.115132
  23 H :    0.104590
  24 H :    0.108147
  25 H :    0.132810
  26 H :    0.123773
  27 H :    0.112360
  28 H :    0.123916
  29 H :    0.194521
  30 H :    0.196582
  31 H :    0.108354
  32 H :    0.113039
  33 H :    0.124538
  34 H :    0.135718
  35 H :    0.110566
  36 H :    0.113016
  37 H :    0.108469
  38 H :    0.119943
  39 H :    0.114758
  40 H :    0.115749
Sum of atomic charges:    0.0000000

LOEWDIN ATOMIC CHARGES
----------------------
   0 C :   -0.370297
   1 C :   -0.117241
   2 O :   -0.242418
   3 P :    0.575226
   4 S :   -0.309054
   5 O :   -0.231422
   6 C :   -0.117666
   7 C :   -0.368609
   8 S :    0.071900
   9 C :   -0.492112
  10 S :    0.102825
  11 P :    0.571920
  12 S :   -0.309011
  13 O :   -0.242822
  14 C :   -0.111673
  15 C :   -0.365507
  16 O :   -0.243324
  17 C :   -0.126534
  18 C :   -0.358969
  19 H :    0.122262
  20 H :    0.121964
  21 H :    0.131566
  22 H :    0.113543
  23 H :    0.118505
  24 H :    0.122950
  25 H :    0.108538
  26 H :    0.128913
  27 H :    0.129379
  28 H :    0.114925
  29 H :    0.127619
  30 H :    0.129069
  31 H :    0.109715
  32 H :    0.123097
  33 H :    0.131701
  34 H :    0.122019
  35 H :    0.129895
  36 H :    0.105422
  37 H :    0.113796
  38 H :    0.124208
  39 H :    0.132741
  40 H :    0.122961

  Mayer bond orders larger than 0.100000
B(  0-C ,  1-C ) :   1.1656 B(  0-C , 19-H ) :   0.9450 B(  0-C , 20-H ) :   0.9347
B(  0-C , 21-H ) :   0.9373 B(  1-C ,  2-O ) :   0.9050 B(  1-C , 22-H ) :   0.9162
B(  1-C , 23-H ) :   0.9340 B(  2-O ,  3-P ) :   1.0927 B(  3-P ,  4-S ) :   1.6257
B(  3-P ,  5-O ) :   1.1553 B(  3-P ,  8-S ) :   0.9280 B(  4-S ,  8-S ) :   0.1071
B(  5-O ,  6-C ) :   0.8949 B(  6-C ,  7-C ) :   1.1728 B(  6-C , 24-H ) :   0.9330
B(  6-C , 25-H ) :   0.9031 B(  7-C , 26-H ) :   0.9404 B(  7-C , 27-H ) :   0.9348
B(  7-C , 28-H ) :   0.9308 B(  8-S ,  9-C ) :   0.9992 B(  9-C , 10-S ) :   1.0069
B(  9-C , 29-H ) :   0.8672 B(  9-C , 30-H ) :   0.8677 B( 10-S , 11-P ) :   0.9684
B( 10-S , 12-S ) :   0.1091 B( 11-P , 12-S ) :   1.6067 B( 11-P , 13-O ) :   1.1316
B( 11-P , 16-O ) :   1.0648 B( 13-O , 14-C ) :   0.9083 B( 14-C , 15-C ) :   1.1643
B( 14-C , 31-H ) :   0.9220 B( 14-C , 32-H ) :   0.9349 B( 15-C , 33-H ) :   0.9452
B( 15-C , 34-H ) :   0.9324 B( 15-C , 35-H ) :   0.9379 B( 16-O , 17-C ) :   0.8967
B( 17-C , 18-C ) :   1.1645 B( 17-C , 36-H ) :   0.9013 B( 17-C , 37-H ) :   0.9254
B( 18-C , 38-H ) :   0.9400 B( 18-C , 39-H ) :   0.9395 B( 18-C , 40-H ) :   0.9447

Dispersion correction           -0.066314968
FINAL SINGLE POINT ENERGY     -2929.521689443917

DIPOLE MOMENT
-------------

Method             : SCF
Type of density    : Electron Density
Multiplicity       :   1
Irrep              :   0
Energy             : -2929.6417678707516643 Eh
Relativity type    :
Basis              : AO
                                X                 Y                 Z
Electronic contribution:      9.234328824      19.656343702      -7.160857869
Nuclear contribution   :     -9.926115559     -21.467481429       8.248594761
                        -----------------------------------------
Total Dipole Moment    :     -0.691786735      -1.811137727       1.087736892
                        -----------------------------------------
Magnitude (a.u.)       :      2.223052024
Magnitude (Debye)      :      5.650549187

Rotational constants in cm-1:             0.014137             0.004604             0.004392
Rotational constants in MHz :           423.803983           138.030672           131.676484

                             ****ORCA TERMINATED NORMALLY****
TOTAL RUN TIME: 0 days 0 hours 0 minutes 21 seconds 495 msec
